; cysteine_GMX_OPLS.top created by acpype (v: 2023.10.27) on Mon Feb  9 17:39:31 2026

; Include forcefield parameters
#include "ffoplsaa.itp"

; Include cysteine_GMX.itp topology
#include "cysteine_GMX.itp"

; Ligand position restraints
#ifdef POSRES_LIG
#include "posre_cysteine.itp"
#endif

[ system ]
 cysteine

[ molecules ]
; Compound        nmols
 cysteine         1     
