5862
    14
   2.2270000   1.1230000   0.0440000  -1.3650000   1.1720000   0.9120000
  -1.1770000   0.4960000  -1.2450000  -0.4350000  -1.9830000   0.1590000
   0.1260000  -0.6590000   0.4340000   1.4920000  -0.5190000  -0.2400000
  -0.8690000   0.3720000  -0.0650000   0.2370000  -0.5510000   1.5200000
   2.1890000  -1.2700000   0.1480000   1.4160000  -0.6630000  -1.3230000
  -1.2940000  -2.1080000   0.6950000   0.2090000  -2.7020000   0.4860000
   1.3390000   1.8240000  -0.6760000  -1.9920000   1.8370000   0.5570000
