cysteine_GMX.gro created by acpype (v: 2023.10.27) on Mon Feb  9 17:39:31 2026
 14
    1  CYS   SG    1   0.223   0.112   0.004
    1  CYS    O    2  -0.137   0.117   0.091
    1  CYS  OXT    3  -0.118   0.050  -0.125
    1  CYS    N    4  -0.044  -0.198   0.016
    1  CYS   CA    5   0.013  -0.066   0.043
    1  CYS   CB    6   0.149  -0.052  -0.024
    1  CYS    C    7  -0.087   0.037  -0.007
    1  CYS   HA    8   0.024  -0.055   0.152
    1  CYS  HB1    9   0.219  -0.127   0.015
    1  CYS  HB2   10   0.142  -0.066  -0.132
    1  CYS   H1   11  -0.129  -0.211   0.069
    1  CYS   H2   12   0.021  -0.270   0.049
    1  CYS   HG   13   0.134   0.182  -0.068
    1  CYS    H   14  -0.199   0.184   0.056
    8.43800     9.07800     5.68600
