; cysteine_GMX.itp created by acpype (v: 2023.10.27) on Mon Feb  9 17:39:31 2026

[ atomtypes ]
;name   bond_type     mass     charge   ptype   sigma         epsilon       Amb
 sh       sh          0.00000  0.00000   A     3.53241e-01   1.18156e+00 ; 1.98  0.2824
 oh       oh          0.00000  0.00000   A     3.24287e-01   3.89112e-01 ; 1.82  0.0930
 o        o           0.00000  0.00000   A     3.04812e-01   6.12119e-01 ; 1.71  0.1463
 n8       n8          0.00000  0.00000   A     3.65019e-01   1.35143e-01 ; 2.05  0.0323
 c3       c3          0.00000  0.00000   A     3.39771e-01   4.51035e-01 ; 1.91  0.1078
 c        c           0.00000  0.00000   A     3.31521e-01   4.13379e-01 ; 1.86  0.0988
 h1       h1          0.00000  0.00000   A     2.42200e-01   8.70272e-02 ; 1.36  0.0208
 hn       hn          0.00000  0.00000   A     1.10650e-01   4.18400e-02 ; 0.62  0.0100
 hs       hs          0.00000  0.00000   A     1.08903e-01   5.18816e-02 ; 0.61  0.0124
 ho       ho          0.00000  0.00000   A     5.37925e-02   1.96648e-02 ; 0.30  0.0047

[ moleculetype ]
;name            nrexcl
 cysteine         3

[ atoms ]
;   nr  type  resi  res  atom  cgnr     charge      mass       ; qtot   bond_type
     1   sh     1   CYS    SG    1    -0.377900     32.06000 ; qtot -0.378
     2   oh     1   CYS     O    2    -0.607100     16.00000 ; qtot -0.985
     3    o     1   CYS   OXT    3    -0.550000     16.00000 ; qtot -1.535
     4   n8     1   CYS     N    4    -0.909800     14.01000 ; qtot -2.445
     5   c3     1   CYS    CA    5     0.136500     12.01000 ; qtot -2.308
     6   c3     1   CYS    CB    6     0.000700     12.01000 ; qtot -2.308
     7    c     1   CYS     C    7     0.637100     12.01000 ; qtot -1.671
     8   h1     1   CYS    HA    8     0.063700      1.00800 ; qtot -1.607
     9   h1     1   CYS   HB1    9     0.094200      1.00800 ; qtot -1.513
    10   h1     1   CYS   HB2   10     0.094200      1.00800 ; qtot -1.418
    11   hn     1   CYS    H1   11     0.370300      1.00800 ; qtot -1.048
    12   hn     1   CYS    H2   12     0.370300      1.00800 ; qtot -0.678
    13   hs     1   CYS    HG   13     0.227800      1.00800 ; qtot -0.450
    14   ho     1   CYS     H   14     0.450000      1.00800 ; qtot 0.000

[ bonds ]
;   ai     aj funct   r             k
     1      6   1    1.8446e-01    1.5307e+05 ;     SG - CB    
     1     13   1    1.3503e-01    2.3222e+05 ;     SG - HG    
     2      7   1    1.3556e-01    3.0064e+05 ;      O - C     
     2     14   1    9.7250e-02    4.4811e+05 ;      O - H     
     3      7   1    1.2190e-01    4.9421e+05 ;    OXT - C     
     4      5   1    1.4651e-01    2.1239e+05 ;      N - CA    
     4     11   1    1.0192e-01    3.8550e+05 ;      N - H1    
     4     12   1    1.0192e-01    3.8550e+05 ;      N - H2    
     5      6   1    1.5354e-01    1.9154e+05 ;     CA - CB    
     5      7   1    1.5270e-01    1.9652e+05 ;     CA - C     
     5      8   1    1.0969e-01    2.8804e+05 ;     CA - HA    
     6      9   1    1.0969e-01    2.8804e+05 ;     CB - HB1   
     6     10   1    1.0969e-01    2.8804e+05 ;     CB - HB2   

[ pairs ]
;   ai     aj    funct
     1      4      1 ;     SG - N     
     1      7      1 ;     SG - C     
     1      8      1 ;     SG - HA    
     2      4      1 ;      O - N     
     2      6      1 ;      O - CB    
     2      8      1 ;      O - HA    
     3      4      1 ;    OXT - N     
     3      6      1 ;    OXT - CB    
     3      8      1 ;    OXT - HA    
     3     14      1 ;    OXT - H     
     4      9      1 ;      N - HB1   
     4     10      1 ;      N - HB2   
     5     14      1 ;     CA - H     
     6     11      1 ;     CB - H1    
     6     12      1 ;     CB - H2    
     7      9      1 ;      C - HB1   
     7     10      1 ;      C - HB2   
     7     11      1 ;      C - H1    
     7     12      1 ;      C - H2    
     8      9      1 ;     HA - HB1   
     8     10      1 ;     HA - HB2   
     8     11      1 ;     HA - H1    
     8     12      1 ;     HA - H2    
    13      5      1 ;     HG - CA    
    13      9      1 ;     HG - HB1   
    13     10      1 ;     HG - HB2   

[ angles ]
;   ai     aj     ak    funct   theta         cth
     1      6      5      1    1.1330e+02    5.1840e+02 ;     SG - CB     - CA    
     1      6      9      1    1.0837e+02    3.5171e+02 ;     SG - CB     - HB1   
     1      6     10      1    1.0837e+02    3.5171e+02 ;     SG - CB     - HB2   
     2      7      3      1    1.2209e+02    8.5379e+02 ;      O - C      - OXT   
     2      7      5      1    1.1274e+02    6.4785e+02 ;      O - C      - CA    
     3      7      5      1    1.2290e+02    6.3973e+02 ;    OXT - C      - CA    
     4      5      6      1    1.1091e+02    5.4794e+02 ;      N - CA     - CB    
     4      5      7      1    1.1096e+02    5.4944e+02 ;      N - CA     - C     
     4      5      8      1    1.0812e+02    4.0342e+02 ;      N - CA     - HA    
     5      4     11      1    1.0961e+02    4.7003e+02 ;     CA - N      - H1    
     5      4     12      1    1.0961e+02    4.7003e+02 ;     CA - N      - H2    
     5      6      9      1    1.0959e+02    3.6217e+02 ;     CA - CB     - HB1   
     5      6     10      1    1.0959e+02    3.6217e+02 ;     CA - CB     - HB2   
     6      1     13      1    9.6410e+01    5.5957e+02 ;     CB - SG     - HG    
     6      5      7      1    1.1143e+02    5.0509e+02 ;     CB - CA     - C     
     6      5      8      1    1.0959e+02    3.6217e+02 ;     CB - CA     - HA    
     7      2     14      1    1.0654e+02    5.7287e+02 ;      C - O      - H     
     7      5      8      1    1.0837e+02    3.6602e+02 ;      C - CA     - HA    
     9      6     10      1    1.0855e+02    2.9824e+02 ;    HB1 - CB     - HB2   
    11      4     12      1    1.0638e+02    4.0074e+02 ;     H1 - N      - H2    

[ dihedrals ] ; propers
; for gromacs 4.5 or higher, using funct 9
;    i      j      k      l   func   phase     kd      pn
     1      6      5      4      9     0.00   0.65084   3 ;     SG-    CB-    CA-     N
     1      6      5      7      9     0.00   0.65084   3 ;     SG-    CB-    CA-     C
     1      6      5      8      9     0.00   0.65084   3 ;     SG-    CB-    CA-    HA
     2      7      5      4      9   180.00   0.00000   2 ;      O-     C-    CA-     N
     2      7      5      6      9   180.00   0.00000   2 ;      O-     C-    CA-    CB
     2      7      5      8      9   180.00   0.00000   2 ;      O-     C-    CA-    HA
     3      7      2     14      9     0.00   7.94960   1 ;    OXT-     C-     O-     H
     3      7      2     14      9   180.00   9.62320   2 ;    OXT-     C-     O-     H
     3      7      5      4      9   180.00   0.00000   2 ;    OXT-     C-    CA-     N
     3      7      5      6      9     0.00   2.84512   1 ;    OXT-     C-    CA-    CB
     3      7      5      6      9   180.00   0.83680   2 ;    OXT-     C-    CA-    CB
     3      7      5      6      9   180.00   1.84096   3 ;    OXT-     C-    CA-    CB
     3      7      5      8      9     0.00   3.34720   1 ;    OXT-     C-    CA-    HA
     3      7      5      8      9   180.00   0.33472   3 ;    OXT-     C-    CA-    HA
     4      5      6      9      9     0.00   0.65084   3 ;      N-    CA-    CB-   HB1
     4      5      6     10      9     0.00   0.65084   3 ;      N-    CA-    CB-   HB2
     5      7      2     14      9   180.00   7.53120   2 ;     CA-     C-     O-     H
     6      5      4     11      9   180.00   0.12552   3 ;     CB-    CA-     N-    H1
     6      5      4     12      9   180.00   0.12552   3 ;     CB-    CA-     N-    H2
     7      5      4     11      9     0.00   1.25520   3 ;      C-    CA-     N-    H1
     7      5      4     12      9     0.00   1.25520   3 ;      C-    CA-     N-    H2
     7      5      6      9      9     0.00   0.65084   3 ;      C-    CA-    CB-   HB1
     7      5      6     10      9     0.00   0.65084   3 ;      C-    CA-    CB-   HB2
     8      5      4     11      9     0.00   1.25520   3 ;     HA-    CA-     N-    H1
     8      5      4     12      9     0.00   1.25520   3 ;     HA-    CA-     N-    H2
     8      5      6      9      9     0.00   0.65084   3 ;     HA-    CA-    CB-   HB1
     8      5      6     10      9     0.00   0.65084   3 ;     HA-    CA-    CB-   HB2
    13      1      6      5      9     0.00   1.04600   3 ;     HG-    SG-    CB-    CA
    13      1      6      9      9     0.00   0.59831   3 ;     HG-    SG-    CB-   HB1
    13      1      6     10      9     0.00   0.59831   3 ;     HG-    SG-    CB-   HB2

[ dihedrals ] ; impropers
; treated as propers in GROMACS to use correct AMBER analytical function
;    i      j      k      l   func   phase     kd      pn
     5      3      7      2      4   180.00   4.60240   2 ;     CA-   OXT-     C-     O
