theophylline_GMX.gro created by acpype (v: 2023.10.27) on Mon Feb  9 17:59:56 2026
 21
    1  UNL    O    1  -0.046   0.272   0.000
    1  UNL   O1    2  -0.247  -0.152  -0.000
    1  UNL    N    3  -0.015  -0.141   0.000
    1  UNL   N1    4  -0.149   0.060  -0.000
    1  UNL   N2    5   0.214   0.125  -0.000
    1  UNL   N3    6   0.228  -0.098   0.000
    1  UNL    C    7   0.097  -0.058  -0.000
    1  UNL   C1    8   0.085   0.078  -0.000
    1  UNL   C2    9  -0.039   0.149  -0.000
    1  UNL   C3   10  -0.144  -0.084  -0.000
    1  UNL   C4   11   0.003  -0.286   0.000
    1  UNL   C5   12  -0.283   0.119   0.000
    1  UNL   C6   13   0.296   0.015   0.000
    1  UNL    H   14   0.243   0.222   0.000
    1  UNL   H1   15   0.058  -0.315  -0.090
    1  UNL   H2   16  -0.094  -0.338   0.000
    1  UNL   H3   17   0.058  -0.315   0.090
    1  UNL   H4   18  -0.280   0.228   0.000
    1  UNL   H5   19  -0.337   0.084   0.089
    1  UNL   H6   20  -0.337   0.084  -0.089
    1  UNL   H7   21   0.404   0.024   0.000
   14.80600    12.18600     3.58000
