; theophylline_GMX_OPLS.itp created by acpype (v: 2023.10.27) on Mon Feb  9 17:59:56 2026

; For OPLS atomtypes manual fine tuning
; AC_at:OPLS_at:OPLScode: Possible_Alternatives (see ffoplsaa.atp and ffoplsaanb.itp)
; o:O:opls_236: ['272']
; n:N:opls_237: ['238', '239']
; na:NA:opls_503: ['512']
; nc:NB:opls_511: []
; cc:C*:opls_500: ['506', '507', '508', '514']
; cd:C*:opls_500: ['506', '507', '508', '514']
; c:C:opls_235: ['271']
; c3:CT:opls_135: ['136', '137', '149', '157', '158', '206', '209', '210', '223B', '224B', '245', '246', '274', '283', '284', '285', '292', '292B', '293B', '296', '307', '308', '505']
; hn:H:opls_240: ['241', '290', '301', '304', '310', '504', '513']
; h1:HC:opls_140: []
; h5:HA:opls_146: []

[ moleculetype ]
;name            nrexcl
 theophylline     3

[ atoms ]
;   nr  type  resi  res  atom  cgnr     charge      mass       ; qtot   bond_type
     1 opls_236     1   UNL     O    1    -0.624500     15.99940 ; qtot -0.625  O   
     2 opls_236     1   UNL    O1    2    -0.635500     15.99940 ; qtot -1.260  O   
     3 opls_237     1   UNL     N    3    -0.417300     14.00670 ; qtot -1.677  N   
     4 opls_237     1   UNL    N1    4    -0.484400     14.00670 ; qtot -2.162  N   
     5 opls_503     1   UNL    N2    5    -0.266900     14.00670 ; qtot -2.429  NA  
     6 opls_511     1   UNL    N3    6    -0.684000     14.00670 ; qtot -3.113  NB  
     7 opls_500     1   UNL     C    7     0.487200     12.01100 ; qtot -2.625  C*  
     8 opls_500     1   UNL    C1    8    -0.353200     12.01100 ; qtot -2.979  C*  
     9 opls_235     1   UNL    C2    9     0.762100     12.01100 ; qtot -2.217  C   
    10 opls_235     1   UNL    C3   10     0.814501     12.01100 ; qtot -1.402  C   
    11 opls_135     1   UNL    C4   11     0.090300     12.01100 ; qtot -1.312  CT  
    12 opls_135     1   UNL    C5   12     0.080300     12.01100 ; qtot -1.231  CT  
    13 opls_500     1   UNL    C6   13     0.448400     12.01100 ; qtot -0.783  C*  
    14 opls_240     1   UNL     H   14     0.327700      1.00800 ; qtot -0.455  H   
    15 opls_140     1   UNL    H1   15     0.064033      1.00800 ; qtot -0.391  HC  
    16 opls_140     1   UNL    H2   16     0.064033      1.00800 ; qtot -0.327  HC  
    17 opls_140     1   UNL    H3   17     0.064033      1.00800 ; qtot -0.263  HC  
    18 opls_140     1   UNL    H4   18     0.063700      1.00800 ; qtot -0.200  HC  
    19 opls_140     1   UNL    H5   19     0.063700      1.00800 ; qtot -0.136  HC  
    20 opls_140     1   UNL    H6   20     0.063700      1.00800 ; qtot -0.072  HC  
    21 opls_146     1   UNL    H7   21     0.072100      1.00800 ; qtot -0.000  HA  

[ bonds ]
;   ai     aj funct   r             k
     1      9   1 ;    1.2190e-01    4.9421e+05 ;      O - C2          O - C     
     2     10   1 ;    1.2190e-01    4.9421e+05 ;     O1 - C3          O - C     
     3      7   1 ;    1.3837e-01    2.7753e+05 ;      N - C           N - C*    
     3     10   1 ;    1.3967e-01    2.6565e+05 ;      N - C3          N - C     
     3     11   1 ;    1.4643e-01    2.1293e+05 ;      N - C4          N - CT    
     4      9   1 ;    1.3967e-01    2.6565e+05 ;     N1 - C2          N - C     
     4     10   1 ;    1.3967e-01    2.6565e+05 ;     N1 - C3          N - C     
     4     12   1 ;    1.4643e-01    2.1293e+05 ;     N1 - C5          N - CT    
     5      8   1 ;    1.3830e-01    2.7819e+05 ;     N2 - C1         NA - C*    
     5     13   1 ;    1.3830e-01    2.7819e+05 ;     N2 - C6         NA - C*    
     5     14   1 ;    1.0095e-01    4.0315e+05 ;     N2 - H          NA - H     
     6      7   1 ;    1.3629e-01    2.9793e+05 ;     N3 - C          NB - C*    
     6     13   1 ;    1.3171e-01    3.4961e+05 ;     N3 - C6         NB - C*    
     7      8   1 ;    1.3730e-01    3.2321e+05 ;      C - C1         C* - C*    
     8      9   1 ;    1.4728e-01    2.3273e+05 ;     C1 - C2         C* - C     
    11     15   1 ;    1.0969e-01    2.8804e+05 ;     C4 - H1         CT - HC    
    11     16   1 ;    1.0969e-01    2.8804e+05 ;     C4 - H2         CT - HC    
    11     17   1 ;    1.0969e-01    2.8804e+05 ;     C4 - H3         CT - HC    
    12     18   1 ;    1.0969e-01    2.8804e+05 ;     C5 - H4         CT - HC    
    12     19   1 ;    1.0969e-01    2.8804e+05 ;     C5 - H5         CT - HC    
    12     20   1 ;    1.0969e-01    2.8804e+05 ;     C5 - H6         CT - HC    
    13     21   1 ;    1.0821e-01    3.0695e+05 ;     C6 - H7         C* - HA    

[ pairs ]
;   ai     aj    funct
     1      5      1 ;      O - N2    
     1      7      1 ;      O - C     
     1     10      1 ;      O - C3    
     1     12      1 ;      O - C5    
     2      7      1 ;     O1 - C     
     2      9      1 ;     O1 - C2    
     2     11      1 ;     O1 - C4    
     2     12      1 ;     O1 - C5    
     3      5      1 ;      N - N2    
     3      9      1 ;      N - C2    
     3     12      1 ;      N - C5    
     3     13      1 ;      N - C6    
     4      5      1 ;     N1 - N2    
     4      7      1 ;     N1 - C     
     4     11      1 ;     N1 - C4    
     6      9      1 ;     N3 - C2    
     6     10      1 ;     N3 - C3    
     6     11      1 ;     N3 - C4    
     6     14      1 ;     N3 - H     
     7     14      1 ;      C - H     
     7     15      1 ;      C - H1    
     7     16      1 ;      C - H2    
     7     17      1 ;      C - H3    
     7     21      1 ;      C - H7    
     8     10      1 ;     C1 - C3    
     8     11      1 ;     C1 - C4    
     8     12      1 ;     C1 - C5    
     8     21      1 ;     C1 - H7    
     9     13      1 ;     C2 - C6    
     9     14      1 ;     C2 - H     
     9     18      1 ;     C2 - H4    
     9     19      1 ;     C2 - H5    
     9     20      1 ;     C2 - H6    
    10     15      1 ;     C3 - H1    
    10     16      1 ;     C3 - H2    
    10     17      1 ;     C3 - H3    
    10     18      1 ;     C3 - H4    
    10     19      1 ;     C3 - H5    
    10     20      1 ;     C3 - H6    
    14     21      1 ;      H - H7    

[ angles ]
;   ai     aj     ak    funct   theta         cth
     1      9      4      1 ;    1.2257e+02    7.2534e+02 ;      O - C2   - N1        O -    C - N   
     1      9      8      1 ;    1.2371e+02    6.5530e+02 ;      O - C2   - C1        O -    C - C*  
     2     10      3      1 ;    1.2257e+02    7.2534e+02 ;     O1 - C3   - N         O -    C - N   
     2     10      4      1 ;    1.2257e+02    7.2534e+02 ;     O1 - C3   - N1        O -    C - N   
     3      7      6      1 ;    1.2267e+02    6.0476e+02 ;      N - C    - N3        N -   C* - NB  
     3      7      8      1 ;    1.2220e+02    5.6877e+02 ;      N - C    - C1        N -   C* - C*  
     3     10      4      1 ;    1.1617e+02    6.1112e+02 ;      N - C3   - N1        N -    C - N   
     3     11     15      1 ;    1.0876e+02    4.0242e+02 ;      N - C4   - H1        N -   CT - HC  
     3     11     16      1 ;    1.0876e+02    4.0242e+02 ;      N - C4   - H2        N -   CT - HC  
     3     11     17      1 ;    1.0876e+02    4.0242e+02 ;      N - C4   - H3        N -   CT - HC  
     4      9      8      1 ;    1.1259e+02    5.6844e+02 ;     N1 - C2   - C1        N -    C - C*  
     4     12     18      1 ;    1.0876e+02    4.0242e+02 ;     N1 - C5   - H4        N -   CT - HC  
     4     12     19      1 ;    1.0876e+02    4.0242e+02 ;     N1 - C5   - H5        N -   CT - HC  
     4     12     20      1 ;    1.0876e+02    4.0242e+02 ;     N1 - C5   - H6        N -   CT - HC  
     5      8      7      1 ;    1.0899e+02    6.0241e+02 ;     N2 - C1   - C        NA -   C* - C*  
     5      8      9      1 ;    1.2513e+02    5.4149e+02 ;     N2 - C1   - C2       NA -   C* - C   
     5     13      6      1 ;    1.1302e+02    6.4024e+02 ;     N2 - C6   - N3       NA -   C* - NB  
     5     13     21      1 ;    1.2083e+02    4.0116e+02 ;     N2 - C6   - H7       NA -   C* - HA  
     6      7      8      1 ;    1.1799e+02    5.8325e+02 ;     N3 - C    - C1       NB -   C* - C*  
     6     13     21      1 ;    1.2529e+02    4.0911e+02 ;     N3 - C6   - H7       NB -   C* - HA  
     7      3     10      1 ;    1.2161e+02    6.5806e+02 ;      C - N    - C3       C* -    N - C   
     7      3     11      1 ;    1.2174e+02    6.4116e+02 ;      C - N    - C4       C* -    N - CT  
     7      6     13      1 ;    1.0915e+02    7.2032e+02 ;      C - N3   - C6       C* -   NB - C*  
     7      8      9      1 ;    1.2132e+02    5.1965e+02 ;      C - C1   - C2       C* -   C* - C   
     8      5     13      1 ;    1.1090e+02    6.9279e+02 ;     C1 - N2   - C6       C* -   NA - C*  
     8      5     14      1 ;    1.2524e+02    4.6384e+02 ;     C1 - N2   - H        C* -   NA - H   
     9      4     10      1 ;    1.2521e+02    6.4559e+02 ;     C2 - N1   - C3        C -    N - C   
     9      4     12      1 ;    1.1883e+02    6.4634e+02 ;     C2 - N1   - C5        C -    N - CT  
    10      3     11      1 ;    1.1883e+02    6.4634e+02 ;     C3 - N    - C4        C -    N - CT  
    10      4     12      1 ;    1.1883e+02    6.4634e+02 ;     C3 - N1   - C5        C -    N - CT  
    13      5     14      1 ;    1.2524e+02    4.6384e+02 ;     C6 - N2   - H        C* -   NA - H   
    15     11     16      1 ;    1.0855e+02    2.9824e+02 ;     H1 - C4   - H2       HC -   CT - HC  
    15     11     17      1 ;    1.0855e+02    2.9824e+02 ;     H1 - C4   - H3       HC -   CT - HC  
    16     11     17      1 ;    1.0855e+02    2.9824e+02 ;     H2 - C4   - H3       HC -   CT - HC  
    18     12     19      1 ;    1.0855e+02    2.9824e+02 ;     H4 - C5   - H5       HC -   CT - HC  
    18     12     20      1 ;    1.0855e+02    2.9824e+02 ;     H4 - C5   - H6       HC -   CT - HC  
    19     12     20      1 ;    1.0855e+02    2.9824e+02 ;     H5 - C5   - H6       HC -   CT - HC  

[ dihedrals ] ; propers
; for gromacs 4.5 or higher, using funct 9
;    i      j      k      l   func   phase     kd      pn
     1      9      4     10      9 ;   180.00  10.46000   2 ;      O-    C2-    N1-    C3
     1      9      4     12      9 ;   180.00  10.46000   2 ;      O-    C2-    N1-    C5
     1      9      8      5      9 ;   180.00  12.02900   2 ;      O-    C2-    C1-    N2
     1      9      8      7      9 ;   180.00  12.02900   2 ;      O-    C2-    C1-     C
     2     10      3      7      9 ;   180.00  10.46000   2 ;     O1-    C3-     N-     C
     2     10      3     11      9 ;   180.00  10.46000   2 ;     O1-    C3-     N-    C4
     2     10      4      9      9 ;   180.00  10.46000   2 ;     O1-    C3-    N1-    C2
     2     10      4     12      9 ;   180.00  10.46000   2 ;     O1-    C3-    N1-    C5
     3      7      6     13      9 ;   180.00  19.87400   2 ;      N-     C-    N3-    C6
     3      7      8      5      9 ;   180.00  16.73600   2 ;      N-     C-    C1-    N2
     3      7      8      9      9 ;   180.00  16.73600   2 ;      N-     C-    C1-    C2
     3     10      4      9      9 ;   180.00  10.46000   2 ;      N-    C3-    N1-    C2
     3     10      4     12      9 ;   180.00  10.46000   2 ;      N-    C3-    N1-    C5
     4      9      8      5      9 ;   180.00  12.02900   2 ;     N1-    C2-    C1-    N2
     4      9      8      7      9 ;   180.00  12.02900   2 ;     N1-    C2-    C1-     C
     4     10      3      7      9 ;   180.00  10.46000   2 ;     N1-    C3-     N-     C
     4     10      3     11      9 ;   180.00  10.46000   2 ;     N1-    C3-     N-    C4
     5      8      7      6      9 ;   180.00  16.73600   2 ;     N2-    C1-     C-    N3
     5     13      6      7      9 ;   180.00  19.87400   2 ;     N2-    C6-    N3-     C
     6      7      3     10      9 ;   180.00   6.90360   2 ;     N3-     C-     N-    C3
     6      7      3     11      9 ;   180.00   6.90360   2 ;     N3-     C-     N-    C4
     6      7      8      9      9 ;   180.00  16.73600   2 ;     N3-     C-    C1-    C2
     6     13      5      8      9 ;   180.00   7.11280   2 ;     N3-    C6-    N2-    C1
     6     13      5     14      9 ;   180.00   7.11280   2 ;     N3-    C6-    N2-     H
     7      3     11     15      9 ;     0.00   0.00000   0 ;      C-     N-    C4-    H1
     7      3     11     16      9 ;     0.00   0.00000   0 ;      C-     N-    C4-    H2
     7      3     11     17      9 ;     0.00   0.00000   0 ;      C-     N-    C4-    H3
     7      6     13     21      9 ;   180.00  19.87400   2 ;      C-    N3-    C6-    H7
     7      8      5     13      9 ;   180.00   7.11280   2 ;      C-    C1-    N2-    C6
     7      8      5     14      9 ;   180.00   7.11280   2 ;      C-    C1-    N2-     H
     8      5     13     21      9 ;   180.00   7.11280   2 ;     C1-    N2-    C6-    H7
     8      7      3     10      9 ;   180.00   6.90360   2 ;     C1-     C-     N-    C3
     8      7      3     11      9 ;   180.00   6.90360   2 ;     C1-     C-     N-    C4
     8      7      6     13      9 ;   180.00  19.87400   2 ;     C1-     C-    N3-    C6
     8      9      4     10      9 ;   180.00  10.46000   2 ;     C1-    C2-    N1-    C3
     8      9      4     12      9 ;   180.00  10.46000   2 ;     C1-    C2-    N1-    C5
     9      4     12     18      9 ;   180.00   0.00000   2 ;     C2-    N1-    C5-    H4
     9      4     12     19      9 ;   180.00   0.00000   2 ;     C2-    N1-    C5-    H5
     9      4     12     20      9 ;   180.00   0.00000   2 ;     C2-    N1-    C5-    H6
     9      8      5     13      9 ;   180.00   7.11280   2 ;     C2-    C1-    N2-    C6
     9      8      5     14      9 ;   180.00   7.11280   2 ;     C2-    C1-    N2-     H
    10      3     11     15      9 ;   180.00   0.00000   2 ;     C3-     N-    C4-    H1
    10      3     11     16      9 ;   180.00   0.00000   2 ;     C3-     N-    C4-    H2
    10      3     11     17      9 ;   180.00   0.00000   2 ;     C3-     N-    C4-    H3
    10      4     12     18      9 ;   180.00   0.00000   2 ;     C3-    N1-    C5-    H4
    10      4     12     19      9 ;   180.00   0.00000   2 ;     C3-    N1-    C5-    H5
    10      4     12     20      9 ;   180.00   0.00000   2 ;     C3-    N1-    C5-    H6
    14      5     13     21      9 ;   180.00   7.11280   2 ;      H-    N2-    C6-    H7

[ dihedrals ] ; impropers
; treated as propers in GROMACS to use correct AMBER analytical function
;    i      j      k      l   func   phase     kd      pn
     1      9      4      8      4 ;   180.00  43.93200   2 ;      O-    C2-    N1-    C1
     3      4     10      2      4 ;   180.00  43.93200   2 ;      N-    N1-    C3-    O1
     8      3      7      6      4 ;   180.00   4.60240   2 ;     C1-     N-     C-    N3
     8     13      5     14      4 ;   180.00   4.60240   2 ;     C1-    C6-    N2-     H
     9      7      8      5      4 ;   180.00   4.60240   2 ;     C2-     C-    C1-    N2
     9     10      4     12      4 ;   180.00   4.60240   2 ;     C2-    C3-    N1-    C5
    10     11      3      7      4 ;   180.00   4.60240   2 ;     C3-    C4-     N-     C
    21      5     13      6      4 ;   180.00   4.60240   2 ;     H7-    N2-    C6-    N3
