2153
    21
  -0.4590000   2.7180000   0.0000000  -2.4700000  -1.5250000  -0.0000000
  -0.1460000  -1.4090000   0.0000000  -1.4930000   0.6040000  -0.0000000
   2.1380000   1.2470000  -0.0000000   2.2770000  -0.9780000   0.0000000
   0.9680000  -0.5800000  -0.0000000   0.8540000   0.7840000  -0.0010000
  -0.3850000   1.4930000  -0.0010000  -1.4420000  -0.8370000  -0.0000000
   0.0270000  -2.8570000   0.0000000  -2.8290000   1.1900000   0.0010000
   2.9590000   0.1490000   0.0010000   2.4320000   2.2150000   0.0000000
   0.5850000  -3.1480000  -0.8950000  -0.9350000  -3.3750000   0.0010000
   0.5850000  -3.1480000   0.8950000  -2.8040000   2.2830000   0.0010000
  -3.3650000   0.8410000   0.8890000  -3.3670000   0.8410000  -0.8860000
   4.0360000   0.2410000   0.0010000
