%VERSION  VERSION_STAMP = V0001.000  DATE = 02/09/26  17:59:57                  
%FLAG TITLE                                                                     
%FORMAT(20a4)                                                                   
2153                                                                            
%FLAG POINTERS                                                                  
%FORMAT(10I8)                                                                   
      21       9       8      14      16      21      20      36       0       0
     102       1      14      21      36      12      22      10      11       0
       0       0       0       0       0       0       0       0      21       0
       0
%FLAG ATOM_NAME                                                                 
%FORMAT(20a4)                                                                   
O   O1  N   N1  N2  N3  C   C1  C2  C3  C4  C5  C6  H   H1  H2  H3  H4  H5  H6  
H7  
%FLAG CHARGE                                                                    
%FORMAT(5E16.8)                                                                 
 -1.13798264E+01 -1.15802717E+01 -7.60416579E+00 -8.82688212E+00 -4.86353187E+00
 -1.24640532E+01  8.87790456E+00 -6.43611636E+00  1.38872148E+01  1.48420634E+01
  1.64547369E+00  1.46325069E+00  8.17087932E+00  5.97144771E+00  1.16682854E+00
  1.16682854E+00  1.16682854E+00  1.16076051E+00  1.16076051E+00  1.16076051E+00
  1.31382783E+00
%FLAG ATOMIC_NUMBER                                                             
%FORMAT(10I8)                                                                   
       8       8       7       7       7       7       6       6       6       6
       6       6       6       1       1       1       1       1       1       1
       1
%FLAG MASS                                                                      
%FORMAT(5E16.8)                                                                 
  1.60000000E+01  1.60000000E+01  1.40100000E+01  1.40100000E+01  1.40100000E+01
  1.40100000E+01  1.20100000E+01  1.20100000E+01  1.20100000E+01  1.20100000E+01
  1.20100000E+01  1.20100000E+01  1.20100000E+01  1.00800000E+00  1.00800000E+00
  1.00800000E+00  1.00800000E+00  1.00800000E+00  1.00800000E+00  1.00800000E+00
  1.00800000E+00
%FLAG ATOM_TYPE_INDEX                                                           
%FORMAT(10I8)                                                                   
       1       1       2       2       3       4       5       5       5       5
       6       6       5       7       8       8       8       8       8       8
       9
%FLAG NUMBER_EXCLUDED_ATOMS                                                     
%FORMAT(10I8)                                                                   
       7       7      13      10       7       8      10       7       7       8
       3       3       2       1       2       1       1       2       1       1
       1
%FLAG NONBONDED_PARM_INDEX                                                      
%FORMAT(10I8)                                                                   
       1       2       4       7      11      16      22      29      37       2
       3       5       8      12      17      23      30      38       4       5
       6       9      13      18      24      31      39       7       8       9
      10      14      19      25      32      40      11      12      13      14
      15      20      26      33      41      16      17      18      19      20
      21      27      34      42      22      23      24      25      26      27
      28      35      43      29      30      31      32      33      34      35
      36      44      37      38      39      40      41      42      43      44
      45
%FLAG RESIDUE_LABEL                                                             
%FORMAT(20a4)                                                                   
UNL 
%FLAG RESIDUE_POINTER                                                           
%FORMAT(10I8)                                                                   
       1
%FLAG BOND_FORCE_CONSTANT                                                       
%FORMAT(5E16.8)                                                                 
  5.90600000E+02  3.31660000E+02  3.17460000E+02  2.54460000E+02  3.32450000E+02
  4.81770000E+02  3.56030000E+02  4.17790000E+02  3.86240000E+02  2.78120000E+02
  3.44220000E+02  3.66810000E+02
%FLAG BOND_EQUIL_VALUE                                                          
%FORMAT(5E16.8)                                                                 
  1.21900000E+00  1.38370000E+00  1.39670000E+00  1.46430000E+00  1.38300000E+00
  1.00950000E+00  1.36290000E+00  1.31710000E+00  1.37300000E+00  1.47280000E+00
  1.09690000E+00  1.08210000E+00
%FLAG ANGLE_FORCE_CONSTANT                                                      
%FORMAT(5E16.8)                                                                 
  8.66800000E+01  7.83100000E+01  7.22700000E+01  6.79700000E+01  7.30300000E+01
  4.80900000E+01  6.79300000E+01  7.19900000E+01  6.47100000E+01  7.65100000E+01
  4.79400000E+01  6.97000000E+01  4.88900000E+01  7.86400000E+01  7.66200000E+01
  8.60800000E+01  6.21000000E+01  8.27900000E+01  5.54300000E+01  7.71500000E+01
  7.72400000E+01  3.56400000E+01
%FLAG ANGLE_EQUIL_VALUE                                                         
%FORMAT(5E16.8)                                                                 
  2.13925098E+00  2.15914774E+00  2.14099631E+00  2.13279326E+00  2.02754986E+00
  1.89822091E+00  1.96506705E+00  1.90223517E+00  2.18393143E+00  1.97257197E+00
  2.10888224E+00  2.05931487E+00  2.18672396E+00  2.12249581E+00  2.12476474E+00
  1.90502770E+00  2.11743436E+00  1.93557097E+00  2.18585129E+00  2.18532769E+00
  2.07397564E+00  1.89455572E+00
%FLAG DIHEDRAL_FORCE_CONSTANT                                                   
%FORMAT(5E16.8)                                                                 
  2.50000000E+00  2.87500000E+00  4.75000000E+00  4.00000000E+00  1.65000000E+00
  1.70000000E+00  0.00000000E+00  0.00000000E+00  1.10000000E+00  1.05000000E+01
%FLAG DIHEDRAL_PERIODICITY                                                      
%FORMAT(5E16.8)                                                                 
  2.00000000E+00  2.00000000E+00  2.00000000E+00  2.00000000E+00  2.00000000E+00
  2.00000000E+00  2.00000000E+00  2.00000000E+00  2.00000000E+00  2.00000000E+00
%FLAG DIHEDRAL_PHASE                                                            
%FORMAT(5E16.8)                                                                 
  3.14159400E+00  3.14159400E+00  3.14159400E+00  3.14159400E+00  3.14159400E+00
  3.14159400E+00  0.00000000E+00  3.14159400E+00  3.14159400E+00  3.14159400E+00
%FLAG SCEE_SCALE_FACTOR                                                         
%FORMAT(5E16.8)                                                                 
  1.20000000E+00  1.20000000E+00  1.20000000E+00  1.20000000E+00  1.20000000E+00
  1.20000000E+00  1.20000000E+00  1.20000000E+00  0.00000000E+00  0.00000000E+00
%FLAG SCNB_SCALE_FACTOR                                                         
%FORMAT(5E16.8)                                                                 
  2.00000000E+00  2.00000000E+00  2.00000000E+00  2.00000000E+00  2.00000000E+00
  2.00000000E+00  2.00000000E+00  2.00000000E+00  0.00000000E+00  0.00000000E+00
%FLAG SOLTY                                                                     
%FORMAT(5E16.8)                                                                 
  0.00000000E+00  0.00000000E+00  0.00000000E+00  0.00000000E+00  0.00000000E+00
  0.00000000E+00  0.00000000E+00  0.00000000E+00  0.00000000E+00  0.00000000E+00
  0.00000000E+00
%FLAG LENNARD_JONES_ACOEF                                                       
%FORMAT(5E16.8)                                                                 
  3.76435470E+05  5.15491878E+05  7.02078680E+05  6.04208667E+05  8.22085792E+05
  9.62429652E+05  5.74782316E+05  7.76656876E+05  9.08092643E+05  8.49322032E+05
  5.17507491E+05  7.01106848E+05  8.20152428E+05  7.69642101E+05  6.96551276E+05
  6.30925504E+05  8.52084164E+05  9.96191545E+05  9.31115275E+05  8.43969952E+05
  1.02073671E+06  9.87857350E+02  1.52360475E+03  1.82491629E+03  2.01475241E+03
  1.71458823E+03  2.23577481E+03  1.34728399E-01  3.86646725E+04  5.45183252E+04
  6.42436358E+04  6.34160397E+04  5.63013422E+04  6.97998263E+04  5.24570081E+01
  3.39005767E+03  3.59538577E+04  5.06296765E+04  5.96470418E+04  5.87815925E+04
  5.22195041E+04  6.46910138E+04  5.02830284E+01  3.17496391E+03  2.97255425E+03
%FLAG LENNARD_JONES_BCOEF                                                       
%FORMAT(5E16.8)                                                                 
  4.69350655E+02  5.64804067E+02  6.77820248E+02  6.46321327E+02  7.75261695E+02
  8.86629877E+02  5.19385932E+02  6.20851625E+02  7.09588248E+02  5.65406768E+02
  4.98871431E+02  5.97113873E+02  6.82622272E+02  5.44830041E+02  5.24668528E+02
  5.62969425E+02  6.72777963E+02  7.68900328E+02  6.12468585E+02  5.90251928E+02
  6.63431737E+02  1.22938581E+01  1.57004457E+01  1.81620725E+01  1.57231024E+01
  1.46824710E+01  1.71355763E+01  7.34107347E-02  9.23664132E+01  1.12788003E+02
  1.29412081E+02  1.05935811E+02  1.01040256E+02  1.14981426E+02  1.73959275E+00
  1.67944276E+01  8.35449674E+01  1.01949445E+02  1.16962018E+02  9.56653235E+01
  9.12729468E+01  1.03827676E+02  1.59752321E+00  1.52447987E+01  1.38359132E+01
%FLAG BONDS_INC_HYDROGEN                                                        
%FORMAT(10I8)                                                                   
      12      39       6      30      42      11      30      45      11      30
      48      11      33      51      11      33      54      11      33      57
      11      36      60      12
%FLAG BONDS_WITHOUT_HYDROGEN                                                    
%FORMAT(10I8)                                                                   
       0      24       1       3      27       1       6      18       2       6
      27       3       6      30       4       9      24       3       9      27
       3       9      33       4      12      21       5      12      36       5
      15      18       7      15      36       8      18      21       9      21
      24      10
%FLAG ANGLES_INC_HYDROGEN                                                       
%FORMAT(10I8)                                                                   
       6      30      42       6       6      30      45       6       6      30
      48       6       9      33      51       6       9      33      54       6
       9      33      57       6      12      36      60      11      15      36
      60      13      21      12      39      19      36      12      39      19
      42      30      45      22      42      30      48      22      45      30
      48      22      51      33      54      22      51      33      57      22
      54      33      57      22
%FLAG ANGLES_WITHOUT_HYDROGEN                                                   
%FORMAT(10I8)                                                                   
       0      24       9       1       0      24      21       2       3      27
       6       1       3      27       9       1       6      18      15       3
       6      18      21       4       6      27       9       5       9      24
      21       7      12      21      18       8      12      21      24       9
      12      36      15      10      15      18      21      12      18       6
      27      14      18       6      30      15      18      15      36      16
      18      21      24      17      21      12      36      18      24       9
      27      20      24       9      33      21      27       6      30      21
      27       9      33      21
%FLAG DIHEDRALS_INC_HYDROGEN                                                    
%FORMAT(10I8)                                                                   
      15      36      12      39       6      18       6      30      42       7
      18       6      30      45       7      18       6      30      48       7
      18      15      36      60       3      18      21      12      39       6
      21      12      36      60       6      24       9      33      51       8
      24       9      33      54       8      24       9      33      57       8
      24      21      12      39       6      27       6      30      42       8
      27       6      30      45       8      27       6      30      48       8
      27       9      33      51       8      27       9      33      54       8
      27       9      33      57       8      39      12      36      60       6
      21      36     -12     -39       9      60      12     -36     -15       9
%FLAG DIHEDRALS_WITHOUT_HYDROGEN                                                
%FORMAT(10I8)                                                                   
       0      24       9      27       1       0      24       9      33       1
       0      24      21      12       2       0      24      21      18       2
       3      27       6      18       1       3      27       6      30       1
       3      27       9      24       1       3      27       9      33       1
       6      18      15      36       3       6      18      21      12       4
       6      18      21      24       4       6      27      -9      24       1
       6      27       9      33       1       9      24      21      12       2
       9      24      21      18       2       9      27      -6      18       1
       9      27       6      30       1      12      21     -18      15       4
      12      36     -15      18       3      15      18       6      27       5
      15      18       6      30       5      15      18      21      24       4
      15      36     -12      21       6      18      21     -12      36       6
      21      18       6      27       5      21      18       6      30       5
      21      18     -15      36       3      21      24      -9      27       1
      21      24       9      33       1      24      21      12      36       6
      27      30      -6     -18       9      24      27      -9     -33       9
      21       6     -18     -15       9      24      18     -21     -12       9
       0      24      -9     -21      10       6       9     -27      -3      10
%FLAG EXCLUDED_ATOMS_LIST                                                       
%FORMAT(10I8)                                                                   
       4       5       7       8       9      10      12       3       4       7
       9      10      11      12       4       5       6       7       8       9
      10      11      12      13      15      16      17       5       7       8
       9      10      11      12      18      19      20       6       7       8
       9      13      14      21       7       8       9      10      11      13
      14      21       8       9      10      11      13      14      15      16
      17      21       9      10      11      12      13      14      21      10
      12      13      14      18      19      20      11      12      15      16
      17      18      19      20      15      16      17      18      19      20
      14      21      21      16      17      17       0      19      20      20
       0       0
%FLAG HBOND_ACOEF                                                               
%FORMAT(5E16.8)                                                                 

%FLAG HBOND_BCOEF                                                               
%FORMAT(5E16.8)                                                                 

%FLAG HBCUT                                                                     
%FORMAT(5E16.8)                                                                 

%FLAG AMBER_ATOM_TYPE                                                           
%FORMAT(20a4)                                                                   
o   o   n   n   na  nc  cc  cd  c   c   c3  c3  cd  hn  h1  h1  h1  h1  h1  h1  
h5  
%FLAG TREE_CHAIN_CLASSIFICATION                                                 
%FORMAT(20a4)                                                                   
BLA BLA BLA BLA BLA BLA BLA BLA BLA BLA BLA BLA BLA BLA BLA BLA BLA BLA BLA BLA 
BLA 
%FLAG JOIN_ARRAY                                                                
%FORMAT(10I8)                                                                   
       0       0       0       0       0       0       0       0       0       0
       0       0       0       0       0       0       0       0       0       0
       0
%FLAG IROTAT                                                                    
%FORMAT(10I8)                                                                   
       0       0       0       0       0       0       0       0       0       0
       0       0       0       0       0       0       0       0       0       0
       0
%FLAG RADIUS_SET                                                                
%FORMAT(1a80)                                                                   
modified Bondi radii (mbondi)                                                   
%FLAG RADII                                                                     
%FORMAT(5E16.8)                                                                 
  1.50000000E+00  1.50000000E+00  1.55000000E+00  1.55000000E+00  1.55000000E+00
  1.55000000E+00  1.70000000E+00  1.70000000E+00  1.70000000E+00  1.70000000E+00
  1.70000000E+00  1.70000000E+00  1.70000000E+00  1.30000000E+00  1.30000000E+00
  1.30000000E+00  1.30000000E+00  1.30000000E+00  1.30000000E+00  1.30000000E+00
  1.30000000E+00
%FLAG SCREEN                                                                    
%FORMAT(5E16.8)                                                                 
  8.50000000E-01  8.50000000E-01  7.90000000E-01  7.90000000E-01  7.90000000E-01
  7.90000000E-01  7.20000000E-01  7.20000000E-01  7.20000000E-01  7.20000000E-01
  7.20000000E-01  7.20000000E-01  7.20000000E-01  8.50000000E-01  8.50000000E-01
  8.50000000E-01  8.50000000E-01  8.50000000E-01  8.50000000E-01  8.50000000E-01
  8.50000000E-01
%FLAG IPOL                                                                      
%FORMAT(1I8)                                                                    
       0
