; theophylline_GMX_OPLS.top created by acpype (v: 2023.10.27) on Mon Feb  9 17:59:56 2026

; Include forcefield parameters
#include "ffoplsaa.itp"

; Include theophylline_GMX.itp topology
#include "theophylline_GMX.itp"

; Ligand position restraints
#ifdef POSRES_LIG
#include "posre_theophylline.itp"
#endif

[ system ]
 theophylline

[ molecules ]
; Compound        nmols
 theophylline     1     
