; thymidine_GMX.itp created by acpype (v: 2023.10.27) on Mon Feb  9 17:59:59 2026

[ atomtypes ]
;name   bond_type     mass     charge   ptype   sigma         epsilon       Amb
 os       os          0.00000  0.00000   A     3.15610e-01   3.03758e-01 ; 1.77  0.0726
 oh       oh          0.00000  0.00000   A     3.24287e-01   3.89112e-01 ; 1.82  0.0930
 o        o           0.00000  0.00000   A     3.04812e-01   6.12119e-01 ; 1.71  0.1463
 n        n           0.00000  0.00000   A     3.18086e-01   6.84502e-01 ; 1.79  0.1636
 ns       ns          0.00000  0.00000   A     3.26995e-01   4.91202e-01 ; 1.84  0.1174
 c5       c5          0.00000  0.00000   A     3.39771e-01   4.51035e-01 ; 1.91  0.1078
 c3       c3          0.00000  0.00000   A     3.39771e-01   4.51035e-01 ; 1.91  0.1078
 cc       cc          0.00000  0.00000   A     3.31521e-01   4.13379e-01 ; 1.86  0.0988
 c        c           0.00000  0.00000   A     3.31521e-01   4.13379e-01 ; 1.86  0.0988
 cd       cd          0.00000  0.00000   A     3.31521e-01   4.13379e-01 ; 1.86  0.0988
 h1       h1          0.00000  0.00000   A     2.42200e-01   8.70272e-02 ; 1.36  0.0208
 h2       h2          0.00000  0.00000   A     2.24382e-01   8.70272e-02 ; 1.26  0.0208
 hc       hc          0.00000  0.00000   A     2.60018e-01   8.70272e-02 ; 1.46  0.0208
 h4       h4          0.00000  0.00000   A     2.53639e-01   6.73624e-02 ; 1.42  0.0161
 ho       ho          0.00000  0.00000   A     5.37925e-02   1.96648e-02 ; 0.30  0.0047
 hn       hn          0.00000  0.00000   A     1.10650e-01   4.18400e-02 ; 0.62  0.0100

[ moleculetype ]
;name            nrexcl
 thymidine        3

[ atoms ]
;   nr  type  resi  res  atom  cgnr     charge      mass       ; qtot   bond_type
     1   os     1    T1   O4*    1    -0.391600     16.00000 ; qtot -0.392
     2   oh     1    T1   O3*    2    -0.588800     16.00000 ; qtot -0.980
     3   oh     1    T1   O5*    3    -0.589800     16.00000 ; qtot -1.570
     4    o     1    T1    O2    4    -0.655500     16.00000 ; qtot -2.226
     5    o     1    T1    O4    5    -0.611500     16.00000 ; qtot -2.837
     6    n     1    T1    N1    6    -0.401000     14.01000 ; qtot -3.238
     7   ns     1    T1    N3    7    -0.584500     14.01000 ; qtot -3.823
     8   c5     1    T1   C3*    8     0.115100     12.01000 ; qtot -3.708
     9   c5     1    T1   C1*    9     0.317500     12.01000 ; qtot -3.390
    10   c5     1    T1   C2*   10    -0.147400     12.01000 ; qtot -3.537
    11   c5     1    T1   C4*   11     0.132100     12.01000 ; qtot -3.405
    12   c3     1    T1   C5*   12     0.106400     12.01000 ; qtot -3.299
    13   cc     1    T1    C6   13     0.043600     12.01000 ; qtot -3.255
    14    c     1    T1    C2   14     0.806500     12.01000 ; qtot -2.449
    15   cd     1    T1    C5   15    -0.268400     12.01000 ; qtot -2.717
    16    c     1    T1    C4   16     0.715700     12.01000 ; qtot -2.002
    17   c3     1    T1   C5M   17    -0.027900     12.01000 ; qtot -2.029
    18   h1     1    T1   H3*   18     0.051700      1.00800 ; qtot -1.978
    19   h2     1    T1   H1*   19     0.101700      1.00800 ; qtot -1.876
    20   hc     1    T1  H2*1   20     0.086700      1.00800 ; qtot -1.789
    21   hc     1    T1  H2*2   21     0.086700      1.00800 ; qtot -1.703
    22   h1     1    T1   H4*   22     0.114700      1.00800 ; qtot -1.588
    23   h1     1    T1  H5*1   23     0.035200      1.00800 ; qtot -1.553
    24   h1     1    T1  H5*2   24     0.035200      1.00800 ; qtot -1.518
    25   h4     1    T1    H6   25     0.201000      1.00800 ; qtot -1.317
    26   ho     1    T1    H7   26     0.411000      1.00800 ; qtot -0.906
    27   hn     1    T1    H3   27     0.351500      1.00800 ; qtot -0.554
    28   ho     1    T1   H5*   28     0.405000      1.00800 ; qtot -0.149
    29   hc     1    T1  H5M1   29     0.049700      1.00800 ; qtot -0.099
    30   hc     1    T1  H5M2   30     0.049700      1.00800 ; qtot -0.050
    31   hc     1    T1  H5M3   31     0.049700      1.00800 ; qtot 0.000

[ bonds ]
;   ai     aj funct   r             k
     1      9   1    1.4346e-01    2.3063e+05 ;    O4* - C1*   
     1     11   1    1.4346e-01    2.3063e+05 ;    O4* - C4*   
     2      8   1    1.4194e-01    2.4241e+05 ;    O3* - C3*   
     2     26   1    9.7250e-02    4.4811e+05 ;    O3* - H7    
     3     12   1    1.4242e-01    2.3861e+05 ;    O5* - C5*   
     3     28   1    9.7250e-02    4.4811e+05 ;    O5* - H5*   
     4     14   1    1.2190e-01    4.9421e+05 ;     O2 - C2    
     5     16   1    1.2190e-01    4.9421e+05 ;     O4 - C4    
     6      9   1    1.4685e-01    2.1010e+05 ;     N1 - C1*   
     6     13   1    1.3837e-01    2.7753e+05 ;     N1 - C6    
     6     14   1    1.3967e-01    2.6565e+05 ;     N1 - C2    
     7     14   1    1.3798e-01    2.8122e+05 ;     N3 - C2    
     7     16   1    1.3798e-01    2.8122e+05 ;     N3 - C4    
     7     27   1    1.0132e-01    3.9630e+05 ;     N3 - H3    
     8     10   1    1.5483e-01    1.8418e+05 ;    C3* - C2*   
     8     11   1    1.5483e-01    1.8418e+05 ;    C3* - C4*   
     8     18   1    1.0972e-01    2.8768e+05 ;    C3* - H3*   
     9     10   1    1.5483e-01    1.8418e+05 ;    C1* - C2*   
     9     19   1    1.0955e-01    2.8977e+05 ;    C1* - H1*   
    10     20   1    1.0954e-01    2.8989e+05 ;    C2* - H2*1  
    10     21   1    1.0954e-01    2.8989e+05 ;    C2* - H2*2  
    11     12   1    1.5372e-01    1.9049e+05 ;    C4* - C5*   
    11     22   1    1.0972e-01    2.8768e+05 ;    C4* - H4*   
    12     23   1    1.0969e-01    2.8804e+05 ;    C5* - H5*1  
    12     24   1    1.0969e-01    2.8804e+05 ;    C5* - H5*2  
    13     15   1    1.3730e-01    3.2321e+05 ;     C6 - C5    
    13     25   1    1.0809e-01    3.0854e+05 ;     C6 - H6    
    15     16   1    1.4728e-01    2.3273e+05 ;     C5 - C4    
    15     17   1    1.5018e-01    2.1244e+05 ;     C5 - C5M   
    17     29   1    1.0962e-01    2.8891e+05 ;    C5M - H5M1  
    17     30   1    1.0962e-01    2.8891e+05 ;    C5M - H5M2  
    17     31   1    1.0962e-01    2.8891e+05 ;    C5M - H5M3  

[ pairs ]
;   ai     aj    funct
     1      2      1 ;    O4* - O3*   
     1      3      1 ;    O4* - O5*   
     1     13      1 ;    O4* - C6    
     1     14      1 ;    O4* - C2    
     1     18      1 ;    O4* - H3*   
     1     20      1 ;    O4* - H2*1  
     1     21      1 ;    O4* - H2*2  
     1     23      1 ;    O4* - H5*1  
     1     24      1 ;    O4* - H5*2  
     2      9      1 ;    O3* - C1*   
     2     12      1 ;    O3* - C5*   
     2     20      1 ;    O3* - H2*1  
     2     21      1 ;    O3* - H2*2  
     2     22      1 ;    O3* - H4*   
     3      8      1 ;    O5* - C3*   
     3     22      1 ;    O5* - H4*   
     4      9      1 ;     O2 - C1*   
     4     13      1 ;     O2 - C6    
     4     16      1 ;     O2 - C4    
     4     27      1 ;     O2 - H3    
     5     13      1 ;     O4 - C6    
     5     14      1 ;     O4 - C2    
     5     17      1 ;     O4 - C5M   
     5     27      1 ;     O4 - H3    
     6      8      1 ;     N1 - C3*   
     6     16      1 ;     N1 - C4    
     6     17      1 ;     N1 - C5M   
     6     20      1 ;     N1 - H2*1  
     6     21      1 ;     N1 - H2*2  
     6     27      1 ;     N1 - H3    
     7      9      1 ;     N3 - C1*   
     7     13      1 ;     N3 - C6    
     7     17      1 ;     N3 - C5M   
     8     19      1 ;    C3* - H1*   
     8     23      1 ;    C3* - H5*1  
     8     24      1 ;    C3* - H5*2  
     9     12      1 ;    C1* - C5*   
     9     15      1 ;    C1* - C5    
     9     18      1 ;    C1* - H3*   
     9     22      1 ;    C1* - H4*   
     9     25      1 ;    C1* - H6    
    10     12      1 ;    C2* - C5*   
    10     13      1 ;    C2* - C6    
    10     14      1 ;    C2* - C2    
    10     22      1 ;    C2* - H4*   
    10     26      1 ;    C2* - H7    
    11      6      1 ;    C4* - N1    
    11     19      1 ;    C4* - H1*   
    11     20      1 ;    C4* - H2*1  
    11     21      1 ;    C4* - H2*2  
    11     26      1 ;    C4* - H7    
    11     28      1 ;    C4* - H5*   
    12     18      1 ;    C5* - H3*   
    13     19      1 ;     C6 - H1*   
    13     29      1 ;     C6 - H5M1  
    13     30      1 ;     C6 - H5M2  
    13     31      1 ;     C6 - H5M3  
    14     15      1 ;     C2 - C5    
    14     19      1 ;     C2 - H1*   
    14     25      1 ;     C2 - H6    
    15     27      1 ;     C5 - H3    
    16     25      1 ;     C4 - H6    
    16     29      1 ;     C4 - H5M1  
    16     30      1 ;     C4 - H5M2  
    16     31      1 ;     C4 - H5M3  
    17     25      1 ;    C5M - H6    
    18     20      1 ;    H3* - H2*1  
    18     21      1 ;    H3* - H2*2  
    18     22      1 ;    H3* - H4*   
    18     26      1 ;    H3* - H7    
    19     20      1 ;    H1* - H2*1  
    19     21      1 ;    H1* - H2*2  
    22     23      1 ;    H4* - H5*1  
    22     24      1 ;    H4* - H5*2  
    23     28      1 ;   H5*1 - H5*   
    24     28      1 ;   H5*2 - H5*   

[ angles ]
;   ai     aj     ak    funct   theta         cth
     1      9      6      1    1.0919e+02    6.9864e+02 ;    O4* - C1*    - N1    
     1      9     10      1    1.0614e+02    6.4793e+02 ;    O4* - C1*    - C2*   
     1      9     19      1    1.0947e+02    4.7028e+02 ;    O4* - C1*    - H1*   
     1     11      8      1    1.0614e+02    6.4793e+02 ;    O4* - C4*    - C3*   
     1     11     12      1    1.0897e+02    6.4224e+02 ;    O4* - C4*    - C5*   
     1     11     22      1    1.0846e+02    4.7229e+02 ;    O4* - C4*    - H4*   
     2      8     10      1    1.1162e+02    6.3455e+02 ;    O3* - C3*    - C2*   
     2      8     11      1    1.1162e+02    6.3455e+02 ;    O3* - C3*    - C4*   
     2      8     18      1    1.1027e+02    4.7254e+02 ;    O3* - C3*    - H3*   
     3     12     11      1    1.0985e+02    6.4157e+02 ;    O5* - C5*    - C4*   
     3     12     23      1    1.1038e+02    4.7103e+02 ;    O5* - C5*    - H5*1  
     3     12     24      1    1.1038e+02    4.7103e+02 ;    O5* - C5*    - H5*2  
     4     14      6      1    1.2257e+02    7.2534e+02 ;     O2 - C2     - N1    
     4     14      7      1    1.2305e+02    7.2977e+02 ;     O2 - C2     - N3    
     5     16      7      1    1.2305e+02    7.2977e+02 ;     O4 - C4     - N3    
     5     16     15      1    1.2371e+02    6.5530e+02 ;     O4 - C4     - C5    
     6      9     10      1    1.0366e+02    5.6350e+02 ;     N1 - C1*    - C2*   
     6      9     19      1    1.0590e+02    4.0685e+02 ;     N1 - C1*    - H1*   
     6     13     15      1    1.2220e+02    5.6877e+02 ;     N1 - C6     - C5    
     6     13     25      1    1.1502e+02    4.1112e+02 ;     N1 - C6     - H6    
     6     14      7      1    1.1437e+02    6.1965e+02 ;     N1 - C2     - N3    
     7     16     15      1    1.1220e+02    5.7245e+02 ;     N3 - C4     - C5    
     8      2     26      1    1.0717e+02    5.4727e+02 ;    C3* - O3*    - H7    
     8     10      9      1    1.0383e+02    5.1748e+02 ;    C3* - C2*    - C1*   
     8     10     20      1    1.1117e+02    3.5690e+02 ;    C3* - C2*    - H2*1  
     8     10     21      1    1.1117e+02    3.5690e+02 ;    C3* - C2*    - H2*2  
     8     11     12      1    1.1360e+02    4.9647e+02 ;    C3* - C4*    - C5*   
     8     11     22      1    1.1117e+02    3.5690e+02 ;    C3* - C4*    - H4*   
     9      1     11      1    1.0926e+02    7.4986e+02 ;    C1* - O4*    - C4*   
     9      6     13      1    1.1989e+02    6.4501e+02 ;    C1* - N1     - C6    
     9      6     14      1    1.1850e+02    6.4618e+02 ;    C1* - N1     - C2    
     9     10     20      1    1.1117e+02    3.5690e+02 ;    C1* - C2*    - H2*1  
     9     10     21      1    1.1117e+02    3.5690e+02 ;    C1* - C2*    - H2*2  
    10      8     11      1    1.0383e+02    5.1748e+02 ;    C2* - C3*    - C4*   
    10      8     18      1    1.1117e+02    3.5690e+02 ;    C2* - C3*    - H3*   
    10      9     19      1    1.1053e+02    3.5798e+02 ;    C2* - C1*    - H1*   
    11      8     18      1    1.1117e+02    3.5690e+02 ;    C4* - C3*    - H3*   
    11     12     23      1    1.0938e+02    3.6217e+02 ;    C4* - C5*    - H5*1  
    11     12     24      1    1.0938e+02    3.6217e+02 ;    C4* - C5*    - H5*2  
    12      3     28      1    1.0739e+02    5.4501e+02 ;    C5* - O5*    - H5*   
    12     11     22      1    1.0924e+02    3.6242e+02 ;    C5* - C4*    - H4*   
    13      6     14      1    1.2161e+02    6.5806e+02 ;     C6 - N1     - C2    
    13     15     16      1    1.2132e+02    5.1965e+02 ;     C6 - C5     - C4    
    13     15     17      1    1.2668e+02    5.0258e+02 ;     C6 - C5     - C5M   
    14      7     16      1    1.2805e+02    6.4618e+02 ;     C2 - N3     - C4    
    14      7     27      1    1.1726e+02    4.8007e+02 ;     C2 - N3     - H3    
    15     13     25      1    1.2911e+02    3.6777e+02 ;     C5 - C6     - H6    
    15     17     29      1    1.1062e+02    3.6777e+02 ;     C5 - C5M    - H5M1  
    15     17     30      1    1.1062e+02    3.6777e+02 ;     C5 - C5M    - H5M2  
    15     17     31      1    1.1062e+02    3.6777e+02 ;     C5 - C5M    - H5M3  
    16      7     27      1    1.1726e+02    4.8007e+02 ;     C4 - N3     - H3    
    16     15     17      1    1.1767e+02    5.0593e+02 ;     C4 - C5     - C5M   
    20     10     21      1    1.0722e+02    3.0049e+02 ;   H2*1 - C2*    - H2*2  
    23     12     24      1    1.0855e+02    2.9824e+02 ;   H5*1 - C5*    - H5*2  
    29     17     30      1    1.0773e+02    2.9957e+02 ;   H5M1 - C5M    - H5M2  
    29     17     31      1    1.0773e+02    2.9957e+02 ;   H5M1 - C5M    - H5M3  
    30     17     31      1    1.0773e+02    2.9957e+02 ;   H5M2 - C5M    - H5M3  

[ dihedrals ] ; propers
; for gromacs 4.5 or higher, using funct 9
;    i      j      k      l   func   phase     kd      pn
     1      9      6     13      9     0.00   1.79912   3 ;    O4*-   C1*-    N1-    C6
     1      9      6     13      9     0.00   4.81160   2 ;    O4*-   C1*-    N1-    C6
     1      9      6     13      9     0.00  10.41816   1 ;    O4*-   C1*-    N1-    C6
     1      9      6     14      9     0.00   0.00000   0 ;    O4*-   C1*-    N1-    C2
     1      9     10      8      9     0.00   0.65084   3 ;    O4*-   C1*-   C2*-   C3*
     1      9     10     20      9     0.00   0.00000   0 ;    O4*-   C1*-   C2*-  H2*1
     1      9     10     20      9     0.00   1.04600   1 ;    O4*-   C1*-   C2*-  H2*1
     1      9     10     21      9     0.00   0.00000   0 ;    O4*-   C1*-   C2*-  H2*2
     1      9     10     21      9     0.00   1.04600   1 ;    O4*-   C1*-   C2*-  H2*2
     1     11      8      2      9     0.00   2.46856   1 ;    O4*-   C4*-   C3*-   O3*
     1     11      8      2      9     0.00   3.30536   3 ;    O4*-   C4*-   C3*-   O3*
     1     11      8      2      9     0.00   5.27184   2 ;    O4*-   C4*-   C3*-   O3*
     1     11      8     10      9     0.00   0.65084   3 ;    O4*-   C4*-   C3*-   C2*
     1     11      8     18      9     0.00   0.00000   0 ;    O4*-   C4*-   C3*-   H3*
     1     11      8     18      9     0.00   1.04600   1 ;    O4*-   C4*-   C3*-   H3*
     1     11     12      3      9     0.00   2.46856   1 ;    O4*-   C4*-   C5*-   O5*
     1     11     12      3      9     0.00   3.30536   3 ;    O4*-   C4*-   C5*-   O5*
     1     11     12      3      9     0.00   5.27184   2 ;    O4*-   C4*-   C5*-   O5*
     1     11     12     23      9     0.00   0.00000   0 ;    O4*-   C4*-   C5*-  H5*1
     1     11     12     23      9     0.00   1.04600   1 ;    O4*-   C4*-   C5*-  H5*1
     1     11     12     24      9     0.00   0.00000   0 ;    O4*-   C4*-   C5*-  H5*2
     1     11     12     24      9     0.00   1.04600   1 ;    O4*-   C4*-   C5*-  H5*2
     2      8     10      9      9     0.00   0.75312   3 ;    O3*-   C3*-   C2*-   C1*
     2      8     10     20      9     0.00   0.37656   3 ;    O3*-   C3*-   C2*-  H2*1
     2      8     10     21      9     0.00   0.37656   3 ;    O3*-   C3*-   C2*-  H2*2
     2      8     11     12      9     0.00   0.75312   3 ;    O3*-   C3*-   C4*-   C5*
     2      8     11     22      9     0.00   0.00000   0 ;    O3*-   C3*-   C4*-   H4*
     2      8     11     22      9     0.00   1.04600   1 ;    O3*-   C3*-   C4*-   H4*
     3     12     11      8      9     0.00   0.75312   3 ;    O5*-   C5*-   C4*-   C3*
     3     12     11     22      9     0.00   0.00000   0 ;    O5*-   C5*-   C4*-   H4*
     3     12     11     22      9     0.00   1.04600   1 ;    O5*-   C5*-   C4*-   H4*
     4     14      6      9      9   180.00  10.46000   2 ;     O2-    C2-    N1-   C1*
     4     14      6     13      9   180.00  10.46000   2 ;     O2-    C2-    N1-    C6
     4     14      7     16      9   180.00  10.46000   2 ;     O2-    C2-    N3-    C4
     4     14      7     27      9     0.00   8.36800   1 ;     O2-    C2-    N3-    H3
     4     14      7     27      9   180.00  10.46000   2 ;     O2-    C2-    N3-    H3
     5     16      7     14      9   180.00  10.46000   2 ;     O4-    C4-    N3-    C2
     5     16      7     27      9     0.00   8.36800   1 ;     O4-    C4-    N3-    H3
     5     16      7     27      9   180.00  10.46000   2 ;     O4-    C4-    N3-    H3
     5     16     15     13      9   180.00  12.02900   2 ;     O4-    C4-    C5-    C6
     5     16     15     17      9   180.00  12.02900   2 ;     O4-    C4-    C5-   C5M
     6      9     10      8      9     0.00   0.41840   3 ;     N1-   C1*-   C2*-   C3*
     6      9     10     20      9     0.00   0.65084   3 ;     N1-   C1*-   C2*-  H2*1
     6      9     10     21      9     0.00   0.65084   3 ;     N1-   C1*-   C2*-  H2*2
     6     13     15     16      9   180.00  16.73600   2 ;     N1-    C6-    C5-    C4
     6     13     15     17      9   180.00  16.73600   2 ;     N1-    C6-    C5-   C5M
     6     14      7     16      9   180.00  10.46000   2 ;     N1-    C2-    N3-    C4
     6     14      7     27      9   180.00  10.46000   2 ;     N1-    C2-    N3-    H3
     7     14      6      9      9   180.00  10.46000   2 ;     N3-    C2-    N1-   C1*
     7     14      6     13      9   180.00  10.46000   2 ;     N3-    C2-    N1-    C6
     7     16     15     13      9   180.00  12.02900   2 ;     N3-    C4-    C5-    C6
     7     16     15     17      9   180.00  12.02900   2 ;     N3-    C4-    C5-   C5M
     8     10      9     19      9     0.00   0.65084   3 ;    C3*-   C2*-   C1*-   H1*
     8     11     12     23      9     0.00   0.65084   3 ;    C3*-   C4*-   C5*-  H5*1
     8     11     12     24      9     0.00   0.65084   3 ;    C3*-   C4*-   C5*-  H5*2
     9      1     11      8      9     0.00   0.33472   2 ;    C1*-   O4*-   C4*-   C3*
     9      1     11      8      9     0.00   3.13800   3 ;    C1*-   O4*-   C4*-   C3*
     9      1     11      8      9   180.00   3.68192   1 ;    C1*-   O4*-   C4*-   C3*
     9      1     11     12      9     0.00   0.33472   2 ;    C1*-   O4*-   C4*-   C5*
     9      1     11     12      9     0.00   3.13800   3 ;    C1*-   O4*-   C4*-   C5*
     9      1     11     12      9   180.00   3.68192   1 ;    C1*-   O4*-   C4*-   C5*
     9      1     11     22      9     0.00   1.41001   3 ;    C1*-   O4*-   C4*-   H4*
     9      6     13     15      9   180.00   6.90360   2 ;    C1*-    N1-    C6-    C5
     9      6     13     25      9   180.00   6.90360   2 ;    C1*-    N1-    C6-    H6
     9     10      8     11      9     0.00   2.17568   3 ;    C1*-   C2*-   C3*-   C4*
     9     10      8     18      9     0.00   0.65084   3 ;    C1*-   C2*-   C3*-   H3*
    10      8      2     26      9     0.00   0.25104   3 ;    C2*-   C3*-   O3*-    H7
    10      8     11     12      9     0.00   2.17568   3 ;    C2*-   C3*-   C4*-   C5*
    10      8     11     22      9     0.00   0.65084   3 ;    C2*-   C3*-   C4*-   H4*
    10      9      6     13      9     0.00   0.00000   0 ;    C2*-   C1*-    N1-    C6
    10      9      6     14      9     0.00   9.45584   1 ;    C2*-   C1*-    N1-    C2
    10      9      6     14      9   180.00   0.12552   3 ;    C2*-   C1*-    N1-    C2
    10      9      6     14      9   180.00   2.71960   4 ;    C2*-   C1*-    N1-    C2
    11      1      9      6      9     0.00   1.60387   3 ;    C4*-   O4*-   C1*-    N1
    11      1      9     10      9     0.00   0.33472   2 ;    C4*-   O4*-   C1*-   C2*
    11      1      9     10      9     0.00   3.13800   3 ;    C4*-   O4*-   C1*-   C2*
    11      1      9     10      9   180.00   3.68192   1 ;    C4*-   O4*-   C1*-   C2*
    11      1      9     19      9     0.00   1.60387   3 ;    C4*-   O4*-   C1*-   H1*
    11      8      2     26      9     0.00   0.25104   3 ;    C4*-   C3*-   O3*-    H7
    11      8     10     20      9     0.00   0.54392   3 ;    C4*-   C3*-   C2*-  H2*1
    11      8     10     21      9     0.00   0.54392   3 ;    C4*-   C3*-   C2*-  H2*2
    11     12      3     28      9     0.00   0.25104   3 ;    C4*-   C5*-   O5*-   H5*
    12     11      8     18      9     0.00   0.65084   3 ;    C5*-   C4*-   C3*-   H3*
    13      6      9     19      9     0.00   0.00000   0 ;     C6-    N1-   C1*-   H1*
    13     15     17     29      9     0.00   0.00000   0 ;     C6-    C5-   C5M-  H5M1
    13     15     17     30      9     0.00   0.00000   0 ;     C6-    C5-   C5M-  H5M2
    13     15     17     31      9     0.00   0.00000   0 ;     C6-    C5-   C5M-  H5M3
    14      6      9     19      9     0.00   0.00000   0 ;     C2-    N1-   C1*-   H1*
    14      6     13     15      9   180.00   6.90360   2 ;     C2-    N1-    C6-    C5
    14      6     13     25      9   180.00   6.90360   2 ;     C2-    N1-    C6-    H6
    14      7     16     15      9   180.00  10.46000   2 ;     C2-    N3-    C4-    C5
    15     16      7     27      9   180.00  10.46000   2 ;     C5-    C4-    N3-    H3
    16     15     13     25      9   180.00  16.73600   2 ;     C4-    C5-    C6-    H6
    16     15     17     29      9     0.00   0.00000   0 ;     C4-    C5-   C5M-  H5M1
    16     15     17     30      9     0.00   0.00000   0 ;     C4-    C5-   C5M-  H5M2
    16     15     17     31      9     0.00   0.00000   0 ;     C4-    C5-   C5M-  H5M3
    17     15     13     25      9   180.00  16.73600   2 ;    C5M-    C5-    C6-    H6
    18      8      2     26      9     0.00   0.51463   3 ;    H3*-   C3*-   O3*-    H7
    18      8     10     20      9     0.00   0.65084   3 ;    H3*-   C3*-   C2*-  H2*1
    18      8     10     21      9     0.00   0.65084   3 ;    H3*-   C3*-   C2*-  H2*2
    18      8     11     22      9     0.00   0.65084   3 ;    H3*-   C3*-   C4*-   H4*
    19      9     10     20      9     0.00   0.65084   3 ;    H1*-   C1*-   C2*-  H2*1
    19      9     10     21      9     0.00   0.65084   3 ;    H1*-   C1*-   C2*-  H2*2
    22     11     12     23      9     0.00   0.65084   3 ;    H4*-   C4*-   C5*-  H5*1
    22     11     12     24      9     0.00   0.65084   3 ;    H4*-   C4*-   C5*-  H5*2
    23     12      3     28      9     0.00   0.51463   3 ;   H5*1-   C5*-   O5*-   H5*
    24     12      3     28      9     0.00   0.51463   3 ;   H5*2-   C5*-   O5*-   H5*

[ dihedrals ] ; impropers
; treated as propers in GROMACS to use correct AMBER analytical function
;    i      j      k      l   func   phase     kd      pn
     6      7     14      4      4   180.00  43.93200   2 ;     N1-    N3-    C2-    O2
    14      9      6     13      4   180.00   4.60240   2 ;     C2-   C1*-    N1-    C6
    14     16      7     27      4   180.00   4.60240   2 ;     C2-    C4-    N3-    H3
    15      7     16      5      4   180.00  43.93200   2 ;     C5-    N3-    C4-    O4
    15     25     13      6      4   180.00   4.60240   2 ;     C5-    H6-    C6-    N1
    16     17     15     13      4   180.00   4.60240   2 ;     C4-   C5M-    C5-    C6
