%VERSION  VERSION_STAMP = V0001.000  DATE = 02/09/26  18:00:25                  
%FLAG TITLE                                                                     
%FORMAT(20a4)                                                                   
5789                                                                            
%FLAG POINTERS                                                                  
%FORMAT(10I8)                                                                   
      31      13      14      18      31      26      61      52       0       0
     171       1      18      26      52      21      41      32      16       0
       0       0       0       0       0       0       0       0      31       0
       0
%FLAG ATOM_NAME                                                                 
%FORMAT(20a4)                                                                   
O4* O3* O5* O2  O4  N1  N3  C3* C1* C2* C4* C5* C6  C2  C5  C4  C5M H3* H1* H2*1
H2*2H4* H5*1H5*2H6  H7  H3  H5* H5M1H5M2H5M3
%FLAG CHARGE                                                                    
%FORMAT(5E16.8)                                                                 
 -7.13585268E+00 -1.07292902E+01 -1.07475125E+01 -1.19447176E+01 -1.11429365E+01
 -7.30714230E+00 -1.06509343E+01  2.09738673E+00  5.78558025E+00 -2.68596702E+00
  2.40716583E+00  1.93885272E+00  7.94492280E-01  1.46598403E+01 -4.89086532E+00
  1.30417001E+01 -5.08402170E-01  9.42092910E-01  1.85320791E+00  1.57987341E+00
  1.57987341E+00  2.09009781E+00  6.41424960E-01  6.41424960E-01  3.66268230E+00
  7.48936530E+00  6.40513845E+00  7.38003150E+00  9.05648310E-01  9.05648310E-01
  9.05648310E-01
%FLAG ATOMIC_NUMBER                                                             
%FORMAT(10I8)                                                                   
       8       8       8       8       8       7       7       6       6       6
       6       6       6       6       6       6       6       1       1       1
       1       1       1       1       1       1       1       1       1       1
       1
%FLAG MASS                                                                      
%FORMAT(5E16.8)                                                                 
  1.60000000E+01  1.60000000E+01  1.60000000E+01  1.60000000E+01  1.60000000E+01
  1.40100000E+01  1.40100000E+01  1.20100000E+01  1.20100000E+01  1.20100000E+01
  1.20100000E+01  1.20100000E+01  1.20100000E+01  1.20100000E+01  1.20100000E+01
  1.20100000E+01  1.20100000E+01  1.00800000E+00  1.00800000E+00  1.00800000E+00
  1.00800000E+00  1.00800000E+00  1.00800000E+00  1.00800000E+00  1.00800000E+00
  1.00800000E+00  1.00800000E+00  1.00800000E+00  1.00800000E+00  1.00800000E+00
  1.00800000E+00
%FLAG ATOM_TYPE_INDEX                                                           
%FORMAT(10I8)                                                                   
       1       2       2       3       3       4       5       6       6       6
       6       6       7       7       7       7       6       8       9      10
      10       8       8       8      11      12      13      12      10      10
      10
%FLAG NUMBER_EXCLUDED_ATOMS                                                     
%FORMAT(10I8)                                                                   
      17      10       7       7       7      15       7      12      12      10
      10       5       9       5       7       6       4       4       2       1
       1       2       2       1       1       1       1       1       2       1
       1
%FLAG NONBONDED_PARM_INDEX                                                      
%FORMAT(10I8)                                                                   
       1       2       4       7      11      16      22      29      37      46
      56      67      79       2       3       5       8      12      17      23
      30      38      47      57      68      80       4       5       6       9
      13      18      24      31      39      48      58      69      81       7
       8       9      10      14      19      25      32      40      49      59
      70      82      11      12      13      14      15      20      26      33
      41      50      60      71      83      16      17      18      19      20
      21      27      34      42      51      61      72      84      22      23
      24      25      26      27      28      35      43      52      62      73
      85      29      30      31      32      33      34      35      36      44
      53      63      74      86      37      38      39      40      41      42
      43      44      45      54      64      75      87      46      47      48
      49      50      51      52      53      54      55      65      76      88
      56      57      58      59      60      61      62      63      64      65
      66      77      89      67      68      69      70      71      72      73
      74      75      76      77      78      90      79      80      81      82
      83      84      85      86      87      88      89      90      91
%FLAG RESIDUE_LABEL                                                             
%FORMAT(20a4)                                                                   
T1  
%FLAG RESIDUE_POINTER                                                           
%FORMAT(10I8)                                                                   
       1
%FLAG BOND_FORCE_CONSTANT                                                       
%FORMAT(5E16.8)                                                                 
  2.75610000E+02  2.89690000E+02  5.35510000E+02  2.85150000E+02  5.90600000E+02
  2.51070000E+02  3.31660000E+02  3.17460000E+02  3.36070000E+02  4.73590000E+02
  2.20100000E+02  3.43780000E+02  3.46280000E+02  3.46430000E+02  2.27640000E+02
  3.44220000E+02  3.86240000E+02  3.68720000E+02  2.78120000E+02  2.53870000E+02
  3.45250000E+02
%FLAG BOND_EQUIL_VALUE                                                          
%FORMAT(5E16.8)                                                                 
  1.43460000E+00  1.41940000E+00  9.72500000E-01  1.42420000E+00  1.21900000E+00
  1.46850000E+00  1.38370000E+00  1.39670000E+00  1.37980000E+00  1.01320000E+00
  1.54830000E+00  1.09720000E+00  1.09550000E+00  1.09540000E+00  1.53720000E+00
  1.09690000E+00  1.37300000E+00  1.08090000E+00  1.47280000E+00  1.50180000E+00
  1.09620000E+00
%FLAG ANGLE_FORCE_CONSTANT                                                      
%FORMAT(5E16.8)                                                                 
  8.34900000E+01  7.74300000E+01  5.62000000E+01  7.67500000E+01  5.64400000E+01
  7.58300000E+01  5.64700000E+01  7.66700000E+01  5.62900000E+01  8.66800000E+01
  8.72100000E+01  7.83100000E+01  6.73400000E+01  4.86200000E+01  6.79700000E+01
  4.91300000E+01  7.40500000E+01  6.84100000E+01  6.54000000E+01  6.18400000E+01
  4.26500000E+01  5.93300000E+01  4.26500000E+01  8.96100000E+01  7.70800000E+01
  7.72200000E+01  4.27800000E+01  4.32800000E+01  6.51300000E+01  4.33100000E+01
  7.86400000E+01  6.21000000E+01  6.00600000E+01  7.72200000E+01  5.73700000E+01
  4.39500000E+01  4.39500000E+01  6.04600000E+01  3.59100000E+01  3.56400000E+01
  3.58000000E+01
%FLAG ANGLE_EQUIL_VALUE                                                         
%FORMAT(5E16.8)                                                                 
  1.90572583E+00  1.85249326E+00  1.91061275E+00  1.90188610E+00  1.89298492E+00
  1.94813735E+00  1.92457539E+00  1.91724501E+00  1.92649525E+00  2.13925098E+00
  2.14762857E+00  2.15914774E+00  1.80920908E+00  1.84830447E+00  2.13279326E+00
  2.00747857E+00  1.99613392E+00  1.95826026E+00  1.87047016E+00  1.81217614E+00
  1.94028336E+00  1.98269488E+00  1.94028336E+00  1.90694756E+00  2.09247614E+00
  2.06821605E+00  1.92911325E+00  1.90904195E+00  1.87430989E+00  1.90659849E+00
  2.12249581E+00  2.11743436E+00  2.21098404E+00  2.23489507E+00  2.04657396E+00
  2.25339556E+00  1.93068405E+00  2.05372981E+00  1.87134283E+00  1.89455572E+00
  1.88024401E+00
%FLAG DIHEDRAL_FORCE_CONSTANT                                                   
%FORMAT(5E16.8)                                                                 
  2.49000000E+00  1.15000000E+00  4.30000000E-01  0.00000000E+00  1.55555556E-01
  2.50000000E-01  0.00000000E+00  5.90000000E-01  1.26000000E+00  7.90000000E-01
  1.80000000E-01  9.00000000E-02  2.50000000E+00  2.00000000E+00  2.87500000E+00
  3.83333333E-01  1.00000000E-01  4.00000000E+00  8.80000000E-01  8.00000000E-02
  7.50000000E-01  3.37000000E-01  1.65000000E+00  5.20000000E-01  6.00000000E-02
  2.26000000E+00  3.00000000E-02  6.50000000E-01  1.30000000E-01  1.23000000E-01
  1.10000000E+00  1.05000000E+01
%FLAG DIHEDRAL_PERIODICITY                                                      
%FORMAT(5E16.8)                                                                 
  1.00000000E+00  2.00000000E+00  3.00000000E+00  2.00000000E+00  3.00000000E+00
  1.00000000E+00  3.00000000E+00  1.00000000E+00  2.00000000E+00  3.00000000E+00
  3.00000000E+00  3.00000000E+00  2.00000000E+00  1.00000000E+00  2.00000000E+00
  3.00000000E+00  3.00000000E+00  2.00000000E+00  1.00000000E+00  2.00000000E+00
  3.00000000E+00  3.00000000E+00  2.00000000E+00  3.00000000E+00  3.00000000E+00
  1.00000000E+00  3.00000000E+00  4.00000000E+00  3.00000000E+00  3.00000000E+00
  2.00000000E+00  2.00000000E+00
%FLAG DIHEDRAL_PHASE                                                            
%FORMAT(5E16.8)                                                                 
  0.00000000E+00  0.00000000E+00  0.00000000E+00  0.00000000E+00  0.00000000E+00
  0.00000000E+00  0.00000000E+00  0.00000000E+00  0.00000000E+00  0.00000000E+00
  0.00000000E+00  0.00000000E+00  3.14159400E+00  0.00000000E+00  3.14159400E+00
  0.00000000E+00  0.00000000E+00  3.14159400E+00  3.14159400E+00  0.00000000E+00
  0.00000000E+00  0.00000000E+00  3.14159400E+00  0.00000000E+00  0.00000000E+00
  0.00000000E+00  3.14159400E+00  3.14159400E+00  0.00000000E+00  0.00000000E+00
  3.14159400E+00  3.14159400E+00
%FLAG SCEE_SCALE_FACTOR                                                         
%FORMAT(5E16.8)                                                                 
  1.20000000E+00  1.20000000E+00  1.20000000E+00  1.20000000E+00  1.20000000E+00
  1.20000000E+00  1.20000000E+00  1.20000000E+00  1.20000000E+00  1.20000000E+00
  1.20000000E+00  1.20000000E+00  1.20000000E+00  1.20000000E+00  1.20000000E+00
  1.20000000E+00  1.20000000E+00  1.20000000E+00  1.20000000E+00  1.20000000E+00
  1.20000000E+00  1.20000000E+00  1.20000000E+00  1.20000000E+00  1.20000000E+00
  1.20000000E+00  1.20000000E+00  1.20000000E+00  1.20000000E+00  1.20000000E+00
  0.00000000E+00  0.00000000E+00
%FLAG SCNB_SCALE_FACTOR                                                         
%FORMAT(5E16.8)                                                                 
  2.00000000E+00  2.00000000E+00  2.00000000E+00  2.00000000E+00  2.00000000E+00
  2.00000000E+00  2.00000000E+00  2.00000000E+00  2.00000000E+00  2.00000000E+00
  2.00000000E+00  2.00000000E+00  2.00000000E+00  2.00000000E+00  2.00000000E+00
  2.00000000E+00  2.00000000E+00  2.00000000E+00  2.00000000E+00  2.00000000E+00
  2.00000000E+00  2.00000000E+00  2.00000000E+00  2.00000000E+00  2.00000000E+00
  2.00000000E+00  2.00000000E+00  2.00000000E+00  2.00000000E+00  2.00000000E+00
  0.00000000E+00  0.00000000E+00
%FLAG SOLTY                                                                     
%FORMAT(5E16.8)                                                                 
  0.00000000E+00  0.00000000E+00  0.00000000E+00  0.00000000E+00  0.00000000E+00
  0.00000000E+00  0.00000000E+00  0.00000000E+00  0.00000000E+00  0.00000000E+00
  0.00000000E+00  0.00000000E+00  0.00000000E+00  0.00000000E+00  0.00000000E+00
  0.00000000E+00
%FLAG LENNARD_JONES_ACOEF                                                       
%FORMAT(5E16.8)                                                                 
  2.83662575E+05  3.78207390E+05  5.03152404E+05  3.27367585E+05  4.37717034E+05
  3.76435470E+05  4.46307018E+05  5.94682930E+05  5.15491878E+05  7.02078680E+05
  4.47026838E+05  5.94304835E+05  5.17814271E+05  7.02755693E+05  7.01825028E+05
  5.42502534E+05  7.18991463E+05  6.30925504E+05  8.52084164E+05  8.48258258E+05
  1.02073671E+06  4.46121722E+05  5.92438683E+05  5.17507491E+05  7.01106848E+05
  6.99381362E+05  8.43969952E+05  6.96551276E+05  3.44374471E+04  4.69084694E+04
  3.86646725E+04  5.45183252E+04  5.58085097E+04  6.97998263E+04  5.63013422E+04
  3.39005767E+03  2.33261683E+04  3.19666529E+04  2.59855087E+04  3.69926172E+04
  3.81023323E+04  4.80619274E+04  3.85565555E+04  2.16218723E+03  1.35510742E+03
  5.02224902E+04  6.80216136E+04  5.68021765E+04  7.93773615E+04  8.07866982E+04
  1.00235148E+05  8.12662403E+04  5.22955465E+03  3.39005767E+03  7.94617769E+03
  3.86549715E+04  5.24591488E+04  4.36069364E+04  6.11299385E+04  6.23418310E+04
  7.75673747E+04  6.27751680E+04  3.94664935E+03  2.54392426E+03  6.02863188E+03
  4.56536476E+03  1.16469347E+02  1.74176419E+02  1.15813907E+02  1.89434762E+02
  2.13197010E+02  3.03553352E+02  2.25372434E+02  4.36660257E+00  2.07292270E+00
  8.80612241E+00  6.05535196E+00  1.10360882E-05  9.46795083E+02  1.36475542E+03
  9.87857350E+02  1.52360475E+03  1.65195713E+03  2.23577481E+03  1.71458823E+03
  5.24570081E+01  2.81680913E+01  9.47421632E+01  6.76796831E+01  2.61760843E-03
  1.34728399E-01
%FLAG LENNARD_JONES_BCOEF                                                       
%FORMAT(5E16.8)                                                                 
  2.87011518E+02  3.52573684E+02  4.32634597E+02  3.67361018E+02  4.51916854E+02
  4.69350655E+02  4.41089616E+02  5.41675626E+02  5.64804067E+02  6.77820248E+02
  4.06301077E+02  4.98393522E+02  5.21008860E+02  6.24158704E+02  5.74088001E+02
  4.38146883E+02  5.36620538E+02  5.62969425E+02  6.72777963E+02  6.17825399E+02
  6.63431737E+02  3.88758656E+02  4.76608379E+02  4.98871431E+02  5.97113873E+02
  5.48900066E+02  5.90251928E+02  5.24668528E+02  7.31636661E+01  9.08431526E+01
  9.23664132E+01  1.12788003E+02  1.05029928E+02  1.14981426E+02  1.01040256E+02
  1.67944276E+01  6.02145835E+01  7.49920368E+01  7.57220777E+01  9.29071597E+01
  8.67837942E+01  9.54115851E+01  8.36149973E+01  1.34124560E+01  1.06181419E+01
  8.83545880E+01  1.09393126E+02  1.11953944E+02  1.36094315E+02  1.26366740E+02
  1.37787728E+02  1.21392023E+02  2.08590256E+01  1.67944276E+01  2.57122925E+01
  7.27065100E+01  9.01089277E+01  9.20079458E+01  1.12023534E+02  1.04122183E+02
  1.13692208E+02  1.00073628E+02  1.69967767E+01  1.36459692E+01  2.10068861E+01
  1.71467049E+01  2.93355636E+00  3.81654050E+00  3.48534600E+00  4.58384710E+00
  4.47571103E+00  5.22789272E+00  4.40751799E+00  4.15568027E-01  2.86326700E-01
  5.90150328E-01  4.59018960E-01  4.55498033E-04  1.01016461E+01  1.29026271E+01
  1.22938581E+01  1.57004457E+01  1.50468782E+01  1.71355763E+01  1.46824710E+01
  1.73959275E+00  1.27474859E+00  2.33785449E+00  1.85338491E+00  8.47240681E-03
  7.34107347E-02
%FLAG BONDS_INC_HYDROGEN                                                        
%FORMAT(10I8)                                                                   
       3      75       3       6      81       3      18      78      10      21
      51      12      24      54      13      27      57      14      27      60
      14      30      63      12      33      66      16      33      69      16
      36      72      18      48      84      21      48      87      21      48
      90      21
%FLAG BONDS_WITHOUT_HYDROGEN                                                    
%FORMAT(10I8)                                                                   
       0      24       1       0      30       1       3      21       2       6
      33       4       9      39       5      12      45       5      15      24
       6      15      36       7      15      39       8      18      39       9
      18      45       9      21      27      11      21      30      11      24
      27      11      30      33      15      36      42      17      42      45
      19      42      48      20
%FLAG ANGLES_INC_HYDROGEN                                                       
%FORMAT(10I8)                                                                   
       0      24      54       3       0      30      63       5       3      21
      51       7       6      33      66       9       6      33      69       9
      15      24      54      14      15      36      72      16      21       3
      75      19      21      27      57      21      21      27      60      21
      21      30      63      23      24      27      57      21      24      27
      60      21      27      21      51      23      27      24      54      27
      30      21      51      23      30      33      66      28      30      33
      69      28      33       6      81      29      33      30      63      30
      39      18      78      35      42      36      72      36      42      48
      84      37      42      48      87      37      42      48      90      37
      45      18      78      35      57      27      60      39      66      33
      69      40      84      48      87      41      84      48      90      41
      87      48      90      41
%FLAG ANGLES_WITHOUT_HYDROGEN                                                   
%FORMAT(10I8)                                                                   
       0      24      15       1       0      24      27       2       0      30
      21       2       0      30      33       4       3      21      27       6
       3      21      30       6       6      33      30       8       9      39
      15      10       9      39      18      11      12      45      18      11
      12      45      42      12      15      24      27      13      15      36
      42      15      15      39      18      17      18      45      42      18
      21      27      24      20      21      30      33      22      24       0
      30      24      24      15      36      25      24      15      39      26
      27      21      30      20      36      15      39      31      36      42
      45      32      36      42      48      33      39      18      45      34
      45      42      48      38
%FLAG DIHEDRALS_INC_HYDROGEN                                                    
%FORMAT(10I8)                                                                   
       0      24      27      57       6       0      24     -27      57       7
       0      24      27      60       6       0      24     -27      60       7
       0      30      21      51       6       0      30     -21      51       7
       0      30      33      66       6       0      30     -33      66       7
       0      30      33      69       6       0      30     -33      69       7
       3      21      27      57      12       3      21      27      60      12
       3      21      30      63       6       3      21     -30      63       7
       6      33      30      63       6       6      33     -30      63       7
       9      39      18      78      14       9      39     -18      78      13
      12      45      18      78      14      12      45     -18      78      13
      15      24      27      57       5      15      24      27      60       5
      15      39      18      78      13      21      27      24      54       5
      21      30      33      66       5      21      30      33      69       5
      24       0      30      63      22      24      15      36      72      23
      24      27      21      51       5      27      21       3      75      25
      27      21      30      63       5      30       0      24      54      16
      30      21       3      75      25      30      21      27      57      29
      30      21      27      60      29      30      33       6      81      25
      33      30      21      51       5      36      15      24      54       4
      36      42      48      84       7      36      42      48      87       7
      36      42      48      90       7      39      15      24      54       4
      39      15      36      72      23      42      45      18      78      13
      45      42      36      72      18      45      42      48      84       7
      45      42      48      87       7      45      42      48      90       7
      48      42      36      72      18      51      21       3      75      30
      51      21      27      57       5      51      21      27      60       5
      51      21      30      63       5      54      24      27      57       5
      54      24      27      60       5      63      30      33      66       5
      63      30      33      69       5      66      33       6      81      30
      69      33       6      81      30      39      45     -18     -78      31
      42      72     -36     -15      31
%FLAG DIHEDRALS_WITHOUT_HYDROGEN                                                
%FORMAT(10I8)                                                                   
       0      24      15      36       1       0      24     -15      36       2
       0      24     -15      36       3       0      24      15      39       4
       0      24     -27      21       5       0      30      21       3       8
       0      30     -21       3       9       0      30     -21       3      10
       0      30     -21      27       5       0      30      33       6       8
       0      30     -33       6       9       0      30     -33       6      10
       3      21      27      24      11       3      21      30      33      11
       6      33      30      21      11       9      39      15      24      13
       9      39      15      36      13       9      39      18      45      13
      12      45      18      39      13      12      45      42      36      15
      12      45      42      48      15      30       0      24      15      16
      15      24      27      21      17      15      36      42      45      18
      15      36      42      48      18      15      39     -18      45      13
      18      39      15      24      13      18      39      15      36      13
      18      45     -42      36      15      18      45      42      48      15
      24       0     -30      21      19      24       0     -30      21      20
      24       0     -30      21      21      24       0      30      33      19
      24       0     -30      33      20      24       0     -30      33      21
      24      15      36      42      23      24      27     -21      30      24
      27      21      30      33      24      30       0     -24      27      19
      30       0     -24      27      20      30       0     -24      27      21
      27      24      15      36       4      27      24      15      39      26
      27      24     -15      39      27      27      24     -15      39      28
      39      15      36      42      23      39      18     -45      42      13
      39      24     -15     -36      31      15      18     -39      -9      32
      45      48     -42     -36      31      42      18     -45     -12      32
%FLAG EXCLUDED_ATOMS_LIST                                                       
%FORMAT(10I8)                                                                   
       2       3       6       8       9      10      11      12      13      14
      18      19      20      21      22      23      24       8       9      10
      11      12      18      20      21      22      26       8      11      12
      22      23      24      28       6       7       9      13      14      16
      27       7      13      14      15      16      17      27       7       8
       9      10      11      13      14      15      16      17      19      20
      21      25      27       9      13      14      15      16      17      27
       9      10      11      12      18      19      20      21      22      23
      24      26      10      11      12      13      14      15      18      19
      20      21      22      25      11      12      13      14      18      19
      20      21      22      26      12      18      19      20      21      22
      23      24      26      28      18      22      23      24      28      14
      15      16      17      19      25      29      30      31      15      16
      19      25      27      16      17      25      27      29      30      31
      17      25      27      29      30      31      25      29      30      31
      20      21      22      26      20      21      21       0      23      24
      24      28      28       0       0       0       0      30      31      31
       0
%FLAG HBOND_ACOEF                                                               
%FORMAT(5E16.8)                                                                 

%FLAG HBOND_BCOEF                                                               
%FORMAT(5E16.8)                                                                 

%FLAG HBCUT                                                                     
%FORMAT(5E16.8)                                                                 

%FLAG AMBER_ATOM_TYPE                                                           
%FORMAT(20a4)                                                                   
os  oh  oh  o   o   n   ns  c5  c5  c5  c5  c3  cc  c   cd  c   c3  h1  h2  hc  
hc  h1  h1  h1  h4  ho  hn  ho  hc  hc  hc  
%FLAG TREE_CHAIN_CLASSIFICATION                                                 
%FORMAT(20a4)                                                                   
BLA BLA BLA BLA BLA BLA BLA BLA BLA BLA BLA BLA BLA BLA BLA BLA BLA BLA BLA BLA 
BLA BLA BLA BLA BLA BLA BLA BLA BLA BLA BLA 
%FLAG JOIN_ARRAY                                                                
%FORMAT(10I8)                                                                   
       0       0       0       0       0       0       0       0       0       0
       0       0       0       0       0       0       0       0       0       0
       0       0       0       0       0       0       0       0       0       0
       0
%FLAG IROTAT                                                                    
%FORMAT(10I8)                                                                   
       0       0       0       0       0       0       0       0       0       0
       0       0       0       0       0       0       0       0       0       0
       0       0       0       0       0       0       0       0       0       0
       0
%FLAG RADIUS_SET                                                                
%FORMAT(1a80)                                                                   
modified Bondi radii (mbondi)                                                   
%FLAG RADII                                                                     
%FORMAT(5E16.8)                                                                 
  1.50000000E+00  1.50000000E+00  1.50000000E+00  1.50000000E+00  1.50000000E+00
  1.55000000E+00  1.55000000E+00  1.70000000E+00  1.70000000E+00  1.70000000E+00
  1.70000000E+00  1.70000000E+00  1.70000000E+00  1.70000000E+00  1.70000000E+00
  1.70000000E+00  1.70000000E+00  1.30000000E+00  1.30000000E+00  1.30000000E+00
  1.30000000E+00  1.30000000E+00  1.30000000E+00  1.30000000E+00  1.30000000E+00
  8.00000000E-01  1.30000000E+00  8.00000000E-01  1.30000000E+00  1.30000000E+00
  1.30000000E+00
%FLAG SCREEN                                                                    
%FORMAT(5E16.8)                                                                 
  8.50000000E-01  8.50000000E-01  8.50000000E-01  8.50000000E-01  8.50000000E-01
  7.90000000E-01  7.90000000E-01  7.20000000E-01  7.20000000E-01  7.20000000E-01
  7.20000000E-01  7.20000000E-01  7.20000000E-01  7.20000000E-01  7.20000000E-01
  7.20000000E-01  7.20000000E-01  8.50000000E-01  8.50000000E-01  8.50000000E-01
  8.50000000E-01  8.50000000E-01  8.50000000E-01  8.50000000E-01  8.50000000E-01
  8.50000000E-01  8.50000000E-01  8.50000000E-01  8.50000000E-01  8.50000000E-01
  8.50000000E-01
%FLAG IPOL                                                                      
%FORMAT(1I8)                                                                    
       0
