thymidine_GMX.gro created by acpype (v: 2023.10.27) on Mon Feb  9 17:59:59 2026
 31
    1   T1  O4*    1   0.160  -0.018  -0.100
    1   T1  O3*    2   0.382   0.162   0.013
    1   T1  O5*    3   0.232  -0.286  -0.060
    1   T1   O2    4  -0.117   0.282  -0.038
    1   T1   O4    5  -0.435  -0.044   0.023
    1   T1   N1    6  -0.045   0.060  -0.018
    1   T1   N3    7  -0.275   0.118  -0.007
    1   T1  C3*    8   0.304   0.059   0.073
    1   T1  C1*    9   0.094   0.091  -0.033
    1   T1  C2*   10   0.164   0.111   0.101
    1   T1  C4*   11   0.279  -0.053  -0.027
    1   T1  C5*   12   0.255  -0.188   0.040
    1   T1   C6   13  -0.082  -0.072  -0.001
    1   T1   C2   14  -0.143   0.162  -0.023
    1   T1   C5   15  -0.209  -0.114   0.014
    1   T1   C4   16  -0.317  -0.013   0.010
    1   T1  C5M   17  -0.247  -0.257   0.033
    1   T1  H3*   18   0.356   0.026   0.163
    1   T1  H1*   19   0.107   0.180  -0.095
    1   T1 H2*1   20   0.117   0.050   0.179
    1   T1 H2*2   21   0.161   0.215   0.133
    1   T1  H4*   22   0.360  -0.062  -0.100
    1   T1 H5*1   23   0.169  -0.187   0.109
    1   T1 H5*2   24   0.343  -0.218   0.097
    1   T1   H6   25  -0.004  -0.146   0.001
    1   T1   H7   26   0.390   0.234   0.077
    1   T1   H3   27  -0.347   0.190  -0.010
    1   T1  H5*   28   0.218  -0.370  -0.015
    1   T1 H5M1   29  -0.299  -0.271   0.128
    1   T1 H5M2   30  -0.159  -0.323   0.033
    1   T1 H5M3   31  -0.312  -0.290  -0.049
   16.50200    13.04200     5.59000
