5789
    31
   1.6020000  -0.1760000  -0.9950000   3.8150000   1.6190000   0.1250000
   2.3210000  -2.8550000  -0.6010000  -1.1690000   2.8170000  -0.3790000
  -4.3540000  -0.4440000   0.2280000  -0.4500000   0.6040000  -0.1850000
  -2.7470000   1.1810000  -0.0750000   3.0350000   0.5910000   0.7310000
   0.9440000   0.9090000  -0.3250000   1.6420000   1.1060000   1.0110000
   2.7930000  -0.5330000  -0.2670000   2.5460000  -1.8780000   0.4030000
  -0.8230000  -0.7220000  -0.0080000  -1.4270000   1.6210000  -0.2250000
  -2.0870000  -1.1400000   0.1350000  -3.1740000  -0.1270000   0.1030000
  -2.4670000  -2.5740000   0.3250000   3.5640000   0.2620000   1.6310000
   1.0680000   1.8010000  -0.9510000   1.1740000   0.4980000   1.7940000
   1.6070000   2.1520000   1.3310000   3.6020000  -0.6190000  -1.0010000
   1.6940000  -1.8680000   1.0870000   3.4320000  -2.1780000   0.9730000
  -0.0420000  -1.4640000   0.0070000   3.8970000   2.3410000   0.7720000
  -3.4680000   1.8960000  -0.1010000   2.1810000  -3.7040000  -0.1470000
  -2.9920000  -2.7070000   1.2760000  -1.5920000  -3.2320000   0.3330000
  -3.1240000  -2.9050000  -0.4850000
