; thymidine_GMX_OPLS.itp created by acpype (v: 2023.10.27) on Mon Feb  9 17:59:59 2026

; For OPLS atomtypes manual fine tuning
; AC_at:OPLS_at:OPLScode: Possible_Alternatives (see ffoplsaa.atp and ffoplsaanb.itp)
; os:x:opls_x: []
; oh:OH:opls_154: ['167']
; o:O:opls_236: ['272']
; n:N:opls_237: ['238', '239']
; ns:x:opls_x: []
; c5:x:opls_x: []
; c3:CT:opls_135: ['136', '137', '149', '157', '158', '206', '209', '210', '223B', '224B', '245', '246', '274', '283', '284', '285', '292', '292B', '293B', '296', '307', '308', '505']
; cc:C*:opls_500: ['506', '507', '508', '514']
; c:C:opls_235: ['271']
; cd:C*:opls_500: ['506', '507', '508', '514']
; h1:HC:opls_140: []
; h2:x:opls_x: []
; hc:HC:opls_140: []
; h4:HA:opls_146: []
; ho:HO:opls_155: ['168']
; hn:H:opls_240: ['241', '290', '301', '304', '310', '504', '513']

[ moleculetype ]
;name            nrexcl
 thymidine        3

[ atoms ]
;   nr  type  resi  res  atom  cgnr     charge      mass       ; qtot   bond_type
     1 opls_x     1    T1   O4*    1    -0.391600      0.00000 ; qtot -0.392  x   
     2 opls_154     1    T1   O3*    2    -0.588800     15.99940 ; qtot -0.980  OH  
     3 opls_154     1    T1   O5*    3    -0.589800     15.99940 ; qtot -1.570  OH  
     4 opls_236     1    T1    O2    4    -0.655500     15.99940 ; qtot -2.226  O   
     5 opls_236     1    T1    O4    5    -0.611500     15.99940 ; qtot -2.837  O   
     6 opls_237     1    T1    N1    6    -0.401000     14.00670 ; qtot -3.238  N   
     7 opls_x     1    T1    N3    7    -0.584500      0.00000 ; qtot -3.823  x   
     8 opls_x     1    T1   C3*    8     0.115100      0.00000 ; qtot -3.708  x   
     9 opls_x     1    T1   C1*    9     0.317500      0.00000 ; qtot -3.390  x   
    10 opls_x     1    T1   C2*   10    -0.147400      0.00000 ; qtot -3.537  x   
    11 opls_x     1    T1   C4*   11     0.132100      0.00000 ; qtot -3.405  x   
    12 opls_135     1    T1   C5*   12     0.106400     12.01100 ; qtot -3.299  CT  
    13 opls_500     1    T1    C6   13     0.043600     12.01100 ; qtot -3.255  C*  
    14 opls_235     1    T1    C2   14     0.806500     12.01100 ; qtot -2.449  C   
    15 opls_500     1    T1    C5   15    -0.268400     12.01100 ; qtot -2.717  C*  
    16 opls_235     1    T1    C4   16     0.715700     12.01100 ; qtot -2.002  C   
    17 opls_135     1    T1   C5M   17    -0.027900     12.01100 ; qtot -2.029  CT  
    18 opls_140     1    T1   H3*   18     0.051700      1.00800 ; qtot -1.978  HC  
    19 opls_x     1    T1   H1*   19     0.101700      0.00000 ; qtot -1.876  x   
    20 opls_140     1    T1  H2*1   20     0.086700      1.00800 ; qtot -1.789  HC  
    21 opls_140     1    T1  H2*2   21     0.086700      1.00800 ; qtot -1.703  HC  
    22 opls_140     1    T1   H4*   22     0.114700      1.00800 ; qtot -1.588  HC  
    23 opls_140     1    T1  H5*1   23     0.035200      1.00800 ; qtot -1.553  HC  
    24 opls_140     1    T1  H5*2   24     0.035200      1.00800 ; qtot -1.518  HC  
    25 opls_146     1    T1    H6   25     0.201000      1.00800 ; qtot -1.317  HA  
    26 opls_155     1    T1    H7   26     0.411000      1.00800 ; qtot -0.906  HO  
    27 opls_240     1    T1    H3   27     0.351500      1.00800 ; qtot -0.554  H   
    28 opls_155     1    T1   H5*   28     0.405000      1.00800 ; qtot -0.149  HO  
    29 opls_140     1    T1  H5M1   29     0.049700      1.00800 ; qtot -0.099  HC  
    30 opls_140     1    T1  H5M2   30     0.049700      1.00800 ; qtot -0.050  HC  
    31 opls_140     1    T1  H5M3   31     0.049700      1.00800 ; qtot  0.000  HC  

[ bonds ]
;   ai     aj funct   r             k
     1      9   1 ;    1.4346e-01    2.3063e+05 ;    O4* - C1*         x - x     
     1     11   1 ;    1.4346e-01    2.3063e+05 ;    O4* - C4*         x - x     
     2      8   1 ;    1.4194e-01    2.4241e+05 ;    O3* - C3*        OH - x     
     2     26   1 ;    9.7250e-02    4.4811e+05 ;    O3* - H7         OH - HO    
     3     12   1 ;    1.4242e-01    2.3861e+05 ;    O5* - C5*        OH - CT    
     3     28   1 ;    9.7250e-02    4.4811e+05 ;    O5* - H5*        OH - HO    
     4     14   1 ;    1.2190e-01    4.9421e+05 ;     O2 - C2          O - C     
     5     16   1 ;    1.2190e-01    4.9421e+05 ;     O4 - C4          O - C     
     6      9   1 ;    1.4685e-01    2.1010e+05 ;     N1 - C1*         N - x     
     6     13   1 ;    1.3837e-01    2.7753e+05 ;     N1 - C6          N - C*    
     6     14   1 ;    1.3967e-01    2.6565e+05 ;     N1 - C2          N - C     
     7     14   1 ;    1.3798e-01    2.8122e+05 ;     N3 - C2          x - C     
     7     16   1 ;    1.3798e-01    2.8122e+05 ;     N3 - C4          x - C     
     7     27   1 ;    1.0132e-01    3.9630e+05 ;     N3 - H3          x - H     
     8     10   1 ;    1.5483e-01    1.8418e+05 ;    C3* - C2*         x - x     
     8     11   1 ;    1.5483e-01    1.8418e+05 ;    C3* - C4*         x - x     
     8     18   1 ;    1.0972e-01    2.8768e+05 ;    C3* - H3*         x - HC    
     9     10   1 ;    1.5483e-01    1.8418e+05 ;    C1* - C2*         x - x     
     9     19   1 ;    1.0955e-01    2.8977e+05 ;    C1* - H1*         x - x     
    10     20   1 ;    1.0954e-01    2.8989e+05 ;    C2* - H2*1        x - HC    
    10     21   1 ;    1.0954e-01    2.8989e+05 ;    C2* - H2*2        x - HC    
    11     12   1 ;    1.5372e-01    1.9049e+05 ;    C4* - C5*         x - CT    
    11     22   1 ;    1.0972e-01    2.8768e+05 ;    C4* - H4*         x - HC    
    12     23   1 ;    1.0969e-01    2.8804e+05 ;    C5* - H5*1       CT - HC    
    12     24   1 ;    1.0969e-01    2.8804e+05 ;    C5* - H5*2       CT - HC    
    13     15   1 ;    1.3730e-01    3.2321e+05 ;     C6 - C5         C* - C*    
    13     25   1 ;    1.0809e-01    3.0854e+05 ;     C6 - H6         C* - HA    
    15     16   1 ;    1.4728e-01    2.3273e+05 ;     C5 - C4         C* - C     
    15     17   1 ;    1.5018e-01    2.1244e+05 ;     C5 - C5M        C* - CT    
    17     29   1 ;    1.0962e-01    2.8891e+05 ;    C5M - H5M1       CT - HC    
    17     30   1 ;    1.0962e-01    2.8891e+05 ;    C5M - H5M2       CT - HC    
    17     31   1 ;    1.0962e-01    2.8891e+05 ;    C5M - H5M3       CT - HC    

[ pairs ]
;   ai     aj    funct
     1      2      1 ;    O4* - O3*   
     1      3      1 ;    O4* - O5*   
     1     13      1 ;    O4* - C6    
     1     14      1 ;    O4* - C2    
     1     18      1 ;    O4* - H3*   
     1     20      1 ;    O4* - H2*1  
     1     21      1 ;    O4* - H2*2  
     1     23      1 ;    O4* - H5*1  
     1     24      1 ;    O4* - H5*2  
     2      9      1 ;    O3* - C1*   
     2     12      1 ;    O3* - C5*   
     2     20      1 ;    O3* - H2*1  
     2     21      1 ;    O3* - H2*2  
     2     22      1 ;    O3* - H4*   
     3      8      1 ;    O5* - C3*   
     3     22      1 ;    O5* - H4*   
     4      9      1 ;     O2 - C1*   
     4     13      1 ;     O2 - C6    
     4     16      1 ;     O2 - C4    
     4     27      1 ;     O2 - H3    
     5     13      1 ;     O4 - C6    
     5     14      1 ;     O4 - C2    
     5     17      1 ;     O4 - C5M   
     5     27      1 ;     O4 - H3    
     6      8      1 ;     N1 - C3*   
     6     16      1 ;     N1 - C4    
     6     17      1 ;     N1 - C5M   
     6     20      1 ;     N1 - H2*1  
     6     21      1 ;     N1 - H2*2  
     6     27      1 ;     N1 - H3    
     7      9      1 ;     N3 - C1*   
     7     13      1 ;     N3 - C6    
     7     17      1 ;     N3 - C5M   
     8     19      1 ;    C3* - H1*   
     8     23      1 ;    C3* - H5*1  
     8     24      1 ;    C3* - H5*2  
     9     12      1 ;    C1* - C5*   
     9     15      1 ;    C1* - C5    
     9     18      1 ;    C1* - H3*   
     9     22      1 ;    C1* - H4*   
     9     25      1 ;    C1* - H6    
    10     12      1 ;    C2* - C5*   
    10     13      1 ;    C2* - C6    
    10     14      1 ;    C2* - C2    
    10     22      1 ;    C2* - H4*   
    10     26      1 ;    C2* - H7    
    11      6      1 ;    C4* - N1    
    11     19      1 ;    C4* - H1*   
    11     20      1 ;    C4* - H2*1  
    11     21      1 ;    C4* - H2*2  
    11     26      1 ;    C4* - H7    
    11     28      1 ;    C4* - H5*   
    12     18      1 ;    C5* - H3*   
    13     19      1 ;     C6 - H1*   
    13     29      1 ;     C6 - H5M1  
    13     30      1 ;     C6 - H5M2  
    13     31      1 ;     C6 - H5M3  
    14     15      1 ;     C2 - C5    
    14     19      1 ;     C2 - H1*   
    14     25      1 ;     C2 - H6    
    15     27      1 ;     C5 - H3    
    16     25      1 ;     C4 - H6    
    16     29      1 ;     C4 - H5M1  
    16     30      1 ;     C4 - H5M2  
    16     31      1 ;     C4 - H5M3  
    17     25      1 ;    C5M - H6    
    18     20      1 ;    H3* - H2*1  
    18     21      1 ;    H3* - H2*2  
    18     22      1 ;    H3* - H4*   
    18     26      1 ;    H3* - H7    
    19     20      1 ;    H1* - H2*1  
    19     21      1 ;    H1* - H2*2  
    22     23      1 ;    H4* - H5*1  
    22     24      1 ;    H4* - H5*2  
    23     28      1 ;   H5*1 - H5*   
    24     28      1 ;   H5*2 - H5*   

[ angles ]
;   ai     aj     ak    funct   theta         cth
     1      9      6      1 ;    1.0919e+02    6.9864e+02 ;    O4* - C1*  - N1        x -    x - N   
     1      9     10      1 ;    1.0614e+02    6.4793e+02 ;    O4* - C1*  - C2*       x -    x - x   
     1      9     19      1 ;    1.0947e+02    4.7028e+02 ;    O4* - C1*  - H1*       x -    x - x   
     1     11      8      1 ;    1.0614e+02    6.4793e+02 ;    O4* - C4*  - C3*       x -    x - x   
     1     11     12      1 ;    1.0897e+02    6.4224e+02 ;    O4* - C4*  - C5*       x -    x - CT  
     1     11     22      1 ;    1.0846e+02    4.7229e+02 ;    O4* - C4*  - H4*       x -    x - HC  
     2      8     10      1 ;    1.1162e+02    6.3455e+02 ;    O3* - C3*  - C2*      OH -    x - x   
     2      8     11      1 ;    1.1162e+02    6.3455e+02 ;    O3* - C3*  - C4*      OH -    x - x   
     2      8     18      1 ;    1.1027e+02    4.7254e+02 ;    O3* - C3*  - H3*      OH -    x - HC  
     3     12     11      1 ;    1.0985e+02    6.4157e+02 ;    O5* - C5*  - C4*      OH -   CT - x   
     3     12     23      1 ;    1.1038e+02    4.7103e+02 ;    O5* - C5*  - H5*1     OH -   CT - HC  
     3     12     24      1 ;    1.1038e+02    4.7103e+02 ;    O5* - C5*  - H5*2     OH -   CT - HC  
     4     14      6      1 ;    1.2257e+02    7.2534e+02 ;     O2 - C2   - N1        O -    C - N   
     4     14      7      1 ;    1.2305e+02    7.2977e+02 ;     O2 - C2   - N3        O -    C - x   
     5     16      7      1 ;    1.2305e+02    7.2977e+02 ;     O4 - C4   - N3        O -    C - x   
     5     16     15      1 ;    1.2371e+02    6.5530e+02 ;     O4 - C4   - C5        O -    C - C*  
     6      9     10      1 ;    1.0366e+02    5.6350e+02 ;     N1 - C1*  - C2*       N -    x - x   
     6      9     19      1 ;    1.0590e+02    4.0685e+02 ;     N1 - C1*  - H1*       N -    x - x   
     6     13     15      1 ;    1.2220e+02    5.6877e+02 ;     N1 - C6   - C5        N -   C* - C*  
     6     13     25      1 ;    1.1502e+02    4.1112e+02 ;     N1 - C6   - H6        N -   C* - HA  
     6     14      7      1 ;    1.1437e+02    6.1965e+02 ;     N1 - C2   - N3        N -    C - x   
     7     16     15      1 ;    1.1220e+02    5.7245e+02 ;     N3 - C4   - C5        x -    C - C*  
     8      2     26      1 ;    1.0717e+02    5.4727e+02 ;    C3* - O3*  - H7        x -   OH - HO  
     8     10      9      1 ;    1.0383e+02    5.1748e+02 ;    C3* - C2*  - C1*       x -    x - x   
     8     10     20      1 ;    1.1117e+02    3.5690e+02 ;    C3* - C2*  - H2*1      x -    x - HC  
     8     10     21      1 ;    1.1117e+02    3.5690e+02 ;    C3* - C2*  - H2*2      x -    x - HC  
     8     11     12      1 ;    1.1360e+02    4.9647e+02 ;    C3* - C4*  - C5*       x -    x - CT  
     8     11     22      1 ;    1.1117e+02    3.5690e+02 ;    C3* - C4*  - H4*       x -    x - HC  
     9      1     11      1 ;    1.0926e+02    7.4986e+02 ;    C1* - O4*  - C4*       x -    x - x   
     9      6     13      1 ;    1.1989e+02    6.4501e+02 ;    C1* - N1   - C6        x -    N - C*  
     9      6     14      1 ;    1.1850e+02    6.4618e+02 ;    C1* - N1   - C2        x -    N - C   
     9     10     20      1 ;    1.1117e+02    3.5690e+02 ;    C1* - C2*  - H2*1      x -    x - HC  
     9     10     21      1 ;    1.1117e+02    3.5690e+02 ;    C1* - C2*  - H2*2      x -    x - HC  
    10      8     11      1 ;    1.0383e+02    5.1748e+02 ;    C2* - C3*  - C4*       x -    x - x   
    10      8     18      1 ;    1.1117e+02    3.5690e+02 ;    C2* - C3*  - H3*       x -    x - HC  
    10      9     19      1 ;    1.1053e+02    3.5798e+02 ;    C2* - C1*  - H1*       x -    x - x   
    11      8     18      1 ;    1.1117e+02    3.5690e+02 ;    C4* - C3*  - H3*       x -    x - HC  
    11     12     23      1 ;    1.0938e+02    3.6217e+02 ;    C4* - C5*  - H5*1      x -   CT - HC  
    11     12     24      1 ;    1.0938e+02    3.6217e+02 ;    C4* - C5*  - H5*2      x -   CT - HC  
    12      3     28      1 ;    1.0739e+02    5.4501e+02 ;    C5* - O5*  - H5*      CT -   OH - HO  
    12     11     22      1 ;    1.0924e+02    3.6242e+02 ;    C5* - C4*  - H4*      CT -    x - HC  
    13      6     14      1 ;    1.2161e+02    6.5806e+02 ;     C6 - N1   - C2       C* -    N - C   
    13     15     16      1 ;    1.2132e+02    5.1965e+02 ;     C6 - C5   - C4       C* -   C* - C   
    13     15     17      1 ;    1.2668e+02    5.0258e+02 ;     C6 - C5   - C5M      C* -   C* - CT  
    14      7     16      1 ;    1.2805e+02    6.4618e+02 ;     C2 - N3   - C4        C -    x - C   
    14      7     27      1 ;    1.1726e+02    4.8007e+02 ;     C2 - N3   - H3        C -    x - H   
    15     13     25      1 ;    1.2911e+02    3.6777e+02 ;     C5 - C6   - H6       C* -   C* - HA  
    15     17     29      1 ;    1.1062e+02    3.6777e+02 ;     C5 - C5M  - H5M1     C* -   CT - HC  
    15     17     30      1 ;    1.1062e+02    3.6777e+02 ;     C5 - C5M  - H5M2     C* -   CT - HC  
    15     17     31      1 ;    1.1062e+02    3.6777e+02 ;     C5 - C5M  - H5M3     C* -   CT - HC  
    16      7     27      1 ;    1.1726e+02    4.8007e+02 ;     C4 - N3   - H3        C -    x - H   
    16     15     17      1 ;    1.1767e+02    5.0593e+02 ;     C4 - C5   - C5M       C -   C* - CT  
    20     10     21      1 ;    1.0722e+02    3.0049e+02 ;   H2*1 - C2*  - H2*2     HC -    x - HC  
    23     12     24      1 ;    1.0855e+02    2.9824e+02 ;   H5*1 - C5*  - H5*2     HC -   CT - HC  
    29     17     30      1 ;    1.0773e+02    2.9957e+02 ;   H5M1 - C5M  - H5M2     HC -   CT - HC  
    29     17     31      1 ;    1.0773e+02    2.9957e+02 ;   H5M1 - C5M  - H5M3     HC -   CT - HC  
    30     17     31      1 ;    1.0773e+02    2.9957e+02 ;   H5M2 - C5M  - H5M3     HC -   CT - HC  

[ dihedrals ] ; propers
; for gromacs 4.5 or higher, using funct 9
;    i      j      k      l   func   phase     kd      pn
     1      9      6     13      9 ;     0.00   1.79912   3 ;    O4*-   C1*-    N1-    C6
     1      9      6     13      9 ;     0.00   4.81160   2 ;    O4*-   C1*-    N1-    C6
     1      9      6     13      9 ;     0.00  10.41816   1 ;    O4*-   C1*-    N1-    C6
     1      9      6     14      9 ;     0.00   0.00000   0 ;    O4*-   C1*-    N1-    C2
     1      9     10      8      9 ;     0.00   0.65084   3 ;    O4*-   C1*-   C2*-   C3*
     1      9     10     20      9 ;     0.00   0.00000   0 ;    O4*-   C1*-   C2*-  H2*1
     1      9     10     20      9 ;     0.00   1.04600   1 ;    O4*-   C1*-   C2*-  H2*1
     1      9     10     21      9 ;     0.00   0.00000   0 ;    O4*-   C1*-   C2*-  H2*2
     1      9     10     21      9 ;     0.00   1.04600   1 ;    O4*-   C1*-   C2*-  H2*2
     1     11      8      2      9 ;     0.00   2.46856   1 ;    O4*-   C4*-   C3*-   O3*
     1     11      8      2      9 ;     0.00   3.30536   3 ;    O4*-   C4*-   C3*-   O3*
     1     11      8      2      9 ;     0.00   5.27184   2 ;    O4*-   C4*-   C3*-   O3*
     1     11      8     10      9 ;     0.00   0.65084   3 ;    O4*-   C4*-   C3*-   C2*
     1     11      8     18      9 ;     0.00   0.00000   0 ;    O4*-   C4*-   C3*-   H3*
     1     11      8     18      9 ;     0.00   1.04600   1 ;    O4*-   C4*-   C3*-   H3*
     1     11     12      3      9 ;     0.00   2.46856   1 ;    O4*-   C4*-   C5*-   O5*
     1     11     12      3      9 ;     0.00   3.30536   3 ;    O4*-   C4*-   C5*-   O5*
     1     11     12      3      9 ;     0.00   5.27184   2 ;    O4*-   C4*-   C5*-   O5*
     1     11     12     23      9 ;     0.00   0.00000   0 ;    O4*-   C4*-   C5*-  H5*1
     1     11     12     23      9 ;     0.00   1.04600   1 ;    O4*-   C4*-   C5*-  H5*1
     1     11     12     24      9 ;     0.00   0.00000   0 ;    O4*-   C4*-   C5*-  H5*2
     1     11     12     24      9 ;     0.00   1.04600   1 ;    O4*-   C4*-   C5*-  H5*2
     2      8     10      9      9 ;     0.00   0.75312   3 ;    O3*-   C3*-   C2*-   C1*
     2      8     10     20      9 ;     0.00   0.37656   3 ;    O3*-   C3*-   C2*-  H2*1
     2      8     10     21      9 ;     0.00   0.37656   3 ;    O3*-   C3*-   C2*-  H2*2
     2      8     11     12      9 ;     0.00   0.75312   3 ;    O3*-   C3*-   C4*-   C5*
     2      8     11     22      9 ;     0.00   0.00000   0 ;    O3*-   C3*-   C4*-   H4*
     2      8     11     22      9 ;     0.00   1.04600   1 ;    O3*-   C3*-   C4*-   H4*
     3     12     11      8      9 ;     0.00   0.75312   3 ;    O5*-   C5*-   C4*-   C3*
     3     12     11     22      9 ;     0.00   0.00000   0 ;    O5*-   C5*-   C4*-   H4*
     3     12     11     22      9 ;     0.00   1.04600   1 ;    O5*-   C5*-   C4*-   H4*
     4     14      6      9      9 ;   180.00  10.46000   2 ;     O2-    C2-    N1-   C1*
     4     14      6     13      9 ;   180.00  10.46000   2 ;     O2-    C2-    N1-    C6
     4     14      7     16      9 ;   180.00  10.46000   2 ;     O2-    C2-    N3-    C4
     4     14      7     27      9 ;     0.00   8.36800   1 ;     O2-    C2-    N3-    H3
     4     14      7     27      9 ;   180.00  10.46000   2 ;     O2-    C2-    N3-    H3
     5     16      7     14      9 ;   180.00  10.46000   2 ;     O4-    C4-    N3-    C2
     5     16      7     27      9 ;     0.00   8.36800   1 ;     O4-    C4-    N3-    H3
     5     16      7     27      9 ;   180.00  10.46000   2 ;     O4-    C4-    N3-    H3
     5     16     15     13      9 ;   180.00  12.02900   2 ;     O4-    C4-    C5-    C6
     5     16     15     17      9 ;   180.00  12.02900   2 ;     O4-    C4-    C5-   C5M
     6      9     10      8      9 ;     0.00   0.41840   3 ;     N1-   C1*-   C2*-   C3*
     6      9     10     20      9 ;     0.00   0.65084   3 ;     N1-   C1*-   C2*-  H2*1
     6      9     10     21      9 ;     0.00   0.65084   3 ;     N1-   C1*-   C2*-  H2*2
     6     13     15     16      9 ;   180.00  16.73600   2 ;     N1-    C6-    C5-    C4
     6     13     15     17      9 ;   180.00  16.73600   2 ;     N1-    C6-    C5-   C5M
     6     14      7     16      9 ;   180.00  10.46000   2 ;     N1-    C2-    N3-    C4
     6     14      7     27      9 ;   180.00  10.46000   2 ;     N1-    C2-    N3-    H3
     7     14      6      9      9 ;   180.00  10.46000   2 ;     N3-    C2-    N1-   C1*
     7     14      6     13      9 ;   180.00  10.46000   2 ;     N3-    C2-    N1-    C6
     7     16     15     13      9 ;   180.00  12.02900   2 ;     N3-    C4-    C5-    C6
     7     16     15     17      9 ;   180.00  12.02900   2 ;     N3-    C4-    C5-   C5M
     8     10      9     19      9 ;     0.00   0.65084   3 ;    C3*-   C2*-   C1*-   H1*
     8     11     12     23      9 ;     0.00   0.65084   3 ;    C3*-   C4*-   C5*-  H5*1
     8     11     12     24      9 ;     0.00   0.65084   3 ;    C3*-   C4*-   C5*-  H5*2
     9      1     11      8      9 ;     0.00   0.33472   2 ;    C1*-   O4*-   C4*-   C3*
     9      1     11      8      9 ;     0.00   3.13800   3 ;    C1*-   O4*-   C4*-   C3*
     9      1     11      8      9 ;   180.00   3.68192   1 ;    C1*-   O4*-   C4*-   C3*
     9      1     11     12      9 ;     0.00   0.33472   2 ;    C1*-   O4*-   C4*-   C5*
     9      1     11     12      9 ;     0.00   3.13800   3 ;    C1*-   O4*-   C4*-   C5*
     9      1     11     12      9 ;   180.00   3.68192   1 ;    C1*-   O4*-   C4*-   C5*
     9      1     11     22      9 ;     0.00   1.41001   3 ;    C1*-   O4*-   C4*-   H4*
     9      6     13     15      9 ;   180.00   6.90360   2 ;    C1*-    N1-    C6-    C5
     9      6     13     25      9 ;   180.00   6.90360   2 ;    C1*-    N1-    C6-    H6
     9     10      8     11      9 ;     0.00   2.17568   3 ;    C1*-   C2*-   C3*-   C4*
     9     10      8     18      9 ;     0.00   0.65084   3 ;    C1*-   C2*-   C3*-   H3*
    10      8      2     26      9 ;     0.00   0.25104   3 ;    C2*-   C3*-   O3*-    H7
    10      8     11     12      9 ;     0.00   2.17568   3 ;    C2*-   C3*-   C4*-   C5*
    10      8     11     22      9 ;     0.00   0.65084   3 ;    C2*-   C3*-   C4*-   H4*
    10      9      6     13      9 ;     0.00   0.00000   0 ;    C2*-   C1*-    N1-    C6
    10      9      6     14      9 ;     0.00   9.45584   1 ;    C2*-   C1*-    N1-    C2
    10      9      6     14      9 ;   180.00   0.12552   3 ;    C2*-   C1*-    N1-    C2
    10      9      6     14      9 ;   180.00   2.71960   4 ;    C2*-   C1*-    N1-    C2
    11      1      9      6      9 ;     0.00   1.60387   3 ;    C4*-   O4*-   C1*-    N1
    11      1      9     10      9 ;     0.00   0.33472   2 ;    C4*-   O4*-   C1*-   C2*
    11      1      9     10      9 ;     0.00   3.13800   3 ;    C4*-   O4*-   C1*-   C2*
    11      1      9     10      9 ;   180.00   3.68192   1 ;    C4*-   O4*-   C1*-   C2*
    11      1      9     19      9 ;     0.00   1.60387   3 ;    C4*-   O4*-   C1*-   H1*
    11      8      2     26      9 ;     0.00   0.25104   3 ;    C4*-   C3*-   O3*-    H7
    11      8     10     20      9 ;     0.00   0.54392   3 ;    C4*-   C3*-   C2*-  H2*1
    11      8     10     21      9 ;     0.00   0.54392   3 ;    C4*-   C3*-   C2*-  H2*2
    11     12      3     28      9 ;     0.00   0.25104   3 ;    C4*-   C5*-   O5*-   H5*
    12     11      8     18      9 ;     0.00   0.65084   3 ;    C5*-   C4*-   C3*-   H3*
    13      6      9     19      9 ;     0.00   0.00000   0 ;     C6-    N1-   C1*-   H1*
    13     15     17     29      9 ;     0.00   0.00000   0 ;     C6-    C5-   C5M-  H5M1
    13     15     17     30      9 ;     0.00   0.00000   0 ;     C6-    C5-   C5M-  H5M2
    13     15     17     31      9 ;     0.00   0.00000   0 ;     C6-    C5-   C5M-  H5M3
    14      6      9     19      9 ;     0.00   0.00000   0 ;     C2-    N1-   C1*-   H1*
    14      6     13     15      9 ;   180.00   6.90360   2 ;     C2-    N1-    C6-    C5
    14      6     13     25      9 ;   180.00   6.90360   2 ;     C2-    N1-    C6-    H6
    14      7     16     15      9 ;   180.00  10.46000   2 ;     C2-    N3-    C4-    C5
    15     16      7     27      9 ;   180.00  10.46000   2 ;     C5-    C4-    N3-    H3
    16     15     13     25      9 ;   180.00  16.73600   2 ;     C4-    C5-    C6-    H6
    16     15     17     29      9 ;     0.00   0.00000   0 ;     C4-    C5-   C5M-  H5M1
    16     15     17     30      9 ;     0.00   0.00000   0 ;     C4-    C5-   C5M-  H5M2
    16     15     17     31      9 ;     0.00   0.00000   0 ;     C4-    C5-   C5M-  H5M3
    17     15     13     25      9 ;   180.00  16.73600   2 ;    C5M-    C5-    C6-    H6
    18      8      2     26      9 ;     0.00   0.51463   3 ;    H3*-   C3*-   O3*-    H7
    18      8     10     20      9 ;     0.00   0.65084   3 ;    H3*-   C3*-   C2*-  H2*1
    18      8     10     21      9 ;     0.00   0.65084   3 ;    H3*-   C3*-   C2*-  H2*2
    18      8     11     22      9 ;     0.00   0.65084   3 ;    H3*-   C3*-   C4*-   H4*
    19      9     10     20      9 ;     0.00   0.65084   3 ;    H1*-   C1*-   C2*-  H2*1
    19      9     10     21      9 ;     0.00   0.65084   3 ;    H1*-   C1*-   C2*-  H2*2
    22     11     12     23      9 ;     0.00   0.65084   3 ;    H4*-   C4*-   C5*-  H5*1
    22     11     12     24      9 ;     0.00   0.65084   3 ;    H4*-   C4*-   C5*-  H5*2
    23     12      3     28      9 ;     0.00   0.51463   3 ;   H5*1-   C5*-   O5*-   H5*
    24     12      3     28      9 ;     0.00   0.51463   3 ;   H5*2-   C5*-   O5*-   H5*

[ dihedrals ] ; impropers
; treated as propers in GROMACS to use correct AMBER analytical function
;    i      j      k      l   func   phase     kd      pn
     6      7     14      4      4 ;   180.00  43.93200   2 ;     N1-    N3-    C2-    O2
    14      9      6     13      4 ;   180.00   4.60240   2 ;     C2-   C1*-    N1-    C6
    14     16      7     27      4 ;   180.00   4.60240   2 ;     C2-    C4-    N3-    H3
    15      7     16      5      4 ;   180.00  43.93200   2 ;     C5-    N3-    C4-    O4
    15     25     13      6      4 ;   180.00   4.60240   2 ;     C5-    H6-    C6-    N1
    16     17     15     13      4 ;   180.00   4.60240   2 ;     C4-   C5M-    C5-    C6
