generated by VMD, t= 0.000000
21
    0ZUVU   H8     1   0.376  -0.243  -0.000
    0ZUVU   N3     2   0.309  -0.167   0.003
    0ZUVU   H7     3   0.210  -0.188  -0.000
    0ZUVU   C8     4   0.353  -0.041   0.001
    0ZUVU   S1     5   0.517   0.003   0.000
    0ZUVU   N2     6   0.257   0.056   0.000
    0ZUVU   H6     7   0.288   0.153  -0.002
    0ZUVU   N1     8   0.124   0.025   0.001
    0ZUVU   C7     9   0.041   0.123  -0.001
    0ZUVU   H5    10   0.076   0.227  -0.003
    0ZUVU   C4    11  -0.104   0.103  -0.000
    0ZUVU   C3    12  -0.187   0.216   0.000
    0ZUVU   H3    13  -0.144   0.315   0.001
    0ZUVU   C2    14  -0.326   0.201   0.001
    0ZUVU   H2    15  -0.390   0.289   0.002
    0ZUVU   C1    16  -0.384   0.074   0.000
    0ZUVU   H1    17  -0.491   0.061   0.001
    0ZUVU   C6    18  -0.299  -0.038  -0.000
    0ZUVU   Cl1   19  -0.371  -0.199  -0.001
    0ZUVU   C5    20  -0.161  -0.026  -0.001
    0ZUVU   H4    21  -0.098  -0.113  -0.002
   0.00000   0.00000   0.00000   0.00000   0.00000   0.00000   0.00000   0.00000   0.00000
