generated by VMD, t= 0.000000
15
    1G280   C      1  -0.095  -0.015  -0.066
    1G280   C      2  -0.210  -0.082  -0.111
    1G280   C      3  -0.200  -0.208  -0.173
    1G280   C      4  -0.074  -0.267  -0.189
    1G280   C      5   0.041  -0.201  -0.144
    1G280   C      6   0.035  -0.074  -0.082
    1G280   O      7  -0.114   0.105  -0.007
    1G280   N      8   0.148  -0.013  -0.039
    1G280   O      9   0.263  -0.065  -0.053
    1G280   O     10   0.149   0.091   0.013
    1G280   H     11  -0.302  -0.039  -0.100
    1G280   H     12  -0.284  -0.256  -0.206
    1G280   H     13  -0.066  -0.359  -0.234
    1G280   H     14  -0.094   0.172  -0.076
    1G280   H     15   0.131  -0.248  -0.158
   0.00000   0.00000   0.00000   0.00000   0.00000   0.00000   0.00000   0.00000   0.00000
