generated by VMD, t= 0.000000
  327
    0B5XE    H9    1   6.737   4.393   4.409
    0B5XE    C8    2   6.714   4.292   4.451
    0B5XE    H7    3   6.769   4.279   4.547
    0B5XE    H8    4   6.604   4.285   4.471
    0B5XE    C7    5   6.757   4.184   4.355
    0B5XE    O6    6   6.839   4.096   4.388
    0B5XE    N1    7   6.702   4.184   4.229
    0B5XE   H13    8   6.639   4.257   4.202
    0B5XE    C2    9   6.734   4.084   4.132
    0B5XE    H1   10   6.752   3.986   4.187
    0B5XE    C1   11   6.620   4.060   4.029
    0B5XE   H14   12   6.592   4.153   3.972
    0B5XE    O1   13   6.510   4.005   4.100
    0B5XE    O4   14   6.652   3.954   3.940
    0B5XE    C5   15   6.769   3.977   3.861
    0B5XE    H4   16   6.753   4.067   3.796
    0B5XE    C6   17   6.785   3.851   3.774
    0B5XE    H5   18   6.714   3.856   3.688
    0B5XE    H6   19   6.891   3.847   3.737
    0B5XE    O5   20   6.767   3.733   3.848
    0B5XE   H12   21   6.674   3.729   3.874
    0B5XE    C4   22   6.890   3.999   3.953
    0B5XE    H3   23   6.912   3.905   4.010
    0B5XE    O3   24   7.000   4.031   3.869
    0B5XE   H11   25   7.070   4.062   3.927
    0B5XE    C3   26   6.862   4.115   4.050
    0B5XE    H2   27   6.851   4.211   3.992
    0B5XE    O2   28   6.976   4.137   4.131
    0B5XE   H10   29   6.971   4.075   4.206
    0B5XE   C12   30   6.393   3.985   4.020
    0B5XE   H17   31   6.413   4.007   3.912
    0B5XE   C13   32   6.282   4.077   4.072
    0B5XE   H18   33   6.264   4.059   4.182
    0B5XE    O9   34   6.162   4.051   3.998
    0B5XE   C14   35   6.314   4.225   4.049
    0B5XE   H19   36   6.226   4.288   4.080
    0B5XE   H20   37   6.405   4.252   4.110
    0B5XE   O10   38   6.350   4.252   3.916
    0B5XE   H25   39   6.272   4.232   3.861
    0B5XE   C11   40   6.351   3.838   4.038
    0B5XE   H16   41   6.335   3.817   4.147
    0B5XE    O8   42   6.451   3.751   3.988
    0B5XE   H24   43   6.535   3.783   4.023
    0B5XE   C10   44   6.221   3.814   3.957
    0B5XE   H15   45   6.241   3.837   3.848
    0B5XE    N2   46   6.174   3.679   3.967
    0B5XE   H26   47   6.182   3.635   4.056
    0B5XE    C9   48   6.116   3.916   4.010
    0B5XE   H27   49   6.083   3.895   4.116
    0B5XE    O7   50   6.008   3.918   3.919
    0B5XE   C20   51   5.893   3.988   3.966
    0B5XE   H30   52   5.915   4.045   4.061
    0B5XE   C21   53   5.780   3.887   3.991
    0B5XE   H31   54   5.762   3.826   3.899
    0B5XE   O14   55   5.662   3.957   4.027
    0B5XE   C22   56   5.812   3.794   4.109
    0B5XE   H32   57   5.724   3.727   4.129
    0B5XE   H33   58   5.903   3.734   4.084
    0B5XE   O15   59   5.846   3.867   4.225
    0B5XE   H38   60   5.768   3.918   4.251
    0B5XE   C19   61   5.852   4.085   3.854
    0B5XE   H29   62   5.836   4.028   3.759
    0B5XE   O13   63   5.951   4.184   3.833
    0B5XE   H37   64   6.037   4.137   3.836
    0B5XE   C18   65   5.721   4.159   3.896
    0B5XE   H28   66   5.741   4.216   3.992
    0B5XE    N3   67   5.675   4.251   3.797
    0B5XE   H39   68   5.681   4.222   3.702
    0B5XE   C17   69   5.616   4.048   3.927
    0B5XE   H40   70   5.583   3.992   3.835
    0B5XE   O12   71   5.508   4.109   3.994
    0B5XE   C28   72   5.392   4.026   4.007
    0B5XE   H43   73   5.414   3.920   3.977
    0B5XE   C29   74   5.280   4.083   3.919
    0B5XE   H44   75   5.262   4.191   3.945
    0B5XE   O19   76   5.161   4.007   3.940
    0B5XE   C30   77   5.313   4.071   3.769
    0B5XE   H45   78   5.225   4.107   3.709
    0B5XE   H46   79   5.404   4.131   3.747
    0B5XE   O20   80   5.346   3.938   3.734
    0B5XE   H51   81   5.268   3.884   3.749
    0B5XE   C27   82   5.350   4.031   4.154
    0B5XE   H42   83   5.335   4.138   4.185
    0B5XE   O18   84   5.449   3.974   4.238
    0B5XE   H50   85   5.535   4.004   4.204
    0B5XE   C26   86   5.220   3.949   4.173
    0B5XE   H41   87   5.239   3.841   4.142
    0B5XE    N4   88   5.172   3.949   4.308
    0B5XE   H52   89   5.179   4.034   4.358
    0B5XE   C25   90   5.115   4.009   4.075
    0B5XE   H53   91   5.082   4.112   4.103
    0B5XE   O17   92   5.007   3.918   4.066
    0B5XE   C36   93   4.892   3.969   3.999
    0B5XE   H56   94   4.914   4.068   3.949
    0B5XE   C37   95   4.779   3.987   4.101
    0B5XE   H57   96   4.760   3.890   4.156
    0B5XE   O24   97   4.660   4.028   4.033
    0B5XE   C38   98   4.810   4.098   4.202
    0B5XE   H58   99   4.722   4.112   4.271
    0B5XE   H59  100   4.901   4.070   4.260
    0B5XE   O25  101   4.842   4.220   4.138
    0B5XE   H64  102   4.764   4.248   4.089
    0B5XE   C35  103   4.851   3.865   3.894
    0B5XE   H55  104   4.836   3.765   3.945
    0B5XE   O23  105   4.952   3.850   3.795
    0B5XE   H63  106   5.037   3.852   3.841
    0B5XE   C34  107   4.721   3.911   3.823
    0B5XE   H54  108   4.741   4.011   3.773
    0B5XE    N5  109   4.675   3.819   3.724
    0B5XE   H65  110   4.683   3.722   3.746
    0B5XE   C33  111   4.615   3.934   3.935
    0B5XE   H66  112   4.582   3.838   3.985
    0B5XE   O22  113   4.508   4.006   3.878
    0B5XE   C44  114   4.392   4.014   3.962
    0B5XE   H69  115   4.413   3.977   4.066
    0B5XE   C45  116   4.279   3.931   3.899
    0B5XE   H70  117   4.261   3.965   3.793
    0B5XE   O29  118   4.160   3.949   3.975
    0B5XE   C46  119   4.310   3.782   3.901
    0B5XE   H71  120   4.223   3.724   3.860
    0B5XE   H72  121   4.402   3.762   3.840
    0B5XE   O30  122   4.342   3.736   4.031
    0B5XE   H77  123   4.263   3.749   4.086
    0B5XE   C43  124   4.351   4.162   3.966
    0B5XE   H68  125   4.336   4.200   3.861
    0B5XE   O28  126   4.451   4.241   4.029
    0B5XE   H76  127   4.537   4.208   3.997
    0B5XE   C42  128   4.221   4.177   4.049
    0B5XE   H67  129   4.240   4.138   4.154
    0B5XE    N6  130   4.175   4.312   4.058
    0B5XE   H78  131   4.183   4.368   3.976
    0B5XE   C41  132   4.115   4.084   3.982
    0B5XE   H79  133   4.083   4.120   3.881
    0B5XE   O27  134   4.007   4.071   4.073
    0B5XE   C52  135   3.891   4.008   4.016
    0B5XE   H82  136   3.913   3.964   3.915
    0B5XE   C53  137   3.779   4.112   4.006
    0B5XE   H83  138   3.761   4.160   4.106
    0B5XE   O34  139   3.660   4.048   3.961
    0B5XE   C54  140   3.811   4.220   3.902
    0B5XE   H84  141   3.724   4.290   3.893
    0B5XE   H85  142   3.903   4.275   3.934
    0B5XE   O35  143   3.843   4.164   3.776
    0B5XE   H90  144   3.764   4.118   3.745
    0B5XE   C51  145   3.850   3.897   4.114
    0B5XE   H81  146   3.835   3.941   4.216
    0B5XE   O33  147   3.949   3.796   4.122
    0B5XE   H89  148   4.035   3.841   4.123
    0B5XE   C50  149   3.719   3.830   4.062
    0B5XE   H80  150   3.738   3.787   3.960
    0B5XE    N7  151   3.672   3.725   4.148
    0B5XE   H91  152   3.681   3.740   4.246
    0B5XE   C49  153   3.614   3.944   4.048
    0B5XE   H92  154   3.582   3.988   4.146
    0B5XE   O32  155   3.506   3.893   3.972
    0B5XE   C60  156   3.391   3.978   3.971
    0B5XE   H95  157   3.413   4.079   4.015
    0B5XE   C61  158   3.278   3.910   4.049
    0B5XE   H96  159   3.259   3.807   4.009
    0B5XE   O39  160   3.160   3.989   4.038
    0B5XE   C62  161   3.309   3.902   4.199
    0B5XE   H97  162   3.222   3.857   4.253
    0B5XE   H98  163   3.402   3.839   4.213
    0B5XE   O40  164   3.342   4.028   4.253
    0B5XE  H103  165   3.263   4.084   4.244
    0B5XE   C59  166   3.350   3.993   3.823
    0B5XE   H94  167   3.334   3.891   3.778
    0B5XE   O38  168   3.449   4.061   3.749
    0B5XE  H102  169   3.535   4.026   3.779
    0B5XE   C58  170   3.220   4.078   3.815
    0B5XE   H93  171   3.239   4.179   3.861
    0B5XE    N8  172   3.173   4.096   3.681
    0B5XE  H104  173   3.180   4.018   3.620
    0B5XE   C57  174   3.114   4.005   3.904
    0B5XE  H105  175   3.081   3.906   3.861
    0B5XE   O37  176   3.006   4.095   3.924
    0B5XE   C68  177   2.891   4.035   3.984
    0B5XE  H108  178   2.912   3.931   4.020
    0B5XE   C69  179   2.778   4.031   3.880
    0B5XE  H109  180   2.760   4.135   3.839
    0B5XE   O44  181   2.659   3.982   3.942
    0B5XE   C70  182   2.809   3.935   3.765
    0B5XE  H110  183   2.721   3.930   3.695
    0B5XE  H111  184   2.901   3.970   3.711
    0B5XE   O45  185   2.841   3.806   3.812
    0B5XE  H116  186   2.762   3.771   3.857
    0B5XE   C67  187   2.850   4.125   4.101
    0B5XE  H107  188   2.835   4.231   4.064
    0B5XE   O43  189   2.950   4.126   4.202
    0B5XE  H115  190   3.036   4.130   4.156
    0B5XE   C66  191   2.720   4.070   4.165
    0B5XE  H106  192   2.739   3.965   4.202
    0B5XE    N9  193   2.674   4.149   4.275
    0B5XE  H117  194   2.682   4.248   4.267
    0B5XE   C65  195   2.614   4.062   4.051
    0B5XE  H118  196   2.581   4.164   4.015
    0B5XE   O42  197   2.507   3.984   4.098
    0B5XE   C76  198   2.391   3.986   4.014
    0B5XE  H121  199   2.412   4.037   3.916
    0B5XE   C77  200   2.278   4.060   4.088
    0B5XE  H122  201   2.261   4.013   4.189
    0B5XE   O49  202   2.159   4.053   4.010
    0B5XE   C78  203   2.308   4.209   4.105
    0B5XE  H123  204   2.221   4.260   4.154
    0B5XE  H124  205   2.401   4.220   4.167
    0B5XE   O50  206   2.339   4.271   3.982
    0B5XE  H129  207   2.260   4.265   3.926
    0B5XE   C75  208   2.350   3.840   3.991
    0B5XE  H120  209   2.336   3.789   4.090
    0B5XE   O48  210   2.450   3.771   3.918
    0B5XE  H128  211   2.536   3.799   3.954
    0B5XE   C74  212   2.220   3.836   3.907
    0B5XE  H119  213   2.238   3.888   3.808
    0B5XE   N10  214   2.174   3.703   3.881
    0B5XE  H130  215   2.183   3.637   3.954
    0B5XE   C73  216   2.114   3.919   3.986
    0B5XE  H131  217   2.082   3.871   4.082
    0B5XE   O47  218   2.005   3.944   3.899
    0B5XE   C84  219   1.890   3.999   3.963
    0B5XE  H134  220   1.912   4.029   4.069
    0B5XE   C85  221   1.778   3.894   3.961
    0B5XE  H135  222   1.760   3.859   3.856
    0B5XE   O54  223   1.659   3.952   4.014
    0B5XE   C86  224   1.810   3.774   4.051
    0B5XE  H136  225   1.723   3.703   4.052
    0B5XE  H137  226   1.902   3.723   4.012
    0B5XE   O55  227   1.843   3.814   4.183
    0B5XE  H142  228   1.765   3.857   4.219
    0B5XE   C83  229   1.848   4.122   3.881
    0B5XE  H133  230   1.833   4.091   3.774
    0B5XE   O53  231   1.947   4.222   3.886
    0B5XE  H141  232   2.033   4.178   3.877
    0B5XE   C82  233   1.717   4.181   3.941
    0B5XE  H132  234   1.736   4.210   4.049
    0B5XE   N11  235   1.670   4.296   3.870
    0B5XE  H143  236   1.678   4.294   3.771
    0B5XE   C81  237   1.613   4.065   3.941
    0B5XE  H144  238   1.581   4.034   3.837
    0B5XE   O52  239   1.504   4.106   4.021
    0B5XE   C92  240   1.388   4.022   4.010
    0B5XE  H147  241   1.411   3.927   3.954
    0B5XE   C93  242   1.277   4.100   3.938
    0B5XE  H148  243   1.262   4.200   3.987
    0B5XE   O59  244   1.156   4.025   3.942
    0B5XE   C94  245   1.310   4.120   3.790
    0B5XE  H149  246   1.223   4.169   3.739
    0B5XE  H150  247   1.402   4.183   3.781
    0B5XE   O60  248   1.342   3.998   3.725
    0B5XE  H155  249   1.265   3.941   3.732
    0B5XE   C91  250   1.346   3.989   4.154
    0B5XE  H146  251   1.333   4.084   4.213
    0B5XE   O58  252   1.442   3.907   4.219
    0B5XE  H154  253   1.529   3.943   4.195
    0B5XE   C90  254   1.212   3.910   4.148
    0B5XE  H145  255   1.228   3.819   4.083
    0B5XE   N12  256   1.166   3.866   4.277
    0B5XE  H156  257   1.211   3.904   4.357
    0B5XE   C89  258   1.110   4.002   4.076
    0B5XE  H157  259   1.093   4.099   4.130
    0B5XE   O57  260   0.985   3.944   4.054
    0B5XE  H158  261   0.998   3.852   4.026
    0B5XE   C95  262   1.084   3.755   4.289
    0B5XE   O61  263   1.038   3.699   4.187
    0B5XE   C96  264   1.051   3.708   4.428
    0B5XE  H151  265   0.984   3.619   4.421
    0B5XE  H152  266   0.998   3.789   4.485
    0B5XE  H153  267   1.143   3.679   4.483
    0B5XE   C87  268   1.648   4.418   3.932
    0B5XE   O56  269   1.653   4.429   4.056
    0B5XE   C88  270   1.614   4.535   3.843
    0B5XE  H138  271   1.592   4.623   3.908
    0B5XE  H139  272   1.524   4.512   3.781
    0B5XE  H140  273   1.700   4.559   3.777
    0B5XE   C79  274   2.152   3.656   3.752
    0B5XE   O51  275   2.156   3.732   3.653
    0B5XE   C80  276   2.121   3.509   3.737
    0B5XE  H125  277   2.098   3.488   3.630
    0B5XE  H126  278   2.033   3.481   3.799
    0B5XE  H127  279   2.209   3.447   3.769
    0B5XE   C71  280   2.653   4.096   4.402
    0B5XE   O46  281   2.657   3.973   4.422
    0B5XE   C72  282   2.621   4.193   4.513
    0B5XE  H112  283   2.598   4.135   4.605
    0B5XE  H113  284   2.532   4.255   4.486
    0B5XE  H114  285   2.708   4.259   4.532
    0B5XE   C63  286   3.152   4.221   3.626
    0B5XE   O41  287   3.158   4.325   3.696
    0B5XE   C64  288   3.119   4.227   3.479
    0B5XE   H99  289   3.098   4.333   3.451
    0B5XE  H100  290   3.029   4.165   3.456
    0B5XE  H101  291   3.206   4.190   3.419
    0B5XE   C55  292   3.651   3.596   4.102
    0B5XE   O36  293   3.655   3.568   3.981
    0B5XE   C56  294   3.618   3.492   4.206
    0B5XE   H86  295   3.594   3.396   4.154
    0B5XE   H87  296   3.529   3.523   4.267
    0B5XE   H88  297   3.705   3.476   4.274
    0B5XE   C47  298   4.154   4.376   4.179
    0B5XE   O31  299   4.159   4.314   4.287
    0B5XE   C48  300   4.121   4.523   4.174
    0B5XE   H73  301   4.100   4.559   4.278
    0B5XE   H74  302   4.032   4.542   4.111
    0B5XE   H75  303   4.208   4.581   4.134
    0B5XE   C39  304   4.655   3.856   3.592
    0B5XE   O26  305   4.661   3.975   3.556
    0B5XE   C40  306   4.623   3.745   3.494
    0B5XE   H60  307   4.601   3.790   3.395
    0B5XE   H61  308   4.533   3.687   3.528
    0B5XE   H62  309   4.710   3.675   3.485
    0B5XE   C31  310   5.152   3.831   4.380
    0B5XE   O21  311   5.158   3.720   4.325
    0B5XE   C32  312   5.117   3.846   4.526
    0B5XE   H47  313   5.097   3.745   4.568
    0B5XE   H48  314   5.027   3.910   4.539
    0B5XE   H49  315   5.203   3.892   4.581
    0B5XE   C23  316   5.655   4.386   3.825
    0B5XE   O16  317   5.661   4.430   3.941
    0B5XE   C24  318   5.621   4.475   3.708
    0B5XE   H34  319   5.599   4.577   3.746
    0B5XE   H35  320   5.532   4.436   3.653
    0B5XE   H36  321   5.708   4.480   3.637
    0B5XE   C15  322   6.152   3.600   3.855
    0B5XE   O11  323   6.156   3.647   3.740
    0B5XE   C16  324   6.119   3.454   3.880
    0B5XE   H21  325   6.094   3.406   3.782
    0B5XE   H22  326   6.031   3.445   3.948
    0B5XE   H23  327   6.206   3.402   3.926
   8.00000   8.00000   8.00000
