generated by VMD, t= 0.000000
182
    2HPCD   C3A    1   1.015   0.451   1.027
    2HPCD   C4A    2   1.114   0.542   1.103
    2HPCD   C5A    3   1.210   0.615   1.005
    2HPCD   O5A    4   1.274   0.533   0.900
    2HPCD   C1A    5   1.180   0.462   0.826
    2HPCD   C2A    6   1.091   0.368   0.919
    2HPCD   O4B    7   1.098   0.563   0.767
    2HPCD   C4B    8   1.080   0.575   0.625
    2HPCD   C5B    9   1.173   0.690   0.567
    2HPCD   O5B   10   1.106   0.738   0.448
    2HPCD   C1B   11   0.995   0.821   0.480
    2HPCD   C2B   12   0.910   0.762   0.601
    2HPCD   C3B   13   0.931   0.612   0.617
    2HPCD   O4C   14   1.047   0.949   0.521
    2HPCD   C4C   15   1.121   1.023   0.423
    2HPCD   C5C   16   1.230   1.097   0.493
    2HPCD   O5C   17   1.230   1.233   0.446
    2HPCD   C1C   18   1.109   1.298   0.483
    2HPCD   C2C   19   0.991   1.219   0.423
    2HPCD   C3C   20   1.032   1.105   0.332
    2HPCD   C6B   21   1.309   0.627   0.532
    2HPCD   O6B   22   1.295   0.529   0.424
    2HPCD   O2B   23   0.932   0.840   0.716
    2HPCD   O3B   24   0.874   0.555   0.502
    2HPCD   O4D   25   1.093   1.319   0.619
    2HPCD   C4D   26   1.101   1.448   0.675
    2HPCD   C5D   27   1.155   1.427   0.816
    2HPCD   O5D   28   1.157   1.556   0.874
    2HPCD   C1D   29   1.032   1.617   0.894
    2HPCD   C2D   30   0.953   1.634   0.762
    2HPCD   C3D   31   0.957   1.504   0.682
    2HPCD   C6C   32   1.358   1.029   0.463
    2HPCD   O6C   33   1.468   1.093   0.514
    2HPCD   O2C   34   0.892   1.176   0.512
    2HPCD   O3C   35   1.086   1.157   0.214
    2HPCD   O4E   36   0.959   1.537   0.984
    2HPCD   C4E   37   0.907   1.591   1.101
    2HPCD   C5E   38   1.000   1.573   1.219
    2HPCD   O5E   39   0.931   1.589   1.339
    2HPCD   C1E   40   0.820   1.514   1.364
    2HPCD   C2E   41   0.709   1.546   1.255
    2HPCD   C3E   42   0.777   1.514   1.122
    2HPCD   C6D   43   1.304   1.378   0.805
    2HPCD   O6D   44   1.391   1.457   0.736
    2HPCD   O2D   45   0.816   1.682   0.779
    2HPCD   O3D   46   0.908   1.526   0.549
    2HPCD   O4F   47   0.871   1.383   1.354
    2HPCD   C4F   48   0.886   1.318   1.481
    2HPCD   C5F   49   1.024   1.260   1.491
    2HPCD   O5F   50   1.011   1.170   1.601
    2HPCD   C1F   51   0.933   1.056   1.583
    2HPCD   C2F   52   0.784   1.102   1.580
    2HPCD   C3F   53   0.774   1.215   1.478
    2HPCD   C6E   54   1.120   1.664   1.219
    2HPCD   O6E   55   1.078   1.793   1.195
    2HPCD   O2E   56   0.591   1.467   1.274
    2HPCD   O3E   57   0.680   1.536   1.019
    2HPCD   O4G   58   0.966   0.976   1.461
    2HPCD   C4G   59   1.007   0.842   1.474
    2HPCD   C5G   60   1.117   0.822   1.374
    2HPCD   O5G   61   1.154   0.690   1.368
    2HPCD   C1G   62   1.062   0.595   1.330
    2HPCD   C2G   63   0.940   0.605   1.417
    2HPCD   C3G   64   0.897   0.749   1.432
    2HPCD   C6F   65   1.133   1.370   1.507
    2HPCD   O6F   66   1.110   1.455   1.620
    2HPCD   O2F   67   0.693   0.992   1.563
    2HPCD   O3F   68   0.650   1.279   1.489
    2HPCD   O4A   69   1.043   0.629   1.191
    2HPCD   C6G   70   1.235   0.913   1.392
    2HPCD   O6G   71   1.318   0.883   1.499
    2HPCD   O2G   72   0.844   0.514   1.371
    2HPCD   O3G   73   0.788   0.742   1.519
    2HPCD   C6A   74   1.324   0.688   1.081
    2HPCD   O6A   75   1.408   0.748   0.986
    2HPCD   O2A   76   0.993   0.295   0.841
    2HPCD   O3A   77   0.954   0.373   1.126
    2HPCD  C13C   78   0.987   1.229   0.145
    2HPCD  C13D   79   1.007   1.490   0.456
    2HPCD  C12D   80   0.817   1.801   0.853
    2HPCD  C16D   81   1.518   1.399   0.737
    2HPCD  C12A   82   0.917   0.214   0.926
    2HPCD  C12G   83   0.730   0.522   1.451
    2HPCD  C13A   84   0.979   0.237   1.100
    2HPCD  C16A   85   1.512   0.815   1.051
    2HPCD  C16G   86   1.423   0.976   1.504
    2HPCD  C12F   87   0.562   1.039   1.561
    2HPCD  C13F   88   0.575   1.219   1.590
    2HPCD  C12E   89   0.497   1.499   1.176
    2HPCD  C13E   90   0.738   1.508   0.894
    2HPCD  C13G   91   0.810   0.827   1.628
    2HPCD  C12C   92   0.793   1.106   0.442
    2HPCD  C13B   93   0.739   0.589   0.494
    2HPCD  C12B   94   0.857   0.788   0.823
    2HPCD  C16B   95   1.421   0.474   0.395
    2HPCD  C16E   96   1.189   1.879   1.194
    2HPCD  C16C   97   1.583   1.021   0.481
    2HPCD  C16F   98   1.212   1.551   1.628
    2HPCD  C26E   99   1.145   2.014   1.168
    2HPCD  C36E  100   1.259   2.103   1.168
    2HPCD  C26F  101   1.188   1.637   1.742
    2HPCD  C36F  102   1.294   1.736   1.750
    2HPCD  C26G  103   1.509   0.945   1.616
    2HPCD  C36G  104   1.619   1.040   1.621
    2HPCD  C22E  105   0.378   1.419   1.196
    2HPCD  C32E  106   0.280   1.452   1.093
    2HPCD  C23E  107   0.641   1.531   0.789
    2HPCD  C33E  108   0.515   1.574   0.848
    2HPCD  C22D  109   0.681   1.849   0.870
    2HPCD  C32D  110   0.682   1.972   0.946
    2HPCD  C23D  111   0.957   1.512   0.322
    2HPCD  C33D  112   1.059   1.475   0.226
    2HPCD  C26D  113   1.611   1.483   0.664
    2HPCD  C36D  114   1.742   1.423   0.664
    2HPCD  C22C  115   0.691   1.061   0.534
    2HPCD  C23C  116   1.043   1.283   0.022
    2HPCD  C33C  117   0.941   1.357  -0.048
    2HPCD  C26C  118   1.700   1.088   0.535
    2HPCD  C36C  119   1.819   1.013   0.500
    2HPCD  C32C  120   0.588   0.989   0.461
    2HPCD  C26B  121   1.407   0.377   0.288
    2HPCD  C36B  122   1.537   0.320   0.258
    2HPCD  C23B  123   0.681   0.529   0.375
    2HPCD  C33B  124   0.541   0.564   0.367
    2HPCD  C22B  125   0.880   0.868   0.941
    2HPCD  C32B  126   0.802   0.814   1.052
    2HPCD  C23G  127   0.697   0.820   1.718
    2HPCD  C33G  128   0.719   0.908   1.831
    2HPCD  C22G  129   0.630   0.428   1.403
    2HPCD  C32G  130   0.512   0.436   1.486
    2HPCD  C23A  131   0.915   0.157   1.202
    2HPCD  C33A  132   0.941   0.016   1.175
    2HPCD  C22A  133   0.820   0.140   0.848
    2HPCD  C32A  134   0.741   0.056   0.936
    2HPCD  C26A  135   1.599   0.876   0.952
    2HPCD  C36A  136   1.707   0.946   1.019
    2HPCD  C23F  137   0.446   1.285   1.601
    2HPCD  C33F  138   0.368   1.223   1.706
    2HPCD  C22F  139   0.499   1.006   1.434
    2HPCD  C32F  140   0.363   1.055   1.433
    2HPCD  O26D  141   1.566   1.497   0.532
    2HPCD  O26E  142   1.081   2.020   1.044
    2HPCD  O23C  143   1.150   1.368   0.053
    2HPCD  O23B  144   0.748   0.578   0.262
    2HPCD  O22A  145   0.735   0.231   0.782
    2HPCD  O26F  146   1.065   1.701   1.727
    2HPCD  O26G  147   1.436   0.952   1.735
    2HPCD  O26A  148   1.652   0.778   0.868
    2HPCD  O26B  149   1.320   0.275   0.328
    2HPCD  O26C  150   1.708   1.217   0.480
    2HPCD  O22C  151   0.748   0.977   0.630
    2HPCD  O22G  152   0.597   0.458   1.270
    2HPCD  O22F  153   0.572   1.064   1.330
    2HPCD  O23F  154   0.466   1.420   1.631
    2HPCD  O23A  155   0.968   0.190   1.327
    2HPCD  O22B  156   1.016   0.865   0.974
    2HPCD  O23D  157   0.842   1.435   0.301
    2HPCD  O22D  158   0.624   1.872   0.744
    2HPCD  O23E  159   0.699   1.503   0.665
    2HPCD  O22E  160   0.410   1.283   1.187
    2HPCD  O23G  161   0.581   0.859   1.650
    2HPCD  H26G  162   1.364   0.890   1.732
    2HPCD  H23B  163   0.840   0.555   0.267
    2HPCD  H22A  164   0.787   0.286   0.724
    2HPCD  H23C  165   1.217   1.319   0.100
    2HPCD  H26D  166   1.480   1.537   0.531
    2HPCD  H26E  167   1.006   1.962   1.044
    2HPCD  H26B  168   1.235   0.313   0.347
    2HPCD  H26F  169   0.996   1.636   1.722
    2HPCD  H22D  170   0.598   1.963   0.737
    2HPCD  H22C  171   0.815   1.024   0.677
    2HPCD  H23D  172   0.857   1.376   0.228
    2HPCD  H23F  173   0.424   1.440   1.714
    2HPCD  H22F  174   0.661   1.031   1.331
    2HPCD  H22G  175   0.504   0.477   1.265
    2HPCD  H26C  176   1.630   1.266   0.503
    2HPCD  H22E  177   0.332   1.231   1.200
    2HPCD  H23G  178   0.566   0.802   1.576
    2HPCD  H26A  179   1.581   0.733   0.824
    2HPCD  H23A  180   0.927   0.137   1.394
    2HPCD  H22B  181   1.067   0.901   0.902
    2HPCD  H23E  182   0.789   1.476   0.677
   4.00000   4.00000   4.00000   0.00000   0.00000   0.00000   0.00000   0.00000   0.00000
