generated by VMD, t= 0.000000
22
    1RONR   C1     1   0.217   1.003   0.586
    1RONR   C2     2   0.239   1.143   0.605
    1RONR   C3     3   0.134   1.224   0.655
    1RONR   C4     4   0.009   1.169   0.683
    1RONR   C5     5  -0.015   1.033   0.659
    1RONR   C6     6   0.086   0.949   0.606
    1RONR   N1     7   0.322   0.928   0.542
    1RONR   H1     8   0.364   0.959   0.459
    1RONR   C7     9   0.386   0.824   0.604
    1RONR   O1    10   0.489   0.786   0.545
    1RONR   C8    11   0.350   0.758   0.733
    1RONR   H2    12   0.253   0.795   0.768
    1RONR   C9    13   0.338   0.604   0.707
    1RONR   C10   14   0.312   0.521   0.836
    1RONR   C11   15   0.416   0.557   0.944
    1RONR   C12   16   0.420   0.709   0.969
    1RONR   N2    17   0.450   0.786   0.843
    1RONR   C13   18   0.477   0.931   0.873
    1RONR   C14   19   0.620   0.954   0.931
    1RONR   C15   20   0.671   1.097   0.913
    1RONR   C16   21   0.370   1.206   0.571
    1RONR   C17   22   0.048   0.811   0.569
   4.00000   4.00000   4.00000   0.00000   0.00000   0.00000   0.00000   0.00000   0.00000
