RONR
   22
    1RONS    C1    1   0.044  -0.449  -0.312
    1RONS    C2    2  -0.062  -0.526  -0.366
    1RONS    C3    3  -0.060  -0.561  -0.503
    1RONS    C4    4   0.047  -0.521  -0.584
    1RONS    C5    5   0.153  -0.445  -0.530
    1RONS    C6    6   0.153  -0.408  -0.394
    1RONS    N1    7   0.038  -0.412  -0.180
    1RONS    H1    8  -0.017  -0.335  -0.158
    1RONS    C7    9   0.099  -0.478  -0.078
    1RONS    O1   10   0.172  -0.579  -0.100
    1RONS    C8   11   0.080  -0.433   0.063
    1RONS    H2   12   0.137  -0.500   0.129
    1RONS    C9   13  -0.071  -0.452   0.098
    1RONS   C10   14  -0.105  -0.400   0.240
    1RONS   C11   15  -0.061  -0.253   0.255
    1RONS   C12   16   0.089  -0.236   0.222
    1RONS    N2   17   0.128  -0.292   0.089
    1RONS   C13   18   0.269  -0.260   0.044
    1RONS   C14   19   0.374  -0.210   0.148
    1RONS   C15   20   0.518  -0.200   0.091
    1RONS   C16   21  -0.176  -0.571  -0.281
    1RONS   C17   22   0.268  -0.327  -0.346
   4.62760   4.66700   4.74740
