generated by VMD, t= 0.000000
71791
    1ADC   O113    1   7.336   4.675   5.041
    1ADC   C159    2   7.347   4.612   5.149
    1ADC   C160    3   7.437   4.664   5.254
    1ADC   O111    4   7.267   4.503   5.165
    1ADC   C152    5   7.282   4.392   5.257
    1ADC   H193    6   7.299   4.432   5.357
    1ADC   C155    7   7.402   4.302   5.215
    1ADC   H205    8   7.492   4.355   5.248
    1ADC    O72    9   7.401   4.177   5.287
    1ADC   C154   10   7.280   4.100   5.273
    1ADC   H195   11   7.258   4.081   5.168
    1ADC   C156   12   7.309   3.959   5.336
    1ADC    O73   13   7.381   3.969   5.459
    1ADC   C157   14   7.425   3.865   5.535
    1ADC   O112   15   7.397   3.747   5.505
    1ADC   C158   16   7.506   3.890   5.655
    1ADC   C151   17   7.159   4.178   5.335
    1ADC   H192   18   7.182   4.195   5.441
    1ADC   C153   19   7.147   4.313   5.260
    1ADC   H194   20   7.115   4.294   5.157
    1ADC   O110   21   7.051   4.398   5.322
    1ADC   H196   22   7.046   4.477   5.264
    1ADC   O104   23   7.041   4.095   5.320
    1ADC   C145   24   6.925   4.128   5.398
    1ADC   H206   25   6.888   4.226   5.369
    1ADC   O103   26   6.951   4.134   5.540
    1ADC   C141   27   6.990   4.009   5.600
    1ADC   H182   28   7.078   3.969   5.550
    1ADC   C146   29   7.031   4.038   5.746
    1ADC   O107   30   7.144   4.126   5.747
    1ADC   C147   31   7.211   4.170   5.857
    1ADC   O108   32   7.175   4.139   5.972
    1ADC   C148   33   7.330   4.255   5.839
    1ADC   C142   34   6.874   3.906   5.587
    1ADC   H183   35   6.787   3.945   5.640
    1ADC   C143   36   6.838   3.890   5.436
    1ADC   H184   37   6.922   3.840   5.385
    1ADC   O106   38   6.723   3.807   5.419
    1ADC   H219   39   6.715   3.795   5.322
    1ADC   C144   40   6.810   4.026   5.368
    1ADC   H185   41   6.717   4.066   5.410
    1ADC   O105   42   6.794   4.007   5.227
    1ADC   C149   43   6.746   4.092   5.131
    1ADC   O109   44   6.773   4.064   5.013
    1ADC   C150   45   6.658   4.207   5.161
    1ADC    O45   46   6.920   3.781   5.647
    1ADC    C55   47   6.820   3.686   5.690
    1ADC    H74   48   6.763   3.652   5.604
    1ADC    O39   49   6.726   3.740   5.784
    1ADC    C54   50   6.781   3.777   5.912
    1ADC    H64   51   6.860   3.850   5.898
    1ADC    C56   52   6.668   3.849   5.991
    1ADC    O42   53   6.630   3.968   5.920
    1ADC    C57   54   6.538   4.060   5.961
    1ADC    O43   55   6.474   4.046   6.067
    1ADC    C58   56   6.514   4.180   5.878
    1ADC    C51   57   6.838   3.652   5.983
    1ADC    H61   58   6.755   3.580   5.997
    1ADC    C53   59   6.947   3.588   5.891
    1ADC    H63   60   7.032   3.657   5.884
    1ADC    O40   61   6.995   3.465   5.945
    1ADC    H65   62   7.069   3.438   5.886
    1ADC    C52   63   6.891   3.559   5.748
    1ADC    H62   64   6.818   3.478   5.757
    1ADC    O41   65   7.000   3.517   5.664
    1ADC    C59   66   6.997   3.459   5.541
    1ADC    C60   67   6.878   3.392   5.484
    1ADC    O44   68   7.104   3.460   5.475
    1ADC    O33   69   6.891   3.694   6.111
    1ADC    C45   70   6.905   3.595   6.215
    1ADC    H75   71   6.973   3.517   6.182
    1ADC    O32   72   6.781   3.529   6.248
    1ADC    C41   73   6.681   3.613   6.308
    1ADC    H51   74   6.659   3.698   6.242
    1ADC    C46   75   6.551   3.531   6.318
    1ADC    O36   76   6.508   3.493   6.187
    1ADC    C47   77   6.395   3.423   6.156
    1ADC    O37   78   6.317   3.382   6.246
    1ADC    C48   79   6.363   3.395   6.016
    1ADC    C42   80   6.733   3.670   6.444
    1ADC    H52   81   6.752   3.585   6.510
    1ADC    C43   82   6.865   3.747   6.418
    1ADC    H53   83   6.843   3.836   6.359
    1ADC    O35   84   6.925   3.790   6.540
    1ADC   H211   85   7.002   3.845   6.513
    1ADC    C44   86   6.968   3.660   6.342
    1ADC    H54   87   7.001   3.580   6.410
    1ADC    O34   88   7.082   3.741   6.308
    1ADC    C49   89   7.206   3.703   6.264
    1ADC    O38   90   7.277   3.793   6.211
    1ADC    C50   91   7.262   3.568   6.280
    1ADC    O31   92   6.628   3.754   6.498
    1ADC    C35   93   6.628   3.779   6.641
    1ADC    H49   94   6.720   3.829   6.669
    1ADC    O25   95   6.622   3.658   6.719
    1ADC    C34   96   6.499   3.583   6.708
    1ADC    H39   97   6.481   3.556   6.604
    1ADC    C36   98   6.519   3.450   6.784
    1ADC    O28   99   6.625   3.376   6.723
    1ADC    C37  100   6.668   3.252   6.758
    1ADC    O29  101   6.617   3.190   6.855
    1ADC    C38  102   6.776   3.187   6.682
    1ADC    C31  103   6.379   3.669   6.759
    1ADC    H36  104   6.398   3.693   6.865
    1ADC    C33  105   6.375   3.801   6.676
    1ADC    H38  106   6.348   3.777   6.572
    1ADC    O26  107   6.276   3.890   6.726
    1ADC    H40  108   6.274   3.965   6.663
    1ADC    C32  109   6.511   3.875   6.678
    1ADC    H37  110   6.528   3.912   6.780
    1ADC    O27  111   6.505   3.987   6.587
    1ADC    C39  112   6.590   4.093   6.575
    1ADC    C40  113   6.684   4.137   6.679
    1ADC    O30  114   6.580   4.161   6.470
    1ADC    O19  115   6.259   3.589   6.745
    1ADC    C25  116   6.144   3.623   6.827
    1ADC    H50  117   6.113   3.724   6.804
    1ADC    O18  118   6.173   3.620   6.968
    1ADC    C21  119   6.204   3.490   7.023
    1ADC    H26  120   6.288   3.447   6.970
    1ADC    C26  121   6.248   3.511   7.170
    1ADC    O22  122   6.367   3.591   7.171
    1ADC    C27  123   6.439   3.627   7.282
    1ADC    O23  124   6.402   3.592   7.397
    1ADC    C28  125   6.560   3.707   7.266
    1ADC    C22  126   6.081   3.396   7.007
    1ADC    H27  127   5.997   3.440   7.061
    1ADC    C23  128   6.046   3.388   6.854
    1ADC    H28  129   6.126   3.336   6.802
    1ADC    O21  130   5.926   3.313   6.833
    1ADC   H209  131   5.917   3.307   6.735
    1ADC    C24  132   6.025   3.530   6.793
    1ADC    H29  133   5.934   3.572   6.836
    1ADC    O20  134   6.008   3.516   6.650
    1ADC    C29  135   5.963   3.607   6.559
    1ADC    O24  136   5.986   3.582   6.438
    1ADC    C30  137   5.884   3.727   6.594
    1ADC    O17  138   6.117   3.267   7.063
    1ADC    C15  139   6.011   3.178   7.104
    1ADC    H24  140   5.950   3.154   7.018
    1ADC     O9  141   5.923   3.235   7.202
    1ADC    C14  142   5.982   3.260   7.333
    1ADC    H14  143   6.067   3.326   7.322
    1ADC    C16  144   5.877   3.336   7.416
    1ADC    O12  145   5.849   3.461   7.352
    1ADC    C17  146   5.766   3.559   7.398
    1ADC    O13  147   5.702   3.547   7.504
    1ADC    C18  148   5.752   3.684   7.320
    1ADC    C11  149   6.029   3.126   7.397
    1ADC    H11  150   5.942   3.061   7.408
    1ADC    C13  151   6.130   3.058   7.298
    1ADC    H13  152   6.221   3.119   7.293
    1ADC    O10  153   6.168   2.929   7.344
    1ADC    H15  154   6.239   2.899   7.281
    1ADC    C12  155   6.071   3.043   7.155
    1ADC    H12  156   5.990   2.969   7.160
    1ADC    O11  157   6.174   2.996   7.067
    1ADC    C19  158   6.164   2.943   6.941
    1ADC    C20  159   6.038   2.887   6.885
    1ADC    O14  160   6.269   2.936   6.874
    1ADC     O2  161   6.088   3.157   7.526
    1ADC     C5  162   6.099   3.051   7.623
    1ADC    H25  163   6.162   2.972   7.584
    1ADC     O1  164   5.973   2.989   7.657
    1ADC     C1  165   5.879   3.073   7.728
    1ADC     H1  166   5.857   3.162   7.668
    1ADC     C6  167   5.746   2.994   7.740
    1ADC     O6  168   5.695   2.974   7.608
    1ADC     C7  169   5.575   2.919   7.575
    1ADC     O7  170   5.496   2.877   7.662
    1ADC     C8  171   5.537   2.909   7.433
    1ADC     C2  172   5.937   3.117   7.865
    1ADC     H2  173   5.953   3.029   7.927
    1ADC     O5  174   5.838   3.204   7.927
    1ADC    C75  175   5.846   3.233   8.068
    1ADC   H103  176   5.942   3.279   8.090
    1ADC    C72  177   5.736   3.337   8.106
    1ADC    H91  178   5.755   3.371   8.209
    1ADC    O55  179   5.741   3.450   8.018
    1ADC    C79  180   5.835   3.549   8.011
    1ADC    C80  181   5.931   3.578   8.121
    1ADC    O57  182   5.835   3.621   7.909
    1ADC    C73  183   5.596   3.270   8.105
    1ADC    H92  184   5.570   3.241   8.003
    1ADC    O54  185   5.500   3.367   8.149
    1ADC    H94  186   5.504   3.438   8.081
    1ADC    C71  187   5.594   3.143   8.197
    1ADC    H90  188   5.614   3.176   8.299
    1ADC    C74  189   5.710   3.048   8.155
    1ADC    H93  190   5.691   3.007   8.056
    1ADC    C76  191   5.727   2.929   8.253
    1ADC    O16  192   5.846   2.855   8.221
    1ADC    C77  193   5.856   2.724   8.185
    1ADC    O56  194   5.755   2.652   8.170
    1ADC    C78  195   5.990   2.668   8.165
    1ADC    O15  196   5.838   3.118   8.153
    1ADC    O47  197   5.469   3.069   8.189
    1ADC    C65  198   5.360   3.113   8.271
    1ADC   H104  199   5.332   3.214   8.241
    1ADC    O46  200   5.400   3.112   8.410
    1ADC    C61  201   5.301   3.165   8.502
    1ADC    H76  202   5.278   3.269   8.474
    1ADC    C66  203   5.366   3.170   8.643
    1ADC    O51  204   5.489   3.244   8.637
    1ADC    C67  205   5.578   3.265   8.742
    1ADC    O52  206   5.549   3.221   8.856
    1ADC    C68  207   5.708   3.339   8.730
    1ADC    C62  208   5.171   3.080   8.496
    1ADC    H77  209   5.093   3.129   8.556
    1ADC    O50  210   5.191   2.950   8.551
    1ADC    H81  211   5.265   2.910   8.498
    1ADC    C63  212   5.122   3.069   8.349
    1ADC    H78  213   5.087   3.168   8.316
    1ADC    O49  214   5.010   2.980   8.342
    1ADC    H80  215   4.983   2.981   8.248
    1ADC    C64  216   5.235   3.021   8.253
    1ADC    H79  217   5.261   2.918   8.281
    1ADC    O48  218   5.187   3.025   8.118
    1ADC    C69  219   5.239   2.968   8.006
    1ADC    O53  220   5.216   3.025   7.897
    1ADC    C70  221   5.313   2.839   8.002
    1ADC     C3  222   6.074   3.190   7.839
    1ADC     H3  223   6.055   3.285   7.789
    1ADC     O4  224   6.141   3.218   7.962
    1ADC   H207  225   6.221   3.268   7.936
    1ADC     C4  226   6.170   3.103   7.753
    1ADC     H4  227   6.201   3.018   7.813
    1ADC     O3  228   6.286   3.183   7.719
    1ADC     C9  229   6.406   3.144   7.668
    1ADC     O8  230   6.478   3.234   7.620
    1ADC    C10  231   6.458   3.006   7.674
    1ADC    O62  232   7.408   4.284   5.073
    1ADC    C82  233   7.520   4.208   5.020
    1ADC   H106  234   7.546   4.125   5.088
    1ADC    C83  235   7.646   4.295   4.995
    1ADC   H107  236   7.619   4.380   4.931
    1ADC    O61  237   7.698   4.349   5.117
    1ADC   H213  238   7.770   4.410   5.091
    1ADC    C84  239   7.759   4.213   4.927
    1ADC   H108  240   7.794   4.139   5.000
    1ADC    O60  241   7.868   4.301   4.894
    1ADC    C89  242   7.997   4.270   4.858
    1ADC    O65  243   8.064   4.362   4.805
    1ADC    C90  244   8.061   4.140   4.885
    1ADC    C85  245   7.706   4.138   4.801
    1ADC   H129  246   7.781   4.064   4.774
    1ADC    O59  247   7.691   4.232   4.692
    1ADC    C91  248   7.645   4.180   4.564
    1ADC   H115  249   7.567   4.105   4.578
    1ADC    C94  250   7.582   4.299   4.485
    1ADC   H118  251   7.657   4.378   4.473
    1ADC    C96  252   7.462   4.366   4.558
    1ADC    O69  253   7.415   4.478   4.481
    1ADC    C97  254   7.315   4.563   4.517
    1ADC    O70  255   7.249   4.546   4.623
    1ADC    C98  256   7.281   4.676   4.430
    1ADC    O66  257   7.535   4.254   4.356
    1ADC    C95  258   7.637   4.202   4.269
    1ADC   H128  259   7.586   4.161   4.182
    1ADC    O74  260   7.733   4.301   4.226
    1ADC   C102  261   7.683   4.419   4.158
    1ADC   H131  262   7.589   4.454   4.204
    1ADC   C103  263   7.659   4.394   4.006
    1ADC   H132  264   7.750   4.353   3.961
    1ADC    O78  265   7.554   4.300   3.984
    1ADC   H215  266   7.554   4.285   3.887
    1ADC   C104  267   7.621   4.526   3.933
    1ADC   H133  268   7.522   4.556   3.968
    1ADC    O77  269   7.615   4.500   3.791
    1ADC   C109  270   7.558   4.574   3.691
    1ADC    O81  271   7.589   4.545   3.574
    1ADC   C110  272   7.457   4.680   3.715
    1ADC   C105  273   7.723   4.639   3.965
    1ADC   H154  274   7.678   4.732   3.932
    1ADC    O76  275   7.845   4.617   3.891
    1ADC   C111  276   7.952   4.714   3.905
    1ADC   H140  277   7.964   4.744   4.010
    1ADC   C114  278   8.083   4.643   3.861
    1ADC   H143  279   8.071   4.606   3.758
    1ADC   C116  280   8.120   4.520   3.948
    1ADC    O85  281   8.235   4.454   3.893
    1ADC   C117  282   8.294   4.341   3.940
    1ADC    O86  283   8.250   4.284   4.044
    1ADC   C118  284   8.410   4.284   3.870
    1ADC    O82  285   8.195   4.734   3.865
    1ADC   C115  286   8.183   4.850   3.780
    1ADC   H153  287   8.268   4.914   3.802
    1ADC    O88  288   8.183   4.819   3.639
    1ADC   C122  289   8.295   4.746   3.585
    1ADC   H156  290   8.328   4.669   3.656
    1ADC   C123  291   8.417   4.839   3.552
    1ADC   H157  292   8.381   4.920   3.487
    1ADC    O92  293   8.472   4.897   3.668
    1ADC   H159  294   8.540   4.960   3.636
    1ADC   C124  295   8.528   4.761   3.477
    1ADC   H158  296   8.573   4.689   3.547
    1ADC    O91  297   8.628   4.854   3.431
    1ADC   C129  298   8.762   4.861   3.455
    1ADC    O95  299   8.821   4.965   3.419
    1ADC   C130  300   8.840   4.751   3.516
    1ADC   C125  301   8.472   4.682   3.357
    1ADC   H181  302   8.441   4.752   3.277
    1ADC    O90  303   8.576   4.596   3.309
    1ADC   C131  304   8.552   4.521   3.186
    1ADC   H167  305   8.513   4.589   3.109
    1ADC   C134  306   8.455   4.400   3.200
    1ADC   H170  307   8.355   4.440   3.208
    1ADC   C136  308   8.477   4.314   3.328
    1ADC    O99  309   8.368   4.223   3.345
    1ADC   C137  310   8.353   4.137   3.451
    1ADC   O100  311   8.440   4.127   3.541
    1ADC   C138  312   8.231   4.055   3.460
    1ADC    O96  313   8.451   4.320   3.080
    1ADC   C135  314   8.578   4.272   3.031
    1ADC   H180  315   8.619   4.197   3.101
    1ADC   O102  316   8.554   4.204   2.908
    1ADC   H218  317   8.490   4.132   2.930
    1ADC   C132  318   8.679   4.386   3.009
    1ADC   H168  319   8.643   4.449   2.927
    1ADC    O98  320   8.808   4.330   2.979
    1ADC   C139  321   8.901   4.369   2.886
    1ADC   C140  322   8.884   4.485   2.797
    1ADC   O101  323   9.006   4.303   2.882
    1ADC   C133  324   8.691   4.473   3.137
    1ADC   H169  325   8.739   4.414   3.216
    1ADC    O97  326   8.776   4.585   3.110
    1ADC   H171  327   8.785   4.630   3.195
    1ADC    O89  328   8.358   4.603   3.398
    1ADC   C121  329   8.249   4.676   3.455
    1ADC   H155  330   8.213   4.750   3.383
    1ADC   C126  331   8.134   4.574   3.476
    1ADC    O93  332   8.101   4.512   3.351
    1ADC   C127  333   8.008   4.415   3.330
    1ADC    O94  334   7.941   4.368   3.424
    1ADC   C128  335   7.986   4.364   3.194
    1ADC   C112  336   8.056   4.932   3.816
    1ADC   H141  337   8.067   4.973   3.916
    1ADC    O84  338   8.036   5.039   3.722
    1ADC   C119  339   8.107   5.155   3.709
    1ADC   C120  340   8.184   5.216   3.819
    1ADC    O87  341   8.099   5.214   3.599
    1ADC   C113  342   7.929   4.841   3.817
    1ADC   H142  343   7.905   4.809   3.715
    1ADC    O83  344   7.820   4.918   3.865
    1ADC   H144  345   7.808   4.990   3.800
    1ADC    O75  346   7.743   4.652   4.107
    1ADC   C101  347   7.788   4.532   4.173
    1ADC   H130  348   7.883   4.499   4.130
    1ADC   C106  349   7.819   4.569   4.321
    1ADC    O79  350   7.922   4.668   4.325
    1ADC   C107  351   7.978   4.721   4.438
    1ADC    O80  352   7.939   4.688   4.552
    1ADC   C108  353   8.087   4.819   4.425
    1ADC    C92  354   7.711   4.082   4.336
    1ADC   H116  355   7.642   3.998   4.346
    1ADC    O68  356   7.824   4.041   4.257
    1ADC    C99  357   7.827   3.974   4.138
    1ADC   C100  358   7.713   3.895   4.085
    1ADC    O71  359   7.935   3.975   4.076
    1ADC    C93  360   7.760   4.120   4.479
    1ADC   H117  361   7.841   4.193   4.472
    1ADC    O67  362   7.813   4.002   4.540
    1ADC   H119  363   7.889   3.976   4.483
    1ADC    O58  364   7.586   4.065   4.830
    1ADC    C81  365   7.477   4.144   4.884
    1ADC   H105  366   7.451   4.224   4.815
    1ADC    C86  367   7.353   4.052   4.894
    1ADC    O63  368   7.318   4.003   4.765
    1ADC    C87  369   7.211   3.924   4.735
    1ADC    O64  370   7.131   3.886   4.825
    1ADC    C88  371   7.187   3.883   4.597
    2ADC   O113  372   6.151   5.059   1.500
    2ADC   C159  373   6.027   5.074   1.502
    2ADC   C160  374   5.966   5.193   1.439
    2ADC   O111  375   5.954   4.972   1.558
    2ADC   C152  376   5.819   4.974   1.608
    2ADC   H193  377   5.754   5.020   1.533
    2ADC   C155  378   5.811   5.055   1.740
    2ADC   H205  379   5.812   5.161   1.711
    2ADC    O72  380   5.684   5.035   1.807
    2ADC   C154  381   5.653   4.898   1.837
    2ADC   H195  382   5.732   4.852   1.895
    2ADC   C156  383   5.527   4.899   1.930
    2ADC    O73  384   5.429   4.994   1.886
    2ADC   C157  385   5.311   5.022   1.948
    2ADC   O112  386   5.274   4.958   2.049
    2ADC   C158  387   5.224   5.128   1.896
    2ADC   C151  388   5.638   4.816   1.704
    2ADC   H192  389   5.557   4.862   1.646
    2ADC   C153  390   5.771   4.827   1.626
    2ADC   H194  391   5.848   4.771   1.680
    2ADC   O110  392   5.760   4.771   1.496
    2ADC   H196  393   5.850   4.775   1.458
    2ADC   O104  394   5.604   4.680   1.740
    2ADC   C145  395   5.551   4.593   1.637
    2ADC   H206  396   5.626   4.579   1.560
    2ADC   O103  397   5.434   4.647   1.572
    2ADC   C141  398   5.319   4.662   1.658
    2ADC   H182  399   5.343   4.725   1.743
    2ADC   C146  400   5.210   4.736   1.576
    2ADC   O107  401   5.258   4.867   1.542
    2ADC   C147  402   5.189   4.963   1.475
    2ADC   O108  403   5.073   4.942   1.433
    2ADC   C148  404   5.251   5.094   1.453
    2ADC   C142  405   5.274   4.522   1.710
    2ADC   H183  406   5.246   4.460   1.623
    2ADC   C143  407   5.393   4.455   1.784
    2ADC   H184  408   5.413   4.511   1.876
    2ADC   O106  409   5.362   4.321   1.822
    2ADC   H219  410   5.439   4.291   1.875
    2ADC   C144  411   5.521   4.452   1.696
    2ADC   H185  412   5.503   4.383   1.613
    2ADC   O105  413   5.632   4.405   1.776
    2ADC   C149  414   5.756   4.364   1.737
    2ADC   O109  415   5.843   4.359   1.826
    2ADC   C150  416   5.788   4.317   1.600
    2ADC    O45  417   5.159   4.544   1.797
    2ADC    C55  418   5.070   4.432   1.821
    2ADC    H74  419   5.125   4.353   1.871
    2ADC    O39  420   5.016   4.375   1.701
    2ADC    C54  421   4.927   4.462   1.626
    2ADC    H64  422   4.979   4.554   1.600
    2ADC    C56  423   4.893   4.390   1.493
    2ADC    O42  424   5.015   4.372   1.418
    2ADC    C57  425   5.025   4.318   1.294
    2ADC    O43  426   4.925   4.273   1.233
    2ADC    C58  427   5.158   4.311   1.229
    2ADC    C51  428   4.802   4.496   1.712
    2ADC    H61  429   4.751   4.402   1.737
    2ADC    C53  430   4.851   4.564   1.844
    2ADC    H63  431   4.895   4.662   1.819
    2ADC    O40  432   4.742   4.588   1.934
    2ADC    H65  433   4.780   4.639   2.008
    2ADC    C52  434   4.957   4.477   1.919
    2ADC    H62  435   4.905   4.388   1.956
    2ADC    O41  436   5.009   4.552   2.029
    2ADC    C59  437   5.084   4.510   2.135
    2ADC    C60  438   5.095   4.369   2.178
    2ADC    O44  439   5.143   4.599   2.201
    2ADC    O33  440   4.716   4.582   1.634
    2ADC    C45  441   4.576   4.589   1.668
    2ADC    H75  442   4.566   4.626   1.770
    2ADC    O32  443   4.511   4.460   1.665
    2ADC    C41  444   4.501   4.399   1.535
    2ADC    H51  445   4.601   4.388   1.491
    2ADC    C46  446   4.446   4.256   1.555
    2ADC    O36  447   4.537   4.181   1.635
    2ADC    C47  448   4.524   4.049   1.670
    2ADC    O37  449   4.424   3.982   1.634
    2ADC    C48  450   4.629   3.986   1.750
    2ADC    C42  451   4.415   4.489   1.441
    2ADC    H52  452   4.315   4.498   1.484
    2ADC    C43  453   4.481   4.630   1.433
    2ADC    H53  454   4.577   4.622   1.382
    2ADC    O35  455   4.401   4.721   1.359
    2ADC   H211  456   4.454   4.803   1.353
    2ADC    C44  457   4.503   4.690   1.575
    2ADC    H54  458   4.405   4.713   1.618
    2ADC    O34  459   4.578   4.813   1.563
    2ADC    C49  460   4.599   4.911   1.656
    2ADC    O38  461   4.692   4.992   1.631
    2ADC    C50  462   4.516   4.931   1.775
    2ADC    O31  463   4.410   4.424   1.311
    2ADC    C35  464   4.301   4.457   1.222
    2ADC    H49  465   4.305   4.563   1.199
    2ADC    O25  466   4.171   4.434   1.281
    2ADC    C34  467   4.139   4.296   1.307
    2ADC    H39  468   4.213   4.252   1.373
    2ADC    C36  469   4.005   4.293   1.385
    2ADC    O28  470   4.022   4.362   1.509
    2ADC    C37  471   3.928   4.376   1.607
    2ADC    O29  472   3.812   4.330   1.593
    2ADC    C38  473   3.962   4.446   1.732
    2ADC    C31  474   4.137   4.215   1.173
    2ADC    H36  475   4.059   4.260   1.109
    2ADC    C33  476   4.276   4.230   1.105
    2ADC    H38  477   4.351   4.179   1.165
    2ADC    O26  478   4.277   4.170   0.976
    2ADC    H40  479   4.370   4.177   0.945
    2ADC    C32  480   4.316   4.380   1.089
    2ADC    H37  481   4.248   4.425   1.014
    2ADC    O27  482   4.451   4.386   1.040
    2ADC    C39  483   4.519   4.493   0.987
    2ADC    C40  484   4.455   4.613   0.932
    2ADC    O30  485   4.644   4.481   0.980
    2ADC    O19  486   4.104   4.078   1.206
    2ADC    C25  487   4.049   3.994   1.101
    2ADC    H50  488   4.120   3.987   1.020
    2ADC    O18  489   3.927   4.048   1.044
    2ADC    C21  490   3.814   4.052   1.134
    2ADC    H26  491   3.838   4.111   1.222
    2ADC    C26  492   3.700   4.127   1.060
    2ADC    O22  493   3.743   4.262   1.033
    2ADC    C27  494   3.669   4.360   0.974
    2ADC    O23  495   3.552   4.338   0.935
    2ADC    C28  496   3.727   4.493   0.956
    2ADC    C22  497   3.775   3.908   1.178
    2ADC    H27  498   3.749   3.851   1.088
    2ADC    C23  499   3.900   3.844   1.247
    2ADC    H28  500   3.921   3.896   1.340
    2ADC    O21  501   3.877   3.706   1.279
    2ADC   H209  502   3.957   3.678   1.328
    2ADC    C24  503   4.026   3.850   1.154
    2ADC    H29  504   4.008   3.783   1.070
    2ADC    O20  505   4.140   3.803   1.229
    2ADC    C29  506   4.264   3.767   1.184
    2ADC    O24  507   4.355   3.759   1.270
    2ADC    C30  508   4.295   3.731   1.044
    2ADC    O17  509   3.661   3.919   1.267
    2ADC    C15  510   3.577   3.802   1.285
    2ADC    H24  511   3.636   3.722   1.326
    2ADC     O9  512   3.521   3.753   1.162
    2ADC    C14  513   3.424   3.840   1.098
    2ADC    H14  514   3.470   3.937   1.077
    2ADC    C16  515   3.389   3.778   0.962
    2ADC    O12  516   3.508   3.773   0.882
    2ADC    C17  517   3.518   3.729   0.753
    2ADC    O13  518   3.419   3.685   0.690
    2ADC    C18  519   3.649   3.734   0.685
    2ADC    C11  520   3.301   3.862   1.191
    2ADC    H11  521   3.255   3.764   1.210
    2ADC    C13  522   3.353   3.920   1.327
    2ADC    H13  523   3.391   4.021   1.310
    2ADC    O10  524   3.247   3.930   1.423
    2ADC    H15  525   3.287   3.977   1.500
    2ADC    C12  526   3.466   3.832   1.389
    2ADC    H12  527   3.420   3.738   1.420
    2ADC    O11  528   3.519   3.901   1.504
    2ADC    C19  529   3.598   3.853   1.604
    2ADC    C20  530   3.614   3.709   1.636
    2ADC    O14  531   3.654   3.938   1.677
    2ADC     O2  532   3.208   3.950   1.123
    2ADC     C5  533   3.070   3.951   1.165
    2ADC    H25  534   3.065   3.982   1.269
    2ADC     O1  535   3.006   3.822   1.158
    2ADC     C1  536   2.986   3.769   1.026
    2ADC     H1  537   3.083   3.761   0.974
    2ADC     C6  538   2.931   3.625   1.040
    2ADC     O6  539   3.033   3.545   1.103
    2ADC     C7  540   3.029   3.411   1.124
    2ADC     O7  541   2.930   3.342   1.091
    2ADC     C8  542   3.144   3.345   1.189
    2ADC     C2  543   2.893   3.862   0.942
    2ADC     H2  544   2.795   3.866   0.989
    2ADC     O5  545   2.883   3.803   0.810
    2ADC    C75  546   2.778   3.845   0.720
    2ADC   H103  547   2.786   3.952   0.704
    2ADC    C72  548   2.796   3.777   0.582
    2ADC    H91  549   2.727   3.823   0.511
    2ADC    O55  550   2.930   3.794   0.534
    2ADC    C79  551   2.990   3.909   0.487
    2ADC    C80  552   2.914   4.027   0.443
    2ADC    O57  553   3.115   3.908   0.478
    2ADC    C73  554   2.759   3.626   0.590
    2ADC    H92  555   2.830   3.574   0.655
    2ADC    O54  556   2.769   3.570   0.459
    2ADC    H94  557   2.864   3.579   0.436
    2ADC    C71  558   2.615   3.608   0.648
    2ADC    H90  559   2.545   3.655   0.579
    2ADC    C74  560   2.604   3.685   0.783
    2ADC    H93  561   2.667   3.636   0.859
    2ADC    C76  562   2.459   3.687   0.838
    2ADC    O16  563   2.451   3.773   0.953
    2ADC    C77  564   2.414   3.741   1.080
    2ADC    O56  565   2.387   3.624   1.113
    2ADC    C78  566   2.406   3.849   1.179
    2ADC    O15  567   2.645   3.823   0.770
    2ADC    O47  568   2.580   3.469   0.672
    2ADC    C65  569   2.529   3.393   0.560
    2ADC   H104  570   2.607   3.387   0.484
    2ADC    O46  571   2.411   3.457   0.507
    2ADC    C61  572   2.357   3.396   0.387
    2ADC    H76  573   2.435   3.396   0.309
    2ADC    C66  574   2.241   3.485   0.336
    2ADC    O51  575   2.288   3.619   0.320
    2ADC    C67  576   2.212   3.729   0.280
    2ADC    O52  577   2.091   3.712   0.252
    2ADC    C68  578   2.264   3.869   0.268
    2ADC    C62  579   2.315   3.249   0.417
    2ADC    H77  580   2.287   3.200   0.323
    2ADC    O50  581   2.202   3.244   0.502
    2ADC    H81  582   2.228   3.293   0.584
    2ADC    C63  583   2.434   3.171   0.481
    2ADC    H78  584   2.512   3.158   0.405
    2ADC    O49  585   2.391   3.040   0.520
    2ADC    H80  586   2.470   2.997   0.555
    2ADC    C64  587   2.494   3.247   0.603
    2ADC    H79  588   2.417   3.250   0.681
    2ADC    O48  589   2.610   3.177   0.649
    2ADC    C69  590   2.677   3.189   0.767
    2ADC    O53  591   2.800   3.162   0.766
    2ADC    C70  592   2.616   3.224   0.897
    2ADC     C3  593   2.957   4.006   0.940
    2ADC     H3  594   3.048   4.003   0.881
    2ADC     O4  595   2.868   4.100   0.880
    2ADC   H207  596   2.918   4.184   0.878
    2ADC     C4  597   2.988   4.056   1.084
    2ADC     H4  598   2.894   4.074   1.134
    2ADC     O3  599   3.062   4.181   1.074
    2ADC     C9  600   3.088   4.275   1.169
    2ADC     O8  601   3.178   4.357   1.143
    2ADC    C10  602   3.012   4.288   1.295
    2ADC    O62  603   5.923   5.029   1.826
    2ADC    C82  604   5.931   5.105   1.949
    2ADC   H106  605   5.831   5.121   1.992
    2ADC    C83  606   6.001   5.242   1.932
    2ADC   H107  607   6.099   5.227   1.885
    2ADC    O61  608   5.927   5.329   1.847
    2ADC   H213  609   5.983   5.408   1.833
    2ADC    C84  610   6.020   5.314   2.069
    2ADC   H108  611   5.920   5.341   2.105
    2ADC    O60  612   6.097   5.434   2.049
    2ADC    C89  613   6.115   5.541   2.133
    2ADC    O65  614   6.209   5.618   2.107
    2ADC    C90  615   6.025   5.572   2.247
    2ADC    C85  616   6.087   5.220   2.173
    2ADC   H129  617   6.074   5.266   2.271
    2ADC    O59  618   6.228   5.210   2.144
    2ADC    C91  619   6.310   5.128   2.233
    2ADC   H115  620   6.257   5.037   2.262
    2ADC    C94  621   6.437   5.085   2.154
    2ADC   H118  622   6.491   5.175   2.121
    2ADC    C96  623   6.407   5.004   2.026
    2ADC    O69  624   6.529   4.975   1.956
    2ADC    C97  625   6.540   4.909   1.838
    2ADC    O70  626   6.439   4.863   1.778
    2ADC    C98  627   6.672   4.892   1.776
    2ADC    O66  628   6.523   5.004   2.238
    2ADC    C95  629   6.573   5.071   2.356
    2ADC   H128  630   6.625   4.995   2.414
    2ADC    O74  631   6.664   5.179   2.328
    2ADC   C102  632   6.781   5.150   2.248
    2ADC   H131  633   6.758   5.080   2.167
    2ADC   C103  634   6.898   5.092   2.334
    2ADC   H132  635   6.917   5.159   2.419
    2ADC    O78  636   6.865   4.964   2.387
    2ADC   H215  637   6.940   4.941   2.446
    2ADC   C104  638   7.028   5.077   2.250
    2ADC   H133  639   7.011   4.999   2.176
    2ADC    O77  640   7.135   5.038   2.338
    2ADC   C109  641   7.258   4.985   2.307
    2ADC    O81  642   7.343   4.984   2.398
    2ADC   C110  643   7.290   4.922   2.177
    2ADC   C105  644   7.062   5.210   2.177
    2ADC   H154  645   7.138   5.186   2.102
    2ADC    O76  646   7.116   5.306   2.269
    2ADC   C111  647   7.158   5.435   2.219
    2ADC   H140  648   7.084   5.474   2.148
    2ADC   C114  649   7.162   5.531   2.341
    2ADC   H143  650   7.230   5.490   2.417
    2ADC   C116  651   7.025   5.550   2.411
    2ADC    O85  652   7.041   5.631   2.528
    2ADC   C117  653   6.943   5.665   2.617
    2ADC    O86  654   6.824   5.629   2.599
    2ADC   C118  655   6.976   5.746   2.735
    2ADC    O82  656   7.209   5.662   2.302
    2ADC   C115  657   7.341   5.666   2.244
    2ADC   H153  658   7.358   5.767   2.210
    2ADC    O88  659   7.446   5.630   2.338
    2ADC   C122  660   7.456   5.707   2.460
    2ADC   H156  661   7.357   5.730   2.499
    2ADC   C123  662   7.537   5.840   2.441
    2ADC   H157  663   7.633   5.816   2.394
    2ADC    O92  664   7.469   5.930   2.355
    2ADC   H159  665   7.531   6.004   2.341
    2ADC   C124  666   7.563   5.910   2.576
    2ADC   H158  667   7.467   5.946   2.615
    2ADC    O91  668   7.653   6.020   2.556
    2ADC   C129  669   7.639   6.153   2.582
    2ADC    O95  670   7.726   6.230   2.535
    2ADC   C130  671   7.533   6.210   2.667
    2ADC   C125  672   7.623   5.813   2.680
    2ADC   H181  673   7.726   5.788   2.652
    2ADC    O90  674   7.622   5.879   2.808
    2ADC   C131  675   7.687   5.813   2.920
    2ADC   H167  676   7.787   5.779   2.888
    2ADC   C134  677   7.610   5.691   2.979
    2ADC   H170  678   7.621   5.609   2.910
    2ADC   C136  679   7.457   5.715   2.995
    2ADC    O99  680   7.392   5.590   3.025
    2ADC   C137  681   7.257   5.573   3.038
    2ADC   O100  682   7.177   5.670   3.032
    2ADC   C138  683   7.203   5.437   3.061
    2ADC    O96  684   7.671   5.643   3.101
    2ADC   C135  685   7.691   5.741   3.205
    2ADC   H180  686   7.594   5.773   3.245
    2ADC   O102  687   7.760   5.678   3.312
    2ADC   H218  688   7.703   5.602   3.339
    2ADC   C132  689   7.772   5.863   3.157
    2ADC   H168  690   7.873   5.830   3.133
    2ADC    O98  691   7.772   5.965   3.259
    2ADC   C139  692   7.874   6.045   3.302
    2ADC   C140  693   8.010   6.043   3.246
    2ADC   O101  694   7.846   6.126   3.392
    2ADC   C133  695   7.708   5.922   3.028
    2ADC   H169  696   7.611   5.967   3.053
    2ADC    O97  697   7.792   6.027   2.978
    2ADC   H171  698   7.742   6.064   2.902
    2ADC    O89  699   7.544   5.692   2.687
    2ADC   C121  700   7.530   5.619   2.565
    2ADC   H155  701   7.629   5.591   2.527
    2ADC   C126  702   7.456   5.487   2.600
    2ADC    O93  703   7.530   5.416   2.700
    2ADC   C127  704   7.495   5.299   2.758
    2ADC    O94  705   7.388   5.240   2.729
    2ADC   C128  706   7.585   5.239   2.858
    2ADC   C112  707   7.350   5.574   2.119
    2ADC   H141  708   7.286   5.615   2.041
    2ADC    O84  709   7.485   5.566   2.071
    2ADC   C119  710   7.558   5.661   2.006
    2ADC   C120  711   7.498   5.772   1.929
    2ADC    O87  712   7.682   5.648   2.009
    2ADC   C113  713   7.298   5.430   2.151
    2ADC   H142  714   7.368   5.380   2.218
    2ADC    O83  715   7.295   5.357   2.030
    2ADC   H144  716   7.387   5.353   1.999
    2ADC    O75  717   6.948   5.260   2.104
    2ADC   C101  718   6.830   5.283   2.183
    2ADC   H130  719   6.852   5.356   2.262
    2ADC   C106  720   6.724   5.350   2.092
    2ADC    O79  721   6.775   5.475   2.044
    2ADC   C107  722   6.707   5.563   1.964
    2ADC    O80  723   6.592   5.539   1.923
    2ADC   C108  724   6.772   5.690   1.927
    2ADC    C92  725   6.455   5.121   2.445
    2ADC   H116  726   6.401   5.035   2.485
    2ADC    O68  727   6.504   5.202   2.554
    2ADC    C99  728   6.571   5.164   2.666
    2ADC   C100  729   6.573   5.025   2.719
    2ADC    O71  730   6.628   5.254   2.731
    2ADC    C93  731   6.354   5.205   2.361
    2ADC   H117  732   6.400   5.300   2.332
    2ADC    O67  733   6.243   5.235   2.445
    2ADC   H119  734   6.279   5.289   2.518
    2ADC    O58  735   6.021   5.093   2.179
    2ADC    C81  736   6.013   5.021   2.053
    2ADC   H105  737   6.113   5.005   2.013
    2ADC    C86  738   5.954   4.881   2.082
    2ADC    O63  739   6.038   4.811   2.173
    2ADC    C87  740   6.020   4.683   2.217
    2ADC    O64  741   5.921   4.614   2.178
    2ADC    C88  742   6.116   4.622   2.309
    3ADC   O113  743   6.441   2.346   5.125
    3ADC   C159  744   6.374   2.348   5.019
    3ADC   C160  745   6.307   2.473   4.978
    3ADC   O111  746   6.375   2.234   4.944
    3ADC   C152  747   6.283   2.193   4.840
    3ADC   H193  748   6.269   2.276   4.770
    3ADC   C155  749   6.145   2.154   4.901
    3ADC   H205  750   6.094   2.249   4.923
    3ADC    O72  751   6.062   2.086   4.805
    3ADC   C154  752   6.120   1.968   4.747
    3ADC   H195  753   6.150   1.897   4.825
    3ADC   C156  754   6.007   1.896   4.667
    3ADC    O73  755   5.927   1.989   4.592
    3ADC   C157  756   5.819   1.958   4.516
    3ADC   O112  757   5.783   1.839   4.499
    3ADC   C158  758   5.741   2.065   4.451
    3ADC   C151  759   6.247   2.005   4.665
    3ADC   H192  760   6.217   2.075   4.586
    3ADC   C153  761   6.348   2.075   4.761
    3ADC   H194  762   6.385   2.001   4.832
    3ADC   O110  763   6.459   2.129   4.691
    3ADC   H196  764   6.519   2.164   4.759
    3ADC   O104  765   6.301   1.884   4.607
    3ADC   C145  766   6.396   1.895   4.500
    3ADC   H206  767   6.486   1.944   4.537
    3ADC   O103  768   6.348   1.973   4.389
    3ADC   C141  769   6.235   1.917   4.319
    3ADC   H182  770   6.153   1.901   4.388
    3ADC   C146  771   6.187   2.022   4.216
    3ADC   O107  772   6.144   2.140   4.285
    3ADC   C147  773   6.090   2.251   4.228
    3ADC   O108  774   6.078   2.262   4.104
    3ADC   C148  775   6.045   2.361   4.315
    3ADC   C142  776   6.275   1.780   4.256
    3ADC   H183  777   6.356   1.798   4.184
    3ADC   C143  778   6.328   1.686   4.368
    3ADC   H184  779   6.244   1.660   4.434
    3ADC   O106  780   6.379   1.564   4.314
    3ADC   H219  781   6.400   1.509   4.392
    3ADC   C144  782   6.440   1.753   4.452
    3ADC   H185  783   6.528   1.763   4.388
    3ADC   O105  784   6.472   1.668   4.564
    3ADC   C149  785   6.578   1.674   4.650
    3ADC   O109  786   6.566   1.610   4.757
    3ADC   C150  787   6.706   1.741   4.619
    3ADC    O45  788   6.157   1.728   4.189
    3ADC    C55  789   6.176   1.629   4.085
    3ADC    H74  790   6.223   1.540   4.128
    3ADC    O39  791   6.263   1.673   3.979
    3ADC    C54  792   6.212   1.782   3.900
    3ADC    H64  793   6.190   1.868   3.964
    3ADC    C56  794   6.325   1.826   3.804
    3ADC    O42  795   6.436   1.873   3.882
    3ADC    C57  796   6.552   1.925   3.833
    3ADC    O43  797   6.574   1.933   3.710
    3ADC    C58  798   6.655   1.973   3.927
    3ADC    C51  799   6.081   1.738   3.827
    3ADC    H61  800   6.106   1.653   3.763
    3ADC    C53  801   5.978   1.693   3.935
    3ADC    H63  802   5.948   1.781   3.995
    3ADC    O40  803   5.860   1.640   3.876
    3ADC    H65  804   5.798   1.624   3.950
    3ADC    C52  805   6.037   1.584   4.030
    3ADC    H62  806   6.050   1.493   3.971
    3ADC    O41  807   5.944   1.560   4.137
    3ADC    C59  808   5.941   1.458   4.228
    3ADC    C60  809   6.012   1.329   4.210
    3ADC    O44  810   5.868   1.475   4.329
    3ADC    O33  811   6.034   1.850   3.749
    3ADC    C45  812   5.947   1.824   3.637
    3ADC    H75  813   5.856   1.776   3.673
    3ADC    O32  814   6.004   1.733   3.541
    3ADC    C41  815   6.118   1.784   3.470
    3ADC    H51  816   6.196   1.812   3.541
    3ADC    C46  817   6.176   1.668   3.385
    3ADC    O36  818   6.217   1.563   3.472
    3ADC    C47  819   6.277   1.445   3.434
    3ADC    O37  820   6.298   1.420   3.313
    3ADC    C48  821   6.317   1.349   3.537
    3ADC    C42  822   6.078   1.910   3.387
    3ADC    H52  823   6.002   1.880   3.315
    3ADC    C43  824   6.020   2.016   3.484
    3ADC    H53  825   6.099   2.052   3.550
    3ADC    O35  826   5.969   2.129   3.414
    3ADC   H211  827   5.942   2.193   3.484
    3ADC    C44  828   5.904   1.957   3.569
    3ADC    H54  829   5.819   1.938   3.503
    3ADC    O34  830   5.864   2.055   3.668
    3ADC    C49  831   5.752   2.058   3.747
    3ADC    O38  832   5.756   2.136   3.846
    3ADC    C50  833   5.629   1.982   3.720
    3ADC    O31  834   6.197   1.957   3.319
    3ADC    C35  835   6.181   2.040   3.201
    3ADC    H49  836   6.128   2.130   3.228
    3ADC    O25  837   6.103   1.975   3.098
    3ADC    C34  838   6.163   1.859   3.038
    3ADC    H39  839   6.186   1.784   3.114
    3ADC    C36  840   6.058   1.795   2.945
    3ADC    O28  841   5.945   1.754   3.022
    3ADC    C37  842   5.835   1.690   2.975
    3ADC    O29  843   5.821   1.662   2.853
    3ADC    C38  844   5.728   1.651   3.068
    3ADC    C31  845   6.297   1.899   2.967
    3ADC    H36  846   6.272   1.972   2.889
    3ADC    C33  847   6.391   1.965   3.073
    3ADC    H38  848   6.421   1.889   3.146
    3ADC    O26  849   6.509   2.016   3.012
    3ADC    H40  850   6.565   2.047   3.087
    3ADC    C32  851   6.320   2.082   3.147
    3ADC    H37  852   6.305   2.164   3.074
    3ADC    O27  853   6.406   2.129   3.253
    3ADC    C39  854   6.398   2.244   3.327
    3ADC    C40  855   6.324   2.363   3.286
    3ADC    O30  856   6.466   2.246   3.432
    3ADC    O19  857   6.353   1.778   2.909
    3ADC    C25  858   6.447   1.793   2.800
    3ADC    H50  859   6.533   1.850   2.834
    3ADC    O18  860   6.392   1.865   2.687
    3ADC    C21  861   6.284   1.799   2.618
    3ADC    H26  862   6.203   1.777   2.687
    3ADC    C26  863   6.229   1.899   2.513
    3ADC    O22  864   6.176   2.013   2.582
    3ADC    C27  865   6.114   2.121   2.523
    3ADC    O23  866   6.101   2.128   2.399
    3ADC    C28  867   6.064   2.229   2.608
    3ADC    C22  868   6.335   1.665   2.556
    3ADC    H27  869   6.416   1.688   2.486
    3ADC    C23  870   6.391   1.577   2.673
    3ADC    H28  871   6.310   1.547   2.738
    3ADC    O21  872   6.452   1.457   2.622
    3ADC   H209  873   6.477   1.407   2.703
    3ADC    C24  874   6.499   1.654   2.755
    3ADC    H29  875   6.587   1.667   2.692
    3ADC    O20  876   6.536   1.573   2.869
    3ADC    C29  877   6.642   1.586   2.954
    3ADC    O24  878   6.635   1.523   3.063
    3ADC    C30  879   6.764   1.663   2.924
    3ADC    O17  880   6.223   1.603   2.488
    3ADC    C15  881   6.251   1.506   2.384
    3ADC    H24  882   6.306   1.423   2.428
    3ADC     O9  883   6.334   1.557   2.278
    3ADC    C14  884   6.272   1.659   2.195
    3ADC    H14  885   6.241   1.743   2.257
    3ADC    C16  886   6.380   1.712   2.099
    3ADC    O12  887   6.485   1.771   2.177
    3ADC    C17  888   6.596   1.834   2.130
    3ADC    O13  889   6.619   1.844   2.007
    3ADC    C18  890   6.693   1.892   2.225
    3ADC    C11  891   6.146   1.601   2.123
    3ADC    H11  892   6.179   1.518   2.060
    3ADC    C13  893   6.048   1.547   2.232
    3ADC    H13  894   6.009   1.631   2.290
    3ADC    O10  895   5.937   1.480   2.174
    3ADC    H15  896   5.877   1.459   2.249
    3ADC    C12  897   6.119   1.447   2.329
    3ADC    H12  898   6.142   1.356   2.271
    3ADC    O11  899   6.028   1.414   2.436
    3ADC    C19  900   6.034   1.312   2.527
    3ADC    C20  901   6.116   1.190   2.510
    3ADC    O14  902   5.959   1.322   2.626
    3ADC     O2  903   6.089   1.707   2.042
    3ADC     C5  904   6.001   1.671   1.934
    3ADC    H25  905   5.915   1.618   1.974
    3ADC     O1  906   6.061   1.583   1.836
    3ADC     C1  907   6.168   1.641   1.758
    3ADC     H1  908   6.248   1.677   1.825
    3ADC     C6  909   6.230   1.528   1.672
    3ADC     O6  910   6.289   1.433   1.761
    3ADC     C7  911   6.362   1.323   1.726
    3ADC     O7  912   6.384   1.295   1.606
    3ADC     C8  913   6.417   1.237   1.831
    3ADC     C2  914   6.116   1.761   1.674
    3ADC     H2  915   6.041   1.725   1.603
    3ADC     O5  916   6.231   1.815   1.603
    3ADC    C75  917   6.210   1.903   1.490
    3ADC   H103  918   6.153   1.990   1.523
    3ADC    C72  919   6.348   1.956   1.440
    3ADC    H91  920   6.330   2.036   1.367
    3ADC    O55  921   6.425   2.009   1.549
    3ADC    C79  922   6.404   2.125   1.619
    3ADC    C80  923   6.320   2.236   1.571
    3ADC    O57  924   6.466   2.136   1.728
    3ADC    C73  925   6.425   1.843   1.366
    3ADC    H92  926   6.452   1.764   1.436
    3ADC    O54  927   6.546   1.899   1.314
    3ADC    H94  928   6.597   1.927   1.393
    3ADC    C71  929   6.338   1.782   1.251
    3ADC    H90  930   6.317   1.862   1.179
    3ADC    C74  931   6.200   1.738   1.310
    3ADC    H93  932   6.214   1.653   1.378
    3ADC    C76  933   6.101   1.694   1.199
    3ADC    O16  934   5.971   1.671   1.256
    3ADC    C77  935   5.898   1.556   1.257
    3ADC    O56  936   5.943   1.449   1.210
    3ADC    C78  937   5.764   1.559   1.315
    3ADC    O15  938   6.136   1.846   1.382
    3ADC    O47  939   6.399   1.667   1.187
    3ADC    C65  940   6.494   1.692   1.082
    3ADC   H104  941   6.579   1.747   1.124
    3ADC    O46  942   6.432   1.770   0.977
    3ADC    C61  943   6.521   1.811   0.870
    3ADC    H76  944   6.603   1.870   0.913
    3ADC    C66  945   6.442   1.904   0.775
    3ADC    O51  946   6.384   2.011   0.850
    3ADC    C67  947   6.302   2.112   0.801
    3ADC    O52  948   6.277   2.115   0.678
    3ADC    C68  949   6.240   2.221   0.884
    3ADC    C62  950   6.581   1.686   0.800
    3ADC    H77  951   6.658   1.717   0.729
    3ADC    O50  952   6.482   1.615   0.726
    3ADC    H81  953   6.412   1.592   0.792
    3ADC    C63  954   6.646   1.591   0.905
    3ADC    H78  955   6.736   1.640   0.946
    3ADC    O49  956   6.689   1.470   0.842
    3ADC    H80  957   6.732   1.418   0.912
    3ADC    C64  958   6.549   1.559   1.022
    3ADC    H79  959   6.465   1.501   0.981
    3ADC    O48  960   6.619   1.483   1.122
    3ADC    C69  961   6.569   1.409   1.225
    3ADC    O53  962   6.642   1.397   1.327
    3ADC    C70  963   6.440   1.337   1.225
    3ADC     C3  964   6.051   1.865   1.772
    3ADC     H3  965   6.129   1.910   1.833
    3ADC     O4  966   5.986   1.970   1.700
    3ADC   H207  967   5.954   2.032   1.768
    3ADC     C4  968   5.944   1.799   1.864
    3ADC     H4  969   5.860   1.771   1.801
    3ADC     O3  970   5.902   1.896   1.962
    3ADC     C9  971   5.794   1.894   2.045
    3ADC     O8  972   5.795   1.975   2.141
    3ADC    C10  973   5.674   1.809   2.024
    3ADC    O62  974   6.161   2.079   5.023
    3ADC    C82  975   6.039   2.044   5.095
    3ADC   H106  976   5.958   2.019   5.025
    3ADC    C83  977   5.991   2.155   5.192
    3ADC   H107  978   6.073   2.183   5.259
    3ADC    O61  979   5.953   2.273   5.121
    3ADC   H213  980   5.933   2.340   5.190
    3ADC    C84  981   5.869   2.107   5.276
    3ADC   H108  982   5.784   2.096   5.207
    3ADC    O60  983   5.836   2.209   5.373
    3ADC    C89  984   5.723   2.223   5.448
    3ADC    O65  985   5.730   2.301   5.546
    3ADC    C90  986   5.593   2.159   5.416
    3ADC    C85  987   5.897   1.971   5.344
    3ADC   H129  988   5.802   1.932   5.379
    3ADC    O59  989   5.984   1.991   5.457
    3ADC    C91  990   6.020   1.874   5.537
    3ADC   H115  991   6.039   1.787   5.473
    3ADC    C94  992   6.153   1.907   5.612
    3ADC   H118  993   6.138   1.995   5.674
    3ADC    C96  994   6.271   1.941   5.517
    3ADC    O69  995   6.387   1.977   5.594
    3ADC    C97  996   6.507   2.017   5.545
    3ADC    O70  997   6.529   2.023   5.421
    3ADC    C98  998   6.615   2.055   5.636
    3ADC    O66  999   6.194   1.795   5.693
    3ADC    C95 1000   6.100   1.758   5.797
    3ADC   H128 1001   6.139   1.666   5.841
    3ADC    O74 1002   6.087   1.858   5.900
    3ADC   C102 1003   6.207   1.901   5.970
    3ADC   H131 1004   6.292   1.909   5.901
    3ADC   C103 1005   6.245   1.804   6.086
    3ADC   H132 1006   6.157   1.790   6.152
    3ADC    O78 1007   6.282   1.675   6.038
    3ADC   H215 1008   6.295   1.621   6.118
    3ADC   C104 1009   6.363   1.860   6.170
    3ADC   H133 1010   6.452   1.858   6.107
    3ADC    O77 1011   6.384   1.775   6.284
    3ADC   C109 1012   6.492   1.766   6.367
    3ADC    O81 1013   6.475   1.704   6.475
    3ADC   C110 1014   6.627   1.818   6.334
    3ADC   C105 1015   6.336   2.007   6.214
    3ADC   H154 1016   6.431   2.047   6.249
    3ADC    O76 1017   6.241   2.009   6.322
    3ADC   C111 1018   6.205   2.137   6.380
    3ADC   H140 1019   6.189   2.212   6.301
    3ADC   C114 1020   6.069   2.116   6.453
    3ADC   H143 1021   6.081   2.037   6.528
    3ADC   C116 1022   5.953   2.073   6.360
    3ADC    O85 1023   5.836   2.046   6.437
    3ADC   C117 1024   5.716   2.001   6.390
    3ADC    O86 1025   5.698   1.983   6.267
    3ADC   C118 1026   5.606   1.974   6.483
    3ADC    O82 1027   6.028   2.238   6.519
    3ADC   C115 1028   6.119   2.288   6.619
    3ADC   H153 1029   6.081   2.384   6.652
    3ADC    O88 1030   6.132   2.201   6.734
    3ADC   C122 1031   6.012   2.167   6.808
    3ADC   H156 1032   5.929   2.150   6.739
    3ADC   C123 1033   5.973   2.277   6.911
    3ADC   H157 1034   6.060   2.298   6.975
    3ADC    O92 1035   5.935   2.398   6.848
    3ADC   H159 1036   5.922   2.462   6.921
    3ADC   C124 1037   5.855   2.230   7.001
    3ADC   H158 1038   5.765   2.222   6.939
    3ADC    O91 1039   5.836   2.325   7.107
    3ADC   C129 1040   5.726   2.398   7.143
    3ADC    O95 1041   5.743   2.489   7.226
    3ADC   C130 1042   5.590   2.371   7.093
    3ADC   C125 1043   5.884   2.090   7.063
    3ADC   H181 1044   5.963   2.098   7.138
    3ADC    O90 1045   5.762   2.045   7.124
    3ADC   C131 1046   5.766   1.922   7.202
    3ADC   H167 1047   5.852   1.925   7.270
    3ADC   C134 1048   5.776   1.791   7.117
    3ADC   H170 1049   5.877   1.784   7.080
    3ADC   C136 1050   5.683   1.789   6.992
    3ADC    O99 1051   5.718   1.677   6.908
    3ADC   C137 1052   5.661   1.649   6.787
    3ADC   O100 1053   5.565   1.718   6.741
    3ADC   C138 1054   5.712   1.537   6.707
    3ADC    O96 1055   5.761   1.673   7.199
    3ADC   C135 1056   5.641   1.667   7.281
    3ADC   H180 1057   5.553   1.656   7.217
    3ADC   O102 1058   5.649   1.549   7.361
    3ADC   H218 1059   5.657   1.475   7.297
    3ADC   C132 1060   5.627   1.790   7.372
    3ADC   H168 1061   5.708   1.789   7.445
    3ADC    O98 1062   5.499   1.788   7.437
    3ADC   C139 1063   5.465   1.817   7.566
    3ADC   C140 1064   5.561   1.862   7.668
    3ADC   O101 1065   5.344   1.807   7.595
    3ADC   C133 1066   5.638   1.921   7.288
    3ADC   H169 1067   5.550   1.929   7.223
    3ADC    O97 1068   5.637   2.034   7.377
    3ADC   H171 1069   5.636   2.111   7.318
    3ADC    O89 1070   5.923   1.998   6.959
    3ADC   C121 1071   6.039   2.034   6.884
    3ADC   H155 1072   6.125   2.046   6.951
    3ADC   C126 1073   6.072   1.914   6.791
    3ADC    O93 1074   6.091   1.797   6.870
    3ADC   C127 1075   6.117   1.671   6.825
    3ADC    O94 1076   6.126   1.647   6.702
    3ADC   C128 1077   6.136   1.562   6.921
    3ADC   C112 1078   6.260   2.315   6.558
    3ADC   H141 1079   6.252   2.396   6.486
    3ADC    O84 1080   6.354   2.349   6.660
    3ADC   C119 1081   6.363   2.466   6.731
    3ADC   C120 1082   6.310   2.595   6.683
    3ADC    O87 1083   6.426   2.461   6.839
    3ADC   C113 1084   6.311   2.189   6.480
    3ADC   H142 1085   6.335   2.109   6.552
    3ADC    O83 1086   6.432   2.226   6.415
    3ADC   H144 1087   6.495   2.249   6.486
    3ADC    O75 1088   6.297   2.088   6.101
    3ADC   C101 1089   6.180   2.042   6.030
    3ADC   H130 1090   6.094   2.037   6.098
    3ADC   C106 1091   6.145   2.149   5.924
    3ADC    O79 1092   6.114   2.272   5.989
    3ADC   C107 1093   6.075   2.388   5.927
    3ADC    O80 1094   6.064   2.395   5.803
    3ADC   C108 1095   6.042   2.506   6.009
    3ADC    C92 1096   5.961   1.724   5.737
    3ADC   H116 1097   5.969   1.633   5.677
    3ADC    O68 1098   5.863   1.704   5.841
    3ADC    C99 1099   5.850   1.600   5.928
    3ADC   C100 1100   5.910   1.466   5.907
    3ADC    O71 1101   5.776   1.619   6.027
    3ADC    C93 1102   5.912   1.838   5.642
    3ADC   H117 1103   5.888   1.927   5.701
    3ADC    O67 1104   5.792   1.793   5.580
    3ADC   H119 1105   5.728   1.779   5.653
    3ADC    O58 1106   5.948   1.875   5.250
    3ADC    C81 1107   6.068   1.915   5.179
    3ADC   H105 1108   6.148   1.937   5.250
    3ADC    C86 1109   6.116   1.795   5.095
    3ADC    O63 1110   6.145   1.684   5.181
    3ADC    C87 1111   6.194   1.563   5.142
    3ADC    O64 1112   6.218   1.539   5.021
    3ADC    C88 1113   6.221   1.459   5.242
    4ADC   O113 1114   6.350   3.854   1.976
    4ADC   C159 1115   6.320   3.860   2.098
    4ADC   C160 1116   6.356   3.980   2.176
    4ADC   O111 1117   6.249   3.755   2.148
    4ADC   C152 1118   6.232   3.714   2.286
    4ADC   H193 1119   6.204   3.801   2.346
    4ADC   C155 1120   6.364   3.654   2.342
    4ADC   H205 1121   6.429   3.739   2.364
    4ADC    O72 1122   6.343   3.586   2.467
    4ADC   C154 1123   6.243   3.482   2.464
    4ADC   H195 1124   6.267   3.408   2.388
    4ADC   C156 1125   6.253   3.406   2.601
    4ADC    O73 1126   6.268   3.496   2.711
    4ADC   C157 1127   6.283   3.460   2.841
    4ADC   O112 1128   6.278   3.341   2.878
    4ADC   C158 1129   6.306   3.564   2.944
    4ADC   C151 1130   6.103   3.542   2.430
    4ADC   H192 1131   6.079   3.615   2.508
    4ADC   C153 1132   6.113   3.613   2.292
    4ADC   H194 1133   6.127   3.537   2.215
    4ADC   O110 1134   5.995   3.686   2.262
    4ADC   H196 1135   6.008   3.721   2.172
    4ADC   O104 1136   6.007   3.433   2.430
    4ADC   C145 1137   5.867   3.466   2.436
    4ADC   H206 1138   5.839   3.521   2.347
    4ADC   O103 1139   5.833   3.549   2.549
    4ADC   C141 1140   5.852   3.487   2.678
    4ADC   H182 1141   5.955   3.455   2.689
    4ADC   C146 1142   5.827   3.596   2.786
    4ADC   O107 1143   5.924   3.700   2.771
    4ADC   C147 1144   5.937   3.810   2.850
    4ADC   O108 1145   5.859   3.831   2.945
    4ADC   C148 1146   6.046   3.905   2.824
    4ADC   C142 1147   5.758   3.363   2.691
    4ADC   H183 1148   5.654   3.397   2.684
    4ADC   C143 1149   5.788   3.265   2.574
    4ADC   H184 1150   5.889   3.223   2.589
    4ADC   O106 1151   5.697   3.156   2.573
    4ADC   H219 1152   5.729   3.096   2.503
    4ADC   C144 1153   5.781   3.335   2.436
    4ADC   H185 1154   5.677   3.362   2.418
    4ADC   O105 1155   5.826   3.244   2.334
    4ADC   C149 1156   5.816   3.253   2.198
    4ADC   O109 1157   5.891   3.179   2.132
    4ADC   C150 1158   5.716   3.337   2.129
    4ADC    O45 1159   5.784   3.304   2.822
    4ADC    C55 1160   5.682   3.219   2.879
    4ADC    H74 1161   5.667   3.132   2.815
    4ADC    O39 1162   5.554   3.283   2.891
    4ADC    C54 1163   5.549   3.393   2.985
    4ADC    H64 1164   5.622   3.469   2.957
    4ADC    C56 1165   5.409   3.459   2.971
    4ADC    O42 1166   5.396   3.510   2.837
    4ADC    C57 1167   5.289   3.580   2.789
    4ADC    O43 1168   5.188   3.603   2.859
    4ADC    C58 1169   5.293   3.630   2.649
    4ADC    C51 1170   5.580   3.342   3.128
    4ADC    H61 1171   5.504   3.267   3.154
    4ADC    C53 1172   5.721   3.275   3.127
    4ADC    H63 1173   5.797   3.352   3.108
    4ADC    O40 1174   5.752   3.215   3.252
    4ADC    H65 1175   5.844   3.184   3.245
    4ADC    C52 1176   5.731   3.164   3.017
    4ADC    H62 1177   5.666   3.081   3.048
    4ADC    O41 1178   5.867   3.119   3.009
    4ADC    C59 1179   5.919   3.009   2.947
    4ADC    C60 1180   5.838   2.892   2.906
    4ADC    O44 1181   6.043   3.008   2.929
    4ADC    O33 1182   5.574   3.455   3.218
    4ADC    C45 1183   5.550   3.430   3.358
    4ADC    H75 1184   5.630   3.369   3.398
    4ADC    O32 1185   5.428   3.357   3.383
    4ADC    C41 1186   5.307   3.427   3.351
    4ADC    H51 1187   5.308   3.457   3.245
    4ADC    C46 1188   5.190   3.327   3.366
    4ADC    O36 1189   5.207   3.219   3.275
    4ADC    C47 1190   5.121   3.114   3.257
    4ADC    O37 1191   5.017   3.103   3.325
    4ADC    C48 1192   5.152   3.013   3.155
    4ADC    C42 1193   5.294   3.555   3.439
    4ADC    H52 1194   5.291   3.524   3.543
    4ADC    C43 1195   5.420   3.644   3.414
    4ADC    H53 1196   5.418   3.681   3.312
    4ADC    O35 1197   5.422   3.756   3.502
    4ADC   H211 1198   5.499   3.810   3.473
    4ADC    C44 1199   5.551   3.564   3.438
    4ADC    H54 1200   5.559   3.541   3.545
    4ADC    O34 1201   5.663   3.646   3.399
    4ADC    C49 1202   5.797   3.628   3.425
    4ADC    O38 1203   5.876   3.695   3.355
    4ADC    C50 1204   5.850   3.541   3.531
    4ADC    O31 1205   5.171   3.622   3.401
    4ADC    C35 1206   5.111   3.713   3.496
    4ADC    H49 1207   5.180   3.794   3.516
    4ADC    O25 1208   5.081   3.651   3.622
    4ADC    C34 1209   4.980   3.549   3.619
    4ADC    H39 1210   5.007   3.470   3.549
    4ADC    C36 1211   4.975   3.483   3.759
    4ADC    O28 1212   5.102   3.422   3.786
    4ADC    C37 1213   5.134   3.350   3.897
    4ADC    O29 1214   5.052   3.334   3.991
    4ADC    C38 1215   5.268   3.290   3.908
    4ADC    C31 1216   4.844   3.611   3.573
    4ADC    H36 1217   4.816   3.689   3.646
    4ADC    C33 1218   4.865   3.676   3.433
    4ADC    H38 1219   4.884   3.598   3.359
    4ADC    O26 1220   4.748   3.746   3.391
    4ADC    H40 1221   4.768   3.776   3.299
    4ADC    C32 1222   4.983   3.777   3.434
    4ADC    H37 1223   4.954   3.863   3.496
    4ADC    O27 1224   5.008   3.822   3.299
    4ADC    C39 1225   5.083   3.927   3.255
    4ADC    C40 1226   5.123   4.041   3.339
    4ADC    O30 1227   5.112   3.927   3.133
    4ADC    O19 1228   4.745   3.504   3.571
    4ADC    C25 1229   4.605   3.540   3.580
    4ADC    H50 1230   4.580   3.603   3.495
    4ADC    O18 1231   4.574   3.617   3.698
    4ADC    C21 1232   4.588   3.545   3.823
    4ADC    H26 1233   4.690   3.508   3.833
    4ADC    C26 1234   4.567   3.648   3.937
    4ADC    O22 1235   4.669   3.749   3.929
    4ADC    C27 1236   4.686   3.853   4.015
    4ADC    O23 1237   4.608   3.871   4.112
    4ADC    C28 1238   4.798   3.946   3.994
    4ADC    C22 1239   4.489   3.425   3.828
    4ADC    H27 1240   4.387   3.464   3.819
    4ADC    C23 1241   4.520   3.333   3.705
    4ADC    H28 1242   4.618   3.288   3.718
    4ADC    O21 1243   4.425   3.226   3.695
    4ADC   H209 1244   4.458   3.171   3.621
    4ADC    C24 1245   4.517   3.413   3.571
    4ADC    H29 1246   4.414   3.443   3.553
    4ADC    O20 1247   4.561   3.326   3.464
    4ADC    C29 1248   4.551   3.343   3.329
    4ADC    O24 1249   4.623   3.269   3.258
    4ADC    C30 1250   4.457   3.436   3.264
    4ADC    O17 1251   4.508   3.358   3.955
    4ADC    C15 1252   4.400   3.275   4.005
    4ADC    H24 1253   4.381   3.195   3.934
    4ADC     O9 1254   4.276   3.346   4.020
    4ADC    C14 1255   4.275   3.448   4.124
    4ADC    H14 1256   4.353   3.521   4.104
    4ADC    C16 1257   4.140   3.522   4.113
    4ADC    O12 1258   4.132   3.585   3.985
    4ADC    C17 1259   4.032   3.664   3.938
    4ADC    O13 1260   3.930   3.689   4.007
    4ADC    C18 1261   4.042   3.723   3.804
    4ADC    C11 1262   4.301   3.383   4.263
    4ADC    H11 1263   4.221   3.311   4.283
    4ADC    C13 1264   4.437   3.307   4.257
    4ADC    H13 1265   4.518   3.380   4.246
    4ADC    O10 1266   4.462   3.234   4.377
    4ADC    H15 1267   4.553   3.199   4.368
    4ADC    C12 1268   4.443   3.207   4.138
    4ADC    H12 1269   4.372   3.126   4.160
    4ADC    O11 1270   4.576   3.154   4.129
    4ADC    C19 1271   4.622   3.045   4.060
    4ADC    C20 1272   4.534   2.935   4.011
    4ADC    O14 1273   4.745   3.036   4.045
    4ADC     O2 1274   4.298   3.490   4.362
    4ADC     C5 1275   4.276   3.454   4.500
    4ADC    H25 1276   4.355   3.388   4.534
    4ADC     O1 1277   4.152   3.384   4.524
    4ADC     C1 1278   4.032   3.461   4.502
    4ADC     H1 1279   4.030   3.499   4.398
    4ADC     C6 1280   3.911   3.365   4.516
    4ADC     O6 1281   3.920   3.269   4.410
    4ADC     C7 1282   3.827   3.173   4.380
    4ADC     O7 1283   3.723   3.159   4.447
    4ADC     C8 1284   3.852   3.083   4.266
    4ADC     C2 1285   4.025   3.583   4.599
    4ADC     H2 1286   4.021   3.546   4.702
    4ADC     O5 1287   3.904   3.656   4.567
    4ADC    C75 1288   3.852   3.752   4.661
    4ADC   H103 1289   3.927   3.828   4.681
    4ADC    C72 1290   3.729   3.825   4.598
    4ADC    H91 1291   3.702   3.909   4.663
    4ADC    O55 1292   3.762   3.875   4.468
    4ADC    C79 1293   3.844   3.980   4.435
    4ADC    C80 1294   3.884   4.085   4.531
    4ADC    O57 1295   3.881   3.988   4.316
    4ADC    C73 1296   3.606   3.730   4.592
    4ADC    H92 1297   3.627   3.648   4.523
    4ADC    O54 1298   3.495   3.804   4.542
    4ADC    H94 1299   3.521   3.829   4.451
    4ADC    C71 1300   3.576   3.671   4.734
    4ADC    H90 1301   3.550   3.754   4.800
    4ADC    C74 1302   3.705   3.606   4.792
    4ADC    H93 1303   3.731   3.517   4.733
    4ADC    C76 1304   3.688   3.561   4.939
    4ADC    O16 1305   3.814   3.518   4.993
    4ADC    C77 1306   3.847   3.396   5.043
    4ADC    O56 1307   3.767   3.301   5.042
    4ADC    C78 1308   3.981   3.378   5.100
    4ADC    O15 1309   3.817   3.698   4.789
    4ADC    O47 1310   3.470   3.571   4.733
    4ADC    C65 1311   3.334   3.617   4.738
    4ADC   H104 1312   3.314   3.676   4.648
    4ADC    O46 1313   3.314   3.696   4.856
    4ADC    C61 1314   3.183   3.758   4.867
    4ADC    H76 1315   3.166   3.822   4.779
    4ADC    C66 1316   3.183   3.850   4.991
    4ADC    O51 1317   3.293   3.942   4.982
    4ADC    C67 1318   3.329   4.038   5.077
    4ADC    O52 1319   3.260   4.050   5.181
    4ADC    C68 1320   3.447   4.129   5.065
    4ADC    C62 1321   3.073   3.648   4.871
    4ADC    H77 1322   2.974   3.695   4.866
    4ADC    O50 1323   3.077   3.574   4.993
    4ADC    H81 1324   3.169   3.536   4.997
    4ADC    C63 1325   3.089   3.552   4.750
    4ADC    H78 1326   3.064   3.606   4.658
    4ADC    O49 1327   2.996   3.443   4.761
    4ADC    H80 1328   3.009   3.390   4.681
    4ADC    C64 1329   3.234   3.497   4.738
    4ADC    H79 1330   3.253   3.434   4.826
    4ADC    O48 1331   3.246   3.420   4.618
    4ADC    C69 1332   3.343   3.331   4.581
    4ADC    O53 1333   3.362   3.317   4.457
    4ADC    C70 1334   3.420   3.245   4.673
    4ADC     C3 1335   4.156   3.668   4.579
    4ADC     H3 1336   4.152   3.716   4.481
    4ADC     O4 1337   4.164   3.771   4.678
    4ADC   H207 1338   4.244   3.822   4.654
    4ADC     C4 1339   4.284   3.581   4.591
    4ADC     H4 1340   4.293   3.550   4.695
    4ADC     O3 1341   4.398   3.663   4.555
    4ADC     C9 1342   4.531   3.640   4.575
    4ADC     O8 1343   4.610   3.710   4.508
    4ADC    C10 1344   4.585   3.544   4.674
    4ADC    O62 1345   6.429   3.569   2.245
    4ADC    C82 1346   6.558   3.513   2.282
    4ADC   H106 1347   6.560   3.486   2.389
    4ADC    C83 1348   6.677   3.608   2.251
    4ADC   H107 1349   6.673   3.638   2.146
    4ADC    O61 1350   6.671   3.727   2.329
    4ADC   H213 1351   6.743   3.785   2.296
    4ADC    C84 1352   6.813   3.538   2.280
    4ADC   H108 1353   6.820   3.524   2.388
    4ADC    O60 1354   6.920   3.626   2.237
    4ADC    C89 1355   7.054   3.619   2.266
    4ADC    O65 1356   7.130   3.686   2.194
    4ADC    C90 1357   7.110   3.544   2.381
    4ADC    C85 1358   6.821   3.400   2.210
    4ADC   H129 1359   6.906   3.347   2.254
    4ADC    O59 1360   6.846   3.418   2.069
    4ADC    C91 1361   6.860   3.299   1.986
    4ADC   H115 1362   6.788   3.222   2.016
    4ADC    C94 1363   6.827   3.340   1.839
    4ADC   H118 1364   6.895   3.419   1.808
    4ADC    C96 1365   6.684   3.396   1.821
    4ADC    O69 1366   6.665   3.437   1.684
    4ADC    C97 1367   6.554   3.496   1.633
    4ADC    O70 1368   6.451   3.516   1.703
    4ADC    C98 1369   6.551   3.536   1.492
    4ADC    O66 1370   6.841   3.225   1.752
    4ADC    C95 1371   6.973   3.168   1.746
    4ADC   H128 1372   6.964   3.077   1.687
    4ADC    O74 1373   7.071   3.255   1.686
    4ADC   C102 1374   7.045   3.304   1.551
    4ADC   H131 1375   6.939   3.328   1.538
    4ADC   C103 1376   7.087   3.201   1.442
    4ADC   H132 1377   7.192   3.171   1.459
    4ADC    O78 1378   7.008   3.083   1.447
    4ADC   H215 1379   7.048   3.023   1.381
    4ADC   C104 1380   7.074   3.262   1.300
    4ADC   H133 1381   6.968   3.276   1.280
    4ADC    O77 1382   7.128   3.169   1.204
    4ADC   C109 1383   7.112   3.164   1.068
    4ADC    O81 1384   7.191   3.090   1.005
    4ADC   C110 1385   7.004   3.234   0.996
    4ADC   C105 1386   7.146   3.399   1.291
    4ADC   H154 1387   7.112   3.447   1.199
    4ADC    O76 1388   7.289   3.380   1.284
    4ADC   C111 1389   7.374   3.497   1.272
    4ADC   H140 1390   7.340   3.576   1.339
    4ADC   C114 1391   7.516   3.453   1.318
    4ADC   H143 1392   7.549   3.369   1.257
    4ADC   C116 1393   7.522   3.406   1.465
    4ADC    O85 1394   7.654   3.358   1.496
    4ADC   C117 1395   7.695   3.305   1.614
    4ADC    O86 1396   7.617   3.297   1.713
    4ADC   C118 1397   7.833   3.257   1.628
    4ADC    O82 1398   7.610   3.562   1.303
    4ADC   C115 1399   7.626   3.612   1.169
    4ADC   H153 1400   7.690   3.699   1.175
    4ADC    O88 1401   7.686   3.516   1.078
    4ADC   C122 1402   7.815   3.462   1.113
    4ADC   H156 1403   7.821   3.442   1.220
    4ADC   C123 1404   7.933   3.555   1.071
    4ADC   H157 1405   7.922   3.580   0.964
    4ADC    O92 1406   7.932   3.677   1.144
    4ADC   H159 1407   8.002   3.732   1.104
    4ADC   C124 1408   8.070   3.486   1.092
    4ADC   H158 1409   8.087   3.475   1.200
    4ADC    O91 1410   8.174   3.568   1.034
    4ADC   C129 1411   8.285   3.623   1.090
    4ADC    O95 1412   8.347   3.707   1.020
    4ADC   C130 1413   8.339   3.586   1.222
    4ADC   C125 1414   8.073   3.346   1.027
    4ADC   H181 1415   8.074   3.355   0.918
    4ADC    O90 1416   8.194   3.280   1.071
    4ADC   C131 1417   8.227   3.151   1.013
    4ADC   H167 1418   8.218   3.158   0.904
    4ADC   C134 1419   8.141   3.032   1.063
    4ADC   H170 1420   8.044   3.040   1.016
    4ADC   C136 1421   8.115   3.031   1.217
    4ADC    O99 1422   8.014   2.934   1.249
    4ADC   C137 1423   7.963   2.912   1.373
    4ADC   O100 1424   8.006   2.973   1.475
    4ADC   C138 1425   7.854   2.814   1.390
    4ADC    O96 1426   8.192   2.905   1.015
    4ADC   C135 1427   8.331   2.878   1.044
    4ADC   H180 1428   8.344   2.863   1.152
    4ADC   O102 1429   8.364   2.754   0.982
    4ADC   H218 1430   8.302   2.688   1.019
    4ADC   C132 1431   8.424   2.989   0.993
    4ADC   H168 1432   8.421   2.989   0.884
    4ADC    O98 1433   8.558   2.965   1.040
    4ADC   C139 1434   8.677   2.977   0.976
    4ADC   C140 1435   8.691   3.023   0.836
    4ADC   O101 1436   8.780   2.951   1.042
    4ADC   C133 1437   8.377   3.127   1.045
    4ADC   H169 1438   8.393   3.132   1.154
    4ADC    O97 1439   8.458   3.230   0.986
    4ADC   H171 1440   8.428   3.312   1.028
    4ADC    O89 1441   7.959   3.269   1.070
    4ADC   C121 1442   7.831   3.326   1.039
    4ADC   H155 1443   7.822   3.341   0.931
    4ADC   C126 1444   7.724   3.220   1.079
    4ADC    O93 1445   7.750   3.098   1.008
    4ADC   C127 1446   7.681   2.982   1.019
    4ADC    O94 1447   7.584   2.971   1.097
    4ADC   C128 1448   7.720   2.866   0.937
    4ADC   C112 1449   7.490   3.661   1.111
    4ADC   H141 1450   7.456   3.747   1.168
    4ADC    O84 1451   7.503   3.696   0.972
    4ADC   C119 1452   7.565   3.805   0.918
    4ADC   C120 1453   7.587   3.931   0.991
    4ADC    O87 1454   7.599   3.796   0.798
    4ADC   C113 1455   7.380   3.550   1.126
    4ADC   H142 1456   7.403   3.467   1.058
    4ADC    O83 1457   7.257   3.607   1.085
    4ADC   H144 1458   7.268   3.630   0.991
    4ADC    O75 1459   7.105   3.487   1.398
    4ADC   C101 1460   7.127   3.434   1.531
    4ADC   H130 1461   7.234   3.413   1.546
    4ADC   C106 1462   7.092   3.547   1.632
    4ADC    O79 1463   7.178   3.659   1.610
    4ADC   C107 1464   7.179   3.775   1.683
    4ADC    O80 1465   7.099   3.793   1.777
    4ADC   C108 1466   7.277   3.879   1.651
    4ADC    C92 1467   7.021   3.124   1.888
    4ADC   H116 1468   6.959   3.041   1.922
    4ADC    O68 1469   7.158   3.083   1.885
    4ADC    C99 1470   7.214   2.970   1.833
    4ADC   C100 1471   7.138   2.847   1.803
    4ADC    O71 1472   7.338   2.970   1.817
    4ADC    C93 1473   7.004   3.240   1.990
    4ADC   H117 1474   7.076   3.320   1.968
    4ADC    O67 1475   7.035   3.189   2.120
    4ADC   H119 1476   7.129   3.160   2.115
    4ADC    O58 1477   6.705   3.320   2.238
    4ADC    C81 1478   6.579   3.381   2.201
    4ADC   H105 1479   6.578   3.405   2.094
    4ADC    C86 1480   6.468   3.275   2.223
    4ADC    O63 1481   6.493   3.161   2.141
    4ADC    C87 1482   6.413   3.051   2.131
    4ADC    O64 1483   6.306   3.042   2.198
    4ADC    C88 1484   6.450   2.942   2.041
    5ADC   O113 1485   2.647   5.637   3.781
    5ADC   C159 1486   2.611   5.711   3.876
    5ADC   C160 1487   2.466   5.738   3.896
    5ADC   O111 1488   2.708   5.757   3.959
    5ADC   C152 1489   2.705   5.869   4.051
    5ADC   H193 1490   2.614   5.863   4.111
    5ADC   C155 1491   2.706   6.003   3.973
    5ADC   H205 1492   2.603   6.017   3.936
    5ADC    O72 1493   2.731   6.115   4.060
    5ADC   C154 1494   2.854   6.107   4.136
    5ADC   H195 1495   2.939   6.093   4.069
    5ADC   C156 1496   2.875   6.246   4.203
    5ADC    O73 1497   2.754   6.298   4.258
    5ADC   C157 1498   2.739   6.419   4.318
    5ADC   O112 1499   2.837   6.494   4.340
    5ADC   C158 1500   2.606   6.464   4.362
    5ADC   C151 1501   2.848   5.985   4.233
    5ADC   H192 1502   2.763   6.000   4.300
    5ADC   C153 1503   2.826   5.856   4.148
    5ADC   H194 1504   2.917   5.837   4.089
    5ADC   O110 1505   2.802   5.743   4.230
    5ADC   H196 1506   2.796   5.667   4.168
    5ADC   O104 1507   2.972   5.982   4.308
    5ADC   C145 1508   2.979   5.901   4.427
    5ADC   H206 1509   2.966   5.796   4.400
    5ADC   O103 1510   2.876   5.933   4.523
    5ADC   C141 1511   2.885   6.066   4.579
    5ADC   H182 1512   2.882   6.140   4.500
    5ADC   C146 1513   2.758   6.088   4.665
    5ADC   O107 1514   2.642   6.082   4.581
    5ADC   C147 1515   2.513   6.102   4.619
    5ADC   O108 1516   2.484   6.124   4.739
    5ADC   C148 1517   2.406   6.098   4.519
    5ADC   C142 1518   3.018   6.081   4.658
    5ADC   H183 1519   3.017   6.008   4.740
    5ADC   C143 1520   3.137   6.049   4.563
    5ADC   H184 1521   3.143   6.129   4.487
    5ADC   O106 1522   3.261   6.049   4.633
    5ADC   H219 1523   3.329   6.038   4.564
    5ADC   C144 1524   3.120   5.913   4.492
    5ADC   H185 1525   3.130   5.834   4.568
    5ADC   O105 1526   3.224   5.897   4.393
    5ADC   C149 1527   3.263   5.786   4.324
    5ADC   O109 1528   3.332   5.806   4.222
    5ADC   C150 1529   3.236   5.648   4.369
    5ADC    O45 1530   3.021   6.217   4.710
    5ADC    C55 1531   3.108   6.244   4.823
    5ADC    H74 1532   3.211   6.225   4.795
    5ADC    O39 1533   3.080   6.161   4.937
    5ADC    C54 1534   2.951   6.182   4.999
    5ADC    H64 1535   2.872   6.166   4.926
    5ADC    C56 1536   2.933   6.072   5.108
    5ADC    O42 1537   2.935   5.943   5.044
    5ADC    C57 1538   2.916   5.824   5.106
    5ADC    O43 1539   2.900   5.815   5.229
    5ADC    C58 1540   2.915   5.700   5.024
    5ADC    C51 1541   2.942   6.327   5.054
    5ADC    H61 1542   3.022   6.340   5.129
    5ADC    C53 1543   2.965   6.426   4.936
    5ADC    H63 1544   2.881   6.417   4.866
    5ADC    O40 1545   2.971   6.561   4.981
    5ADC    H65 1546   2.976   6.616   4.899
    5ADC    C52 1547   3.099   6.395   4.860
    5ADC    H62 1548   3.181   6.420   4.928
    5ADC    O41 1549   3.105   6.478   4.743
    5ADC    C59 1550   3.211   6.504   4.661
    5ADC    C60 1551   3.353   6.482   4.699
    5ADC    O44 1552   3.185   6.554   4.549
    5ADC    O33 1553   2.812   6.343   5.115
    5ADC    C45 1554   2.796   6.447   5.214
    5ADC    H75 1555   2.816   6.544   5.169
    5ADC    O32 1556   2.886   6.435   5.325
    5ADC    C41 1557   2.867   6.319   5.409
    5ADC    H51 1558   2.873   6.228   5.348
    5ADC    C46 1559   2.983   6.313   5.510
    5ADC    O36 1560   3.106   6.299   5.439
    5ADC    C47 1561   3.230   6.286   5.495
    5ADC    O37 1562   3.246   6.290   5.619
    5ADC    C48 1563   3.347   6.269   5.408
    5ADC    C42 1564   2.724   6.325   5.474
    5ADC    H52 1565   2.719   6.414   5.536
    5ADC    C43 1566   2.618   6.333   5.361
    5ADC    H53 1567   2.618   6.240   5.305
    5ADC    O35 1568   2.487   6.352   5.413
    5ADC   H211 1569   2.428   6.347   5.335
    5ADC    C44 1570   2.648   6.451   5.264
    5ADC    H54 1571   2.631   6.545   5.318
    5ADC    O34 1572   2.556   6.445   5.153
    5ADC    C49 1573   2.528   6.539   5.058
    5ADC    O38 1574   2.468   6.498   4.955
    5ADC    C50 1575   2.557   6.682   5.072
    5ADC    O31 1576   2.709   6.205   5.555
    5ADC    C35 1577   2.612   6.207   5.662
    5ADC    H49 1578   2.514   6.224   5.621
    5ADC    O25 1579   2.635   6.314   5.757
    5ADC    C34 1580   2.756   6.303   5.835
    5ADC    H39 1581   2.843   6.297   5.769
    5ADC    C36 1582   2.771   6.433   5.916
    5ADC    O28 1583   2.783   6.544   5.826
    5ADC    C37 1584   2.803   6.674   5.860
    5ADC    O29 1585   2.810   6.710   5.981
    5ADC    C38 1586   2.818   6.776   5.755
    5ADC    C31 1587   2.752   6.173   5.921
    5ADC    H36 1588   2.665   6.181   5.989
    5ADC    C33 1589   2.732   6.051   5.826
    5ADC    H38 1590   2.822   6.039   5.765
    5ADC    O26 1591   2.714   5.931   5.900
    5ADC    H40 1592   2.712   5.859   5.833
    5ADC    C32 1593   2.609   6.070   5.734
    5ADC    H37 1594   2.519   6.065   5.797
    5ADC    O27 1595   2.606   5.962   5.638
    5ADC    C39 1596   2.505   5.922   5.555
    5ADC    C40 1597   2.363   5.957   5.575
    5ADC    O30 1598   2.537   5.845   5.461
    5ADC    O19 1599   2.876   6.167   5.997
    5ADC    C25 1600   2.878   6.087   6.118
    5ADC    H50 1601   2.856   5.984   6.093
    5ADC    O18 1602   2.778   6.128   6.215
    5ADC    C21 1603   2.798   6.259   6.272
    5ADC    H26 1604   2.801   6.334   6.193
    5ADC    C26 1605   2.674   6.290   6.359
    5ADC    O22 1606   2.558   6.294   6.274
    5ADC    C27 1607   2.430   6.323   6.313
    5ADC    O23 1608   2.403   6.348   6.433
    5ADC    C28 1609   2.323   6.325   6.213
    5ADC    C22 1610   2.932   6.262   6.351
    5ADC    H27 1611   2.927   6.188   6.431
    5ADC    C23 1612   3.048   6.225   6.252
    5ADC    H28 1613   3.058   6.304   6.178
    5ADC    O21 1614   3.173   6.214   6.320
    5ADC   H209 1615   3.238   6.198   6.249
    5ADC    C24 1616   3.020   6.089   6.181
    5ADC    H29 1617   3.027   6.010   6.256
    5ADC    O20 1618   3.121   6.068   6.080
    5ADC    C29 1619   3.153   5.954   6.011
    5ADC    O24 1620   3.224   5.969   5.909
    5ADC    C30 1621   3.116   5.818   6.054
    5ADC    O17 1622   2.947   6.396   6.406
    5ADC    C15 1623   3.034   6.414   6.520
    5ADC    H24 1624   3.135   6.385   6.492
    5ADC     O9 1625   2.999   6.332   6.633
    5ADC    C14 1626   2.873   6.366   6.698
    5ADC    H14 1627   2.792   6.360   6.625
    5ADC    C16 1628   2.845   6.258   6.804
    5ADC    O12 1629   2.832   6.132   6.739
    5ADC    C17 1630   2.803   6.012   6.797
    5ADC    O13 1631   2.785   6.002   6.921
    5ADC    C18 1632   2.790   5.891   6.714
    5ADC    C11 1633   2.879   6.511   6.754
    5ADC    H11 1634   2.959   6.516   6.828
    5ADC    C13 1635   2.913   6.608   6.636
    5ADC    H13 1636   2.828   6.610   6.566
    5ADC    O10 1637   2.933   6.741   6.682
    5ADC    H15 1638   2.943   6.796   6.600
    5ADC    C12 1639   3.041   6.564   6.559
    5ADC    H12 1640   3.126   6.579   6.627
    5ADC    O11 1641   3.056   6.647   6.443
    5ADC    C19 1642   3.165   6.665   6.362
    5ADC    C20 1643   3.304   6.630   6.402
    5ADC    O14 1644   3.145   6.720   6.252
    5ADC     O2 1645   2.750   6.540   6.816
    5ADC     C5 1646   2.743   6.647   6.913
    5ADC    H25 1647   2.771   6.740   6.865
    5ADC     O1 1648   2.833   6.630   7.025
    5ADC     C1 1649   2.803   6.521   7.113
    5ADC     H1 1650   2.803   6.426   7.057
    5ADC     C6 1651   2.917   6.510   7.217
    5ADC     O6 1652   3.037   6.476   7.146
    5ADC     C7 1653   3.158   6.447   7.200
    5ADC     O7 1654   3.177   6.450   7.324
    5ADC     C8 1655   3.271   6.412   7.112
    5ADC     C2 1656   2.662   6.539   7.179
    5ADC     H2 1657   2.664   6.630   7.240
    5ADC     O5 1658   2.639   6.423   7.262
    5ADC    C75 1659   2.536   6.426   7.363
    5ADC   H103 1660   2.440   6.447   7.315
    5ADC    C72 1661   2.523   6.286   7.429
    5ADC    H91 1662   2.433   6.285   7.492
    5ADC    O55 1663   2.511   6.183   7.330
    5ADC    C79 1664   2.405   6.156   7.248
    5ADC    C80 1665   2.268   6.204   7.274
    5ADC    O57 1666   2.427   6.082   7.149
    5ADC    C73 1667   2.644   6.259   7.523
    5ADC    H92 1668   2.736   6.252   7.464
    5ADC    O54 1669   2.624   6.133   7.588
    5ADC    H94 1670   2.623   6.067   7.515
    5ADC    C71 1671   2.659   6.375   7.628
    5ADC    H90 1672   2.570   6.376   7.689
    5ADC    C74 1673   2.665   6.511   7.553
    5ADC    H93 1674   2.758   6.518   7.495
    5ADC    C76 1675   2.662   6.632   7.650
    5ADC    O16 1676   2.649   6.755   7.576
    5ADC    C77 1677   2.734   6.860   7.573
    5ADC    O56 1678   2.843   6.859   7.635
    5ADC    C78 1679   2.696   6.979   7.496
    5ADC    O15 1680   2.552   6.527   7.463
    5ADC    O47 1681   2.779   6.363   7.709
    5ADC    C65 1682   2.773   6.278   7.825
    5ADC   H104 1683   2.753   6.175   7.792
    5ADC    O46 1684   2.667   6.323   7.913
    5ADC    C61 1685   2.643   6.238   8.029
    5ADC    H76 1686   2.618   6.137   7.994
    5ADC    C66 1687   2.519   6.293   8.103
    5ADC    O51 1688   2.409   6.303   8.011
    5ADC    C67 1689   2.282   6.352   8.039
    5ADC    O52 1690   2.255   6.389   8.156
    5ADC    C68 1691   2.171   6.365   7.939
    5ADC    C62 1692   2.771   6.232   8.117
    5ADC    H77 1693   2.757   6.158   8.196
    5ADC    O50 1694   2.797   6.357   8.180
    5ADC    H81 1695   2.805   6.422   8.107
    5ADC    C63 1696   2.894   6.190   8.031
    5ADC    H78 1697   2.881   6.085   8.000
    5ADC    O49 1698   3.013   6.196   8.109
    5ADC    H80 1699   3.084   6.166   8.050
    5ADC    C64 1700   2.908   6.277   7.903
    5ADC    H79 1701   2.931   6.380   7.935
    5ADC    O48 1702   3.014   6.226   7.822
    5ADC    C69 1703   3.080   6.284   7.718
    5ADC    O53 1704   3.128   6.208   7.630
    5ADC    C70 1705   3.107   6.429   7.705
    5ADC     C3 1706   2.556   6.554   7.064
    5ADC     H3 1707   2.546   6.459   7.013
    5ADC     O4 1708   2.428   6.589   7.117
    5ADC   H207 1709   2.369   6.591   7.040
    5ADC     C4 1710   2.596   6.666   6.963
    5ADC     H4 1711   2.588   6.761   7.014
    5ADC     O3 1712   2.504   6.662   6.852
    5ADC     C9 1713   2.482   6.754   6.754
    5ADC     O8 1714   2.419   6.715   6.653
    5ADC    C10 1715   2.522   6.896   6.763
    5ADC    O62 1716   2.796   5.999   3.861
    5ADC    C82 1717   2.800   6.116   3.775
    5ADC   H106 1718   2.789   6.208   3.834
    5ADC    C83 1719   2.692   6.114   3.663
    5ADC   H107 1720   2.700   6.020   3.607
    5ADC    O61 1721   2.560   6.119   3.717
    5ADC   H213 1722   2.500   6.107   3.642
    5ADC    C84 1723   2.709   6.234   3.566
    5ADC   H108 1724   2.685   6.325   3.621
    5ADC    O60 1725   2.615   6.220   3.457
    5ADC    C89 1726   2.576   6.312   3.364
    5ADC    O65 1727   2.517   6.268   3.262
    5ADC    C90 1728   2.591   6.459   3.381
    5ADC    C85 1729   2.855   6.244   3.514
    5ADC   H129 1730   2.866   6.342   3.468
    5ADC    O59 1731   2.878   6.143   3.413
    5ADC    C91 1732   3.009   6.138   3.350
    5ADC   H115 1733   3.089   6.157   3.423
    5ADC    C94 1734   3.029   5.994   3.294
    5ADC   H118 1735   2.949   5.972   3.223
    5ADC    C96 1736   3.023   5.884   3.402
    5ADC    O69 1737   3.035   5.754   3.341
    5ADC    C97 1738   3.029   5.634   3.405
    5ADC    O70 1739   3.015   5.627   3.530
    5ADC    C98 1740   3.039   5.510   3.328
    5ADC    O66 1741   3.158   5.984   3.228
    5ADC    C95 1742   3.176   6.071   3.115
    5ADC   H128 1743   3.280   6.060   3.085
    5ADC    O74 1744   3.090   6.039   3.003
    5ADC   C102 1745   3.097   5.904   2.950
    5ADC   H131 1746   3.108   5.830   3.029
    5ADC   C103 1747   3.215   5.886   2.848
    5ADC   H132 1748   3.208   5.965   2.771
    5ADC    O78 1749   3.341   5.900   2.912
    5ADC   H215 1750   3.407   5.896   2.839
    5ADC   C104 1751   3.210   5.748   2.779
    5ADC   H133 1752   3.232   5.673   2.855
    5ADC    O77 1753   3.310   5.743   2.677
    5ADC   C109 1754   3.363   5.635   2.612
    5ADC    O81 1755   3.430   5.658   2.508
    5ADC   C110 1756   3.353   5.495   2.661
    5ADC   C105 1757   3.068   5.719   2.720
    5ADC   H154 1758   3.065   5.613   2.697
    5ADC    O76 1759   3.050   5.795   2.599
    5ADC   C111 1760   2.925   5.780   2.527
    5ADC   H140 1761   2.840   5.779   2.596
    5ADC   C114 1762   2.911   5.905   2.435
    5ADC   H143 1763   2.999   5.912   2.370
    5ADC   C116 1764   2.904   6.039   2.513
    5ADC    O85 1765   2.902   6.149   2.421
    5ADC   C117 1766   2.900   6.281   2.453
    5ADC    O86 1767   2.896   6.319   2.573
    5ADC   C118 1768   2.902   6.382   2.347
    5ADC    O82 1769   2.792   5.896   2.354
    5ADC   C115 1770   2.786   5.782   2.265
    5ADC   H153 1771   2.688   5.782   2.220
    5ADC    O88 1772   2.887   5.785   2.161
    5ADC   C122 1773   2.890   5.900   2.073
    5ADC   H156 1774   2.871   5.991   2.129
    5ADC   C123 1775   2.787   5.889   1.956
    5ADC   H157 1776   2.802   5.792   1.905
    5ADC    O92 1777   2.653   5.891   2.004
    5ADC   H159 1778   2.598   5.873   1.925
    5ADC   C124 1779   2.806   6.003   1.854
    5ADC   H158 1780   2.776   6.097   1.902
    5ADC    O91 1781   2.723   5.978   1.738
    5ADC   C129 1782   2.624   6.053   1.681
    5ADC    O95 1783   2.554   5.996   1.594
    5ADC   C130 1784   2.600   6.195   1.712
    5ADC   C125 1785   2.953   6.016   1.809
    5ADC   H181 1786   2.981   5.930   1.746
    5ADC    O90 1787   2.966   6.137   1.733
    5ADC   C131 1788   3.092   6.165   1.667
    5ADC   H167 1789   3.125   6.076   1.613
    5ADC   C134 1790   3.208   6.209   1.763
    5ADC   H170 1791   3.241   6.121   1.815
    5ADC   C136 1792   3.165   6.312   1.872
    5ADC    O99 1793   3.270   6.326   1.969
    5ADC   C137 1794   3.263   6.402   2.082
    5ADC   O100 1795   3.163   6.475   2.107
    5ADC   C138 1796   3.375   6.401   2.177
    5ADC    O96 1797   3.324   6.253   1.689
    5ADC   C135 1798   3.302   6.357   1.591
    5ADC   H180 1799   3.277   6.451   1.641
    5ADC   O102 1800   3.426   6.379   1.523
    5ADC   H218 1801   3.490   6.404   1.593
    5ADC   C132 1802   3.193   6.319   1.489
    5ADC   H168 1803   3.229   6.235   1.429
    5ADC    O98 1804   3.163   6.432   1.406
    5ADC   C139 1805   3.141   6.439   1.272
    5ADC   C140 1806   3.142   6.322   1.182
    5ADC   O101 1807   3.116   6.552   1.225
    5ADC   C133 1808   3.063   6.276   1.563
    5ADC   H169 1809   3.019   6.363   1.612
    5ADC    O97 1810   2.968   6.229   1.467
    5ADC   H171 1811   2.888   6.211   1.518
    5ADC    O89 1812   3.040   6.022   1.925
    5ADC   C121 1813   3.033   5.910   2.013
    5ADC   H155 1814   3.057   5.817   1.958
    5ADC   C126 1815   3.144   5.929   2.119
    5ADC    O93 1816   3.271   5.941   2.053
    5ADC   C127 1817   3.391   5.963   2.112
    5ADC    O94 1818   3.402   5.978   2.236
    5ADC   C128 1819   3.512   5.971   2.029
    5ADC   C112 1820   2.798   5.649   2.345
    5ADC   H141 1821   2.710   5.638   2.409
    5ADC    O84 1822   2.808   5.537   2.256
    5ADC   C119 1823   2.710   5.481   2.178
    5ADC   C120 1824   2.566   5.494   2.207
    5ADC    O87 1825   2.748   5.412   2.081
    5ADC   C113 1826   2.923   5.651   2.439
    5ADC   H142 1827   3.014   5.647   2.379
    5ADC    O83 1828   2.918   5.534   2.519
    5ADC   H144 1829   2.925   5.459   2.457
    5ADC    O75 1830   2.965   5.743   2.819
    5ADC   C101 1831   2.963   5.875   2.875
    5ADC   H130 1832   2.950   5.949   2.796
    5ADC   C106 1833   2.838   5.886   2.966
    5ADC    O79 1834   2.721   5.866   2.887
    5ADC   C107 1835   2.591   5.872   2.933
    5ADC    O80 1836   2.566   5.894   3.053
    5ADC   C108 1837   2.481   5.853   2.838
    5ADC    C92 1838   3.156   6.220   3.156
    5ADC   H116 1839   3.237   6.250   3.223
    5ADC    O68 1840   3.157   6.306   3.040
    5ADC    C99 1841   3.262   6.343   2.961
    5ADC   C100 1842   3.404   6.333   3.001
    5ADC    O71 1843   3.233   6.393   2.850
    5ADC    C93 1844   3.022   6.240   3.232
    5ADC   H117 1845   2.938   6.225   3.164
    5ADC    O67 1846   3.018   6.374   3.279
    5ADC   H119 1847   3.020   6.430   3.199
    5ADC    O58 1848   2.950   6.239   3.622
    5ADC    C81 1849   2.941   6.122   3.706
    5ADC   H105 1850   2.954   6.031   3.647
    5ADC    C86 1851   3.059   6.127   3.806
    5ADC    O63 1852   3.183   6.127   3.735
    5ADC    C87 1853   3.307   6.125   3.790
    5ADC    O64 1854   3.323   6.124   3.915
    5ADC    C88 1855   3.426   6.122   3.704
    6ES3X    C1 1856   4.396   4.798   4.916
    6ES3X    C2 1857   4.505   4.865   4.857
    6ES3X    C3 1858   4.493   4.917   4.728
    6ES3X    C4 1859   4.371   4.903   4.657
    6ES3X    C5 1860   4.260   4.837   4.713
    6ES3X    C6 1861   4.274   4.785   4.845
    6ES3X    O1 1862   4.408   4.746   5.041
    6ES3X    N1 1863   4.144   4.824   4.646
    6ES3X    O2 1864   4.051   4.770   4.688
    6ES3X    O3 1865   4.129   4.869   4.528
    6ES3X    H1 1866   4.592   4.874   4.908
    6ES3X    H2 1867   4.572   4.964   4.684
    6ES3X    H3 1868   4.367   4.943   4.563
    6ES3X    H4 1869   4.197   4.737   4.891
    6ES3X    H5 1870   4.377   4.818   5.101
    7ES3X    C1 1871   5.044   6.366   5.994
    7ES3X    C2 1872   4.975   6.401   5.875
    7ES3X    C3 1873   4.998   6.328   5.758
    7ES3X    C4 1874   5.088   6.219   5.758
    7ES3X    C5 1875   5.158   6.182   5.875
    7ES3X    C6 1876   5.133   6.257   5.993
    7ES3X    O1 1877   5.023   6.437   6.107
    7ES3X    N1 1878   5.244   6.078   5.875
    7ES3X    O2 1879   5.304   6.045   5.969
    7ES3X    O3 1880   5.268   6.009   5.771
    7ES3X    H1 1881   4.911   6.479   5.876
    7ES3X    H2 1882   4.949   6.353   5.672
    7ES3X    H3 1883   5.102   6.169   5.671
    7ES3X    H4 1884   5.181   6.234   6.080
    7ES3X    H5 1885   4.950   6.391   6.154
    8ES3X    C1 1886   7.870   3.750   6.360
    8ES3X    C2 1887   7.975   3.671   6.306
    8ES3X    C3 1888   8.018   3.693   6.175
    8ES3X    C4 1889   7.958   3.794   6.096
    8ES3X    C5 1890   7.854   3.874   6.147
    8ES3X    C6 1891   7.811   3.851   6.281
    8ES3X    O1 1892   7.827   3.728   6.486
    8ES3X    N1 1893   7.797   3.971   6.072
    8ES3X    O2 1894   7.711   4.039   6.110
    8ES3X    O3 1895   7.833   3.994   5.952
    8ES3X    H1 1896   8.017   3.598   6.363
    8ES3X    H2 1897   8.093   3.635   6.136
    8ES3X    H3 1898   7.993   3.806   6.002
    8ES3X    H4 1899   7.737   3.906   6.323
    8ES3X    H5 1900   7.881   3.788   6.543
    9ES3X    C1 1901   6.018   0.678   6.246
    9ES3X    C2 1902   5.944   0.704   6.363
    9ES3X    C3 1903   5.999   0.784   6.464
    9ES3X    C4 1904   6.128   0.839   6.448
    9ES3X    C5 1905   6.205   0.815   6.332
    9ES3X    C6 1906   6.146   0.734   6.230
    9ES3X    O1 1907   5.965   0.600   6.149
    9ES3X    N1 1908   6.328   0.868   6.317
    9ES3X    O2 1909   6.394   0.850   6.223
    9ES3X    O3 1910   6.382   0.940   6.406
    9ES3X    H1 1911   5.851   0.664   6.374
    9ES3X    H2 1912   5.946   0.802   6.549
    9ES3X    H3 1913   6.165   0.896   6.524
    9ES3X    H4 1914   6.197   0.714   6.144
    9ES3X    H5 1915   5.919   0.663   6.088
   10ES3X    C1 1916   1.307   5.459   2.094
   10ES3X    C2 1917   1.395   5.568   2.104
   10ES3X    C3 1918   1.533   5.546   2.120
   10ES3X    C4 1919   1.583   5.414   2.126
   10ES3X    C5 1920   1.497   5.302   2.116
   10ES3X    C6 1921   1.358   5.327   2.099
   10ES3X    O1 1922   1.174   5.480   2.080
   10ES3X    N1 1923   1.546   5.177   2.121
   10ES3X    O2 1924   1.478   5.082   2.114
   10ES3X    O3 1925   1.669   5.152   2.137
   10ES3X    H1 1926   1.359   5.663   2.100
   10ES3X    H2 1927   1.596   5.625   2.129
   10ES3X    H3 1928   1.683   5.403   2.138
   10ES3X    H4 1929   1.292   5.250   2.091
   10ES3X    H5 1930   1.159   5.482   1.983
   11ES3X    C1 1931   4.527   3.543   2.573
   11ES3X    C2 1932   4.488   3.617   2.687
   11ES3X    C3 1933   4.554   3.596   2.809
   11ES3X    C4 1934   4.660   3.503   2.818
   11ES3X    C5 1935   4.701   3.428   2.705
   11ES3X    C6 1936   4.633   3.451   2.582
   11ES3X    O1 1937   4.463   3.562   2.455
   11ES3X    N1 1938   4.803   3.339   2.713
   11ES3X    O2 1939   4.839   3.275   2.623
   11ES3X    O3 1940   4.865   3.317   2.822
   11ES3X    H1 1941   4.412   3.684   2.681
   11ES3X    H2 1942   4.526   3.648   2.892
   11ES3X    H3 1943   4.705   3.491   2.908
   11ES3X    H4 1944   4.660   3.400   2.498
   11ES3X    H5 1945   4.514   3.633   2.409
   12ES3X    C1 1946   2.261   5.007   2.947
   12ES3X    C2 1947   2.380   5.064   2.897
   12ES3X    C3 1948   2.418   5.039   2.765
   12ES3X    C4 1949   2.338   4.958   2.682
   12ES3X    C5 1950   2.218   4.900   2.729
   12ES3X    C6 1951   2.180   4.927   2.864
   12ES3X    O1 1952   2.224   5.030   3.076
   12ES3X    N1 1953   2.141   4.823   2.649
   12ES3X    O2 1954   2.042   4.773   2.685
   12ES3X    O3 1955   2.172   4.797   2.529
   12ES3X    H1 1956   2.438   5.122   2.958
   12ES3X    H2 1957   2.505   5.078   2.729
   12ES3X    H3 1958   2.369   4.942   2.586
   12ES3X    H4 1959   2.095   4.888   2.903
   12ES3X    H5 1960   2.167   5.110   3.072
   13ES3X    C1 1961   0.622   7.860   6.320
   13ES3X    C2 1962   0.555   7.859   6.196
   13ES3X    C3 1963   0.610   7.790   6.088
   13ES3X    C4 1964   0.733   7.721   6.103
   13ES3X    C5 1965   0.802   7.720   6.226
   13ES3X    C6 1966   0.743   7.790   6.335
   13ES3X    O1 1967   0.569   7.928   6.425
   13ES3X    N1 1968   0.918   7.653   6.241
   13ES3X    O2 1969   0.979   7.651   6.340
   13ES3X    O3 1970   0.973   7.590   6.145
   13ES3X    H1 1971   0.467   7.910   6.186
   13ES3X    H2 1972   0.563   7.790   5.998
   13ES3X    H3 1973   0.769   7.672   6.022
   13ES3X    H4 1974   0.789   7.793   6.426
   13ES3X    H5 1975   0.513   7.863   6.473
   14ES3X    C1 1976   8.449   6.477   3.110
   14ES3X    C2 1977   8.357   6.524   3.014
   14ES3X    C3 1978   8.403   6.566   2.889
   14ES3X    C4 1979   8.541   6.561   2.858
   14ES3X    C5 1980   8.635   6.514   2.953
   14ES3X    C6 1981   8.586   6.471   3.079
   14ES3X    O1 1982   8.405   6.437   3.232
   14ES3X    N1 1983   8.767   6.509   2.923
   14ES3X    O2 1984   8.848   6.471   2.998
   14ES3X    O3 1985   8.813   6.546   2.811
   14ES3X    H1 1986   8.258   6.528   3.037
   14ES3X    H2 1987   8.337   6.601   2.819
   14ES3X    H3 1988   8.570   6.592   2.766
   14ES3X    H4 1989   8.650   6.436   3.150
   14ES3X    H5 1990   8.388   6.340   3.223
   15ES3X    C1 1991   1.900   5.760   2.762
   15ES3X    C2 1992   1.975   5.736   2.646
   15ES3X    C3 1993   1.946   5.806   2.528
   15ES3X    C4 1994   1.842   5.902   2.527
   15ES3X    C5 1995   1.765   5.929   2.643
   15ES3X    C6 1996   1.797   5.856   2.761
   15ES3X    O1 1997   1.927   5.690   2.876
   15ES3X    N1 1998   1.666   6.021   2.642
   15ES3X    O2 1999   1.601   6.045   2.735
   15ES3X    O3 2000   1.636   6.087   2.538
   15ES3X    H1 2001   2.050   5.666   2.647
   15ES3X    H2 2002   1.999   5.789   2.443
   15ES3X    H3 2003   1.824   5.952   2.440
   15ES3X    H4 2004   1.745   5.871   2.847
   15ES3X    H5 2005   1.993   5.745   2.924
   16SOL     OW 2006   0.019   0.368   0.647
   16SOL    HW1 2007  -0.063   0.411   0.686
   16SOL    HW2 2008  -0.009   0.295   0.584
   17SOL     OW 2009   0.569   1.275   1.165
   17SOL    HW1 2010   0.476   1.268   1.128
   17SOL    HW2 2011   0.580   1.364   1.209
   18SOL     OW 2012   1.555   1.511   0.703
   18SOL    HW1 2013   1.498   1.495   0.784
   18SOL    HW2 2014   1.496   1.521   0.623
   19SOL     OW 2015   1.743   0.618   0.856
   19SOL    HW1 2016   1.776   0.712   0.856
   19SOL    HW2 2017   1.794   0.564   0.922
   20SOL     OW 2018   1.135   0.703   0.717
   20SOL    HW1 2019   1.192   0.781   0.692
   20SOL    HW2 2020   1.075   0.729   0.793
   21SOL     OW 2021   1.755   0.607   0.231
   21SOL    HW1 2022   1.743   0.594   0.132
   21SOL    HW2 2023   1.725   0.526   0.280
   22SOL     OW 2024   0.768   1.144   1.023
   22SOL    HW1 2025   0.690   1.161   1.083
   22SOL    HW2 2026   0.802   1.231   0.987
   23SOL     OW 2027   0.850   0.798   1.823
   23SOL    HW1 2028   0.846   0.874   1.888
   23SOL    HW2 2029   0.872   0.834   1.732
   24SOL     OW 2030   0.685   1.012   0.665
   24SOL    HW1 2031   0.754   0.996   0.735
   24SOL    HW2 2032   0.612   1.069   0.703
   25SOL     OW 2033   0.686   1.161   1.803
   25SOL    HW1 2034   0.746   1.240   1.817
   25SOL    HW2 2035   0.600   1.192   1.762
   26SOL     OW 2036   0.335   1.435   1.061
   26SOL    HW1 2037   0.257   1.404   1.008
   26SOL    HW2 2038   0.393   1.493   1.004
   27SOL     OW 2039   1.460   1.505   1.339
   27SOL    HW1 2040   1.484   1.599   1.365
   27SOL    HW2 2041   1.444   1.451   1.421
   28SOL     OW 2042   0.438   0.392   1.499
   28SOL    HW1 2043   0.520   0.336   1.508
   28SOL    HW2 2044   0.357   0.334   1.503
   29SOL     OW 2045   1.603   0.447   0.737
   29SOL    HW1 2046   1.529   0.493   0.687
   29SOL    HW2 2047   1.654   0.515   0.790
   30SOL     OW 2048   1.127   1.341   1.690
   30SOL    HW1 2049   1.174   1.341   1.778
   30SOL    HW2 2050   1.079   1.254   1.679
   31SOL     OW 2051   0.620   1.786   1.439
   31SOL    HW1 2052   0.528   1.769   1.474
   31SOL    HW2 2053   0.648   1.878   1.465
   32SOL     OW 2054   0.606   0.964   0.123
   32SOL    HW1 2055   0.613   1.048   0.069
   32SOL    HW2 2056   0.652   0.977   0.211
   33SOL     OW 2057   1.594   0.114   1.480
   33SOL    HW1 2058   1.576   0.181   1.408
   33SOL    HW2 2059   1.591   0.160   1.569
   34SOL     OW 2060   1.842   1.767   0.359
   34SOL    HW1 2061   1.896   1.738   0.439
   34SOL    HW2 2062   1.872   1.857   0.330
   35SOL     OW 2063   1.689   0.922   0.612
   35SOL    HW1 2064   1.784   0.893   0.620
   35SOL    HW2 2065   1.681   0.987   0.537
   36SOL     OW 2066   1.641   1.108   0.432
   36SOL    HW1 2067   1.727   1.110   0.380
   36SOL    HW2 2068   1.655   1.155   0.520
   37SOL     OW 2069   0.613   1.365   0.726
   37SOL    HW1 2070   0.564   1.278   0.735
   37SOL    HW2 2071   0.590   1.408   0.639
   38SOL     OW 2072   1.293   1.228   1.423
   38SOL    HW1 2073   1.330   1.155   1.365
   38SOL    HW2 2074   1.345   1.233   1.508
   39SOL     OW 2075   0.809   0.004   0.502
   39SOL    HW1 2076   0.849   0.095   0.493
   39SOL    HW2 2077   0.709   0.012   0.508
   40SOL     OW 2078   1.525   0.999   0.190
   40SOL    HW1 2079   1.462   0.923   0.203
   40SOL    HW2 2080   1.573   1.017   0.276
   41SOL     OW 2081   1.187   1.792   1.616
   41SOL    HW1 2082   1.211   1.852   1.540
   41SOL    HW2 2083   1.194   1.697   1.586
   42SOL     OW 2084   0.317   0.251   1.801
   42SOL    HW1 2085   0.388   0.322   1.807
   42SOL    HW2 2086   0.229   0.290   1.829
   43SOL     OW 2087   1.466   1.417   0.953
   43SOL    HW1 2088   1.407   1.423   1.033
   43SOL    HW2 2089   1.451   1.329   0.907
   44SOL     OW 2090   1.667   1.714   0.572
   44SOL    HW1 2091   1.626   1.691   0.484
   44SOL    HW2 2092   1.649   1.640   0.637
   45SOL     OW 2093   0.598   0.729   0.270
   45SOL    HW1 2094   0.622   0.798   0.202
   45SOL    HW2 2095   0.520   0.762   0.324
   46SOL     OW 2096   1.281   0.345   0.944
   46SOL    HW1 2097   1.195   0.295   0.931
   46SOL    HW2 2098   1.343   0.291   1.000
   47SOL     OW 2099   1.576   1.662   0.307
   47SOL    HW1 2100   1.665   1.708   0.310
   47SOL    HW2 2101   1.555   1.638   0.212
   48SOL     OW 2102   0.807   0.605   1.465
   48SOL    HW1 2103   0.760   0.602   1.554
   48SOL    HW2 2104   0.756   0.550   1.399
   49SOL     OW 2105   1.394   0.469   1.674
   49SOL    HW1 2106   1.374   0.512   1.762
   49SOL    HW2 2107   1.472   0.407   1.683
   50SOL     OW 2108   0.973   0.890   1.572
   50SOL    HW1 2109   1.019   0.806   1.543
   50SOL    HW2 2110   0.917   0.924   1.497
   51SOL     OW 2111   0.991   0.410   1.242
   51SOL    HW1 2112   0.914   0.444   1.296
   51SOL    HW2 2113   0.957   0.359   1.163
   52SOL     OW 2114   1.041   0.701   0.429
   52SOL    HW1 2115   1.067   0.697   0.525
   52SOL    HW2 2116   0.956   0.650   0.415
   53SOL     OW 2117   0.865   0.348   0.195
   53SOL    HW1 2118   0.924   0.411   0.146
   53SOL    HW2 2119   0.884   0.254   0.166
   54SOL     OW 2120   1.719   0.585   1.831
   54SOL    HW1 2121   1.693   0.674   1.795
   54SOL    HW2 2122   1.717   0.517   1.758
   55SOL     OW 2123   1.362   1.144   0.545
   55SOL    HW1 2124   1.445   1.115   0.497
   55SOL    HW2 2125   1.313   1.211   0.489
   56SOL     OW 2126   0.550   0.196   0.885
   56SOL    HW1 2127   0.545   0.191   0.985
   56SOL    HW2 2128   0.552   0.292   0.856
   57SOL     OW 2129   1.008   1.456   0.477
   57SOL    HW1 2130   0.962   1.528   0.425
   57SOL    HW2 2131   1.004   1.476   0.575
   58SOL     OW 2132   0.351   1.801   0.853
   58SOL    HW1 2133   0.401   1.715   0.859
   58SOL    HW2 2134   0.416   1.878   0.850
   59SOL     OW 2135   1.795   1.066   0.873
   59SOL    HW1 2136   1.733   1.051   0.797
   59SOL    HW2 2137   1.743   1.077   0.958
   60SOL     OW 2138   1.227   1.550   1.506
   60SOL    HW1 2139   1.233   1.473   1.570
   60SOL    HW2 2140   1.175   1.524   1.426
   61SOL     OW 2141   0.321   0.943   0.242
   61SOL    HW1 2142   0.403   0.982   0.200
   61SOL    HW2 2143   0.294   0.861   0.193
   62SOL     OW 2144   1.458   0.735   0.728
   62SOL    HW1 2145   1.453   0.670   0.803
   62SOL    HW2 2146   1.538   0.794   0.741
   63SOL     OW 2147   0.461   1.266   1.727
   63SOL    HW1 2148   0.411   1.267   1.641
   63SOL    HW2 2149   0.398   1.248   1.803
   64SOL     OW 2150   1.111   1.776   0.237
   64SOL    HW1 2151   1.051   1.714   0.287
   64SOL    HW2 2152   1.142   1.732   0.152
   65SOL     OW 2153   1.632   1.377   0.081
   65SOL    HW1 2154   1.600   1.471   0.071
   65SOL    HW2 2155   1.556   1.314   0.069
   66SOL     OW 2156   0.464   1.743   0.323
   66SOL    HW1 2157   0.497   1.782   0.409
   66SOL    HW2 2158   0.540   1.736   0.258
   67SOL     OW 2159   1.400   0.107   0.426
   67SOL    HW1 2160   1.376   0.070   0.336
   67SOL    HW2 2161   1.499   0.123   0.430
   68SOL     OW 2162   0.940   1.698   0.904
   68SOL    HW1 2163   1.020   1.641   0.925
   68SOL    HW2 2164   0.891   1.658   0.827
   69SOL     OW 2165   0.382   0.700   0.480
   69SOL    HW1 2166   0.427   0.610   0.477
   69SOL    HW2 2167   0.288   0.689   0.513
   70SOL     OW 2168   1.547   0.222   1.729
   70SOL    HW1 2169   1.542   0.259   1.821
   70SOL    HW2 2170   1.475   0.153   1.717
   71SOL     OW 2171   0.614   0.122   0.117
   71SOL    HW1 2172   0.712   0.100   0.124
   71SOL    HW2 2173   0.583   0.105   0.024
   72SOL     OW 2174   0.781   0.264   1.749
   72SOL    HW1 2175   0.848   0.203   1.792
   72SOL    HW2 2176   0.708   0.283   1.814
   73SOL     OW 2177   0.888   1.514   1.195
   73SOL    HW1 2178   0.865   1.489   1.101
   73SOL    HW2 2179   0.949   1.445   1.234
   74SOL     OW 2180   1.351   0.590   1.433
   74SOL    HW1 2181   1.379   0.547   1.518
   74SOL    HW2 2182   1.376   0.686   1.434
   75SOL     OW 2183   0.803   1.402   0.924
   75SOL    HW1 2184   0.893   1.416   0.882
   75SOL    HW2 2185   0.732   1.404   0.853
   76SOL     OW 2186   0.922   0.503   0.899
   76SOL    HW1 2187   0.897   0.494   0.803
   76SOL    HW2 2188   0.970   0.421   0.930
   77SOL     OW 2189   0.539   0.064   0.512
   77SOL    HW1 2190   0.458   0.065   0.570
   77SOL    HW2 2191   0.542   0.147   0.457
   78SOL     OW 2192   1.434   1.188   0.041
   78SOL    HW1 2193   1.466   1.112   0.098
   78SOL    HW2 2194   1.342   1.215   0.071
   79SOL     OW 2195   0.297   0.035   0.171
   79SOL    HW1 2196   0.346   0.119   0.150
   79SOL    HW2 2197   0.359  -0.030   0.216
   80SOL     OW 2198   0.935   0.236   0.480
   80SOL    HW1 2199   0.887   0.277   0.402
   80SOL    HW2 2200   1.034   0.234   0.461
   81SOL     OW 2201   1.076   0.683   1.464
   81SOL    HW1 2202   0.996   0.622   1.467
   81SOL    HW2 2203   1.157   0.630   1.440
   82SOL     OW 2204   1.227   1.570   0.793
   82SOL    HW1 2205   1.248   1.644   0.728
   82SOL    HW2 2206   1.295   1.570   0.866
   83SOL     OW 2207   0.459   1.152   0.741
   83SOL    HW1 2208   0.388   1.125   0.806
   83SOL    HW2 2209   0.433   1.124   0.648
   84SOL     OW 2210   1.271   1.797   0.591
   84SOL    HW1 2211   1.315   1.861   0.527
   84SOL    HW2 2212   1.221   1.849   0.661
   85SOL     OW 2213   1.032   0.549   0.016
   85SOL    HW1 2214   0.991   0.631  -0.023
   85SOL    HW2 2215   1.096   0.575   0.089
   86SOL     OW 2216   0.561   0.222   1.147
   86SOL    HW1 2217   0.599   0.138   1.184
   86SOL    HW2 2218   0.473   0.241   1.191
   87SOL     OW 2219   0.866   0.454   0.642
   87SOL    HW1 2220   0.834   0.526   0.580
   87SOL    HW2 2221   0.890   0.373   0.589
   88SOL     OW 2222   1.017   0.039   0.753
   88SOL    HW1 2223   0.945   0.044   0.684
   88SOL    HW2 2224   0.993  -0.030   0.822
   89SOL     OW 2225   1.429   1.173   0.867
   89SOL    HW1 2226   1.374   1.089   0.860
   89SOL    HW2 2227   1.455   1.202   0.775
   90SOL     OW 2228   1.466   0.590   0.992
   90SOL    HW1 2229   1.436   0.495   0.999
   90SOL    HW2 2230   1.539   0.606   1.058
   91SOL     OW 2231   1.857   0.833   0.377
   91SOL    HW1 2232   1.899   0.769   0.441
   91SOL    HW2 2233   1.819   0.782   0.299
   92SOL     OW 2234   0.488   1.385   0.174
   92SOL    HW1 2235   0.401   1.370   0.221
   92SOL    HW2 2236   0.471   1.411   0.079
   93SOL     OW 2237   1.664   1.280   0.657
   93SOL    HW1 2238   1.763   1.288   0.671
   93SOL    HW2 2239   1.619   1.364   0.688
   94SOL     OW 2240   1.390   0.575   0.078
   94SOL    HW1 2241   1.336   0.554   0.159
   94SOL    HW2 2242   1.481   0.534   0.087
   95SOL     OW 2243   0.527   0.256   0.328
   95SOL    HW1 2244   0.554   0.197   0.253
   95SOL    HW2 2245   0.527   0.351   0.297
   96SOL     OW 2246   1.754   1.223   1.588
   96SOL    HW1 2247   1.845   1.184   1.575
   96SOL    HW2 2248   1.762   1.319   1.612
   97SOL     OW 2249   1.064   1.347   1.340
   97SOL    HW1 2250   0.984   1.324   1.395
   97SOL    HW2 2251   1.147   1.321   1.389
   98SOL     OW 2252   1.592   1.629   1.625
   98SOL    HW1 2253   1.619   1.663   1.535
   98SOL    HW2 2254   1.671   1.591   1.671
   99SOL     OW 2255   1.111   1.195   1.100
   99SOL    HW1 2256   1.071   1.239   1.181
   99SOL    HW2 2257   1.070   1.232   1.017
  100SOL     OW 2258   1.638   1.099   1.079
  100SOL    HW1 2259   1.643   1.180   1.138
  100SOL    HW2 2260   1.552   1.101   1.028
  101SOL     OW 2261   0.915   0.089   1.402
  101SOL    HW1 2262   0.940   0.069   1.307
  101SOL    HW2 2263   0.987   0.145   1.444
  102SOL     OW 2264   0.980   1.116   1.719
  102SOL    HW1 2265   0.881   1.122   1.729
  102SOL    HW2 2266   1.003   1.036   1.663
  103SOL     OW 2267   0.705   1.050   0.368
  103SOL    HW1 2268   0.691   1.057   0.467
  103SOL    HW2 2269   0.789   0.999   0.350
  104SOL     OW 2270   0.410   0.813   1.251
  104SOL    HW1 2271   0.496   0.825   1.301
  104SOL    HW2 2272   0.368   0.726   1.278
  105SOL     OW 2273   1.274   0.386   1.262
  105SOL    HW1 2274   1.295   0.460   1.326
  105SOL    HW2 2275   1.185   0.403   1.219
  106SOL     OW 2276   0.367   1.100   0.501
  106SOL    HW1 2277   0.360   1.183   0.445
  106SOL    HW2 2278   0.371   1.020   0.441
  107SOL     OW 2279   0.566   0.537   0.865
  107SOL    HW1 2280   0.578   0.603   0.791
  107SOL    HW2 2281   0.612   0.571   0.948
  108SOL     OW 2282   1.252   1.348   0.388
  108SOL    HW1 2283   1.302   1.425   0.428
  108SOL    HW2 2284   1.157   1.350   0.420
  109SOL     OW 2285   1.272   1.445   1.142
  109SOL    HW1 2286   1.319   1.458   1.229
  109SOL    HW2 2287   1.206   1.371   1.151
  110SOL     OW 2288   1.582   0.639   0.472
  110SOL    HW1 2289   1.551   0.700   0.545
  110SOL    HW2 2290   1.632   0.691   0.403
  111SOL     OW 2291   0.354   1.510   1.329
  111SOL    HW1 2292   0.333   1.466   1.242
  111SOL    HW2 2293   0.451   1.536   1.332
  112SOL     OW 2294   0.402   0.751   1.598
  112SOL    HW1 2295   0.470   0.806   1.551
  112SOL    HW2 2296   0.442   0.663   1.625
  113SOL     OW 2297   1.587   0.779   1.670
  113SOL    HW1 2298   1.495   0.817   1.665
  113SOL    HW2 2299   1.647   0.826   1.605
  114SOL     OW 2300   1.013   0.105   1.770
  114SOL    HW1 2301   1.019   0.190   1.718
  114SOL    HW2 2302   1.045   0.029   1.713
  115SOL     OW 2303   0.504   0.050   1.740
  115SOL    HW1 2304   0.462  -0.007   1.670
  115SOL    HW2 2305   0.438   0.119   1.772
  116SOL     OW 2306   0.573   0.870   1.029
  116SOL    HW1 2307   0.617   0.959   1.020
  116SOL    HW2 2308   0.510   0.870   1.106
  117SOL     OW 2309   1.360   0.862   1.045
  117SOL    HW1 2310   1.285   0.862   0.979
  117SOL    HW2 2311   1.397   0.770   1.054
  118SOL     OW 2312   1.209   0.525   0.275
  118SOL    HW1 2313   1.222   0.441   0.329
  118SOL    HW2 2314   1.180   0.599   0.335
  119SOL     OW 2315   0.732   0.634   1.064
  119SOL    HW1 2316   0.791   0.608   0.988
  119SOL    HW2 2317   0.704   0.730   1.053
  120SOL     OW 2318   1.728   0.935   1.854
  120SOL    HW1 2319   1.682   0.928   1.765
  120SOL    HW2 2320   1.666   0.979   1.920
  121SOL     OW 2321   0.307   0.063   0.618
  121SOL    HW1 2322   0.296   0.157   0.651
  121SOL    HW2 2323   0.302   0.000   0.695
  122SOL     OW 2324   1.622   0.367   0.374
  122SOL    HW1 2325   1.624   0.291   0.438
  122SOL    HW2 2326   1.574   0.444   0.414
  123SOL     OW 2327   1.023   0.766   0.966
  123SOL    HW1 2328   1.038   0.787   1.062
  123SOL    HW2 2329   0.993   0.671   0.957
  124SOL     OW 2330   0.980   1.573   1.700
  124SOL    HW1 2331   0.960   1.617   1.612
  124SOL    HW2 2332   1.019   1.482   1.684
  125SOL     OW 2333   1.859   1.518   1.605
  125SOL    HW1 2334   1.873   1.545   1.510
  125SOL    HW2 2335   1.942   1.540   1.658
  126SOL     OW 2336   0.350   0.898   1.804
  126SOL    HW1 2337   0.426   0.942   1.852
  126SOL    HW2 2338   0.385   0.851   1.722
  127SOL     OW 2339   1.540   0.274   0.125
  127SOL    HW1 2340   1.479   0.199   0.148
  127SOL    HW2 2341   1.562   0.326   0.208
  128SOL     OW 2342   1.303   0.838   0.042
  128SOL    HW1 2343   1.337   0.745   0.057
  128SOL    HW2 2344   1.321   0.865  -0.053
  129SOL     OW 2345   1.068   1.333   0.849
  129SOL    HW1 2346   1.075   1.249   0.794
  129SOL    HW2 2347   1.130   1.402   0.813
  130SOL     OW 2348   0.319   0.810   0.949
  130SOL    HW1 2349   0.412   0.846   0.954
  130SOL    HW2 2350   0.313   0.725   1.001
  131SOL     OW 2351   1.138   0.380   1.678
  131SOL    HW1 2352   1.093   0.443   1.742
  131SOL    HW2 2353   1.231   0.411   1.661
  132SOL     OW 2354   1.160   0.207   1.477
  132SOL    HW1 2355   1.160   0.271   1.554
  132SOL    HW2 2356   1.188   0.255   1.394
  133SOL     OW 2357   0.504   1.568   0.910
  133SOL    HW1 2358   0.570   1.642   0.919
  133SOL    HW2 2359   0.548   1.489   0.868
  134SOL     OW 2360   1.002   0.796   1.238
  134SOL    HW1 2361   1.043   0.764   1.324
  134SOL    HW2 2362   0.906   0.769   1.235
  135SOL     OW 2363   1.369   0.950   1.660
  135SOL    HW1 2364   1.408   1.039   1.680
  135SOL    HW2 2365   1.379   0.930   1.563
  136SOL     OW 2366   0.815   0.572   0.325
  136SOL    HW1 2367   0.822   0.483   0.279
  136SOL    HW2 2368   0.721   0.606   0.317
  137SOL     OW 2369   1.657   0.604   1.206
  137SOL    HW1 2370   1.619   0.535   1.268
  137SOL    HW2 2371   1.739   0.568   1.162
  138SOL     OW 2372   0.671   0.464   1.269
  138SOL    HW1 2373   0.637   0.375   1.239
  138SOL    HW2 2374   0.697   0.518   1.189
  139SOL     OW 2375   0.930   1.678   1.465
  139SOL    HW1 2376   0.906   1.660   1.370
  139SOL    HW2 2377   0.960   1.772   1.475
  140SOL     OW 2378   0.473   0.500   0.191
  140SOL    HW1 2379   0.534   0.580   0.195
  140SOL    HW2 2380   0.378   0.531   0.198
  141SOL     OW 2381   1.347   1.059   1.234
  141SOL    HW1 2382   1.371   0.996   1.160
  141SOL    HW2 2383   1.257   1.099   1.216
  142SOL     OW 2384   1.302   0.855   0.309
  142SOL    HW1 2385   1.216   0.824   0.351
  142SOL    HW2 2386   1.298   0.841   0.210
  143SOL     OW 2387   1.759   1.747   1.154
  143SOL    HW1 2388   1.820   1.777   1.081
  143SOL    HW2 2389   1.721   1.658   1.132
  144SOL     OW 2390   1.252   1.731   1.128
  144SOL    HW1 2391   1.336   1.736   1.074
  144SOL    HW2 2392   1.229   1.635   1.146
  145SOL     OW 2393   0.688   1.662   1.716
  145SOL    HW1 2394   0.632   1.743   1.725
  145SOL    HW2 2395   0.740   1.666   1.630
  146SOL     OW 2396   0.903   0.086   0.133
  146SOL    HW1 2397   0.954   0.087   0.047
  146SOL    HW2 2398   0.959   0.044   0.204
  147SOL     OW 2399   1.726   0.135   0.523
  147SOL    HW1 2400   1.799   0.118   0.456
  147SOL    HW2 2401   1.695   0.048   0.561
  148SOL     OW 2402   1.388   1.573   0.477
  148SOL    HW1 2403   1.455   1.585   0.403
  148SOL    HW2 2404   1.348   1.662   0.500
  149SOL     OW 2405   0.130   1.794   1.851
  149SOL    HW1 2406   0.089   1.720   1.904
  149SOL    HW2 2407   0.194   1.845   1.909
  150SOL     OW 2408   1.280   0.927   0.672
  150SOL    HW1 2409   1.340   0.846   0.674
  150SOL    HW2 2410   1.320   0.996   0.612
  151SOL     OW 2411   0.830   1.273   1.422
  151SOL    HW1 2412   0.825   1.306   1.517
  151SOL    HW2 2413   0.744   1.292   1.376
  152SOL     OW 2414   0.672   1.616   0.154
  152SOL    HW1 2415   0.681   1.626   0.055
  152SOL    HW2 2416   0.632   1.527   0.175
  153SOL     OW 2417   1.650   1.720   1.394
  153SOL    HW1 2418   1.703   1.730   1.310
  153SOL    HW2 2419   1.623   1.810   1.428
  154SOL     OW 2420   1.841   0.175   0.963
  154SOL    HW1 2421   1.880   0.090   0.927
  154SOL    HW2 2422   1.743   0.177   0.944
  155SOL     OW 2423   0.263   0.326   0.720
  155SOL    HW1 2424   0.184   0.377   0.686
  155SOL    HW2 2425   0.254   0.311   0.818
  156SOL     OW 2426   1.194   1.612   0.031
  156SOL    HW1 2427   1.200   1.519   0.068
  156SOL    HW2 2428   1.135   1.612  -0.049
  157SOL     OW 2429   0.822   1.002   1.372
  157SOL    HW1 2430   0.862   1.001   1.280
  157SOL    HW2 2431   0.832   1.094   1.412
  158SOL     OW 2432   0.916   0.910   0.291
  158SOL    HW1 2433   0.979   0.948   0.223
  158SOL    HW2 2434   0.956   0.827   0.330
  159SOL     OW 2435   1.504   1.607   0.044
  159SOL    HW1 2436   1.412   1.644   0.051
  159SOL    HW2 2437   1.542   1.627  -0.046
  160SOL     OW 2438   0.372   1.288   1.490
  160SOL    HW1 2439   0.359   1.381   1.456
  160SOL    HW2 2440   0.288   1.236   1.477
  161SOL     OW 2441   1.614   1.292   1.289
  161SOL    HW1 2442   1.674   1.295   1.369
  161SOL    HW2 2443   1.539   1.356   1.302
  162SOL     OW 2444   1.039   1.098   0.696
  162SOL    HW1 2445   0.969   1.051   0.750
  162SOL    HW2 2446   1.098   1.030   0.653
  163SOL     OW 2447   1.014   0.236   0.971
  163SOL    HW1 2448   1.006   0.200   0.878
  163SOL    HW2 2449   1.012   0.160   1.036
  164SOL     OW 2450   0.590   1.487   0.491
  164SOL    HW1 2451   0.632   1.429   0.421
  164SOL    HW2 2452   0.546   1.566   0.447
  165SOL     OW 2453   1.709   0.385   1.381
  165SOL    HW1 2454   1.782   0.454   1.385
  165SOL    HW2 2455   1.737   0.310   1.322
  166SOL     OW 2456   0.255   1.348   0.290
  166SOL    HW1 2457   0.159   1.349   0.263
  166SOL    HW2 2458   0.267   1.401   0.374
  167SOL     OW 2459   0.672   0.203   1.489
  167SOL    HW1 2460   0.762   0.187   1.449
  167SOL    HW2 2461   0.680   0.208   1.588
  168SOL     OW 2462   1.440   0.856   1.398
  168SOL    HW1 2463   1.383   0.908   1.335
  168SOL    HW2 2464   1.536   0.868   1.374
  169SOL     OW 2465   1.183   1.335   0.119
  169SOL    HW1 2466   1.084   1.324   0.121
  169SOL    HW2 2467   1.217   1.350   0.212
  170SOL     OW 2468   0.613   0.842   1.431
  170SOL    HW1 2469   0.669   0.923   1.414
  170SOL    HW2 2470   0.672   0.762   1.434
  171SOL     OW 2471   1.493   1.767   0.959
  171SOL    HW1 2472   1.526   1.831   0.890
  171SOL    HW2 2473   1.559   1.761   1.034
  172SOL     OW 2474   0.716   0.565   1.708
  172SOL    HW1 2475   0.735   0.630   1.782
  172SOL    HW2 2476   0.776   0.485   1.717
  173SOL     OW 2477   1.450   1.220   1.633
  173SOL    HW1 2478   1.441   1.210   1.732
  173SOL    HW2 2479   1.546   1.213   1.607
  174SOL     OW 2480   0.390   1.741   1.560
  174SOL    HW1 2481   0.299   1.782   1.558
  174SOL    HW2 2482   0.383   1.647   1.592
  175SOL     OW 2483   1.674   0.883   1.254
  175SOL    HW1 2484   1.647   0.794   1.217
  175SOL    HW2 2485   1.675   0.951   1.181
  176SOL     OW 2486   1.225   0.325   0.449
  176SOL    HW1 2487   1.290   0.251   0.438
  176SOL    HW2 2488   1.245   0.375   0.533
  177SOL     OW 2489   0.594   0.745   0.652
  177SOL    HW1 2490   0.644   0.830   0.633
  177SOL    HW2 2491   0.506   0.747   0.604
  178SOL     OW 2492   1.777   0.342   1.642
  178SOL    HW1 2493   1.760   0.373   1.548
  178SOL    HW2 2494   1.693   0.305   1.680
  179SOL     OW 2495   1.730   0.934   1.517
  179SOL    HW1 2496   1.768   1.025   1.532
  179SOL    HW2 2497   1.722   0.917   1.418
  180SOL     OW 2498   0.859   1.374   0.016
  180SOL    HW1 2499   0.813   1.389   0.104
  180SOL    HW2 2500   0.903   1.459  -0.014
  181SOL     OW 2501   0.661   1.790   0.953
  181SOL    HW1 2502   0.615   1.878   0.940
  181SOL    HW2 2503   0.760   1.802   0.946
  182SOL     OW 2504   1.408   1.851   1.720
  182SOL    HW1 2505   1.312   1.840   1.693
  182SOL    HW2 2506   1.464   1.784   1.672
  183SOL     OW 2507   0.859   0.956   0.861
  183SOL    HW1 2508   0.913   0.887   0.909
  183SOL    HW2 2509   0.827   1.025   0.927
  184SOL     OW 2510   1.083   0.984   0.087
  184SOL    HW1 2511   1.060   1.037   0.005
  184SOL    HW2 2512   1.164   0.928   0.068
  185SOL     OW 2513   1.861   1.569   0.851
  185SOL    HW1 2514   1.790   1.557   0.781
  185SOL    HW2 2515   1.862   1.490   0.911
  186SOL     OW 2516   0.672   1.391   1.624
  186SOL    HW1 2517   0.594   1.341   1.662
  186SOL    HW2 2518   0.669   1.486   1.655
  187SOL     OW 2519   1.824   0.192   1.227
  187SOL    HW1 2520   1.820   0.102   1.271
  187SOL    HW2 2521   1.827   0.181   1.128
  188SOL     OW 2522   0.428   0.424   0.520
  188SOL    HW1 2523   0.458   0.352   0.458
  188SOL    HW2 2524   0.389   0.384   0.603
  189SOL     OW 2525   1.705   1.487   1.104
  189SOL    HW1 2526   1.612   1.462   1.077
  189SOL    HW2 2527   1.731   1.437   1.186
  190SOL     OW 2528   0.812   1.586   0.687
  190SOL    HW1 2529   0.844   1.596   0.593
  190SOL    HW2 2530   0.733   1.524   0.689
  191SOL     OW 2531   1.424   0.214   1.112
  191SOL    HW1 2532   1.476   0.149   1.167
  191SOL    HW2 2533   1.375   0.277   1.173
  192SOL     OW 2534   1.001   0.034   1.154
  192SOL    HW1 2535   0.938  -0.038   1.123
  192SOL    HW2 2536   1.094  -0.002   1.154
  193SOL     OW 2537   0.770   1.330   0.301
  193SOL    HW1 2538   0.724   1.243   0.318
  193SOL    HW2 2539   0.861   1.327   0.342
  194SOL     OW 2540   0.618   1.567   1.284
  194SOL    HW1 2541   0.613   1.649   1.341
  194SOL    HW2 2542   0.707   1.564   1.239
  195SOL     OW 2543   1.352   0.052   0.168
  195SOL    HW1 2544   1.387   0.011   0.084
  195SOL    HW2 2545   1.262   0.014   0.188
  196SOL     OW 2546   1.300   0.453   0.691
  196SOL    HW1 2547   1.241   0.533   0.695
  196SOL    HW2 2548   1.315   0.418   0.784
  197SOL     OW 2549   1.593   0.221   0.882
  197SOL    HW1 2550   1.509   0.220   0.936
  197SOL    HW2 2551   1.595   0.304   0.826
  198SOL     OW 2552   0.875   1.646   0.337
  198SOL    HW1 2553   0.798   1.611   0.283
  198SOL    HW2 2554   0.843   1.717   0.399
  199SOL     OW 2555   0.019   0.368   2.509
  199SOL    HW1 2556  -0.063   0.411   2.548
  199SOL    HW2 2557  -0.009   0.295   2.446
  200SOL     OW 2558   0.569   1.275   3.027
  200SOL    HW1 2559   0.476   1.268   2.990
  200SOL    HW2 2560   0.580   1.364   3.071
  201SOL     OW 2561   1.555   1.511   2.565
  201SOL    HW1 2562   1.498   1.495   2.646
  201SOL    HW2 2563   1.496   1.521   2.485
  202SOL     OW 2564   1.743   0.618   2.718
  202SOL    HW1 2565   1.776   0.712   2.718
  202SOL    HW2 2566   1.794   0.564   2.784
  203SOL     OW 2567   1.135   0.703   2.579
  203SOL    HW1 2568   1.192   0.781   2.554
  203SOL    HW2 2569   1.075   0.729   2.655
  204SOL     OW 2570   1.755   0.607   2.093
  204SOL    HW1 2571   1.743   0.594   1.994
  204SOL    HW2 2572   1.725   0.526   2.142
  205SOL     OW 2573   0.768   1.144   2.885
  205SOL    HW1 2574   0.690   1.161   2.945
  205SOL    HW2 2575   0.802   1.231   2.849
  206SOL     OW 2576   0.850   0.798   3.685
  206SOL    HW1 2577   0.846   0.874   3.750
  206SOL    HW2 2578   0.872   0.834   3.594
  207SOL     OW 2579   0.685   1.012   2.527
  207SOL    HW1 2580   0.754   0.996   2.597
  207SOL    HW2 2581   0.612   1.069   2.565
  208SOL     OW 2582   0.686   1.161   3.665
  208SOL    HW1 2583   0.746   1.240   3.679
  208SOL    HW2 2584   0.600   1.192   3.624
  209SOL     OW 2585   0.335   1.435   2.923
  209SOL    HW1 2586   0.257   1.404   2.870
  209SOL    HW2 2587   0.393   1.493   2.866
  210SOL     OW 2588   1.460   1.505   3.201
  210SOL    HW1 2589   1.484   1.599   3.227
  210SOL    HW2 2590   1.444   1.451   3.283
  211SOL     OW 2591   0.438   0.392   3.361
  211SOL    HW1 2592   0.520   0.336   3.370
  211SOL    HW2 2593   0.357   0.334   3.365
  212SOL     OW 2594   1.603   0.447   2.599
  212SOL    HW1 2595   1.529   0.493   2.549
  212SOL    HW2 2596   1.654   0.515   2.652
  213SOL     OW 2597   1.127   1.341   3.552
  213SOL    HW1 2598   1.174   1.341   3.640
  213SOL    HW2 2599   1.079   1.254   3.541
  214SOL     OW 2600   0.620   1.786   3.301
  214SOL    HW1 2601   0.528   1.769   3.336
  214SOL    HW2 2602   0.648   1.878   3.327
  215SOL     OW 2603   0.606   0.964   1.985
  215SOL    HW1 2604   0.613   1.048   1.931
  215SOL    HW2 2605   0.652   0.977   2.073
  216SOL     OW 2606   1.594   0.114   3.342
  216SOL    HW1 2607   1.576   0.181   3.270
  216SOL    HW2 2608   1.591   0.160   3.431
  217SOL     OW 2609   1.842   1.767   2.221
  217SOL    HW1 2610   1.896   1.738   2.301
  217SOL    HW2 2611   1.872   1.857   2.192
  218SOL     OW 2612   1.689   0.922   2.474
  218SOL    HW1 2613   1.784   0.893   2.482
  218SOL    HW2 2614   1.681   0.987   2.399
  219SOL     OW 2615   1.641   1.108   2.294
  219SOL    HW1 2616   1.727   1.110   2.242
  219SOL    HW2 2617   1.655   1.155   2.382
  220SOL     OW 2618   0.613   1.365   2.588
  220SOL    HW1 2619   0.564   1.278   2.597
  220SOL    HW2 2620   0.590   1.408   2.501
  221SOL     OW 2621   1.293   1.228   3.285
  221SOL    HW1 2622   1.330   1.155   3.227
  221SOL    HW2 2623   1.345   1.233   3.370
  222SOL     OW 2624   0.809   0.004   2.364
  222SOL    HW1 2625   0.849   0.095   2.355
  222SOL    HW2 2626   0.709   0.012   2.370
  223SOL     OW 2627   1.525   0.999   2.052
  223SOL    HW1 2628   1.462   0.923   2.065
  223SOL    HW2 2629   1.573   1.017   2.138
  224SOL     OW 2630   1.187   1.792   3.478
  224SOL    HW1 2631   1.211   1.852   3.402
  224SOL    HW2 2632   1.194   1.697   3.448
  225SOL     OW 2633   0.317   0.251   3.663
  225SOL    HW1 2634   0.388   0.322   3.669
  225SOL    HW2 2635   0.229   0.290   3.691
  226SOL     OW 2636   1.466   1.417   2.815
  226SOL    HW1 2637   1.407   1.423   2.895
  226SOL    HW2 2638   1.451   1.329   2.769
  227SOL     OW 2639   1.667   1.714   2.434
  227SOL    HW1 2640   1.626   1.691   2.346
  227SOL    HW2 2641   1.649   1.640   2.499
  228SOL     OW 2642   0.598   0.729   2.132
  228SOL    HW1 2643   0.622   0.798   2.064
  228SOL    HW2 2644   0.520   0.762   2.186
  229SOL     OW 2645   1.281   0.345   2.806
  229SOL    HW1 2646   1.195   0.295   2.793
  229SOL    HW2 2647   1.343   0.291   2.862
  230SOL     OW 2648   1.576   1.662   2.169
  230SOL    HW1 2649   1.665   1.708   2.172
  230SOL    HW2 2650   1.555   1.638   2.074
  231SOL     OW 2651   0.807   0.605   3.327
  231SOL    HW1 2652   0.760   0.602   3.416
  231SOL    HW2 2653   0.756   0.550   3.261
  232SOL     OW 2654   1.394   0.469   3.536
  232SOL    HW1 2655   1.374   0.512   3.624
  232SOL    HW2 2656   1.472   0.407   3.545
  233SOL     OW 2657   0.973   0.890   3.434
  233SOL    HW1 2658   1.019   0.806   3.405
  233SOL    HW2 2659   0.917   0.924   3.359
  234SOL     OW 2660   0.991   0.410   3.104
  234SOL    HW1 2661   0.914   0.444   3.158
  234SOL    HW2 2662   0.957   0.359   3.025
  235SOL     OW 2663   1.041   0.701   2.291
  235SOL    HW1 2664   1.067   0.697   2.387
  235SOL    HW2 2665   0.956   0.650   2.277
  236SOL     OW 2666   0.865   0.348   2.057
  236SOL    HW1 2667   0.924   0.411   2.008
  236SOL    HW2 2668   0.884   0.254   2.028
  237SOL     OW 2669   1.719   0.585   3.693
  237SOL    HW1 2670   1.693   0.674   3.657
  237SOL    HW2 2671   1.717   0.517   3.620
  238SOL     OW 2672   1.362   1.144   2.407
  238SOL    HW1 2673   1.445   1.115   2.359
  238SOL    HW2 2674   1.313   1.211   2.351
  239SOL     OW 2675   0.550   0.196   2.747
  239SOL    HW1 2676   0.545   0.191   2.847
  239SOL    HW2 2677   0.552   0.292   2.718
  240SOL     OW 2678   1.008   1.456   2.339
  240SOL    HW1 2679   0.962   1.528   2.287
  240SOL    HW2 2680   1.004   1.476   2.437
  241SOL     OW 2681   0.351   1.801   2.715
  241SOL    HW1 2682   0.401   1.715   2.721
  241SOL    HW2 2683   0.416   1.878   2.712
  242SOL     OW 2684   1.795   1.066   2.735
  242SOL    HW1 2685   1.733   1.051   2.659
  242SOL    HW2 2686   1.743   1.077   2.820
  243SOL     OW 2687   1.227   1.550   3.368
  243SOL    HW1 2688   1.233   1.473   3.432
  243SOL    HW2 2689   1.175   1.524   3.288
  244SOL     OW 2690   0.321   0.943   2.104
  244SOL    HW1 2691   0.403   0.982   2.062
  244SOL    HW2 2692   0.294   0.861   2.055
  245SOL     OW 2693   1.458   0.735   2.590
  245SOL    HW1 2694   1.453   0.670   2.665
  245SOL    HW2 2695   1.538   0.794   2.603
  246SOL     OW 2696   0.461   1.266   3.589
  246SOL    HW1 2697   0.411   1.267   3.503
  246SOL    HW2 2698   0.398   1.248   3.665
  247SOL     OW 2699   1.111   1.776   2.099
  247SOL    HW1 2700   1.051   1.714   2.149
  247SOL    HW2 2701   1.142   1.732   2.014
  248SOL     OW 2702   1.632   1.377   1.943
  248SOL    HW1 2703   1.600   1.471   1.933
  248SOL    HW2 2704   1.556   1.314   1.931
  249SOL     OW 2705   0.464   1.743   2.185
  249SOL    HW1 2706   0.497   1.782   2.271
  249SOL    HW2 2707   0.540   1.736   2.120
  250SOL     OW 2708   1.400   0.107   2.288
  250SOL    HW1 2709   1.376   0.070   2.198
  250SOL    HW2 2710   1.499   0.123   2.292
  251SOL     OW 2711   0.940   1.698   2.766
  251SOL    HW1 2712   1.020   1.641   2.787
  251SOL    HW2 2713   0.891   1.658   2.689
  252SOL     OW 2714   0.382   0.700   2.342
  252SOL    HW1 2715   0.427   0.610   2.339
  252SOL    HW2 2716   0.288   0.689   2.375
  253SOL     OW 2717   1.547   0.222   3.591
  253SOL    HW1 2718   1.542   0.259   3.683
  253SOL    HW2 2719   1.475   0.153   3.579
  254SOL     OW 2720   0.614   0.122   1.979
  254SOL    HW1 2721   0.712   0.100   1.986
  254SOL    HW2 2722   0.583   0.105   1.886
  255SOL     OW 2723   0.781   0.264   3.611
  255SOL    HW1 2724   0.848   0.203   3.654
  255SOL    HW2 2725   0.708   0.283   3.676
  256SOL     OW 2726   0.888   1.514   3.057
  256SOL    HW1 2727   0.865   1.489   2.963
  256SOL    HW2 2728   0.949   1.445   3.096
  257SOL     OW 2729   1.351   0.590   3.295
  257SOL    HW1 2730   1.379   0.547   3.380
  257SOL    HW2 2731   1.376   0.686   3.296
  258SOL     OW 2732   0.803   1.402   2.786
  258SOL    HW1 2733   0.893   1.416   2.744
  258SOL    HW2 2734   0.732   1.404   2.715
  259SOL     OW 2735   0.922   0.503   2.761
  259SOL    HW1 2736   0.897   0.494   2.665
  259SOL    HW2 2737   0.970   0.421   2.792
  260SOL     OW 2738   0.539   0.064   2.374
  260SOL    HW1 2739   0.458   0.065   2.432
  260SOL    HW2 2740   0.542   0.147   2.319
  261SOL     OW 2741   1.434   1.188   1.903
  261SOL    HW1 2742   1.466   1.112   1.960
  261SOL    HW2 2743   1.342   1.215   1.933
  262SOL     OW 2744   0.297   0.035   2.033
  262SOL    HW1 2745   0.346   0.119   2.012
  262SOL    HW2 2746   0.359  -0.030   2.078
  263SOL     OW 2747   0.935   0.236   2.342
  263SOL    HW1 2748   0.887   0.277   2.264
  263SOL    HW2 2749   1.034   0.234   2.323
  264SOL     OW 2750   1.076   0.683   3.326
  264SOL    HW1 2751   0.996   0.622   3.329
  264SOL    HW2 2752   1.157   0.630   3.302
  265SOL     OW 2753   1.227   1.570   2.655
  265SOL    HW1 2754   1.248   1.644   2.590
  265SOL    HW2 2755   1.295   1.570   2.728
  266SOL     OW 2756   0.459   1.152   2.603
  266SOL    HW1 2757   0.388   1.125   2.668
  266SOL    HW2 2758   0.433   1.124   2.510
  267SOL     OW 2759   1.271   1.797   2.453
  267SOL    HW1 2760   1.315   1.861   2.389
  267SOL    HW2 2761   1.221   1.849   2.523
  268SOL     OW 2762   1.032   0.549   1.878
  268SOL    HW1 2763   0.991   0.631   1.839
  268SOL    HW2 2764   1.096   0.575   1.951
  269SOL     OW 2765   0.561   0.222   3.009
  269SOL    HW1 2766   0.599   0.138   3.046
  269SOL    HW2 2767   0.473   0.241   3.053
  270SOL     OW 2768   0.866   0.454   2.504
  270SOL    HW1 2769   0.834   0.526   2.442
  270SOL    HW2 2770   0.890   0.373   2.451
  271SOL     OW 2771   1.017   0.039   2.615
  271SOL    HW1 2772   0.945   0.044   2.546
  271SOL    HW2 2773   0.993  -0.030   2.684
  272SOL     OW 2774   1.429   1.173   2.729
  272SOL    HW1 2775   1.374   1.089   2.722
  272SOL    HW2 2776   1.455   1.202   2.637
  273SOL     OW 2777   1.466   0.590   2.854
  273SOL    HW1 2778   1.436   0.495   2.861
  273SOL    HW2 2779   1.539   0.606   2.920
  274SOL     OW 2780   1.857   0.833   2.239
  274SOL    HW1 2781   1.899   0.769   2.303
  274SOL    HW2 2782   1.819   0.782   2.161
  275SOL     OW 2783   0.488   1.385   2.036
  275SOL    HW1 2784   0.401   1.370   2.083
  275SOL    HW2 2785   0.471   1.411   1.941
  276SOL     OW 2786   1.664   1.280   2.519
  276SOL    HW1 2787   1.763   1.288   2.533
  276SOL    HW2 2788   1.619   1.364   2.550
  277SOL     OW 2789   1.390   0.575   1.940
  277SOL    HW1 2790   1.336   0.554   2.021
  277SOL    HW2 2791   1.481   0.534   1.949
  278SOL     OW 2792   0.527   0.256   2.190
  278SOL    HW1 2793   0.554   0.197   2.115
  278SOL    HW2 2794   0.527   0.351   2.159
  279SOL     OW 2795   1.754   1.223   3.450
  279SOL    HW1 2796   1.845   1.184   3.437
  279SOL    HW2 2797   1.762   1.319   3.474
  280SOL     OW 2798   1.064   1.347   3.202
  280SOL    HW1 2799   0.984   1.324   3.257
  280SOL    HW2 2800   1.147   1.321   3.251
  281SOL     OW 2801   1.592   1.629   3.487
  281SOL    HW1 2802   1.619   1.663   3.397
  281SOL    HW2 2803   1.671   1.591   3.533
  282SOL     OW 2804   1.111   1.195   2.962
  282SOL    HW1 2805   1.071   1.239   3.043
  282SOL    HW2 2806   1.070   1.232   2.879
  283SOL     OW 2807   1.638   1.099   2.941
  283SOL    HW1 2808   1.643   1.180   3.000
  283SOL    HW2 2809   1.552   1.101   2.890
  284SOL     OW 2810   0.915   0.089   3.264
  284SOL    HW1 2811   0.940   0.069   3.169
  284SOL    HW2 2812   0.987   0.145   3.306
  285SOL     OW 2813   0.980   1.116   3.581
  285SOL    HW1 2814   0.881   1.122   3.591
  285SOL    HW2 2815   1.003   1.036   3.525
  286SOL     OW 2816   0.705   1.050   2.230
  286SOL    HW1 2817   0.691   1.057   2.329
  286SOL    HW2 2818   0.789   0.999   2.212
  287SOL     OW 2819   0.410   0.813   3.113
  287SOL    HW1 2820   0.496   0.825   3.163
  287SOL    HW2 2821   0.368   0.726   3.140
  288SOL     OW 2822   1.274   0.386   3.124
  288SOL    HW1 2823   1.295   0.460   3.188
  288SOL    HW2 2824   1.185   0.403   3.081
  289SOL     OW 2825   0.367   1.100   2.363
  289SOL    HW1 2826   0.360   1.183   2.307
  289SOL    HW2 2827   0.371   1.020   2.303
  290SOL     OW 2828   0.566   0.537   2.727
  290SOL    HW1 2829   0.578   0.603   2.653
  290SOL    HW2 2830   0.612   0.571   2.810
  291SOL     OW 2831   1.252   1.348   2.250
  291SOL    HW1 2832   1.302   1.425   2.290
  291SOL    HW2 2833   1.157   1.350   2.282
  292SOL     OW 2834   1.272   1.445   3.004
  292SOL    HW1 2835   1.319   1.458   3.091
  292SOL    HW2 2836   1.206   1.371   3.013
  293SOL     OW 2837   1.582   0.639   2.334
  293SOL    HW1 2838   1.551   0.700   2.407
  293SOL    HW2 2839   1.632   0.691   2.265
  294SOL     OW 2840   0.354   1.510   3.191
  294SOL    HW1 2841   0.333   1.466   3.104
  294SOL    HW2 2842   0.451   1.536   3.194
  295SOL     OW 2843   0.402   0.751   3.460
  295SOL    HW1 2844   0.470   0.806   3.413
  295SOL    HW2 2845   0.442   0.663   3.487
  296SOL     OW 2846   1.587   0.779   3.532
  296SOL    HW1 2847   1.495   0.817   3.527
  296SOL    HW2 2848   1.647   0.826   3.467
  297SOL     OW 2849   1.013   0.105   3.632
  297SOL    HW1 2850   1.019   0.190   3.580
  297SOL    HW2 2851   1.045   0.029   3.575
  298SOL     OW 2852   0.504   0.050   3.602
  298SOL    HW1 2853   0.462  -0.007   3.532
  298SOL    HW2 2854   0.438   0.119   3.634
  299SOL     OW 2855   0.573   0.870   2.891
  299SOL    HW1 2856   0.617   0.959   2.882
  299SOL    HW2 2857   0.510   0.870   2.968
  300SOL     OW 2858   1.360   0.862   2.907
  300SOL    HW1 2859   1.285   0.862   2.841
  300SOL    HW2 2860   1.397   0.770   2.916
  301SOL     OW 2861   1.209   0.525   2.137
  301SOL    HW1 2862   1.222   0.441   2.191
  301SOL    HW2 2863   1.180   0.599   2.197
  302SOL     OW 2864   0.732   0.634   2.926
  302SOL    HW1 2865   0.791   0.608   2.850
  302SOL    HW2 2866   0.704   0.730   2.915
  303SOL     OW 2867   1.728   0.935   3.716
  303SOL    HW1 2868   1.682   0.928   3.627
  303SOL    HW2 2869   1.666   0.979   3.782
  304SOL     OW 2870   0.307   0.063   2.480
  304SOL    HW1 2871   0.296   0.157   2.513
  304SOL    HW2 2872   0.302   0.000   2.557
  305SOL     OW 2873   1.622   0.367   2.236
  305SOL    HW1 2874   1.624   0.291   2.300
  305SOL    HW2 2875   1.574   0.444   2.276
  306SOL     OW 2876   1.023   0.766   2.828
  306SOL    HW1 2877   1.038   0.787   2.924
  306SOL    HW2 2878   0.993   0.671   2.819
  307SOL     OW 2879   0.980   1.573   3.562
  307SOL    HW1 2880   0.960   1.617   3.474
  307SOL    HW2 2881   1.019   1.482   3.546
  308SOL     OW 2882   1.859   1.518   3.467
  308SOL    HW1 2883   1.873   1.545   3.372
  308SOL    HW2 2884   1.942   1.540   3.520
  309SOL     OW 2885   0.350   0.898   3.666
  309SOL    HW1 2886   0.426   0.942   3.714
  309SOL    HW2 2887   0.385   0.851   3.584
  310SOL     OW 2888   1.540   0.274   1.987
  310SOL    HW1 2889   1.479   0.199   2.010
  310SOL    HW2 2890   1.562   0.326   2.070
  311SOL     OW 2891   1.303   0.838   1.904
  311SOL    HW1 2892   1.337   0.745   1.919
  311SOL    HW2 2893   1.321   0.865   1.809
  312SOL     OW 2894   1.068   1.333   2.711
  312SOL    HW1 2895   1.075   1.249   2.656
  312SOL    HW2 2896   1.130   1.402   2.675
  313SOL     OW 2897   0.319   0.810   2.811
  313SOL    HW1 2898   0.412   0.846   2.816
  313SOL    HW2 2899   0.313   0.725   2.863
  314SOL     OW 2900   1.138   0.380   3.540
  314SOL    HW1 2901   1.093   0.443   3.604
  314SOL    HW2 2902   1.231   0.411   3.523
  315SOL     OW 2903   1.160   0.207   3.339
  315SOL    HW1 2904   1.160   0.271   3.416
  315SOL    HW2 2905   1.188   0.255   3.256
  316SOL     OW 2906   0.504   1.568   2.772
  316SOL    HW1 2907   0.570   1.642   2.781
  316SOL    HW2 2908   0.548   1.489   2.730
  317SOL     OW 2909   1.002   0.796   3.100
  317SOL    HW1 2910   1.043   0.764   3.186
  317SOL    HW2 2911   0.906   0.769   3.097
  318SOL     OW 2912   1.369   0.950   3.522
  318SOL    HW1 2913   1.408   1.039   3.542
  318SOL    HW2 2914   1.379   0.930   3.425
  319SOL     OW 2915   0.815   0.572   2.187
  319SOL    HW1 2916   0.822   0.483   2.141
  319SOL    HW2 2917   0.721   0.606   2.179
  320SOL     OW 2918   1.657   0.604   3.068
  320SOL    HW1 2919   1.619   0.535   3.130
  320SOL    HW2 2920   1.739   0.568   3.024
  321SOL     OW 2921   0.671   0.464   3.131
  321SOL    HW1 2922   0.637   0.375   3.101
  321SOL    HW2 2923   0.697   0.518   3.051
  322SOL     OW 2924   0.930   1.678   3.327
  322SOL    HW1 2925   0.906   1.660   3.232
  322SOL    HW2 2926   0.960   1.772   3.337
  323SOL     OW 2927   0.473   0.500   2.053
  323SOL    HW1 2928   0.534   0.580   2.057
  323SOL    HW2 2929   0.378   0.531   2.060
  324SOL     OW 2930   1.347   1.059   3.096
  324SOL    HW1 2931   1.371   0.996   3.022
  324SOL    HW2 2932   1.257   1.099   3.078
  325SOL     OW 2933   1.302   0.855   2.171
  325SOL    HW1 2934   1.216   0.824   2.213
  325SOL    HW2 2935   1.298   0.841   2.072
  326SOL     OW 2936   1.759   1.747   3.016
  326SOL    HW1 2937   1.820   1.777   2.943
  326SOL    HW2 2938   1.721   1.658   2.994
  327SOL     OW 2939   1.252   1.731   2.990
  327SOL    HW1 2940   1.336   1.736   2.936
  327SOL    HW2 2941   1.229   1.635   3.008
  328SOL     OW 2942   0.688   1.662   3.578
  328SOL    HW1 2943   0.632   1.743   3.587
  328SOL    HW2 2944   0.740   1.666   3.492
  329SOL     OW 2945   1.726   0.135   2.385
  329SOL    HW1 2946   1.799   0.118   2.318
  329SOL    HW2 2947   1.695   0.048   2.423
  330SOL     OW 2948   1.388   1.573   2.339
  330SOL    HW1 2949   1.455   1.585   2.265
  330SOL    HW2 2950   1.348   1.662   2.362
  331SOL     OW 2951   0.130   1.794   3.713
  331SOL    HW1 2952   0.089   1.720   3.766
  331SOL    HW2 2953   0.194   1.845   3.771
  332SOL     OW 2954   1.280   0.927   2.534
  332SOL    HW1 2955   1.340   0.846   2.536
  332SOL    HW2 2956   1.320   0.996   2.474
  333SOL     OW 2957   0.830   1.273   3.284
  333SOL    HW1 2958   0.825   1.306   3.379
  333SOL    HW2 2959   0.744   1.292   3.238
  334SOL     OW 2960   0.672   1.616   2.016
  334SOL    HW1 2961   0.681   1.626   1.917
  334SOL    HW2 2962   0.632   1.527   2.037
  335SOL     OW 2963   1.650   1.720   3.256
  335SOL    HW1 2964   1.703   1.730   3.172
  335SOL    HW2 2965   1.623   1.810   3.290
  336SOL     OW 2966   1.841   0.175   2.825
  336SOL    HW1 2967   1.880   0.090   2.789
  336SOL    HW2 2968   1.743   0.177   2.806
  337SOL     OW 2969   0.263   0.326   2.582
  337SOL    HW1 2970   0.184   0.377   2.548
  337SOL    HW2 2971   0.254   0.311   2.680
  338SOL     OW 2972   1.194   1.612   1.893
  338SOL    HW1 2973   1.200   1.519   1.930
  338SOL    HW2 2974   1.135   1.612   1.813
  339SOL     OW 2975   0.822   1.002   3.234
  339SOL    HW1 2976   0.862   1.001   3.142
  339SOL    HW2 2977   0.832   1.094   3.274
  340SOL     OW 2978   0.916   0.910   2.153
  340SOL    HW1 2979   0.979   0.948   2.085
  340SOL    HW2 2980   0.956   0.827   2.192
  341SOL     OW 2981   1.504   1.607   1.906
  341SOL    HW1 2982   1.412   1.644   1.913
  341SOL    HW2 2983   1.542   1.627   1.816
  342SOL     OW 2984   0.372   1.288   3.352
  342SOL    HW1 2985   0.359   1.381   3.318
  342SOL    HW2 2986   0.288   1.236   3.339
  343SOL     OW 2987   1.614   1.292   3.151
  343SOL    HW1 2988   1.674   1.295   3.231
  343SOL    HW2 2989   1.539   1.356   3.164
  344SOL     OW 2990   1.039   1.098   2.558
  344SOL    HW1 2991   0.969   1.051   2.612
  344SOL    HW2 2992   1.098   1.030   2.515
  345SOL     OW 2993   1.014   0.236   2.833
  345SOL    HW1 2994   1.006   0.200   2.740
  345SOL    HW2 2995   1.012   0.160   2.898
  346SOL     OW 2996   0.590   1.487   2.353
  346SOL    HW1 2997   0.632   1.429   2.283
  346SOL    HW2 2998   0.546   1.566   2.309
  347SOL     OW 2999   1.709   0.385   3.243
  347SOL    HW1 3000   1.782   0.454   3.247
  347SOL    HW2 3001   1.737   0.310   3.184
  348SOL     OW 3002   0.255   1.348   2.152
  348SOL    HW1 3003   0.159   1.349   2.125
  348SOL    HW2 3004   0.267   1.401   2.236
  349SOL     OW 3005   0.672   0.203   3.351
  349SOL    HW1 3006   0.762   0.187   3.311
  349SOL    HW2 3007   0.680   0.208   3.450
  350SOL     OW 3008   1.440   0.856   3.260
  350SOL    HW1 3009   1.383   0.908   3.197
  350SOL    HW2 3010   1.536   0.868   3.236
  351SOL     OW 3011   1.183   1.335   1.981
  351SOL    HW1 3012   1.084   1.324   1.983
  351SOL    HW2 3013   1.217   1.350   2.074
  352SOL     OW 3014   0.613   0.842   3.293
  352SOL    HW1 3015   0.669   0.923   3.276
  352SOL    HW2 3016   0.672   0.762   3.296
  353SOL     OW 3017   1.493   1.767   2.821
  353SOL    HW1 3018   1.526   1.831   2.752
  353SOL    HW2 3019   1.559   1.761   2.896
  354SOL     OW 3020   0.716   0.565   3.570
  354SOL    HW1 3021   0.735   0.630   3.644
  354SOL    HW2 3022   0.776   0.485   3.579
  355SOL     OW 3023   1.450   1.220   3.495
  355SOL    HW1 3024   1.441   1.210   3.594
  355SOL    HW2 3025   1.546   1.213   3.469
  356SOL     OW 3026   0.390   1.741   3.422
  356SOL    HW1 3027   0.299   1.782   3.420
  356SOL    HW2 3028   0.383   1.647   3.454
  357SOL     OW 3029   1.674   0.883   3.116
  357SOL    HW1 3030   1.647   0.794   3.079
  357SOL    HW2 3031   1.675   0.951   3.043
  358SOL     OW 3032   1.225   0.325   2.311
  358SOL    HW1 3033   1.290   0.251   2.300
  358SOL    HW2 3034   1.245   0.375   2.395
  359SOL     OW 3035   0.594   0.745   2.514
  359SOL    HW1 3036   0.644   0.830   2.495
  359SOL    HW2 3037   0.506   0.747   2.466
  360SOL     OW 3038   1.777   0.342   3.504
  360SOL    HW1 3039   1.760   0.373   3.410
  360SOL    HW2 3040   1.693   0.305   3.542
  361SOL     OW 3041   1.730   0.934   3.379
  361SOL    HW1 3042   1.768   1.025   3.394
  361SOL    HW2 3043   1.722   0.917   3.280
  362SOL     OW 3044   0.859   1.374   1.878
  362SOL    HW1 3045   0.813   1.389   1.966
  362SOL    HW2 3046   0.903   1.459   1.848
  363SOL     OW 3047   0.661   1.790   2.815
  363SOL    HW1 3048   0.615   1.878   2.802
  363SOL    HW2 3049   0.760   1.802   2.808
  364SOL     OW 3050   1.408   1.851   3.582
  364SOL    HW1 3051   1.312   1.840   3.555
  364SOL    HW2 3052   1.464   1.784   3.534
  365SOL     OW 3053   0.859   0.956   2.723
  365SOL    HW1 3054   0.913   0.887   2.771
  365SOL    HW2 3055   0.827   1.025   2.789
  366SOL     OW 3056   1.083   0.984   1.949
  366SOL    HW1 3057   1.060   1.037   1.867
  366SOL    HW2 3058   1.164   0.928   1.930
  367SOL     OW 3059   1.861   1.569   2.713
  367SOL    HW1 3060   1.790   1.557   2.643
  367SOL    HW2 3061   1.862   1.490   2.773
  368SOL     OW 3062   0.672   1.391   3.486
  368SOL    HW1 3063   0.594   1.341   3.524
  368SOL    HW2 3064   0.669   1.486   3.517
  369SOL     OW 3065   1.824   0.192   3.089
  369SOL    HW1 3066   1.820   0.102   3.133
  369SOL    HW2 3067   1.827   0.181   2.990
  370SOL     OW 3068   0.428   0.424   2.382
  370SOL    HW1 3069   0.458   0.352   2.320
  370SOL    HW2 3070   0.389   0.384   2.465
  371SOL     OW 3071   1.705   1.487   2.966
  371SOL    HW1 3072   1.612   1.462   2.939
  371SOL    HW2 3073   1.731   1.437   3.048
  372SOL     OW 3074   0.812   1.586   2.549
  372SOL    HW1 3075   0.844   1.596   2.455
  372SOL    HW2 3076   0.733   1.524   2.551
  373SOL     OW 3077   1.424   0.214   2.974
  373SOL    HW1 3078   1.476   0.149   3.029
  373SOL    HW2 3079   1.375   0.277   3.035
  374SOL     OW 3080   1.001   0.034   3.016
  374SOL    HW1 3081   0.938  -0.038   2.985
  374SOL    HW2 3082   1.094  -0.002   3.016
  375SOL     OW 3083   0.770   1.330   2.163
  375SOL    HW1 3084   0.724   1.243   2.180
  375SOL    HW2 3085   0.861   1.327   2.204
  376SOL     OW 3086   0.618   1.567   3.146
  376SOL    HW1 3087   0.613   1.649   3.203
  376SOL    HW2 3088   0.707   1.564   3.101
  377SOL     OW 3089   1.352   0.052   2.030
  377SOL    HW1 3090   1.387   0.011   1.946
  377SOL    HW2 3091   1.262   0.014   2.050
  378SOL     OW 3092   1.300   0.453   2.553
  378SOL    HW1 3093   1.241   0.533   2.557
  378SOL    HW2 3094   1.315   0.418   2.646
  379SOL     OW 3095   1.593   0.221   2.744
  379SOL    HW1 3096   1.509   0.220   2.798
  379SOL    HW2 3097   1.595   0.304   2.688
  380SOL     OW 3098   0.875   1.646   2.199
  380SOL    HW1 3099   0.798   1.611   2.145
  380SOL    HW2 3100   0.843   1.717   2.261
  381SOL     OW 3101   0.019   0.368   4.371
  381SOL    HW1 3102  -0.063   0.411   4.410
  381SOL    HW2 3103  -0.009   0.295   4.308
  382SOL     OW 3104   0.569   1.275   4.889
  382SOL    HW1 3105   0.476   1.268   4.852
  382SOL    HW2 3106   0.580   1.364   4.933
  383SOL     OW 3107   1.555   1.511   4.427
  383SOL    HW1 3108   1.498   1.495   4.508
  383SOL    HW2 3109   1.496   1.521   4.347
  384SOL     OW 3110   1.743   0.618   4.580
  384SOL    HW1 3111   1.776   0.712   4.580
  384SOL    HW2 3112   1.794   0.564   4.646
  385SOL     OW 3113   1.135   0.703   4.441
  385SOL    HW1 3114   1.192   0.781   4.416
  385SOL    HW2 3115   1.075   0.729   4.517
  386SOL     OW 3116   1.755   0.607   3.955
  386SOL    HW1 3117   1.743   0.594   3.856
  386SOL    HW2 3118   1.725   0.526   4.004
  387SOL     OW 3119   0.768   1.144   4.747
  387SOL    HW1 3120   0.690   1.161   4.807
  387SOL    HW2 3121   0.802   1.231   4.711
  388SOL     OW 3122   0.850   0.798   5.547
  388SOL    HW1 3123   0.846   0.874   5.612
  388SOL    HW2 3124   0.872   0.834   5.456
  389SOL     OW 3125   0.685   1.012   4.389
  389SOL    HW1 3126   0.754   0.996   4.459
  389SOL    HW2 3127   0.612   1.069   4.427
  390SOL     OW 3128   0.686   1.161   5.527
  390SOL    HW1 3129   0.746   1.240   5.541
  390SOL    HW2 3130   0.600   1.192   5.486
  391SOL     OW 3131   0.335   1.435   4.785
  391SOL    HW1 3132   0.257   1.404   4.732
  391SOL    HW2 3133   0.393   1.493   4.728
  392SOL     OW 3134   1.460   1.505   5.063
  392SOL    HW1 3135   1.484   1.599   5.089
  392SOL    HW2 3136   1.444   1.451   5.145
  393SOL     OW 3137   0.438   0.392   5.223
  393SOL    HW1 3138   0.520   0.336   5.232
  393SOL    HW2 3139   0.357   0.334   5.227
  394SOL     OW 3140   1.603   0.447   4.461
  394SOL    HW1 3141   1.529   0.493   4.411
  394SOL    HW2 3142   1.654   0.515   4.514
  395SOL     OW 3143   1.127   1.341   5.414
  395SOL    HW1 3144   1.174   1.341   5.502
  395SOL    HW2 3145   1.079   1.254   5.403
  396SOL     OW 3146   0.620   1.786   5.163
  396SOL    HW1 3147   0.528   1.769   5.198
  396SOL    HW2 3148   0.648   1.878   5.189
  397SOL     OW 3149   0.606   0.964   3.847
  397SOL    HW1 3150   0.613   1.048   3.793
  397SOL    HW2 3151   0.652   0.977   3.935
  398SOL     OW 3152   1.594   0.114   5.204
  398SOL    HW1 3153   1.576   0.181   5.132
  398SOL    HW2 3154   1.591   0.160   5.293
  399SOL     OW 3155   1.842   1.767   4.083
  399SOL    HW1 3156   1.896   1.738   4.163
  399SOL    HW2 3157   1.872   1.857   4.054
  400SOL     OW 3158   1.689   0.922   4.336
  400SOL    HW1 3159   1.784   0.893   4.344
  400SOL    HW2 3160   1.681   0.987   4.261
  401SOL     OW 3161   1.641   1.108   4.156
  401SOL    HW1 3162   1.727   1.110   4.104
  401SOL    HW2 3163   1.655   1.155   4.244
  402SOL     OW 3164   0.613   1.365   4.450
  402SOL    HW1 3165   0.564   1.278   4.459
  402SOL    HW2 3166   0.590   1.408   4.363
  403SOL     OW 3167   1.293   1.228   5.147
  403SOL    HW1 3168   1.330   1.155   5.089
  403SOL    HW2 3169   1.345   1.233   5.232
  404SOL     OW 3170   0.809   0.004   4.226
  404SOL    HW1 3171   0.849   0.095   4.217
  404SOL    HW2 3172   0.709   0.012   4.232
  405SOL     OW 3173   1.525   0.999   3.914
  405SOL    HW1 3174   1.462   0.923   3.927
  405SOL    HW2 3175   1.573   1.017   4.000
  406SOL     OW 3176   1.187   1.792   5.340
  406SOL    HW1 3177   1.211   1.852   5.264
  406SOL    HW2 3178   1.194   1.697   5.310
  407SOL     OW 3179   0.317   0.251   5.525
  407SOL    HW1 3180   0.388   0.322   5.531
  407SOL    HW2 3181   0.229   0.290   5.553
  408SOL     OW 3182   1.466   1.417   4.677
  408SOL    HW1 3183   1.407   1.423   4.757
  408SOL    HW2 3184   1.451   1.329   4.631
  409SOL     OW 3185   1.667   1.714   4.296
  409SOL    HW1 3186   1.626   1.691   4.208
  409SOL    HW2 3187   1.649   1.640   4.361
  410SOL     OW 3188   0.598   0.729   3.994
  410SOL    HW1 3189   0.622   0.798   3.926
  410SOL    HW2 3190   0.520   0.762   4.048
  411SOL     OW 3191   1.281   0.345   4.668
  411SOL    HW1 3192   1.195   0.295   4.655
  411SOL    HW2 3193   1.343   0.291   4.724
  412SOL     OW 3194   1.576   1.662   4.031
  412SOL    HW1 3195   1.665   1.708   4.034
  412SOL    HW2 3196   1.555   1.638   3.936
  413SOL     OW 3197   0.807   0.605   5.189
  413SOL    HW1 3198   0.760   0.602   5.278
  413SOL    HW2 3199   0.756   0.550   5.123
  414SOL     OW 3200   1.394   0.469   5.398
  414SOL    HW1 3201   1.374   0.512   5.486
  414SOL    HW2 3202   1.472   0.407   5.407
  415SOL     OW 3203   0.973   0.890   5.296
  415SOL    HW1 3204   1.019   0.806   5.267
  415SOL    HW2 3205   0.917   0.924   5.221
  416SOL     OW 3206   0.991   0.410   4.966
  416SOL    HW1 3207   0.914   0.444   5.020
  416SOL    HW2 3208   0.957   0.359   4.887
  417SOL     OW 3209   1.041   0.701   4.153
  417SOL    HW1 3210   1.067   0.697   4.249
  417SOL    HW2 3211   0.956   0.650   4.139
  418SOL     OW 3212   0.865   0.348   3.919
  418SOL    HW1 3213   0.924   0.411   3.870
  418SOL    HW2 3214   0.884   0.254   3.890
  419SOL     OW 3215   1.719   0.585   5.555
  419SOL    HW1 3216   1.693   0.674   5.519
  419SOL    HW2 3217   1.717   0.517   5.482
  420SOL     OW 3218   1.362   1.144   4.269
  420SOL    HW1 3219   1.445   1.115   4.221
  420SOL    HW2 3220   1.313   1.211   4.213
  421SOL     OW 3221   0.550   0.196   4.609
  421SOL    HW1 3222   0.545   0.191   4.709
  421SOL    HW2 3223   0.552   0.292   4.580
  422SOL     OW 3224   1.008   1.456   4.201
  422SOL    HW1 3225   0.962   1.528   4.149
  422SOL    HW2 3226   1.004   1.476   4.299
  423SOL     OW 3227   0.351   1.801   4.577
  423SOL    HW1 3228   0.401   1.715   4.583
  423SOL    HW2 3229   0.416   1.878   4.574
  424SOL     OW 3230   1.795   1.066   4.597
  424SOL    HW1 3231   1.733   1.051   4.521
  424SOL    HW2 3232   1.743   1.077   4.682
  425SOL     OW 3233   1.227   1.550   5.230
  425SOL    HW1 3234   1.233   1.473   5.294
  425SOL    HW2 3235   1.175   1.524   5.150
  426SOL     OW 3236   0.321   0.943   3.966
  426SOL    HW1 3237   0.403   0.982   3.924
  426SOL    HW2 3238   0.294   0.861   3.917
  427SOL     OW 3239   1.458   0.735   4.452
  427SOL    HW1 3240   1.453   0.670   4.527
  427SOL    HW2 3241   1.538   0.794   4.465
  428SOL     OW 3242   0.461   1.266   5.451
  428SOL    HW1 3243   0.411   1.267   5.365
  428SOL    HW2 3244   0.398   1.248   5.527
  429SOL     OW 3245   1.111   1.776   3.961
  429SOL    HW1 3246   1.051   1.714   4.011
  429SOL    HW2 3247   1.142   1.732   3.876
  430SOL     OW 3248   1.632   1.377   3.805
  430SOL    HW1 3249   1.600   1.471   3.795
  430SOL    HW2 3250   1.556   1.314   3.793
  431SOL     OW 3251   0.464   1.743   4.047
  431SOL    HW1 3252   0.497   1.782   4.133
  431SOL    HW2 3253   0.540   1.736   3.982
  432SOL     OW 3254   1.400   0.107   4.150
  432SOL    HW1 3255   1.376   0.070   4.060
  432SOL    HW2 3256   1.499   0.123   4.154
  433SOL     OW 3257   0.940   1.698   4.628
  433SOL    HW1 3258   1.020   1.641   4.649
  433SOL    HW2 3259   0.891   1.658   4.551
  434SOL     OW 3260   0.382   0.700   4.204
  434SOL    HW1 3261   0.427   0.610   4.201
  434SOL    HW2 3262   0.288   0.689   4.237
  435SOL     OW 3263   1.547   0.222   5.453
  435SOL    HW1 3264   1.542   0.259   5.545
  435SOL    HW2 3265   1.475   0.153   5.441
  436SOL     OW 3266   0.614   0.122   3.841
  436SOL    HW1 3267   0.712   0.100   3.848
  436SOL    HW2 3268   0.583   0.105   3.748
  437SOL     OW 3269   0.781   0.264   5.473
  437SOL    HW1 3270   0.848   0.203   5.516
  437SOL    HW2 3271   0.708   0.283   5.538
  438SOL     OW 3272   0.888   1.514   4.919
  438SOL    HW1 3273   0.865   1.489   4.825
  438SOL    HW2 3274   0.949   1.445   4.958
  439SOL     OW 3275   1.351   0.590   5.157
  439SOL    HW1 3276   1.379   0.547   5.242
  439SOL    HW2 3277   1.376   0.686   5.158
  440SOL     OW 3278   0.803   1.402   4.648
  440SOL    HW1 3279   0.893   1.416   4.606
  440SOL    HW2 3280   0.732   1.404   4.577
  441SOL     OW 3281   0.922   0.503   4.623
  441SOL    HW1 3282   0.897   0.494   4.527
  441SOL    HW2 3283   0.970   0.421   4.654
  442SOL     OW 3284   0.539   0.064   4.236
  442SOL    HW1 3285   0.458   0.065   4.294
  442SOL    HW2 3286   0.542   0.147   4.181
  443SOL     OW 3287   1.434   1.188   3.765
  443SOL    HW1 3288   1.466   1.112   3.822
  443SOL    HW2 3289   1.342   1.215   3.795
  444SOL     OW 3290   0.297   0.035   3.895
  444SOL    HW1 3291   0.346   0.119   3.874
  444SOL    HW2 3292   0.359  -0.030   3.940
  445SOL     OW 3293   0.935   0.236   4.204
  445SOL    HW1 3294   0.887   0.277   4.126
  445SOL    HW2 3295   1.034   0.234   4.185
  446SOL     OW 3296   1.076   0.683   5.188
  446SOL    HW1 3297   0.996   0.622   5.191
  446SOL    HW2 3298   1.157   0.630   5.164
  447SOL     OW 3299   1.227   1.570   4.517
  447SOL    HW1 3300   1.248   1.644   4.452
  447SOL    HW2 3301   1.295   1.570   4.590
  448SOL     OW 3302   0.459   1.152   4.465
  448SOL    HW1 3303   0.388   1.125   4.530
  448SOL    HW2 3304   0.433   1.124   4.372
  449SOL     OW 3305   1.271   1.797   4.315
  449SOL    HW1 3306   1.315   1.861   4.251
  449SOL    HW2 3307   1.221   1.849   4.385
  450SOL     OW 3308   1.032   0.549   3.740
  450SOL    HW1 3309   0.991   0.631   3.701
  450SOL    HW2 3310   1.096   0.575   3.813
  451SOL     OW 3311   0.561   0.222   4.871
  451SOL    HW1 3312   0.599   0.138   4.908
  451SOL    HW2 3313   0.473   0.241   4.915
  452SOL     OW 3314   0.866   0.454   4.366
  452SOL    HW1 3315   0.834   0.526   4.304
  452SOL    HW2 3316   0.890   0.373   4.313
  453SOL     OW 3317   1.017   0.039   4.477
  453SOL    HW1 3318   0.945   0.044   4.408
  453SOL    HW2 3319   0.993  -0.030   4.546
  454SOL     OW 3320   1.429   1.173   4.591
  454SOL    HW1 3321   1.374   1.089   4.584
  454SOL    HW2 3322   1.455   1.202   4.499
  455SOL     OW 3323   1.466   0.590   4.716
  455SOL    HW1 3324   1.436   0.495   4.723
  455SOL    HW2 3325   1.539   0.606   4.782
  456SOL     OW 3326   1.857   0.833   4.101
  456SOL    HW1 3327   1.899   0.769   4.165
  456SOL    HW2 3328   1.819   0.782   4.023
  457SOL     OW 3329   0.488   1.385   3.898
  457SOL    HW1 3330   0.401   1.370   3.945
  457SOL    HW2 3331   0.471   1.411   3.803
  458SOL     OW 3332   1.664   1.280   4.381
  458SOL    HW1 3333   1.763   1.288   4.395
  458SOL    HW2 3334   1.619   1.364   4.412
  459SOL     OW 3335   1.390   0.575   3.802
  459SOL    HW1 3336   1.336   0.554   3.883
  459SOL    HW2 3337   1.481   0.534   3.811
  460SOL     OW 3338   0.527   0.256   4.052
  460SOL    HW1 3339   0.554   0.197   3.977
  460SOL    HW2 3340   0.527   0.351   4.021
  461SOL     OW 3341   1.754   1.223   5.312
  461SOL    HW1 3342   1.845   1.184   5.299
  461SOL    HW2 3343   1.762   1.319   5.336
  462SOL     OW 3344   1.064   1.347   5.064
  462SOL    HW1 3345   0.984   1.324   5.119
  462SOL    HW2 3346   1.147   1.321   5.113
  463SOL     OW 3347   1.592   1.629   5.349
  463SOL    HW1 3348   1.619   1.663   5.259
  463SOL    HW2 3349   1.671   1.591   5.395
  464SOL     OW 3350   1.111   1.195   4.824
  464SOL    HW1 3351   1.071   1.239   4.905
  464SOL    HW2 3352   1.070   1.232   4.741
  465SOL     OW 3353   1.638   1.099   4.803
  465SOL    HW1 3354   1.643   1.180   4.862
  465SOL    HW2 3355   1.552   1.101   4.752
  466SOL     OW 3356   0.915   0.089   5.126
  466SOL    HW1 3357   0.940   0.069   5.031
  466SOL    HW2 3358   0.987   0.145   5.168
  467SOL     OW 3359   0.980   1.116   5.443
  467SOL    HW1 3360   0.881   1.122   5.453
  467SOL    HW2 3361   1.003   1.036   5.387
  468SOL     OW 3362   0.705   1.050   4.092
  468SOL    HW1 3363   0.691   1.057   4.191
  468SOL    HW2 3364   0.789   0.999   4.074
  469SOL     OW 3365   0.410   0.813   4.975
  469SOL    HW1 3366   0.496   0.825   5.025
  469SOL    HW2 3367   0.368   0.726   5.002
  470SOL     OW 3368   1.274   0.386   4.986
  470SOL    HW1 3369   1.295   0.460   5.050
  470SOL    HW2 3370   1.185   0.403   4.943
  471SOL     OW 3371   0.367   1.100   4.225
  471SOL    HW1 3372   0.360   1.183   4.169
  471SOL    HW2 3373   0.371   1.020   4.165
  472SOL     OW 3374   0.566   0.537   4.589
  472SOL    HW1 3375   0.578   0.603   4.515
  472SOL    HW2 3376   0.612   0.571   4.672
  473SOL     OW 3377   1.252   1.348   4.112
  473SOL    HW1 3378   1.302   1.425   4.152
  473SOL    HW2 3379   1.157   1.350   4.144
  474SOL     OW 3380   1.272   1.445   4.866
  474SOL    HW1 3381   1.319   1.458   4.953
  474SOL    HW2 3382   1.206   1.371   4.875
  475SOL     OW 3383   1.582   0.639   4.196
  475SOL    HW1 3384   1.551   0.700   4.269
  475SOL    HW2 3385   1.632   0.691   4.127
  476SOL     OW 3386   0.354   1.510   5.053
  476SOL    HW1 3387   0.333   1.466   4.966
  476SOL    HW2 3388   0.451   1.536   5.056
  477SOL     OW 3389   0.402   0.751   5.322
  477SOL    HW1 3390   0.470   0.806   5.275
  477SOL    HW2 3391   0.442   0.663   5.349
  478SOL     OW 3392   1.587   0.779   5.394
  478SOL    HW1 3393   1.495   0.817   5.389
  478SOL    HW2 3394   1.647   0.826   5.329
  479SOL     OW 3395   1.013   0.105   5.494
  479SOL    HW1 3396   1.019   0.190   5.442
  479SOL    HW2 3397   1.045   0.029   5.437
  480SOL     OW 3398   0.504   0.050   5.464
  480SOL    HW1 3399   0.462  -0.007   5.394
  480SOL    HW2 3400   0.438   0.119   5.496
  481SOL     OW 3401   0.573   0.870   4.753
  481SOL    HW1 3402   0.617   0.959   4.744
  481SOL    HW2 3403   0.510   0.870   4.830
  482SOL     OW 3404   1.360   0.862   4.769
  482SOL    HW1 3405   1.285   0.862   4.703
  482SOL    HW2 3406   1.397   0.770   4.778
  483SOL     OW 3407   1.209   0.525   3.999
  483SOL    HW1 3408   1.222   0.441   4.053
  483SOL    HW2 3409   1.180   0.599   4.059
  484SOL     OW 3410   0.732   0.634   4.788
  484SOL    HW1 3411   0.791   0.608   4.712
  484SOL    HW2 3412   0.704   0.730   4.777
  485SOL     OW 3413   1.728   0.935   5.578
  485SOL    HW1 3414   1.682   0.928   5.489
  485SOL    HW2 3415   1.666   0.979   5.644
  486SOL     OW 3416   0.307   0.063   4.342
  486SOL    HW1 3417   0.296   0.157   4.375
  486SOL    HW2 3418   0.302   0.000   4.419
  487SOL     OW 3419   1.622   0.367   4.098
  487SOL    HW1 3420   1.624   0.291   4.162
  487SOL    HW2 3421   1.574   0.444   4.138
  488SOL     OW 3422   1.023   0.766   4.690
  488SOL    HW1 3423   1.038   0.787   4.786
  488SOL    HW2 3424   0.993   0.671   4.681
  489SOL     OW 3425   0.980   1.573   5.424
  489SOL    HW1 3426   0.960   1.617   5.336
  489SOL    HW2 3427   1.019   1.482   5.408
  490SOL     OW 3428   1.859   1.518   5.329
  490SOL    HW1 3429   1.873   1.545   5.234
  490SOL    HW2 3430   1.942   1.540   5.382
  491SOL     OW 3431   0.350   0.898   5.528
  491SOL    HW1 3432   0.426   0.942   5.576
  491SOL    HW2 3433   0.385   0.851   5.446
  492SOL     OW 3434   1.540   0.274   3.849
  492SOL    HW1 3435   1.479   0.199   3.872
  492SOL    HW2 3436   1.562   0.326   3.932
  493SOL     OW 3437   1.303   0.838   3.766
  493SOL    HW1 3438   1.337   0.745   3.781
  493SOL    HW2 3439   1.321   0.865   3.671
  494SOL     OW 3440   1.068   1.333   4.573
  494SOL    HW1 3441   1.075   1.249   4.518
  494SOL    HW2 3442   1.130   1.402   4.537
  495SOL     OW 3443   0.319   0.810   4.673
  495SOL    HW1 3444   0.412   0.846   4.678
  495SOL    HW2 3445   0.313   0.725   4.725
  496SOL     OW 3446   1.138   0.380   5.402
  496SOL    HW1 3447   1.093   0.443   5.466
  496SOL    HW2 3448   1.231   0.411   5.385
  497SOL     OW 3449   1.160   0.207   5.201
  497SOL    HW1 3450   1.160   0.271   5.278
  497SOL    HW2 3451   1.188   0.255   5.118
  498SOL     OW 3452   0.504   1.568   4.634
  498SOL    HW1 3453   0.570   1.642   4.643
  498SOL    HW2 3454   0.548   1.489   4.592
  499SOL     OW 3455   1.002   0.796   4.962
  499SOL    HW1 3456   1.043   0.764   5.048
  499SOL    HW2 3457   0.906   0.769   4.959
  500SOL     OW 3458   1.369   0.950   5.384
  500SOL    HW1 3459   1.408   1.039   5.404
  500SOL    HW2 3460   1.379   0.930   5.287
  501SOL     OW 3461   0.815   0.572   4.049
  501SOL    HW1 3462   0.822   0.483   4.003
  501SOL    HW2 3463   0.721   0.606   4.041
  502SOL     OW 3464   1.657   0.604   4.930
  502SOL    HW1 3465   1.619   0.535   4.992
  502SOL    HW2 3466   1.739   0.568   4.886
  503SOL     OW 3467   0.671   0.464   4.993
  503SOL    HW1 3468   0.637   0.375   4.963
  503SOL    HW2 3469   0.697   0.518   4.913
  504SOL     OW 3470   0.930   1.678   5.189
  504SOL    HW1 3471   0.906   1.660   5.094
  504SOL    HW2 3472   0.960   1.772   5.199
  505SOL     OW 3473   0.473   0.500   3.915
  505SOL    HW1 3474   0.534   0.580   3.919
  505SOL    HW2 3475   0.378   0.531   3.922
  506SOL     OW 3476   1.347   1.059   4.958
  506SOL    HW1 3477   1.371   0.996   4.884
  506SOL    HW2 3478   1.257   1.099   4.940
  507SOL     OW 3479   1.302   0.855   4.033
  507SOL    HW1 3480   1.216   0.824   4.075
  507SOL    HW2 3481   1.298   0.841   3.934
  508SOL     OW 3482   1.759   1.747   4.878
  508SOL    HW1 3483   1.820   1.777   4.805
  508SOL    HW2 3484   1.721   1.658   4.856
  509SOL     OW 3485   1.252   1.731   4.852
  509SOL    HW1 3486   1.336   1.736   4.798
  509SOL    HW2 3487   1.229   1.635   4.870
  510SOL     OW 3488   0.688   1.662   5.440
  510SOL    HW1 3489   0.632   1.743   5.449
  510SOL    HW2 3490   0.740   1.666   5.354
  511SOL     OW 3491   1.726   0.135   4.247
  511SOL    HW1 3492   1.799   0.118   4.180
  511SOL    HW2 3493   1.695   0.048   4.285
  512SOL     OW 3494   1.388   1.573   4.201
  512SOL    HW1 3495   1.455   1.585   4.127
  512SOL    HW2 3496   1.348   1.662   4.224
  513SOL     OW 3497   0.130   1.794   5.575
  513SOL    HW1 3498   0.089   1.720   5.628
  513SOL    HW2 3499   0.194   1.845   5.633
  514SOL     OW 3500   1.280   0.927   4.396
  514SOL    HW1 3501   1.340   0.846   4.398
  514SOL    HW2 3502   1.320   0.996   4.336
  515SOL     OW 3503   0.830   1.273   5.146
  515SOL    HW1 3504   0.825   1.306   5.241
  515SOL    HW2 3505   0.744   1.292   5.100
  516SOL     OW 3506   0.672   1.616   3.878
  516SOL    HW1 3507   0.681   1.626   3.779
  516SOL    HW2 3508   0.632   1.527   3.899
  517SOL     OW 3509   1.650   1.720   5.118
  517SOL    HW1 3510   1.703   1.730   5.034
  517SOL    HW2 3511   1.623   1.810   5.152
  518SOL     OW 3512   1.841   0.175   4.687
  518SOL    HW1 3513   1.880   0.090   4.651
  518SOL    HW2 3514   1.743   0.177   4.668
  519SOL     OW 3515   0.263   0.326   4.444
  519SOL    HW1 3516   0.184   0.377   4.410
  519SOL    HW2 3517   0.254   0.311   4.542
  520SOL     OW 3518   1.194   1.612   3.755
  520SOL    HW1 3519   1.200   1.519   3.792
  520SOL    HW2 3520   1.135   1.612   3.675
  521SOL     OW 3521   0.822   1.002   5.096
  521SOL    HW1 3522   0.862   1.001   5.004
  521SOL    HW2 3523   0.832   1.094   5.136
  522SOL     OW 3524   0.916   0.910   4.015
  522SOL    HW1 3525   0.979   0.948   3.947
  522SOL    HW2 3526   0.956   0.827   4.054
  523SOL     OW 3527   1.504   1.607   3.768
  523SOL    HW1 3528   1.412   1.644   3.775
  523SOL    HW2 3529   1.542   1.627   3.678
  524SOL     OW 3530   0.372   1.288   5.214
  524SOL    HW1 3531   0.359   1.381   5.180
  524SOL    HW2 3532   0.288   1.236   5.201
  525SOL     OW 3533   1.614   1.292   5.013
  525SOL    HW1 3534   1.674   1.295   5.093
  525SOL    HW2 3535   1.539   1.356   5.026
  526SOL     OW 3536   1.039   1.098   4.420
  526SOL    HW1 3537   0.969   1.051   4.474
  526SOL    HW2 3538   1.098   1.030   4.377
  527SOL     OW 3539   1.014   0.236   4.695
  527SOL    HW1 3540   1.006   0.200   4.602
  527SOL    HW2 3541   1.012   0.160   4.760
  528SOL     OW 3542   0.590   1.487   4.215
  528SOL    HW1 3543   0.632   1.429   4.145
  528SOL    HW2 3544   0.546   1.566   4.171
  529SOL     OW 3545   1.709   0.385   5.105
  529SOL    HW1 3546   1.782   0.454   5.109
  529SOL    HW2 3547   1.737   0.310   5.046
  530SOL     OW 3548   0.255   1.348   4.014
  530SOL    HW1 3549   0.159   1.349   3.987
  530SOL    HW2 3550   0.267   1.401   4.098
  531SOL     OW 3551   0.672   0.203   5.213
  531SOL    HW1 3552   0.762   0.187   5.173
  531SOL    HW2 3553   0.680   0.208   5.312
  532SOL     OW 3554   1.440   0.856   5.122
  532SOL    HW1 3555   1.383   0.908   5.059
  532SOL    HW2 3556   1.536   0.868   5.098
  533SOL     OW 3557   1.183   1.335   3.843
  533SOL    HW1 3558   1.084   1.324   3.845
  533SOL    HW2 3559   1.217   1.350   3.936
  534SOL     OW 3560   0.613   0.842   5.155
  534SOL    HW1 3561   0.669   0.923   5.138
  534SOL    HW2 3562   0.672   0.762   5.158
  535SOL     OW 3563   1.493   1.767   4.683
  535SOL    HW1 3564   1.526   1.831   4.614
  535SOL    HW2 3565   1.559   1.761   4.758
  536SOL     OW 3566   0.716   0.565   5.432
  536SOL    HW1 3567   0.735   0.630   5.506
  536SOL    HW2 3568   0.776   0.485   5.441
  537SOL     OW 3569   1.450   1.220   5.357
  537SOL    HW1 3570   1.441   1.210   5.456
  537SOL    HW2 3571   1.546   1.213   5.331
  538SOL     OW 3572   0.390   1.741   5.284
  538SOL    HW1 3573   0.299   1.782   5.282
  538SOL    HW2 3574   0.383   1.647   5.316
  539SOL     OW 3575   1.674   0.883   4.978
  539SOL    HW1 3576   1.647   0.794   4.941
  539SOL    HW2 3577   1.675   0.951   4.905
  540SOL     OW 3578   1.225   0.325   4.173
  540SOL    HW1 3579   1.290   0.251   4.162
  540SOL    HW2 3580   1.245   0.375   4.257
  541SOL     OW 3581   0.594   0.745   4.376
  541SOL    HW1 3582   0.644   0.830   4.357
  541SOL    HW2 3583   0.506   0.747   4.328
  542SOL     OW 3584   1.777   0.342   5.366
  542SOL    HW1 3585   1.760   0.373   5.272
  542SOL    HW2 3586   1.693   0.305   5.404
  543SOL     OW 3587   1.730   0.934   5.241
  543SOL    HW1 3588   1.768   1.025   5.256
  543SOL    HW2 3589   1.722   0.917   5.142
  544SOL     OW 3590   0.859   1.374   3.740
  544SOL    HW1 3591   0.813   1.389   3.828
  544SOL    HW2 3592   0.903   1.459   3.710
  545SOL     OW 3593   0.661   1.790   4.677
  545SOL    HW1 3594   0.615   1.878   4.664
  545SOL    HW2 3595   0.760   1.802   4.670
  546SOL     OW 3596   1.408   1.851   5.444
  546SOL    HW1 3597   1.312   1.840   5.417
  546SOL    HW2 3598   1.464   1.784   5.396
  547SOL     OW 3599   0.859   0.956   4.585
  547SOL    HW1 3600   0.913   0.887   4.633
  547SOL    HW2 3601   0.827   1.025   4.651
  548SOL     OW 3602   1.083   0.984   3.811
  548SOL    HW1 3603   1.060   1.037   3.729
  548SOL    HW2 3604   1.164   0.928   3.792
  549SOL     OW 3605   1.861   1.569   4.575
  549SOL    HW1 3606   1.790   1.557   4.505
  549SOL    HW2 3607   1.862   1.490   4.635
  550SOL     OW 3608   0.672   1.391   5.348
  550SOL    HW1 3609   0.594   1.341   5.386
  550SOL    HW2 3610   0.669   1.486   5.379
  551SOL     OW 3611   1.824   0.192   4.951
  551SOL    HW1 3612   1.820   0.102   4.995
  551SOL    HW2 3613   1.827   0.181   4.852
  552SOL     OW 3614   0.428   0.424   4.244
  552SOL    HW1 3615   0.458   0.352   4.182
  552SOL    HW2 3616   0.389   0.384   4.327
  553SOL     OW 3617   1.705   1.487   4.828
  553SOL    HW1 3618   1.612   1.462   4.801
  553SOL    HW2 3619   1.731   1.437   4.910
  554SOL     OW 3620   0.812   1.586   4.411
  554SOL    HW1 3621   0.844   1.596   4.317
  554SOL    HW2 3622   0.733   1.524   4.413
  555SOL     OW 3623   1.424   0.214   4.836
  555SOL    HW1 3624   1.476   0.149   4.891
  555SOL    HW2 3625   1.375   0.277   4.897
  556SOL     OW 3626   1.001   0.034   4.878
  556SOL    HW1 3627   0.938  -0.038   4.847
  556SOL    HW2 3628   1.094  -0.002   4.878
  557SOL     OW 3629   0.770   1.330   4.025
  557SOL    HW1 3630   0.724   1.243   4.042
  557SOL    HW2 3631   0.861   1.327   4.066
  558SOL     OW 3632   0.618   1.567   5.008
  558SOL    HW1 3633   0.613   1.649   5.065
  558SOL    HW2 3634   0.707   1.564   4.963
  559SOL     OW 3635   1.352   0.052   3.892
  559SOL    HW1 3636   1.387   0.011   3.808
  559SOL    HW2 3637   1.262   0.014   3.912
  560SOL     OW 3638   1.300   0.453   4.415
  560SOL    HW1 3639   1.241   0.533   4.419
  560SOL    HW2 3640   1.315   0.418   4.508
  561SOL     OW 3641   1.593   0.221   4.606
  561SOL    HW1 3642   1.509   0.220   4.660
  561SOL    HW2 3643   1.595   0.304   4.550
  562SOL     OW 3644   0.875   1.646   4.061
  562SOL    HW1 3645   0.798   1.611   4.007
  562SOL    HW2 3646   0.843   1.717   4.123
  563SOL     OW 3647   0.019   0.368   6.233
  563SOL    HW1 3648  -0.063   0.411   6.272
  563SOL    HW2 3649  -0.009   0.295   6.170
  564SOL     OW 3650   0.569   1.275   6.751
  564SOL    HW1 3651   0.476   1.268   6.714
  564SOL    HW2 3652   0.580   1.364   6.795
  565SOL     OW 3653   1.555   1.511   6.289
  565SOL    HW1 3654   1.498   1.495   6.370
  565SOL    HW2 3655   1.496   1.521   6.209
  566SOL     OW 3656   1.743   0.618   6.442
  566SOL    HW1 3657   1.776   0.712   6.442
  566SOL    HW2 3658   1.794   0.564   6.508
  567SOL     OW 3659   1.135   0.703   6.303
  567SOL    HW1 3660   1.192   0.781   6.278
  567SOL    HW2 3661   1.075   0.729   6.379
  568SOL     OW 3662   1.755   0.607   5.817
  568SOL    HW1 3663   1.743   0.594   5.718
  568SOL    HW2 3664   1.725   0.526   5.866
  569SOL     OW 3665   0.768   1.144   6.609
  569SOL    HW1 3666   0.690   1.161   6.669
  569SOL    HW2 3667   0.802   1.231   6.573
  570SOL     OW 3668   0.850   0.798   7.409
  570SOL    HW1 3669   0.846   0.874   7.474
  570SOL    HW2 3670   0.872   0.834   7.318
  571SOL     OW 3671   0.685   1.012   6.251
  571SOL    HW1 3672   0.754   0.996   6.321
  571SOL    HW2 3673   0.612   1.069   6.289
  572SOL     OW 3674   0.686   1.161   7.389
  572SOL    HW1 3675   0.746   1.240   7.403
  572SOL    HW2 3676   0.600   1.192   7.348
  573SOL     OW 3677   0.335   1.435   6.647
  573SOL    HW1 3678   0.257   1.404   6.594
  573SOL    HW2 3679   0.393   1.493   6.590
  574SOL     OW 3680   1.460   1.505   6.925
  574SOL    HW1 3681   1.484   1.599   6.951
  574SOL    HW2 3682   1.444   1.451   7.007
  575SOL     OW 3683   0.438   0.392   7.085
  575SOL    HW1 3684   0.520   0.336   7.094
  575SOL    HW2 3685   0.357   0.334   7.089
  576SOL     OW 3686   1.603   0.447   6.323
  576SOL    HW1 3687   1.529   0.493   6.273
  576SOL    HW2 3688   1.654   0.515   6.376
  577SOL     OW 3689   1.127   1.341   7.276
  577SOL    HW1 3690   1.174   1.341   7.364
  577SOL    HW2 3691   1.079   1.254   7.265
  578SOL     OW 3692   0.620   1.786   7.025
  578SOL    HW1 3693   0.528   1.769   7.060
  578SOL    HW2 3694   0.648   1.878   7.051
  579SOL     OW 3695   0.606   0.964   5.709
  579SOL    HW1 3696   0.613   1.048   5.655
  579SOL    HW2 3697   0.652   0.977   5.797
  580SOL     OW 3698   1.594   0.114   7.066
  580SOL    HW1 3699   1.576   0.181   6.994
  580SOL    HW2 3700   1.591   0.160   7.155
  581SOL     OW 3701   1.842   1.767   5.945
  581SOL    HW1 3702   1.896   1.738   6.025
  581SOL    HW2 3703   1.872   1.857   5.916
  582SOL     OW 3704   1.689   0.922   6.198
  582SOL    HW1 3705   1.784   0.893   6.206
  582SOL    HW2 3706   1.681   0.987   6.123
  583SOL     OW 3707   1.641   1.108   6.018
  583SOL    HW1 3708   1.727   1.110   5.966
  583SOL    HW2 3709   1.655   1.155   6.106
  584SOL     OW 3710   0.613   1.365   6.312
  584SOL    HW1 3711   0.564   1.278   6.321
  584SOL    HW2 3712   0.590   1.408   6.225
  585SOL     OW 3713   1.293   1.228   7.009
  585SOL    HW1 3714   1.330   1.155   6.951
  585SOL    HW2 3715   1.345   1.233   7.094
  586SOL     OW 3716   0.809   0.004   6.088
  586SOL    HW1 3717   0.849   0.095   6.079
  586SOL    HW2 3718   0.709   0.012   6.094
  587SOL     OW 3719   1.525   0.999   5.776
  587SOL    HW1 3720   1.462   0.923   5.789
  587SOL    HW2 3721   1.573   1.017   5.862
  588SOL     OW 3722   1.187   1.792   7.202
  588SOL    HW1 3723   1.211   1.852   7.126
  588SOL    HW2 3724   1.194   1.697   7.172
  589SOL     OW 3725   0.317   0.251   7.387
  589SOL    HW1 3726   0.388   0.322   7.393
  589SOL    HW2 3727   0.229   0.290   7.415
  590SOL     OW 3728   1.466   1.417   6.539
  590SOL    HW1 3729   1.407   1.423   6.619
  590SOL    HW2 3730   1.451   1.329   6.493
  591SOL     OW 3731   1.667   1.714   6.158
  591SOL    HW1 3732   1.626   1.691   6.070
  591SOL    HW2 3733   1.649   1.640   6.223
  592SOL     OW 3734   0.598   0.729   5.856
  592SOL    HW1 3735   0.622   0.798   5.788
  592SOL    HW2 3736   0.520   0.762   5.910
  593SOL     OW 3737   1.281   0.345   6.530
  593SOL    HW1 3738   1.195   0.295   6.517
  593SOL    HW2 3739   1.343   0.291   6.586
  594SOL     OW 3740   1.576   1.662   5.893
  594SOL    HW1 3741   1.665   1.708   5.896
  594SOL    HW2 3742   1.555   1.638   5.798
  595SOL     OW 3743   0.807   0.605   7.051
  595SOL    HW1 3744   0.760   0.602   7.140
  595SOL    HW2 3745   0.756   0.550   6.985
  596SOL     OW 3746   1.394   0.469   7.260
  596SOL    HW1 3747   1.374   0.512   7.348
  596SOL    HW2 3748   1.472   0.407   7.269
  597SOL     OW 3749   0.973   0.890   7.158
  597SOL    HW1 3750   1.019   0.806   7.129
  597SOL    HW2 3751   0.917   0.924   7.083
  598SOL     OW 3752   0.991   0.410   6.828
  598SOL    HW1 3753   0.914   0.444   6.882
  598SOL    HW2 3754   0.957   0.359   6.749
  599SOL     OW 3755   1.041   0.701   6.015
  599SOL    HW1 3756   1.067   0.697   6.111
  599SOL    HW2 3757   0.956   0.650   6.001
  600SOL     OW 3758   0.865   0.348   5.781
  600SOL    HW1 3759   0.924   0.411   5.732
  600SOL    HW2 3760   0.884   0.254   5.752
  601SOL     OW 3761   1.719   0.585   7.417
  601SOL    HW1 3762   1.693   0.674   7.381
  601SOL    HW2 3763   1.717   0.517   7.344
  602SOL     OW 3764   1.362   1.144   6.131
  602SOL    HW1 3765   1.445   1.115   6.083
  602SOL    HW2 3766   1.313   1.211   6.075
  603SOL     OW 3767   0.550   0.196   6.471
  603SOL    HW1 3768   0.545   0.191   6.571
  603SOL    HW2 3769   0.552   0.292   6.442
  604SOL     OW 3770   1.008   1.456   6.063
  604SOL    HW1 3771   0.962   1.528   6.011
  604SOL    HW2 3772   1.004   1.476   6.161
  605SOL     OW 3773   0.351   1.801   6.439
  605SOL    HW1 3774   0.401   1.715   6.445
  605SOL    HW2 3775   0.416   1.878   6.436
  606SOL     OW 3776   1.795   1.066   6.459
  606SOL    HW1 3777   1.733   1.051   6.383
  606SOL    HW2 3778   1.743   1.077   6.544
  607SOL     OW 3779   1.227   1.550   7.092
  607SOL    HW1 3780   1.233   1.473   7.156
  607SOL    HW2 3781   1.175   1.524   7.012
  608SOL     OW 3782   0.321   0.943   5.828
  608SOL    HW1 3783   0.403   0.982   5.786
  608SOL    HW2 3784   0.294   0.861   5.779
  609SOL     OW 3785   1.458   0.735   6.314
  609SOL    HW1 3786   1.453   0.670   6.389
  609SOL    HW2 3787   1.538   0.794   6.327
  610SOL     OW 3788   0.461   1.266   7.313
  610SOL    HW1 3789   0.411   1.267   7.227
  610SOL    HW2 3790   0.398   1.248   7.389
  611SOL     OW 3791   1.111   1.776   5.823
  611SOL    HW1 3792   1.051   1.714   5.873
  611SOL    HW2 3793   1.142   1.732   5.738
  612SOL     OW 3794   1.632   1.377   5.667
  612SOL    HW1 3795   1.600   1.471   5.657
  612SOL    HW2 3796   1.556   1.314   5.655
  613SOL     OW 3797   0.464   1.743   5.909
  613SOL    HW1 3798   0.497   1.782   5.995
  613SOL    HW2 3799   0.540   1.736   5.844
  614SOL     OW 3800   1.400   0.107   6.012
  614SOL    HW1 3801   1.376   0.070   5.922
  614SOL    HW2 3802   1.499   0.123   6.016
  615SOL     OW 3803   0.940   1.698   6.490
  615SOL    HW1 3804   1.020   1.641   6.511
  615SOL    HW2 3805   0.891   1.658   6.413
  616SOL     OW 3806   0.382   0.700   6.066
  616SOL    HW1 3807   0.427   0.610   6.063
  616SOL    HW2 3808   0.288   0.689   6.099
  617SOL     OW 3809   1.547   0.222   7.315
  617SOL    HW1 3810   1.542   0.259   7.407
  617SOL    HW2 3811   1.475   0.153   7.303
  618SOL     OW 3812   0.614   0.122   5.703
  618SOL    HW1 3813   0.712   0.100   5.710
  618SOL    HW2 3814   0.583   0.105   5.610
  619SOL     OW 3815   0.781   0.264   7.335
  619SOL    HW1 3816   0.848   0.203   7.378
  619SOL    HW2 3817   0.708   0.283   7.400
  620SOL     OW 3818   0.888   1.514   6.781
  620SOL    HW1 3819   0.865   1.489   6.687
  620SOL    HW2 3820   0.949   1.445   6.820
  621SOL     OW 3821   1.351   0.590   7.019
  621SOL    HW1 3822   1.379   0.547   7.104
  621SOL    HW2 3823   1.376   0.686   7.020
  622SOL     OW 3824   0.803   1.402   6.510
  622SOL    HW1 3825   0.893   1.416   6.468
  622SOL    HW2 3826   0.732   1.404   6.439
  623SOL     OW 3827   0.922   0.503   6.485
  623SOL    HW1 3828   0.897   0.494   6.389
  623SOL    HW2 3829   0.970   0.421   6.516
  624SOL     OW 3830   0.539   0.064   6.098
  624SOL    HW1 3831   0.458   0.065   6.156
  624SOL    HW2 3832   0.542   0.147   6.043
  625SOL     OW 3833   1.434   1.188   5.627
  625SOL    HW1 3834   1.466   1.112   5.684
  625SOL    HW2 3835   1.342   1.215   5.657
  626SOL     OW 3836   0.297   0.035   5.757
  626SOL    HW1 3837   0.346   0.119   5.736
  626SOL    HW2 3838   0.359  -0.030   5.802
  627SOL     OW 3839   0.935   0.236   6.066
  627SOL    HW1 3840   0.887   0.277   5.988
  627SOL    HW2 3841   1.034   0.234   6.047
  628SOL     OW 3842   1.076   0.683   7.050
  628SOL    HW1 3843   0.996   0.622   7.053
  628SOL    HW2 3844   1.157   0.630   7.026
  629SOL     OW 3845   1.227   1.570   6.379
  629SOL    HW1 3846   1.248   1.644   6.314
  629SOL    HW2 3847   1.295   1.570   6.452
  630SOL     OW 3848   0.459   1.152   6.327
  630SOL    HW1 3849   0.388   1.125   6.392
  630SOL    HW2 3850   0.433   1.124   6.234
  631SOL     OW 3851   1.271   1.797   6.177
  631SOL    HW1 3852   1.315   1.861   6.113
  631SOL    HW2 3853   1.221   1.849   6.247
  632SOL     OW 3854   1.032   0.549   5.602
  632SOL    HW1 3855   0.991   0.631   5.563
  632SOL    HW2 3856   1.096   0.575   5.675
  633SOL     OW 3857   0.561   0.222   6.733
  633SOL    HW1 3858   0.599   0.138   6.770
  633SOL    HW2 3859   0.473   0.241   6.777
  634SOL     OW 3860   0.866   0.454   6.228
  634SOL    HW1 3861   0.834   0.526   6.166
  634SOL    HW2 3862   0.890   0.373   6.175
  635SOL     OW 3863   1.017   0.039   6.339
  635SOL    HW1 3864   0.945   0.044   6.270
  635SOL    HW2 3865   0.993  -0.030   6.408
  636SOL     OW 3866   1.429   1.173   6.453
  636SOL    HW1 3867   1.374   1.089   6.446
  636SOL    HW2 3868   1.455   1.202   6.361
  637SOL     OW 3869   1.466   0.590   6.578
  637SOL    HW1 3870   1.436   0.495   6.585
  637SOL    HW2 3871   1.539   0.606   6.644
  638SOL     OW 3872   1.857   0.833   5.963
  638SOL    HW1 3873   1.899   0.769   6.027
  638SOL    HW2 3874   1.819   0.782   5.885
  639SOL     OW 3875   0.488   1.385   5.760
  639SOL    HW1 3876   0.401   1.370   5.807
  639SOL    HW2 3877   0.471   1.411   5.665
  640SOL     OW 3878   1.664   1.280   6.243
  640SOL    HW1 3879   1.763   1.288   6.257
  640SOL    HW2 3880   1.619   1.364   6.274
  641SOL     OW 3881   1.390   0.575   5.664
  641SOL    HW1 3882   1.336   0.554   5.745
  641SOL    HW2 3883   1.481   0.534   5.673
  642SOL     OW 3884   0.527   0.256   5.914
  642SOL    HW1 3885   0.554   0.197   5.839
  642SOL    HW2 3886   0.527   0.351   5.883
  643SOL     OW 3887   1.754   1.223   7.174
  643SOL    HW1 3888   1.845   1.184   7.161
  643SOL    HW2 3889   1.762   1.319   7.198
  644SOL     OW 3890   1.064   1.347   6.926
  644SOL    HW1 3891   0.984   1.324   6.981
  644SOL    HW2 3892   1.147   1.321   6.975
  645SOL     OW 3893   1.592   1.629   7.211
  645SOL    HW1 3894   1.619   1.663   7.121
  645SOL    HW2 3895   1.671   1.591   7.257
  646SOL     OW 3896   1.111   1.195   6.686
  646SOL    HW1 3897   1.071   1.239   6.767
  646SOL    HW2 3898   1.070   1.232   6.603
  647SOL     OW 3899   1.638   1.099   6.665
  647SOL    HW1 3900   1.643   1.180   6.724
  647SOL    HW2 3901   1.552   1.101   6.614
  648SOL     OW 3902   0.915   0.089   6.988
  648SOL    HW1 3903   0.940   0.069   6.893
  648SOL    HW2 3904   0.987   0.145   7.030
  649SOL     OW 3905   0.980   1.116   7.305
  649SOL    HW1 3906   0.881   1.122   7.315
  649SOL    HW2 3907   1.003   1.036   7.249
  650SOL     OW 3908   0.705   1.050   5.954
  650SOL    HW1 3909   0.691   1.057   6.053
  650SOL    HW2 3910   0.789   0.999   5.936
  651SOL     OW 3911   0.410   0.813   6.837
  651SOL    HW1 3912   0.496   0.825   6.887
  651SOL    HW2 3913   0.368   0.726   6.864
  652SOL     OW 3914   1.274   0.386   6.848
  652SOL    HW1 3915   1.295   0.460   6.912
  652SOL    HW2 3916   1.185   0.403   6.805
  653SOL     OW 3917   0.367   1.100   6.087
  653SOL    HW1 3918   0.360   1.183   6.031
  653SOL    HW2 3919   0.371   1.020   6.027
  654SOL     OW 3920   0.566   0.537   6.451
  654SOL    HW1 3921   0.578   0.603   6.377
  654SOL    HW2 3922   0.612   0.571   6.534
  655SOL     OW 3923   1.252   1.348   5.974
  655SOL    HW1 3924   1.302   1.425   6.014
  655SOL    HW2 3925   1.157   1.350   6.006
  656SOL     OW 3926   1.272   1.445   6.728
  656SOL    HW1 3927   1.319   1.458   6.815
  656SOL    HW2 3928   1.206   1.371   6.737
  657SOL     OW 3929   1.582   0.639   6.058
  657SOL    HW1 3930   1.551   0.700   6.131
  657SOL    HW2 3931   1.632   0.691   5.989
  658SOL     OW 3932   0.354   1.510   6.915
  658SOL    HW1 3933   0.333   1.466   6.828
  658SOL    HW2 3934   0.451   1.536   6.918
  659SOL     OW 3935   0.402   0.751   7.184
  659SOL    HW1 3936   0.470   0.806   7.137
  659SOL    HW2 3937   0.442   0.663   7.211
  660SOL     OW 3938   1.587   0.779   7.256
  660SOL    HW1 3939   1.495   0.817   7.251
  660SOL    HW2 3940   1.647   0.826   7.191
  661SOL     OW 3941   1.013   0.105   7.356
  661SOL    HW1 3942   1.019   0.190   7.304
  661SOL    HW2 3943   1.045   0.029   7.299
  662SOL     OW 3944   0.504   0.050   7.326
  662SOL    HW1 3945   0.462  -0.007   7.256
  662SOL    HW2 3946   0.438   0.119   7.358
  663SOL     OW 3947   0.573   0.870   6.615
  663SOL    HW1 3948   0.617   0.959   6.606
  663SOL    HW2 3949   0.510   0.870   6.692
  664SOL     OW 3950   1.360   0.862   6.631
  664SOL    HW1 3951   1.285   0.862   6.565
  664SOL    HW2 3952   1.397   0.770   6.640
  665SOL     OW 3953   1.209   0.525   5.861
  665SOL    HW1 3954   1.222   0.441   5.915
  665SOL    HW2 3955   1.180   0.599   5.921
  666SOL     OW 3956   0.732   0.634   6.650
  666SOL    HW1 3957   0.791   0.608   6.574
  666SOL    HW2 3958   0.704   0.730   6.639
  667SOL     OW 3959   1.728   0.935   7.440
  667SOL    HW1 3960   1.682   0.928   7.351
  667SOL    HW2 3961   1.666   0.979   7.506
  668SOL     OW 3962   0.307   0.063   6.204
  668SOL    HW1 3963   0.296   0.157   6.237
  668SOL    HW2 3964   0.302   0.000   6.281
  669SOL     OW 3965   1.622   0.367   5.960
  669SOL    HW1 3966   1.624   0.291   6.024
  669SOL    HW2 3967   1.574   0.444   6.000
  670SOL     OW 3968   1.023   0.766   6.552
  670SOL    HW1 3969   1.038   0.787   6.648
  670SOL    HW2 3970   0.993   0.671   6.543
  671SOL     OW 3971   0.980   1.573   7.286
  671SOL    HW1 3972   0.960   1.617   7.198
  671SOL    HW2 3973   1.019   1.482   7.270
  672SOL     OW 3974   1.859   1.518   7.191
  672SOL    HW1 3975   1.873   1.545   7.096
  672SOL    HW2 3976   1.942   1.540   7.244
  673SOL     OW 3977   0.350   0.898   7.390
  673SOL    HW1 3978   0.426   0.942   7.438
  673SOL    HW2 3979   0.385   0.851   7.308
  674SOL     OW 3980   1.540   0.274   5.711
  674SOL    HW1 3981   1.479   0.199   5.734
  674SOL    HW2 3982   1.562   0.326   5.794
  675SOL     OW 3983   1.303   0.838   5.628
  675SOL    HW1 3984   1.337   0.745   5.643
  675SOL    HW2 3985   1.321   0.865   5.533
  676SOL     OW 3986   1.068   1.333   6.435
  676SOL    HW1 3987   1.075   1.249   6.380
  676SOL    HW2 3988   1.130   1.402   6.399
  677SOL     OW 3989   0.319   0.810   6.535
  677SOL    HW1 3990   0.412   0.846   6.540
  677SOL    HW2 3991   0.313   0.725   6.587
  678SOL     OW 3992   1.138   0.380   7.264
  678SOL    HW1 3993   1.093   0.443   7.328
  678SOL    HW2 3994   1.231   0.411   7.247
  679SOL     OW 3995   1.160   0.207   7.063
  679SOL    HW1 3996   1.160   0.271   7.140
  679SOL    HW2 3997   1.188   0.255   6.980
  680SOL     OW 3998   0.504   1.568   6.496
  680SOL    HW1 3999   0.570   1.642   6.505
  680SOL    HW2 4000   0.548   1.489   6.454
  681SOL     OW 4001   1.002   0.796   6.824
  681SOL    HW1 4002   1.043   0.764   6.910
  681SOL    HW2 4003   0.906   0.769   6.821
  682SOL     OW 4004   1.369   0.950   7.246
  682SOL    HW1 4005   1.408   1.039   7.266
  682SOL    HW2 4006   1.379   0.930   7.149
  683SOL     OW 4007   0.815   0.572   5.911
  683SOL    HW1 4008   0.822   0.483   5.865
  683SOL    HW2 4009   0.721   0.606   5.903
  684SOL     OW 4010   1.657   0.604   6.792
  684SOL    HW1 4011   1.619   0.535   6.854
  684SOL    HW2 4012   1.739   0.568   6.748
  685SOL     OW 4013   0.671   0.464   6.855
  685SOL    HW1 4014   0.637   0.375   6.825
  685SOL    HW2 4015   0.697   0.518   6.775
  686SOL     OW 4016   0.930   1.678   7.051
  686SOL    HW1 4017   0.906   1.660   6.956
  686SOL    HW2 4018   0.960   1.772   7.061
  687SOL     OW 4019   0.473   0.500   5.777
  687SOL    HW1 4020   0.534   0.580   5.781
  687SOL    HW2 4021   0.378   0.531   5.784
  688SOL     OW 4022   1.347   1.059   6.820
  688SOL    HW1 4023   1.371   0.996   6.746
  688SOL    HW2 4024   1.257   1.099   6.802
  689SOL     OW 4025   1.302   0.855   5.895
  689SOL    HW1 4026   1.216   0.824   5.937
  689SOL    HW2 4027   1.298   0.841   5.796
  690SOL     OW 4028   1.759   1.747   6.740
  690SOL    HW1 4029   1.820   1.777   6.667
  690SOL    HW2 4030   1.721   1.658   6.718
  691SOL     OW 4031   1.252   1.731   6.714
  691SOL    HW1 4032   1.336   1.736   6.660
  691SOL    HW2 4033   1.229   1.635   6.732
  692SOL     OW 4034   0.688   1.662   7.302
  692SOL    HW1 4035   0.632   1.743   7.311
  692SOL    HW2 4036   0.740   1.666   7.216
  693SOL     OW 4037   1.726   0.135   6.109
  693SOL    HW1 4038   1.799   0.118   6.042
  693SOL    HW2 4039   1.695   0.048   6.147
  694SOL     OW 4040   1.388   1.573   6.063
  694SOL    HW1 4041   1.455   1.585   5.989
  694SOL    HW2 4042   1.348   1.662   6.086
  695SOL     OW 4043   0.130   1.794   7.437
  695SOL    HW1 4044   0.089   1.720   7.490
  695SOL    HW2 4045   0.194   1.845   7.495
  696SOL     OW 4046   1.280   0.927   6.258
  696SOL    HW1 4047   1.340   0.846   6.260
  696SOL    HW2 4048   1.320   0.996   6.198
  697SOL     OW 4049   0.830   1.273   7.008
  697SOL    HW1 4050   0.825   1.306   7.103
  697SOL    HW2 4051   0.744   1.292   6.962
  698SOL     OW 4052   0.672   1.616   5.740
  698SOL    HW1 4053   0.681   1.626   5.641
  698SOL    HW2 4054   0.632   1.527   5.761
  699SOL     OW 4055   1.650   1.720   6.980
  699SOL    HW1 4056   1.703   1.730   6.896
  699SOL    HW2 4057   1.623   1.810   7.014
  700SOL     OW 4058   1.841   0.175   6.549
  700SOL    HW1 4059   1.880   0.090   6.513
  700SOL    HW2 4060   1.743   0.177   6.530
  701SOL     OW 4061   0.263   0.326   6.306
  701SOL    HW1 4062   0.184   0.377   6.272
  701SOL    HW2 4063   0.254   0.311   6.404
  702SOL     OW 4064   1.194   1.612   5.617
  702SOL    HW1 4065   1.200   1.519   5.654
  702SOL    HW2 4066   1.135   1.612   5.537
  703SOL     OW 4067   0.822   1.002   6.958
  703SOL    HW1 4068   0.862   1.001   6.866
  703SOL    HW2 4069   0.832   1.094   6.998
  704SOL     OW 4070   0.916   0.910   5.877
  704SOL    HW1 4071   0.979   0.948   5.809
  704SOL    HW2 4072   0.956   0.827   5.916
  705SOL     OW 4073   1.504   1.607   5.630
  705SOL    HW1 4074   1.412   1.644   5.637
  705SOL    HW2 4075   1.542   1.627   5.540
  706SOL     OW 4076   0.372   1.288   7.076
  706SOL    HW1 4077   0.359   1.381   7.042
  706SOL    HW2 4078   0.288   1.236   7.063
  707SOL     OW 4079   1.614   1.292   6.875
  707SOL    HW1 4080   1.674   1.295   6.955
  707SOL    HW2 4081   1.539   1.356   6.888
  708SOL     OW 4082   1.039   1.098   6.282
  708SOL    HW1 4083   0.969   1.051   6.336
  708SOL    HW2 4084   1.098   1.030   6.239
  709SOL     OW 4085   1.014   0.236   6.557
  709SOL    HW1 4086   1.006   0.200   6.464
  709SOL    HW2 4087   1.012   0.160   6.622
  710SOL     OW 4088   0.590   1.487   6.077
  710SOL    HW1 4089   0.632   1.429   6.007
  710SOL    HW2 4090   0.546   1.566   6.033
  711SOL     OW 4091   1.709   0.385   6.967
  711SOL    HW1 4092   1.782   0.454   6.971
  711SOL    HW2 4093   1.737   0.310   6.908
  712SOL     OW 4094   0.255   1.348   5.876
  712SOL    HW1 4095   0.159   1.349   5.849
  712SOL    HW2 4096   0.267   1.401   5.960
  713SOL     OW 4097   0.672   0.203   7.075
  713SOL    HW1 4098   0.762   0.187   7.035
  713SOL    HW2 4099   0.680   0.208   7.174
  714SOL     OW 4100   1.440   0.856   6.984
  714SOL    HW1 4101   1.383   0.908   6.921
  714SOL    HW2 4102   1.536   0.868   6.960
  715SOL     OW 4103   1.183   1.335   5.705
  715SOL    HW1 4104   1.084   1.324   5.707
  715SOL    HW2 4105   1.217   1.350   5.798
  716SOL     OW 4106   0.613   0.842   7.017
  716SOL    HW1 4107   0.669   0.923   7.000
  716SOL    HW2 4108   0.672   0.762   7.020
  717SOL     OW 4109   1.493   1.767   6.545
  717SOL    HW1 4110   1.526   1.831   6.476
  717SOL    HW2 4111   1.559   1.761   6.620
  718SOL     OW 4112   0.716   0.565   7.294
  718SOL    HW1 4113   0.735   0.630   7.368
  718SOL    HW2 4114   0.776   0.485   7.303
  719SOL     OW 4115   1.450   1.220   7.219
  719SOL    HW1 4116   1.441   1.210   7.318
  719SOL    HW2 4117   1.546   1.213   7.193
  720SOL     OW 4118   0.390   1.741   7.146
  720SOL    HW1 4119   0.299   1.782   7.144
  720SOL    HW2 4120   0.383   1.647   7.178
  721SOL     OW 4121   1.674   0.883   6.840
  721SOL    HW1 4122   1.647   0.794   6.803
  721SOL    HW2 4123   1.675   0.951   6.767
  722SOL     OW 4124   1.225   0.325   6.035
  722SOL    HW1 4125   1.290   0.251   6.024
  722SOL    HW2 4126   1.245   0.375   6.119
  723SOL     OW 4127   0.594   0.745   6.238
  723SOL    HW1 4128   0.644   0.830   6.219
  723SOL    HW2 4129   0.506   0.747   6.190
  724SOL     OW 4130   1.777   0.342   7.228
  724SOL    HW1 4131   1.760   0.373   7.134
  724SOL    HW2 4132   1.693   0.305   7.266
  725SOL     OW 4133   1.730   0.934   7.103
  725SOL    HW1 4134   1.768   1.025   7.118
  725SOL    HW2 4135   1.722   0.917   7.004
  726SOL     OW 4136   0.859   1.374   5.602
  726SOL    HW1 4137   0.813   1.389   5.690
  726SOL    HW2 4138   0.903   1.459   5.572
  727SOL     OW 4139   0.661   1.790   6.539
  727SOL    HW1 4140   0.615   1.878   6.526
  727SOL    HW2 4141   0.760   1.802   6.532
  728SOL     OW 4142   1.408   1.851   7.306
  728SOL    HW1 4143   1.312   1.840   7.279
  728SOL    HW2 4144   1.464   1.784   7.258
  729SOL     OW 4145   0.859   0.956   6.447
  729SOL    HW1 4146   0.913   0.887   6.495
  729SOL    HW2 4147   0.827   1.025   6.513
  730SOL     OW 4148   1.083   0.984   5.673
  730SOL    HW1 4149   1.060   1.037   5.591
  730SOL    HW2 4150   1.164   0.928   5.654
  731SOL     OW 4151   1.861   1.569   6.437
  731SOL    HW1 4152   1.790   1.557   6.367
  731SOL    HW2 4153   1.862   1.490   6.497
  732SOL     OW 4154   0.672   1.391   7.210
  732SOL    HW1 4155   0.594   1.341   7.248
  732SOL    HW2 4156   0.669   1.486   7.241
  733SOL     OW 4157   1.824   0.192   6.813
  733SOL    HW1 4158   1.820   0.102   6.857
  733SOL    HW2 4159   1.827   0.181   6.714
  734SOL     OW 4160   0.428   0.424   6.106
  734SOL    HW1 4161   0.458   0.352   6.044
  734SOL    HW2 4162   0.389   0.384   6.189
  735SOL     OW 4163   1.705   1.487   6.690
  735SOL    HW1 4164   1.612   1.462   6.663
  735SOL    HW2 4165   1.731   1.437   6.772
  736SOL     OW 4166   0.812   1.586   6.273
  736SOL    HW1 4167   0.844   1.596   6.179
  736SOL    HW2 4168   0.733   1.524   6.275
  737SOL     OW 4169   1.424   0.214   6.698
  737SOL    HW1 4170   1.476   0.149   6.753
  737SOL    HW2 4171   1.375   0.277   6.759
  738SOL     OW 4172   1.001   0.034   6.740
  738SOL    HW1 4173   0.938  -0.038   6.709
  738SOL    HW2 4174   1.094  -0.002   6.740
  739SOL     OW 4175   0.770   1.330   5.887
  739SOL    HW1 4176   0.724   1.243   5.904
  739SOL    HW2 4177   0.861   1.327   5.928
  740SOL     OW 4178   0.618   1.567   6.870
  740SOL    HW1 4179   0.613   1.649   6.927
  740SOL    HW2 4180   0.707   1.564   6.825
  741SOL     OW 4181   1.352   0.052   5.754
  741SOL    HW1 4182   1.387   0.011   5.670
  741SOL    HW2 4183   1.262   0.014   5.774
  742SOL     OW 4184   1.300   0.453   6.277
  742SOL    HW1 4185   1.241   0.533   6.281
  742SOL    HW2 4186   1.315   0.418   6.370
  743SOL     OW 4187   1.593   0.221   6.468
  743SOL    HW1 4188   1.509   0.220   6.522
  743SOL    HW2 4189   1.595   0.304   6.412
  744SOL     OW 4190   0.875   1.646   5.923
  744SOL    HW1 4191   0.798   1.611   5.869
  744SOL    HW2 4192   0.843   1.717   5.985
  745SOL     OW 4193   0.019   0.368   8.095
  745SOL    HW1 4194  -0.063   0.411   8.134
  745SOL    HW2 4195  -0.009   0.295   8.032
  746SOL     OW 4196   0.569   1.275   8.613
  746SOL    HW1 4197   0.476   1.268   8.576
  746SOL    HW2 4198   0.580   1.364   8.657
  747SOL     OW 4199   1.555   1.511   8.151
  747SOL    HW1 4200   1.498   1.495   8.232
  747SOL    HW2 4201   1.496   1.521   8.071
  748SOL     OW 4202   1.743   0.618   8.304
  748SOL    HW1 4203   1.776   0.712   8.304
  748SOL    HW2 4204   1.794   0.564   8.370
  749SOL     OW 4205   1.135   0.703   8.165
  749SOL    HW1 4206   1.192   0.781   8.140
  749SOL    HW2 4207   1.075   0.729   8.241
  750SOL     OW 4208   1.755   0.607   7.679
  750SOL    HW1 4209   1.743   0.594   7.580
  750SOL    HW2 4210   1.725   0.526   7.728
  751SOL     OW 4211   0.768   1.144   8.471
  751SOL    HW1 4212   0.690   1.161   8.531
  751SOL    HW2 4213   0.802   1.231   8.435
  752SOL     OW 4214   0.685   1.012   8.113
  752SOL    HW1 4215   0.754   0.996   8.183
  752SOL    HW2 4216   0.612   1.069   8.151
  753SOL     OW 4217   0.335   1.435   8.509
  753SOL    HW1 4218   0.257   1.404   8.456
  753SOL    HW2 4219   0.393   1.493   8.452
  754SOL     OW 4220   1.460   1.505   8.787
  754SOL    HW1 4221   1.484   1.599   8.813
  754SOL    HW2 4222   1.444   1.451   8.869
  755SOL     OW 4223   0.438   0.392   8.947
  755SOL    HW1 4224   0.520   0.336   8.956
  755SOL    HW2 4225   0.357   0.334   8.951
  756SOL     OW 4226   1.603   0.447   8.185
  756SOL    HW1 4227   1.529   0.493   8.135
  756SOL    HW2 4228   1.654   0.515   8.238
  757SOL     OW 4229   0.620   1.786   8.887
  757SOL    HW1 4230   0.528   1.769   8.922
  757SOL    HW2 4231   0.648   1.878   8.913
  758SOL     OW 4232   0.606   0.964   7.571
  758SOL    HW1 4233   0.613   1.048   7.517
  758SOL    HW2 4234   0.652   0.977   7.659
  759SOL     OW 4235   1.594   0.114   8.928
  759SOL    HW1 4236   1.576   0.181   8.856
  759SOL    HW2 4237   1.591   0.160   9.017
  760SOL     OW 4238   1.842   1.767   7.807
  760SOL    HW1 4239   1.896   1.738   7.887
  760SOL    HW2 4240   1.872   1.857   7.778
  761SOL     OW 4241   1.689   0.922   8.060
  761SOL    HW1 4242   1.784   0.893   8.068
  761SOL    HW2 4243   1.681   0.987   7.985
  762SOL     OW 4244   1.641   1.108   7.880
  762SOL    HW1 4245   1.727   1.110   7.828
  762SOL    HW2 4246   1.655   1.155   7.968
  763SOL     OW 4247   0.613   1.365   8.174
  763SOL    HW1 4248   0.564   1.278   8.183
  763SOL    HW2 4249   0.590   1.408   8.087
  764SOL     OW 4250   0.809   0.004   7.950
  764SOL    HW1 4251   0.849   0.095   7.941
  764SOL    HW2 4252   0.709   0.012   7.956
  765SOL     OW 4253   1.525   0.999   7.638
  765SOL    HW1 4254   1.462   0.923   7.651
  765SOL    HW2 4255   1.573   1.017   7.724
  766SOL     OW 4256   1.466   1.417   8.401
  766SOL    HW1 4257   1.407   1.423   8.481
  766SOL    HW2 4258   1.451   1.329   8.355
  767SOL     OW 4259   1.667   1.714   8.020
  767SOL    HW1 4260   1.626   1.691   7.932
  767SOL    HW2 4261   1.649   1.640   8.085
  768SOL     OW 4262   0.598   0.729   7.718
  768SOL    HW1 4263   0.622   0.798   7.650
  768SOL    HW2 4264   0.520   0.762   7.772
  769SOL     OW 4265   1.281   0.345   8.392
  769SOL    HW1 4266   1.195   0.295   8.379
  769SOL    HW2 4267   1.343   0.291   8.448
  770SOL     OW 4268   1.576   1.662   7.755
  770SOL    HW1 4269   1.665   1.708   7.758
  770SOL    HW2 4270   1.555   1.638   7.660
  771SOL     OW 4271   0.807   0.605   8.913
  771SOL    HW1 4272   0.760   0.602   9.002
  771SOL    HW2 4273   0.756   0.550   8.847
  772SOL     OW 4274   0.991   0.410   8.690
  772SOL    HW1 4275   0.914   0.444   8.744
  772SOL    HW2 4276   0.957   0.359   8.611
  773SOL     OW 4277   1.041   0.701   7.877
  773SOL    HW1 4278   1.067   0.697   7.973
  773SOL    HW2 4279   0.956   0.650   7.863
  774SOL     OW 4280   0.865   0.348   7.643
  774SOL    HW1 4281   0.924   0.411   7.594
  774SOL    HW2 4282   0.884   0.254   7.614
  775SOL     OW 4283   1.362   1.144   7.993
  775SOL    HW1 4284   1.445   1.115   7.945
  775SOL    HW2 4285   1.313   1.211   7.937
  776SOL     OW 4286   0.550   0.196   8.333
  776SOL    HW1 4287   0.545   0.191   8.433
  776SOL    HW2 4288   0.552   0.292   8.304
  777SOL     OW 4289   1.008   1.456   7.925
  777SOL    HW1 4290   0.962   1.528   7.873
  777SOL    HW2 4291   1.004   1.476   8.023
  778SOL     OW 4292   0.351   1.801   8.301
  778SOL    HW1 4293   0.401   1.715   8.307
  778SOL    HW2 4294   0.416   1.878   8.298
  779SOL     OW 4295   1.795   1.066   8.321
  779SOL    HW1 4296   1.733   1.051   8.245
  779SOL    HW2 4297   1.743   1.077   8.406
  780SOL     OW 4298   0.321   0.943   7.690
  780SOL    HW1 4299   0.403   0.982   7.648
  780SOL    HW2 4300   0.294   0.861   7.641
  781SOL     OW 4301   1.458   0.735   8.176
  781SOL    HW1 4302   1.453   0.670   8.251
  781SOL    HW2 4303   1.538   0.794   8.189
  782SOL     OW 4304   1.111   1.776   7.685
  782SOL    HW1 4305   1.051   1.714   7.735
  782SOL    HW2 4306   1.142   1.732   7.600
  783SOL     OW 4307   1.632   1.377   7.529
  783SOL    HW1 4308   1.600   1.471   7.519
  783SOL    HW2 4309   1.556   1.314   7.517
  784SOL     OW 4310   0.464   1.743   7.771
  784SOL    HW1 4311   0.497   1.782   7.857
  784SOL    HW2 4312   0.540   1.736   7.706
  785SOL     OW 4313   1.400   0.107   7.874
  785SOL    HW1 4314   1.376   0.070   7.784
  785SOL    HW2 4315   1.499   0.123   7.878
  786SOL     OW 4316   0.940   1.698   8.352
  786SOL    HW1 4317   1.020   1.641   8.373
  786SOL    HW2 4318   0.891   1.658   8.275
  787SOL     OW 4319   0.382   0.700   7.928
  787SOL    HW1 4320   0.427   0.610   7.925
  787SOL    HW2 4321   0.288   0.689   7.961
  788SOL     OW 4322   0.614   0.122   7.565
  788SOL    HW1 4323   0.712   0.100   7.572
  788SOL    HW2 4324   0.583   0.105   7.472
  789SOL     OW 4325   0.888   1.514   8.643
  789SOL    HW1 4326   0.865   1.489   8.549
  789SOL    HW2 4327   0.949   1.445   8.682
  790SOL     OW 4328   0.803   1.402   8.372
  790SOL    HW1 4329   0.893   1.416   8.330
  790SOL    HW2 4330   0.732   1.404   8.301
  791SOL     OW 4331   0.922   0.503   8.347
  791SOL    HW1 4332   0.897   0.494   8.251
  791SOL    HW2 4333   0.970   0.421   8.378
  792SOL     OW 4334   0.539   0.064   7.960
  792SOL    HW1 4335   0.458   0.065   8.018
  792SOL    HW2 4336   0.542   0.147   7.905
  793SOL     OW 4337   1.434   1.188   7.489
  793SOL    HW1 4338   1.466   1.112   7.546
  793SOL    HW2 4339   1.342   1.215   7.519
  794SOL     OW 4340   0.297   0.035   7.619
  794SOL    HW1 4341   0.346   0.119   7.598
  794SOL    HW2 4342   0.359  -0.030   7.664
  795SOL     OW 4343   0.935   0.236   7.928
  795SOL    HW1 4344   0.887   0.277   7.850
  795SOL    HW2 4345   1.034   0.234   7.909
  796SOL     OW 4346   1.227   1.570   8.241
  796SOL    HW1 4347   1.248   1.644   8.176
  796SOL    HW2 4348   1.295   1.570   8.314
  797SOL     OW 4349   0.459   1.152   8.189
  797SOL    HW1 4350   0.388   1.125   8.254
  797SOL    HW2 4351   0.433   1.124   8.096
  798SOL     OW 4352   1.271   1.797   8.039
  798SOL    HW1 4353   1.315   1.861   7.975
  798SOL    HW2 4354   1.221   1.849   8.109
  799SOL     OW 4355   1.032   0.549   7.464
  799SOL    HW1 4356   0.991   0.631   7.425
  799SOL    HW2 4357   1.096   0.575   7.537
  800SOL     OW 4358   0.561   0.222   8.595
  800SOL    HW1 4359   0.599   0.138   8.632
  800SOL    HW2 4360   0.473   0.241   8.639
  801SOL     OW 4361   0.866   0.454   8.090
  801SOL    HW1 4362   0.834   0.526   8.028
  801SOL    HW2 4363   0.890   0.373   8.037
  802SOL     OW 4364   1.017   0.039   8.201
  802SOL    HW1 4365   0.945   0.044   8.132
  802SOL    HW2 4366   0.993  -0.030   8.270
  803SOL     OW 4367   1.429   1.173   8.315
  803SOL    HW1 4368   1.374   1.089   8.308
  803SOL    HW2 4369   1.455   1.202   8.223
  804SOL     OW 4370   1.466   0.590   8.440
  804SOL    HW1 4371   1.436   0.495   8.447
  804SOL    HW2 4372   1.539   0.606   8.506
  805SOL     OW 4373   1.857   0.833   7.825
  805SOL    HW1 4374   1.899   0.769   7.889
  805SOL    HW2 4375   1.819   0.782   7.747
  806SOL     OW 4376   0.488   1.385   7.622
  806SOL    HW1 4377   0.401   1.370   7.669
  806SOL    HW2 4378   0.471   1.411   7.527
  807SOL     OW 4379   1.664   1.280   8.105
  807SOL    HW1 4380   1.763   1.288   8.119
  807SOL    HW2 4381   1.619   1.364   8.136
  808SOL     OW 4382   1.390   0.575   7.526
  808SOL    HW1 4383   1.336   0.554   7.607
  808SOL    HW2 4384   1.481   0.534   7.535
  809SOL     OW 4385   0.527   0.256   7.776
  809SOL    HW1 4386   0.554   0.197   7.701
  809SOL    HW2 4387   0.527   0.351   7.745
  810SOL     OW 4388   1.064   1.347   8.788
  810SOL    HW1 4389   0.984   1.324   8.843
  810SOL    HW2 4390   1.147   1.321   8.837
  811SOL     OW 4391   1.111   1.195   8.548
  811SOL    HW1 4392   1.071   1.239   8.629
  811SOL    HW2 4393   1.070   1.232   8.465
  812SOL     OW 4394   1.638   1.099   8.527
  812SOL    HW1 4395   1.643   1.180   8.586
  812SOL    HW2 4396   1.552   1.101   8.476
  813SOL     OW 4397   0.915   0.089   8.850
  813SOL    HW1 4398   0.940   0.069   8.755
  813SOL    HW2 4399   0.987   0.145   8.892
  814SOL     OW 4400   0.705   1.050   7.816
  814SOL    HW1 4401   0.691   1.057   7.915
  814SOL    HW2 4402   0.789   0.999   7.798
  815SOL     OW 4403   0.410   0.813   8.699
  815SOL    HW1 4404   0.496   0.825   8.749
  815SOL    HW2 4405   0.368   0.726   8.726
  816SOL     OW 4406   1.274   0.386   8.710
  816SOL    HW1 4407   1.295   0.460   8.774
  816SOL    HW2 4408   1.185   0.403   8.667
  817SOL     OW 4409   0.367   1.100   7.949
  817SOL    HW1 4410   0.360   1.183   7.893
  817SOL    HW2 4411   0.371   1.020   7.889
  818SOL     OW 4412   0.566   0.537   8.313
  818SOL    HW1 4413   0.578   0.603   8.239
  818SOL    HW2 4414   0.612   0.571   8.396
  819SOL     OW 4415   1.252   1.348   7.836
  819SOL    HW1 4416   1.302   1.425   7.876
  819SOL    HW2 4417   1.157   1.350   7.868
  820SOL     OW 4418   1.272   1.445   8.590
  820SOL    HW1 4419   1.319   1.458   8.677
  820SOL    HW2 4420   1.206   1.371   8.599
  821SOL     OW 4421   1.582   0.639   7.920
  821SOL    HW1 4422   1.551   0.700   7.993
  821SOL    HW2 4423   1.632   0.691   7.851
  822SOL     OW 4424   0.354   1.510   8.777
  822SOL    HW1 4425   0.333   1.466   8.690
  822SOL    HW2 4426   0.451   1.536   8.780
  823SOL     OW 4427   0.402   0.751   0.046
  823SOL    HW1 4428   0.470   0.806  -0.001
  823SOL    HW2 4429   0.442   0.663   0.073
  824SOL     OW 4430   1.587   0.779   0.118
  824SOL    HW1 4431   1.495   0.817   0.113
  824SOL    HW2 4432   1.647   0.826   0.053
  825SOL     OW 4433   0.573   0.870   8.477
  825SOL    HW1 4434   0.617   0.959   8.468
  825SOL    HW2 4435   0.510   0.870   8.554
  826SOL     OW 4436   1.360   0.862   8.493
  826SOL    HW1 4437   1.285   0.862   8.427
  826SOL    HW2 4438   1.397   0.770   8.502
  827SOL     OW 4439   1.209   0.525   7.723
  827SOL    HW1 4440   1.222   0.441   7.777
  827SOL    HW2 4441   1.180   0.599   7.783
  828SOL     OW 4442   0.732   0.634   8.512
  828SOL    HW1 4443   0.791   0.608   8.436
  828SOL    HW2 4444   0.704   0.730   8.501
  829SOL     OW 4445   0.307   0.063   8.066
  829SOL    HW1 4446   0.296   0.157   8.099
  829SOL    HW2 4447   0.302   0.000   8.143
  830SOL     OW 4448   1.622   0.367   7.822
  830SOL    HW1 4449   1.624   0.291   7.886
  830SOL    HW2 4450   1.574   0.444   7.862
  831SOL     OW 4451   1.023   0.766   8.414
  831SOL    HW1 4452   1.038   0.787   8.510
  831SOL    HW2 4453   0.993   0.671   8.405
  832SOL     OW 4454   0.980   1.573   0.148
  832SOL    HW1 4455   0.960   1.617   0.060
  832SOL    HW2 4456   1.019   1.482   0.132
  833SOL     OW 4457   1.859   1.518   0.053
  833SOL    HW1 4458   1.873   1.545  -0.042
  833SOL    HW2 4459   1.942   1.540   0.106
  834SOL     OW 4460   1.540   0.274   7.573
  834SOL    HW1 4461   1.479   0.199   7.596
  834SOL    HW2 4462   1.562   0.326   7.656
  835SOL     OW 4463   1.303   0.838   7.490
  835SOL    HW1 4464   1.337   0.745   7.505
  835SOL    HW2 4465   1.321   0.865   7.395
  836SOL     OW 4466   1.068   1.333   8.297
  836SOL    HW1 4467   1.075   1.249   8.242
  836SOL    HW2 4468   1.130   1.402   8.261
  837SOL     OW 4469   0.319   0.810   8.397
  837SOL    HW1 4470   0.412   0.846   8.402
  837SOL    HW2 4471   0.313   0.725   8.449
  838SOL     OW 4472   1.138   0.380   0.126
  838SOL    HW1 4473   1.093   0.443   0.190
  838SOL    HW2 4474   1.231   0.411   0.109
  839SOL     OW 4475   1.160   0.207   8.925
  839SOL    HW1 4476   1.160   0.271   9.002
  839SOL    HW2 4477   1.188   0.255   8.842
  840SOL     OW 4478   0.504   1.568   8.358
  840SOL    HW1 4479   0.570   1.642   8.367
  840SOL    HW2 4480   0.548   1.489   8.316
  841SOL     OW 4481   1.002   0.796   8.686
  841SOL    HW1 4482   1.043   0.764   8.772
  841SOL    HW2 4483   0.906   0.769   8.683
  842SOL     OW 4484   0.815   0.572   7.773
  842SOL    HW1 4485   0.822   0.483   7.727
  842SOL    HW2 4486   0.721   0.606   7.765
  843SOL     OW 4487   1.657   0.604   8.654
  843SOL    HW1 4488   1.619   0.535   8.716
  843SOL    HW2 4489   1.739   0.568   8.610
  844SOL     OW 4490   0.671   0.464   8.717
  844SOL    HW1 4491   0.637   0.375   8.687
  844SOL    HW2 4492   0.697   0.518   8.637
  845SOL     OW 4493   0.930   1.678   8.913
  845SOL    HW1 4494   0.906   1.660   8.818
  845SOL    HW2 4495   0.960   1.772   8.923
  846SOL     OW 4496   0.473   0.500   7.639
  846SOL    HW1 4497   0.534   0.580   7.643
  846SOL    HW2 4498   0.378   0.531   7.646
  847SOL     OW 4499   1.347   1.059   8.682
  847SOL    HW1 4500   1.371   0.996   8.608
  847SOL    HW2 4501   1.257   1.099   8.664
  848SOL     OW 4502   1.302   0.855   7.757
  848SOL    HW1 4503   1.216   0.824   7.799
  848SOL    HW2 4504   1.298   0.841   7.658
  849SOL     OW 4505   1.759   1.747   8.602
  849SOL    HW1 4506   1.820   1.777   8.529
  849SOL    HW2 4507   1.721   1.658   8.580
  850SOL     OW 4508   1.252   1.731   8.576
  850SOL    HW1 4509   1.336   1.736   8.522
  850SOL    HW2 4510   1.229   1.635   8.594
  851SOL     OW 4511   1.726   0.135   7.971
  851SOL    HW1 4512   1.799   0.118   7.904
  851SOL    HW2 4513   1.695   0.048   8.009
  852SOL     OW 4514   1.388   1.573   7.925
  852SOL    HW1 4515   1.455   1.585   7.851
  852SOL    HW2 4516   1.348   1.662   7.948
  853SOL     OW 4517   1.280   0.927   8.120
  853SOL    HW1 4518   1.340   0.846   8.122
  853SOL    HW2 4519   1.320   0.996   8.060
  854SOL     OW 4520   0.672   1.616   7.602
  854SOL    HW1 4521   0.681   1.626   7.503
  854SOL    HW2 4522   0.632   1.527   7.623
  855SOL     OW 4523   1.650   1.720   8.842
  855SOL    HW1 4524   1.703   1.730   8.758
  855SOL    HW2 4525   1.623   1.810   8.876
  856SOL     OW 4526   1.841   0.175   8.411
  856SOL    HW1 4527   1.880   0.090   8.375
  856SOL    HW2 4528   1.743   0.177   8.392
  857SOL     OW 4529   0.263   0.326   8.168
  857SOL    HW1 4530   0.184   0.377   8.134
  857SOL    HW2 4531   0.254   0.311   8.266
  858SOL     OW 4532   1.194   1.612   7.479
  858SOL    HW1 4533   1.200   1.519   7.516
  858SOL    HW2 4534   1.135   1.612   7.399
  859SOL     OW 4535   0.822   1.002   8.820
  859SOL    HW1 4536   0.862   1.001   8.728
  859SOL    HW2 4537   0.832   1.094   8.860
  860SOL     OW 4538   0.916   0.910   7.739
  860SOL    HW1 4539   0.979   0.948   7.671
  860SOL    HW2 4540   0.956   0.827   7.778
  861SOL     OW 4541   1.504   1.607   7.492
  861SOL    HW1 4542   1.412   1.644   7.499
  861SOL    HW2 4543   1.542   1.627   7.402
  862SOL     OW 4544   0.372   1.288   8.938
  862SOL    HW1 4545   0.359   1.381   8.904
  862SOL    HW2 4546   0.288   1.236   8.925
  863SOL     OW 4547   1.614   1.292   8.737
  863SOL    HW1 4548   1.674   1.295   8.817
  863SOL    HW2 4549   1.539   1.356   8.750
  864SOL     OW 4550   1.039   1.098   8.144
  864SOL    HW1 4551   0.969   1.051   8.198
  864SOL    HW2 4552   1.098   1.030   8.101
  865SOL     OW 4553   1.014   0.236   8.419
  865SOL    HW1 4554   1.006   0.200   8.326
  865SOL    HW2 4555   1.012   0.160   8.484
  866SOL     OW 4556   0.590   1.487   7.939
  866SOL    HW1 4557   0.632   1.429   7.869
  866SOL    HW2 4558   0.546   1.566   7.895
  867SOL     OW 4559   1.709   0.385   8.829
  867SOL    HW1 4560   1.782   0.454   8.833
  867SOL    HW2 4561   1.737   0.310   8.770
  868SOL     OW 4562   0.255   1.348   7.738
  868SOL    HW1 4563   0.159   1.349   7.711
  868SOL    HW2 4564   0.267   1.401   7.822
  869SOL     OW 4565   1.440   0.856   8.846
  869SOL    HW1 4566   1.383   0.908   8.783
  869SOL    HW2 4567   1.536   0.868   8.822
  870SOL     OW 4568   1.183   1.335   7.567
  870SOL    HW1 4569   1.084   1.324   7.569
  870SOL    HW2 4570   1.217   1.350   7.660
  871SOL     OW 4571   0.613   0.842   8.879
  871SOL    HW1 4572   0.669   0.923   8.862
  871SOL    HW2 4573   0.672   0.762   8.882
  872SOL     OW 4574   1.493   1.767   8.407
  872SOL    HW1 4575   1.526   1.831   8.338
  872SOL    HW2 4576   1.559   1.761   8.482
  873SOL     OW 4577   0.390   1.741   0.008
  873SOL    HW1 4578   0.299   1.782   0.006
  873SOL    HW2 4579   0.383   1.647   0.040
  874SOL     OW 4580   1.674   0.883   8.702
  874SOL    HW1 4581   1.647   0.794   8.665
  874SOL    HW2 4582   1.675   0.951   8.629
  875SOL     OW 4583   1.225   0.325   7.897
  875SOL    HW1 4584   1.290   0.251   7.886
  875SOL    HW2 4585   1.245   0.375   7.981
  876SOL     OW 4586   0.594   0.745   8.100
  876SOL    HW1 4587   0.644   0.830   8.081
  876SOL    HW2 4588   0.506   0.747   8.052
  877SOL     OW 4589   1.777   0.342   0.090
  877SOL    HW1 4590   1.760   0.373  -0.004
  877SOL    HW2 4591   1.693   0.305   0.128
  878SOL     OW 4592   1.730   0.934   8.965
  878SOL    HW1 4593   1.768   1.025   8.980
  878SOL    HW2 4594   1.722   0.917   8.866
  879SOL     OW 4595   0.859   1.374   7.464
  879SOL    HW1 4596   0.813   1.389   7.552
  879SOL    HW2 4597   0.903   1.459   7.434
  880SOL     OW 4598   0.661   1.790   8.401
  880SOL    HW1 4599   0.615   1.878   8.388
  880SOL    HW2 4600   0.760   1.802   8.394
  881SOL     OW 4601   1.408   1.851   0.168
  881SOL    HW1 4602   1.312   1.840   0.141
  881SOL    HW2 4603   1.464   1.784   0.120
  882SOL     OW 4604   0.859   0.956   8.309
  882SOL    HW1 4605   0.913   0.887   8.357
  882SOL    HW2 4606   0.827   1.025   8.375
  883SOL     OW 4607   1.083   0.984   7.535
  883SOL    HW1 4608   1.060   1.037   7.453
  883SOL    HW2 4609   1.164   0.928   7.516
  884SOL     OW 4610   1.861   1.569   8.299
  884SOL    HW1 4611   1.790   1.557   8.229
  884SOL    HW2 4612   1.862   1.490   8.359
  885SOL     OW 4613   1.824   0.192   8.675
  885SOL    HW1 4614   1.820   0.102   8.719
  885SOL    HW2 4615   1.827   0.181   8.576
  886SOL     OW 4616   0.428   0.424   7.968
  886SOL    HW1 4617   0.458   0.352   7.906
  886SOL    HW2 4618   0.389   0.384   8.051
  887SOL     OW 4619   1.705   1.487   8.552
  887SOL    HW1 4620   1.612   1.462   8.525
  887SOL    HW2 4621   1.731   1.437   8.634
  888SOL     OW 4622   0.812   1.586   8.135
  888SOL    HW1 4623   0.844   1.596   8.041
  888SOL    HW2 4624   0.733   1.524   8.137
  889SOL     OW 4625   1.424   0.214   8.560
  889SOL    HW1 4626   1.476   0.149   8.615
  889SOL    HW2 4627   1.375   0.277   8.621
  890SOL     OW 4628   1.001   0.034   8.602
  890SOL    HW1 4629   0.938  -0.038   8.571
  890SOL    HW2 4630   1.094  -0.002   8.602
  891SOL     OW 4631   0.770   1.330   7.749
  891SOL    HW1 4632   0.724   1.243   7.766
  891SOL    HW2 4633   0.861   1.327   7.790
  892SOL     OW 4634   0.618   1.567   8.732
  892SOL    HW1 4635   0.613   1.649   8.789
  892SOL    HW2 4636   0.707   1.564   8.687
  893SOL     OW 4637   1.352   0.052   7.616
  893SOL    HW1 4638   1.387   0.011   7.532
  893SOL    HW2 4639   1.262   0.014   7.636
  894SOL     OW 4640   1.300   0.453   8.139
  894SOL    HW1 4641   1.241   0.533   8.143
  894SOL    HW2 4642   1.315   0.418   8.232
  895SOL     OW 4643   1.593   0.221   8.330
  895SOL    HW1 4644   1.509   0.220   8.384
  895SOL    HW2 4645   1.595   0.304   8.274
  896SOL     OW 4646   0.875   1.646   7.785
  896SOL    HW1 4647   0.798   1.611   7.731
  896SOL    HW2 4648   0.843   1.717   7.847
  897SOL     OW 4649   0.019   2.230   0.647
  897SOL    HW1 4650  -0.063   2.273   0.686
  897SOL    HW2 4651  -0.009   2.157   0.584
  898SOL     OW 4652   0.569   3.137   1.165
  898SOL    HW1 4653   0.476   3.130   1.128
  898SOL    HW2 4654   0.580   3.226   1.209
  899SOL     OW 4655   1.555   3.373   0.703
  899SOL    HW1 4656   1.498   3.357   0.784
  899SOL    HW2 4657   1.496   3.383   0.623
  900SOL     OW 4658   1.743   2.480   0.856
  900SOL    HW1 4659   1.776   2.574   0.856
  900SOL    HW2 4660   1.794   2.426   0.922
  901SOL     OW 4661   1.135   2.565   0.717
  901SOL    HW1 4662   1.192   2.643   0.692
  901SOL    HW2 4663   1.075   2.591   0.793
  902SOL     OW 4664   1.755   2.469   0.231
  902SOL    HW1 4665   1.743   2.456   0.132
  902SOL    HW2 4666   1.725   2.388   0.280
  903SOL     OW 4667   0.768   3.006   1.023
  903SOL    HW1 4668   0.690   3.023   1.083
  903SOL    HW2 4669   0.802   3.093   0.987
  904SOL     OW 4670   0.850   2.660   1.823
  904SOL    HW1 4671   0.846   2.736   1.888
  904SOL    HW2 4672   0.872   2.696   1.732
  905SOL     OW 4673   0.685   2.874   0.665
  905SOL    HW1 4674   0.754   2.858   0.735
  905SOL    HW2 4675   0.612   2.931   0.703
  906SOL     OW 4676   0.686   3.023   1.803
  906SOL    HW1 4677   0.746   3.102   1.817
  906SOL    HW2 4678   0.600   3.054   1.762
  907SOL     OW 4679   0.335   3.297   1.061
  907SOL    HW1 4680   0.257   3.266   1.008
  907SOL    HW2 4681   0.393   3.355   1.004
  908SOL     OW 4682   1.460   3.367   1.339
  908SOL    HW1 4683   1.484   3.461   1.365
  908SOL    HW2 4684   1.444   3.313   1.421
  909SOL     OW 4685   0.438   2.254   1.499
  909SOL    HW1 4686   0.520   2.198   1.508
  909SOL    HW2 4687   0.357   2.196   1.503
  910SOL     OW 4688   1.603   2.309   0.737
  910SOL    HW1 4689   1.529   2.355   0.687
  910SOL    HW2 4690   1.654   2.377   0.790
  911SOL     OW 4691   1.127   3.203   1.690
  911SOL    HW1 4692   1.174   3.203   1.778
  911SOL    HW2 4693   1.079   3.116   1.679
  912SOL     OW 4694   0.620   3.648   1.439
  912SOL    HW1 4695   0.528   3.631   1.474
  912SOL    HW2 4696   0.648   3.740   1.465
  913SOL     OW 4697   0.606   2.826   0.123
  913SOL    HW1 4698   0.613   2.910   0.069
  913SOL    HW2 4699   0.652   2.839   0.211
  914SOL     OW 4700   1.594   1.976   1.480
  914SOL    HW1 4701   1.576   2.043   1.408
  914SOL    HW2 4702   1.591   2.022   1.569
  915SOL     OW 4703   1.842   3.629   0.359
  915SOL    HW1 4704   1.896   3.600   0.439
  915SOL    HW2 4705   1.872   3.719   0.330
  916SOL     OW 4706   1.689   2.784   0.612
  916SOL    HW1 4707   1.784   2.755   0.620
  916SOL    HW2 4708   1.681   2.849   0.537
  917SOL     OW 4709   1.641   2.970   0.432
  917SOL    HW1 4710   1.727   2.972   0.380
  917SOL    HW2 4711   1.655   3.017   0.520
  918SOL     OW 4712   0.613   3.227   0.726
  918SOL    HW1 4713   0.564   3.140   0.735
  918SOL    HW2 4714   0.590   3.270   0.639
  919SOL     OW 4715   1.293   3.090   1.423
  919SOL    HW1 4716   1.330   3.017   1.365
  919SOL    HW2 4717   1.345   3.095   1.508
  920SOL     OW 4718   0.809   1.866   0.502
  920SOL    HW1 4719   0.849   1.957   0.493
  920SOL    HW2 4720   0.709   1.874   0.508
  921SOL     OW 4721   1.525   2.861   0.190
  921SOL    HW1 4722   1.462   2.785   0.203
  921SOL    HW2 4723   1.573   2.879   0.276
  922SOL     OW 4724   1.187   3.654   1.616
  922SOL    HW1 4725   1.211   3.714   1.540
  922SOL    HW2 4726   1.194   3.559   1.586
  923SOL     OW 4727   0.317   2.113   1.801
  923SOL    HW1 4728   0.388   2.184   1.807
  923SOL    HW2 4729   0.229   2.152   1.829
  924SOL     OW 4730   1.466   3.279   0.953
  924SOL    HW1 4731   1.407   3.285   1.033
  924SOL    HW2 4732   1.451   3.191   0.907
  925SOL     OW 4733   1.667   3.576   0.572
  925SOL    HW1 4734   1.626   3.553   0.484
  925SOL    HW2 4735   1.649   3.502   0.637
  926SOL     OW 4736   0.598   2.591   0.270
  926SOL    HW1 4737   0.622   2.660   0.202
  926SOL    HW2 4738   0.520   2.624   0.324
  927SOL     OW 4739   1.281   2.207   0.944
  927SOL    HW1 4740   1.195   2.157   0.931
  927SOL    HW2 4741   1.343   2.153   1.000
  928SOL     OW 4742   1.576   3.524   0.307
  928SOL    HW1 4743   1.665   3.570   0.310
  928SOL    HW2 4744   1.555   3.500   0.212
  929SOL     OW 4745   0.807   2.467   1.465
  929SOL    HW1 4746   0.760   2.464   1.554
  929SOL    HW2 4747   0.756   2.412   1.399
  930SOL     OW 4748   1.394   2.331   1.674
  930SOL    HW1 4749   1.374   2.374   1.762
  930SOL    HW2 4750   1.472   2.269   1.683
  931SOL     OW 4751   0.973   2.752   1.572
  931SOL    HW1 4752   1.019   2.668   1.543
  931SOL    HW2 4753   0.917   2.786   1.497
  932SOL     OW 4754   0.991   2.272   1.242
  932SOL    HW1 4755   0.914   2.306   1.296
  932SOL    HW2 4756   0.957   2.221   1.163
  933SOL     OW 4757   1.041   2.563   0.429
  933SOL    HW1 4758   1.067   2.559   0.525
  933SOL    HW2 4759   0.956   2.512   0.415
  934SOL     OW 4760   0.865   2.210   0.195
  934SOL    HW1 4761   0.924   2.273   0.146
  934SOL    HW2 4762   0.884   2.116   0.166
  935SOL     OW 4763   1.719   2.447   1.831
  935SOL    HW1 4764   1.693   2.536   1.795
  935SOL    HW2 4765   1.717   2.379   1.758
  936SOL     OW 4766   1.362   3.006   0.545
  936SOL    HW1 4767   1.445   2.977   0.497
  936SOL    HW2 4768   1.313   3.073   0.489
  937SOL     OW 4769   0.550   2.058   0.885
  937SOL    HW1 4770   0.545   2.053   0.985
  937SOL    HW2 4771   0.552   2.154   0.856
  938SOL     OW 4772   1.008   3.318   0.477
  938SOL    HW1 4773   0.962   3.390   0.425
  938SOL    HW2 4774   1.004   3.338   0.575
  939SOL     OW 4775   0.351   3.663   0.853
  939SOL    HW1 4776   0.401   3.577   0.859
  939SOL    HW2 4777   0.416   3.740   0.850
  940SOL     OW 4778   1.795   2.928   0.873
  940SOL    HW1 4779   1.733   2.913   0.797
  940SOL    HW2 4780   1.743   2.939   0.958
  941SOL     OW 4781   1.227   3.412   1.506
  941SOL    HW1 4782   1.233   3.335   1.570
  941SOL    HW2 4783   1.175   3.386   1.426
  942SOL     OW 4784   0.321   2.805   0.242
  942SOL    HW1 4785   0.403   2.844   0.200
  942SOL    HW2 4786   0.294   2.723   0.193
  943SOL     OW 4787   1.458   2.597   0.728
  943SOL    HW1 4788   1.453   2.532   0.803
  943SOL    HW2 4789   1.538   2.656   0.741
  944SOL     OW 4790   0.461   3.128   1.727
  944SOL    HW1 4791   0.411   3.129   1.641
  944SOL    HW2 4792   0.398   3.110   1.803
  945SOL     OW 4793   1.111   3.638   0.237
  945SOL    HW1 4794   1.051   3.576   0.287
  945SOL    HW2 4795   1.142   3.594   0.152
  946SOL     OW 4796   1.632   3.239   0.081
  946SOL    HW1 4797   1.600   3.333   0.071
  946SOL    HW2 4798   1.556   3.176   0.069
  947SOL     OW 4799   0.464   3.605   0.323
  947SOL    HW1 4800   0.497   3.644   0.409
  947SOL    HW2 4801   0.540   3.598   0.258
  948SOL     OW 4802   1.400   1.969   0.426
  948SOL    HW1 4803   1.376   1.932   0.336
  948SOL    HW2 4804   1.499   1.985   0.430
  949SOL     OW 4805   0.940   3.560   0.904
  949SOL    HW1 4806   1.020   3.503   0.925
  949SOL    HW2 4807   0.891   3.520   0.827
  950SOL     OW 4808   0.382   2.562   0.480
  950SOL    HW1 4809   0.427   2.472   0.477
  950SOL    HW2 4810   0.288   2.551   0.513
  951SOL     OW 4811   1.547   2.084   1.729
  951SOL    HW1 4812   1.542   2.121   1.821
  951SOL    HW2 4813   1.475   2.015   1.717
  952SOL     OW 4814   0.614   1.984   0.117
  952SOL    HW1 4815   0.712   1.962   0.124
  952SOL    HW2 4816   0.583   1.967   0.024
  953SOL     OW 4817   0.781   2.126   1.749
  953SOL    HW1 4818   0.848   2.065   1.792
  953SOL    HW2 4819   0.708   2.145   1.814
  954SOL     OW 4820   0.888   3.376   1.195
  954SOL    HW1 4821   0.865   3.351   1.101
  954SOL    HW2 4822   0.949   3.307   1.234
  955SOL     OW 4823   1.351   2.452   1.433
  955SOL    HW1 4824   1.379   2.409   1.518
  955SOL    HW2 4825   1.376   2.548   1.434
  956SOL     OW 4826   0.803   3.264   0.924
  956SOL    HW1 4827   0.893   3.278   0.882
  956SOL    HW2 4828   0.732   3.266   0.853
  957SOL     OW 4829   0.922   2.365   0.899
  957SOL    HW1 4830   0.897   2.356   0.803
  957SOL    HW2 4831   0.970   2.283   0.930
  958SOL     OW 4832   0.539   1.926   0.512
  958SOL    HW1 4833   0.458   1.927   0.570
  958SOL    HW2 4834   0.542   2.009   0.457
  959SOL     OW 4835   1.434   3.050   0.041
  959SOL    HW1 4836   1.466   2.974   0.098
  959SOL    HW2 4837   1.342   3.077   0.071
  960SOL     OW 4838   0.297   1.897   0.171
  960SOL    HW1 4839   0.346   1.981   0.150
  960SOL    HW2 4840   0.359   1.832   0.216
  961SOL     OW 4841   0.935   2.098   0.480
  961SOL    HW1 4842   0.887   2.139   0.402
  961SOL    HW2 4843   1.034   2.096   0.461
  962SOL     OW 4844   1.076   2.545   1.464
  962SOL    HW1 4845   0.996   2.484   1.467
  962SOL    HW2 4846   1.157   2.492   1.440
  963SOL     OW 4847   1.227   3.432   0.793
  963SOL    HW1 4848   1.248   3.506   0.728
  963SOL    HW2 4849   1.295   3.432   0.866
  964SOL     OW 4850   0.459   3.014   0.741
  964SOL    HW1 4851   0.388   2.987   0.806
  964SOL    HW2 4852   0.433   2.986   0.648
  965SOL     OW 4853   1.271   3.659   0.591
  965SOL    HW1 4854   1.315   3.723   0.527
  965SOL    HW2 4855   1.221   3.711   0.661
  966SOL     OW 4856   1.032   2.411   0.016
  966SOL    HW1 4857   0.991   2.493  -0.023
  966SOL    HW2 4858   1.096   2.437   0.089
  967SOL     OW 4859   0.561   2.084   1.147
  967SOL    HW1 4860   0.599   2.000   1.184
  967SOL    HW2 4861   0.473   2.103   1.191
  968SOL     OW 4862   0.866   2.316   0.642
  968SOL    HW1 4863   0.834   2.388   0.580
  968SOL    HW2 4864   0.890   2.235   0.589
  969SOL     OW 4865   1.017   1.901   0.753
  969SOL    HW1 4866   0.945   1.906   0.684
  969SOL    HW2 4867   0.993   1.832   0.822
  970SOL     OW 4868   1.429   3.035   0.867
  970SOL    HW1 4869   1.374   2.951   0.860
  970SOL    HW2 4870   1.455   3.064   0.775
  971SOL     OW 4871   1.466   2.452   0.992
  971SOL    HW1 4872   1.436   2.357   0.999
  971SOL    HW2 4873   1.539   2.468   1.058
  972SOL     OW 4874   1.857   2.695   0.377
  972SOL    HW1 4875   1.899   2.631   0.441
  972SOL    HW2 4876   1.819   2.644   0.299
  973SOL     OW 4877   0.488   3.247   0.174
  973SOL    HW1 4878   0.401   3.232   0.221
  973SOL    HW2 4879   0.471   3.273   0.079
  974SOL     OW 4880   1.664   3.142   0.657
  974SOL    HW1 4881   1.763   3.150   0.671
  974SOL    HW2 4882   1.619   3.226   0.688
  975SOL     OW 4883   1.390   2.437   0.078
  975SOL    HW1 4884   1.336   2.416   0.159
  975SOL    HW2 4885   1.481   2.396   0.087
  976SOL     OW 4886   0.527   2.118   0.328
  976SOL    HW1 4887   0.554   2.059   0.253
  976SOL    HW2 4888   0.527   2.213   0.297
  977SOL     OW 4889   1.754   3.085   1.588
  977SOL    HW1 4890   1.845   3.046   1.575
  977SOL    HW2 4891   1.762   3.181   1.612
  978SOL     OW 4892   1.064   3.209   1.340
  978SOL    HW1 4893   0.984   3.186   1.395
  978SOL    HW2 4894   1.147   3.183   1.389
  979SOL     OW 4895   1.592   3.491   1.625
  979SOL    HW1 4896   1.619   3.525   1.535
  979SOL    HW2 4897   1.671   3.453   1.671
  980SOL     OW 4898   1.111   3.057   1.100
  980SOL    HW1 4899   1.071   3.101   1.181
  980SOL    HW2 4900   1.070   3.094   1.017
  981SOL     OW 4901   1.638   2.961   1.079
  981SOL    HW1 4902   1.643   3.042   1.138
  981SOL    HW2 4903   1.552   2.963   1.028
  982SOL     OW 4904   0.915   1.951   1.402
  982SOL    HW1 4905   0.940   1.931   1.307
  982SOL    HW2 4906   0.987   2.007   1.444
  983SOL     OW 4907   0.980   2.978   1.719
  983SOL    HW1 4908   0.881   2.984   1.729
  983SOL    HW2 4909   1.003   2.898   1.663
  984SOL     OW 4910   0.705   2.912   0.368
  984SOL    HW1 4911   0.691   2.919   0.467
  984SOL    HW2 4912   0.789   2.861   0.350
  985SOL     OW 4913   0.410   2.675   1.251
  985SOL    HW1 4914   0.496   2.687   1.301
  985SOL    HW2 4915   0.368   2.588   1.278
  986SOL     OW 4916   1.274   2.248   1.262
  986SOL    HW1 4917   1.295   2.322   1.326
  986SOL    HW2 4918   1.185   2.265   1.219
  987SOL     OW 4919   0.367   2.962   0.501
  987SOL    HW1 4920   0.360   3.045   0.445
  987SOL    HW2 4921   0.371   2.882   0.441
  988SOL     OW 4922   0.566   2.399   0.865
  988SOL    HW1 4923   0.578   2.465   0.791
  988SOL    HW2 4924   0.612   2.433   0.948
  989SOL     OW 4925   1.252   3.210   0.388
  989SOL    HW1 4926   1.302   3.287   0.428
  989SOL    HW2 4927   1.157   3.212   0.420
  990SOL     OW 4928   1.272   3.307   1.142
  990SOL    HW1 4929   1.319   3.320   1.229
  990SOL    HW2 4930   1.206   3.233   1.151
  991SOL     OW 4931   1.582   2.501   0.472
  991SOL    HW1 4932   1.551   2.562   0.545
  991SOL    HW2 4933   1.632   2.553   0.403
  992SOL     OW 4934   0.354   3.372   1.329
  992SOL    HW1 4935   0.333   3.328   1.242
  992SOL    HW2 4936   0.451   3.398   1.332
  993SOL     OW 4937   0.402   2.613   1.598
  993SOL    HW1 4938   0.470   2.668   1.551
  993SOL    HW2 4939   0.442   2.525   1.625
  994SOL     OW 4940   1.587   2.641   1.670
  994SOL    HW1 4941   1.495   2.679   1.665
  994SOL    HW2 4942   1.647   2.688   1.605
  995SOL     OW 4943   1.013   1.967   1.770
  995SOL    HW1 4944   1.019   2.052   1.718
  995SOL    HW2 4945   1.045   1.891   1.713
  996SOL     OW 4946   0.504   1.912   1.740
  996SOL    HW1 4947   0.462   1.855   1.670
  996SOL    HW2 4948   0.438   1.981   1.772
  997SOL     OW 4949   0.573   2.732   1.029
  997SOL    HW1 4950   0.617   2.821   1.020
  997SOL    HW2 4951   0.510   2.732   1.106
  998SOL     OW 4952   1.360   2.724   1.045
  998SOL    HW1 4953   1.285   2.724   0.979
  998SOL    HW2 4954   1.397   2.632   1.054
  999SOL     OW 4955   1.209   2.387   0.275
  999SOL    HW1 4956   1.222   2.303   0.329
  999SOL    HW2 4957   1.180   2.461   0.335
 1000SOL     OW 4958   0.732   2.496   1.064
 1000SOL    HW1 4959   0.791   2.470   0.988
 1000SOL    HW2 4960   0.704   2.592   1.053
 1001SOL     OW 4961   1.728   2.797   1.854
 1001SOL    HW1 4962   1.682   2.790   1.765
 1001SOL    HW2 4963   1.666   2.841   1.920
 1002SOL     OW 4964   0.307   1.925   0.618
 1002SOL    HW1 4965   0.296   2.019   0.651
 1002SOL    HW2 4966   0.302   1.862   0.695
 1003SOL     OW 4967   1.622   2.229   0.374
 1003SOL    HW1 4968   1.624   2.153   0.438
 1003SOL    HW2 4969   1.574   2.306   0.414
 1004SOL     OW 4970   1.023   2.628   0.966
 1004SOL    HW1 4971   1.038   2.649   1.062
 1004SOL    HW2 4972   0.993   2.533   0.957
 1005SOL     OW 4973   0.980   3.435   1.700
 1005SOL    HW1 4974   0.960   3.479   1.612
 1005SOL    HW2 4975   1.019   3.344   1.684
 1006SOL     OW 4976   1.859   3.380   1.605
 1006SOL    HW1 4977   1.873   3.407   1.510
 1006SOL    HW2 4978   1.942   3.402   1.658
 1007SOL     OW 4979   0.350   2.760   1.804
 1007SOL    HW1 4980   0.426   2.804   1.852
 1007SOL    HW2 4981   0.385   2.713   1.722
 1008SOL     OW 4982   1.540   2.136   0.125
 1008SOL    HW1 4983   1.479   2.061   0.148
 1008SOL    HW2 4984   1.562   2.188   0.208
 1009SOL     OW 4985   1.303   2.700   0.042
 1009SOL    HW1 4986   1.337   2.607   0.057
 1009SOL    HW2 4987   1.321   2.727  -0.053
 1010SOL     OW 4988   1.068   3.195   0.849
 1010SOL    HW1 4989   1.075   3.111   0.794
 1010SOL    HW2 4990   1.130   3.264   0.813
 1011SOL     OW 4991   0.319   2.672   0.949
 1011SOL    HW1 4992   0.412   2.708   0.954
 1011SOL    HW2 4993   0.313   2.587   1.001
 1012SOL     OW 4994   1.138   2.242   1.678
 1012SOL    HW1 4995   1.093   2.305   1.742
 1012SOL    HW2 4996   1.231   2.273   1.661
 1013SOL     OW 4997   1.160   2.069   1.477
 1013SOL    HW1 4998   1.160   2.133   1.554
 1013SOL    HW2 4999   1.188   2.117   1.394
 1014SOL     OW 5000   0.504   3.430   0.910
 1014SOL    HW1 5001   0.570   3.504   0.919
 1014SOL    HW2 5002   0.548   3.351   0.868
 1015SOL     OW 5003   1.002   2.658   1.238
 1015SOL    HW1 5004   1.043   2.626   1.324
 1015SOL    HW2 5005   0.906   2.631   1.235
 1016SOL     OW 5006   1.369   2.812   1.660
 1016SOL    HW1 5007   1.408   2.901   1.680
 1016SOL    HW2 5008   1.379   2.792   1.563
 1017SOL     OW 5009   0.815   2.434   0.325
 1017SOL    HW1 5010   0.822   2.345   0.279
 1017SOL    HW2 5011   0.721   2.468   0.317
 1018SOL     OW 5012   1.657   2.466   1.206
 1018SOL    HW1 5013   1.619   2.397   1.268
 1018SOL    HW2 5014   1.739   2.430   1.162
 1019SOL     OW 5015   0.671   2.326   1.269
 1019SOL    HW1 5016   0.637   2.237   1.239
 1019SOL    HW2 5017   0.697   2.380   1.189
 1020SOL     OW 5018   0.930   3.540   1.465
 1020SOL    HW1 5019   0.906   3.522   1.370
 1020SOL    HW2 5020   0.960   3.634   1.475
 1021SOL     OW 5021   0.473   2.362   0.191
 1021SOL    HW1 5022   0.534   2.442   0.195
 1021SOL    HW2 5023   0.378   2.393   0.198
 1022SOL     OW 5024   1.347   2.921   1.234
 1022SOL    HW1 5025   1.371   2.858   1.160
 1022SOL    HW2 5026   1.257   2.961   1.216
 1023SOL     OW 5027   1.302   2.717   0.309
 1023SOL    HW1 5028   1.216   2.686   0.351
 1023SOL    HW2 5029   1.298   2.703   0.210
 1024SOL     OW 5030   1.759   3.609   1.154
 1024SOL    HW1 5031   1.820   3.639   1.081
 1024SOL    HW2 5032   1.721   3.520   1.132
 1025SOL     OW 5033   1.252   3.593   1.128
 1025SOL    HW1 5034   1.336   3.598   1.074
 1025SOL    HW2 5035   1.229   3.497   1.146
 1026SOL     OW 5036   0.688   3.524   1.716
 1026SOL    HW1 5037   0.632   3.605   1.725
 1026SOL    HW2 5038   0.740   3.528   1.630
 1027SOL     OW 5039   0.903   1.948   0.133
 1027SOL    HW1 5040   0.954   1.949   0.047
 1027SOL    HW2 5041   0.959   1.906   0.204
 1028SOL     OW 5042   1.726   1.997   0.523
 1028SOL    HW1 5043   1.799   1.980   0.456
 1028SOL    HW2 5044   1.695   1.910   0.561
 1029SOL     OW 5045   1.388   3.435   0.477
 1029SOL    HW1 5046   1.455   3.447   0.403
 1029SOL    HW2 5047   1.348   3.524   0.500
 1030SOL     OW 5048   0.130   3.656   1.851
 1030SOL    HW1 5049   0.089   3.582   1.904
 1030SOL    HW2 5050   0.194   3.707   1.909
 1031SOL     OW 5051   1.280   2.789   0.672
 1031SOL    HW1 5052   1.340   2.708   0.674
 1031SOL    HW2 5053   1.320   2.858   0.612
 1032SOL     OW 5054   0.830   3.135   1.422
 1032SOL    HW1 5055   0.825   3.168   1.517
 1032SOL    HW2 5056   0.744   3.154   1.376
 1033SOL     OW 5057   0.672   3.478   0.154
 1033SOL    HW1 5058   0.681   3.488   0.055
 1033SOL    HW2 5059   0.632   3.389   0.175
 1034SOL     OW 5060   1.650   3.582   1.394
 1034SOL    HW1 5061   1.703   3.592   1.310
 1034SOL    HW2 5062   1.623   3.672   1.428
 1035SOL     OW 5063   1.841   2.037   0.963
 1035SOL    HW1 5064   1.880   1.952   0.927
 1035SOL    HW2 5065   1.743   2.039   0.944
 1036SOL     OW 5066   0.263   2.188   0.720
 1036SOL    HW1 5067   0.184   2.239   0.686
 1036SOL    HW2 5068   0.254   2.173   0.818
 1037SOL     OW 5069   1.194   3.474   0.031
 1037SOL    HW1 5070   1.200   3.381   0.068
 1037SOL    HW2 5071   1.135   3.474  -0.049
 1038SOL     OW 5072   0.822   2.864   1.372
 1038SOL    HW1 5073   0.862   2.863   1.280
 1038SOL    HW2 5074   0.832   2.956   1.412
 1039SOL     OW 5075   0.916   2.772   0.291
 1039SOL    HW1 5076   0.979   2.810   0.223
 1039SOL    HW2 5077   0.956   2.689   0.330
 1040SOL     OW 5078   1.504   3.469   0.044
 1040SOL    HW1 5079   1.412   3.506   0.051
 1040SOL    HW2 5080   1.542   3.489  -0.046
 1041SOL     OW 5081   0.372   3.150   1.490
 1041SOL    HW1 5082   0.359   3.243   1.456
 1041SOL    HW2 5083   0.288   3.098   1.477
 1042SOL     OW 5084   1.614   3.154   1.289
 1042SOL    HW1 5085   1.674   3.157   1.369
 1042SOL    HW2 5086   1.539   3.218   1.302
 1043SOL     OW 5087   1.039   2.960   0.696
 1043SOL    HW1 5088   0.969   2.913   0.750
 1043SOL    HW2 5089   1.098   2.892   0.653
 1044SOL     OW 5090   1.014   2.098   0.971
 1044SOL    HW1 5091   1.006   2.062   0.878
 1044SOL    HW2 5092   1.012   2.022   1.036
 1045SOL     OW 5093   0.590   3.349   0.491
 1045SOL    HW1 5094   0.632   3.291   0.421
 1045SOL    HW2 5095   0.546   3.428   0.447
 1046SOL     OW 5096   1.709   2.247   1.381
 1046SOL    HW1 5097   1.782   2.316   1.385
 1046SOL    HW2 5098   1.737   2.172   1.322
 1047SOL     OW 5099   0.255   3.210   0.290
 1047SOL    HW1 5100   0.159   3.211   0.263
 1047SOL    HW2 5101   0.267   3.263   0.374
 1048SOL     OW 5102   0.672   2.065   1.489
 1048SOL    HW1 5103   0.762   2.049   1.449
 1048SOL    HW2 5104   0.680   2.070   1.588
 1049SOL     OW 5105   1.440   2.718   1.398
 1049SOL    HW1 5106   1.383   2.770   1.335
 1049SOL    HW2 5107   1.536   2.730   1.374
 1050SOL     OW 5108   1.183   3.197   0.119
 1050SOL    HW1 5109   1.084   3.186   0.121
 1050SOL    HW2 5110   1.217   3.212   0.212
 1051SOL     OW 5111   0.613   2.704   1.431
 1051SOL    HW1 5112   0.669   2.785   1.414
 1051SOL    HW2 5113   0.672   2.624   1.434
 1052SOL     OW 5114   1.493   3.629   0.959
 1052SOL    HW1 5115   1.526   3.693   0.890
 1052SOL    HW2 5116   1.559   3.623   1.034
 1053SOL     OW 5117   0.716   2.427   1.708
 1053SOL    HW1 5118   0.735   2.492   1.782
 1053SOL    HW2 5119   0.776   2.347   1.717
 1054SOL     OW 5120   1.450   3.082   1.633
 1054SOL    HW1 5121   1.441   3.072   1.732
 1054SOL    HW2 5122   1.546   3.075   1.607
 1055SOL     OW 5123   0.390   3.603   1.560
 1055SOL    HW1 5124   0.299   3.644   1.558
 1055SOL    HW2 5125   0.383   3.509   1.592
 1056SOL     OW 5126   1.674   2.745   1.254
 1056SOL    HW1 5127   1.647   2.656   1.217
 1056SOL    HW2 5128   1.675   2.813   1.181
 1057SOL     OW 5129   1.225   2.187   0.449
 1057SOL    HW1 5130   1.290   2.113   0.438
 1057SOL    HW2 5131   1.245   2.237   0.533
 1058SOL     OW 5132   0.594   2.607   0.652
 1058SOL    HW1 5133   0.644   2.692   0.633
 1058SOL    HW2 5134   0.506   2.609   0.604
 1059SOL     OW 5135   1.777   2.204   1.642
 1059SOL    HW1 5136   1.760   2.235   1.548
 1059SOL    HW2 5137   1.693   2.167   1.680
 1060SOL     OW 5138   1.730   2.796   1.517
 1060SOL    HW1 5139   1.768   2.887   1.532
 1060SOL    HW2 5140   1.722   2.779   1.418
 1061SOL     OW 5141   0.859   3.236   0.016
 1061SOL    HW1 5142   0.813   3.251   0.104
 1061SOL    HW2 5143   0.903   3.321  -0.014
 1062SOL     OW 5144   0.661   3.652   0.953
 1062SOL    HW1 5145   0.615   3.740   0.940
 1062SOL    HW2 5146   0.760   3.664   0.946
 1063SOL     OW 5147   1.408   3.713   1.720
 1063SOL    HW1 5148   1.312   3.702   1.693
 1063SOL    HW2 5149   1.464   3.646   1.672
 1064SOL     OW 5150   0.859   2.818   0.861
 1064SOL    HW1 5151   0.913   2.749   0.909
 1064SOL    HW2 5152   0.827   2.887   0.927
 1065SOL     OW 5153   1.083   2.846   0.087
 1065SOL    HW1 5154   1.060   2.899   0.005
 1065SOL    HW2 5155   1.164   2.790   0.068
 1066SOL     OW 5156   1.861   3.431   0.851
 1066SOL    HW1 5157   1.790   3.419   0.781
 1066SOL    HW2 5158   1.862   3.352   0.911
 1067SOL     OW 5159   0.672   3.253   1.624
 1067SOL    HW1 5160   0.594   3.203   1.662
 1067SOL    HW2 5161   0.669   3.348   1.655
 1068SOL     OW 5162   1.824   2.054   1.227
 1068SOL    HW1 5163   1.820   1.964   1.271
 1068SOL    HW2 5164   1.827   2.043   1.128
 1069SOL     OW 5165   0.428   2.286   0.520
 1069SOL    HW1 5166   0.458   2.214   0.458
 1069SOL    HW2 5167   0.389   2.246   0.603
 1070SOL     OW 5168   1.705   3.349   1.104
 1070SOL    HW1 5169   1.612   3.324   1.077
 1070SOL    HW2 5170   1.731   3.299   1.186
 1071SOL     OW 5171   0.812   3.448   0.687
 1071SOL    HW1 5172   0.844   3.458   0.593
 1071SOL    HW2 5173   0.733   3.386   0.689
 1072SOL     OW 5174   1.424   2.076   1.112
 1072SOL    HW1 5175   1.476   2.011   1.167
 1072SOL    HW2 5176   1.375   2.139   1.173
 1073SOL     OW 5177   1.001   1.896   1.154
 1073SOL    HW1 5178   0.938   1.824   1.123
 1073SOL    HW2 5179   1.094   1.860   1.154
 1074SOL     OW 5180   0.770   3.192   0.301
 1074SOL    HW1 5181   0.724   3.105   0.318
 1074SOL    HW2 5182   0.861   3.189   0.342
 1075SOL     OW 5183   0.618   3.429   1.284
 1075SOL    HW1 5184   0.613   3.511   1.341
 1075SOL    HW2 5185   0.707   3.426   1.239
 1076SOL     OW 5186   1.300   2.315   0.691
 1076SOL    HW1 5187   1.241   2.395   0.695
 1076SOL    HW2 5188   1.315   2.280   0.784
 1077SOL     OW 5189   1.593   2.083   0.882
 1077SOL    HW1 5190   1.509   2.082   0.936
 1077SOL    HW2 5191   1.595   2.166   0.826
 1078SOL     OW 5192   0.875   3.508   0.337
 1078SOL    HW1 5193   0.798   3.473   0.283
 1078SOL    HW2 5194   0.843   3.579   0.399
 1079SOL     OW 5195   0.019   2.230   2.509
 1079SOL    HW1 5196  -0.063   2.273   2.548
 1079SOL    HW2 5197  -0.009   2.157   2.446
 1080SOL     OW 5198   0.569   3.137   3.027
 1080SOL    HW1 5199   0.476   3.130   2.990
 1080SOL    HW2 5200   0.580   3.226   3.071
 1081SOL     OW 5201   1.555   3.373   2.565
 1081SOL    HW1 5202   1.498   3.357   2.646
 1081SOL    HW2 5203   1.496   3.383   2.485
 1082SOL     OW 5204   1.743   2.480   2.718
 1082SOL    HW1 5205   1.776   2.574   2.718
 1082SOL    HW2 5206   1.794   2.426   2.784
 1083SOL     OW 5207   1.135   2.565   2.579
 1083SOL    HW1 5208   1.192   2.643   2.554
 1083SOL    HW2 5209   1.075   2.591   2.655
 1084SOL     OW 5210   1.755   2.469   2.093
 1084SOL    HW1 5211   1.743   2.456   1.994
 1084SOL    HW2 5212   1.725   2.388   2.142
 1085SOL     OW 5213   0.768   3.006   2.885
 1085SOL    HW1 5214   0.690   3.023   2.945
 1085SOL    HW2 5215   0.802   3.093   2.849
 1086SOL     OW 5216   0.850   2.660   3.685
 1086SOL    HW1 5217   0.846   2.736   3.750
 1086SOL    HW2 5218   0.872   2.696   3.594
 1087SOL     OW 5219   0.685   2.874   2.527
 1087SOL    HW1 5220   0.754   2.858   2.597
 1087SOL    HW2 5221   0.612   2.931   2.565
 1088SOL     OW 5222   0.686   3.023   3.665
 1088SOL    HW1 5223   0.746   3.102   3.679
 1088SOL    HW2 5224   0.600   3.054   3.624
 1089SOL     OW 5225   0.335   3.297   2.923
 1089SOL    HW1 5226   0.257   3.266   2.870
 1089SOL    HW2 5227   0.393   3.355   2.866
 1090SOL     OW 5228   1.460   3.367   3.201
 1090SOL    HW1 5229   1.484   3.461   3.227
 1090SOL    HW2 5230   1.444   3.313   3.283
 1091SOL     OW 5231   0.438   2.254   3.361
 1091SOL    HW1 5232   0.520   2.198   3.370
 1091SOL    HW2 5233   0.357   2.196   3.365
 1092SOL     OW 5234   1.603   2.309   2.599
 1092SOL    HW1 5235   1.529   2.355   2.549
 1092SOL    HW2 5236   1.654   2.377   2.652
 1093SOL     OW 5237   1.127   3.203   3.552
 1093SOL    HW1 5238   1.174   3.203   3.640
 1093SOL    HW2 5239   1.079   3.116   3.541
 1094SOL     OW 5240   0.620   3.648   3.301
 1094SOL    HW1 5241   0.528   3.631   3.336
 1094SOL    HW2 5242   0.648   3.740   3.327
 1095SOL     OW 5243   0.606   2.826   1.985
 1095SOL    HW1 5244   0.613   2.910   1.931
 1095SOL    HW2 5245   0.652   2.839   2.073
 1096SOL     OW 5246   1.594   1.976   3.342
 1096SOL    HW1 5247   1.576   2.043   3.270
 1096SOL    HW2 5248   1.591   2.022   3.431
 1097SOL     OW 5249   1.842   3.629   2.221
 1097SOL    HW1 5250   1.896   3.600   2.301
 1097SOL    HW2 5251   1.872   3.719   2.192
 1098SOL     OW 5252   1.689   2.784   2.474
 1098SOL    HW1 5253   1.784   2.755   2.482
 1098SOL    HW2 5254   1.681   2.849   2.399
 1099SOL     OW 5255   1.641   2.970   2.294
 1099SOL    HW1 5256   1.727   2.972   2.242
 1099SOL    HW2 5257   1.655   3.017   2.382
 1100SOL     OW 5258   0.613   3.227   2.588
 1100SOL    HW1 5259   0.564   3.140   2.597
 1100SOL    HW2 5260   0.590   3.270   2.501
 1101SOL     OW 5261   1.293   3.090   3.285
 1101SOL    HW1 5262   1.330   3.017   3.227
 1101SOL    HW2 5263   1.345   3.095   3.370
 1102SOL     OW 5264   0.809   1.866   2.364
 1102SOL    HW1 5265   0.849   1.957   2.355
 1102SOL    HW2 5266   0.709   1.874   2.370
 1103SOL     OW 5267   1.525   2.861   2.052
 1103SOL    HW1 5268   1.462   2.785   2.065
 1103SOL    HW2 5269   1.573   2.879   2.138
 1104SOL     OW 5270   1.187   3.654   3.478
 1104SOL    HW1 5271   1.211   3.714   3.402
 1104SOL    HW2 5272   1.194   3.559   3.448
 1105SOL     OW 5273   0.317   2.113   3.663
 1105SOL    HW1 5274   0.388   2.184   3.669
 1105SOL    HW2 5275   0.229   2.152   3.691
 1106SOL     OW 5276   1.466   3.279   2.815
 1106SOL    HW1 5277   1.407   3.285   2.895
 1106SOL    HW2 5278   1.451   3.191   2.769
 1107SOL     OW 5279   1.667   3.576   2.434
 1107SOL    HW1 5280   1.626   3.553   2.346
 1107SOL    HW2 5281   1.649   3.502   2.499
 1108SOL     OW 5282   0.598   2.591   2.132
 1108SOL    HW1 5283   0.622   2.660   2.064
 1108SOL    HW2 5284   0.520   2.624   2.186
 1109SOL     OW 5285   1.281   2.207   2.806
 1109SOL    HW1 5286   1.195   2.157   2.793
 1109SOL    HW2 5287   1.343   2.153   2.862
 1110SOL     OW 5288   1.576   3.524   2.169
 1110SOL    HW1 5289   1.665   3.570   2.172
 1110SOL    HW2 5290   1.555   3.500   2.074
 1111SOL     OW 5291   0.807   2.467   3.327
 1111SOL    HW1 5292   0.760   2.464   3.416
 1111SOL    HW2 5293   0.756   2.412   3.261
 1112SOL     OW 5294   1.394   2.331   3.536
 1112SOL    HW1 5295   1.374   2.374   3.624
 1112SOL    HW2 5296   1.472   2.269   3.545
 1113SOL     OW 5297   0.973   2.752   3.434
 1113SOL    HW1 5298   1.019   2.668   3.405
 1113SOL    HW2 5299   0.917   2.786   3.359
 1114SOL     OW 5300   0.991   2.272   3.104
 1114SOL    HW1 5301   0.914   2.306   3.158
 1114SOL    HW2 5302   0.957   2.221   3.025
 1115SOL     OW 5303   1.041   2.563   2.291
 1115SOL    HW1 5304   1.067   2.559   2.387
 1115SOL    HW2 5305   0.956   2.512   2.277
 1116SOL     OW 5306   0.865   2.210   2.057
 1116SOL    HW1 5307   0.924   2.273   2.008
 1116SOL    HW2 5308   0.884   2.116   2.028
 1117SOL     OW 5309   1.719   2.447   3.693
 1117SOL    HW1 5310   1.693   2.536   3.657
 1117SOL    HW2 5311   1.717   2.379   3.620
 1118SOL     OW 5312   1.362   3.006   2.407
 1118SOL    HW1 5313   1.445   2.977   2.359
 1118SOL    HW2 5314   1.313   3.073   2.351
 1119SOL     OW 5315   0.550   2.058   2.747
 1119SOL    HW1 5316   0.545   2.053   2.847
 1119SOL    HW2 5317   0.552   2.154   2.718
 1120SOL     OW 5318   1.008   3.318   2.339
 1120SOL    HW1 5319   0.962   3.390   2.287
 1120SOL    HW2 5320   1.004   3.338   2.437
 1121SOL     OW 5321   0.351   3.663   2.715
 1121SOL    HW1 5322   0.401   3.577   2.721
 1121SOL    HW2 5323   0.416   3.740   2.712
 1122SOL     OW 5324   1.795   2.928   2.735
 1122SOL    HW1 5325   1.733   2.913   2.659
 1122SOL    HW2 5326   1.743   2.939   2.820
 1123SOL     OW 5327   1.227   3.412   3.368
 1123SOL    HW1 5328   1.233   3.335   3.432
 1123SOL    HW2 5329   1.175   3.386   3.288
 1124SOL     OW 5330   0.321   2.805   2.104
 1124SOL    HW1 5331   0.403   2.844   2.062
 1124SOL    HW2 5332   0.294   2.723   2.055
 1125SOL     OW 5333   1.458   2.597   2.590
 1125SOL    HW1 5334   1.453   2.532   2.665
 1125SOL    HW2 5335   1.538   2.656   2.603
 1126SOL     OW 5336   0.461   3.128   3.589
 1126SOL    HW1 5337   0.411   3.129   3.503
 1126SOL    HW2 5338   0.398   3.110   3.665
 1127SOL     OW 5339   1.111   3.638   2.099
 1127SOL    HW1 5340   1.051   3.576   2.149
 1127SOL    HW2 5341   1.142   3.594   2.014
 1128SOL     OW 5342   1.632   3.239   1.943
 1128SOL    HW1 5343   1.600   3.333   1.933
 1128SOL    HW2 5344   1.556   3.176   1.931
 1129SOL     OW 5345   0.464   3.605   2.185
 1129SOL    HW1 5346   0.497   3.644   2.271
 1129SOL    HW2 5347   0.540   3.598   2.120
 1130SOL     OW 5348   1.400   1.969   2.288
 1130SOL    HW1 5349   1.376   1.932   2.198
 1130SOL    HW2 5350   1.499   1.985   2.292
 1131SOL     OW 5351   0.940   3.560   2.766
 1131SOL    HW1 5352   1.020   3.503   2.787
 1131SOL    HW2 5353   0.891   3.520   2.689
 1132SOL     OW 5354   0.382   2.562   2.342
 1132SOL    HW1 5355   0.427   2.472   2.339
 1132SOL    HW2 5356   0.288   2.551   2.375
 1133SOL     OW 5357   1.547   2.084   3.591
 1133SOL    HW1 5358   1.542   2.121   3.683
 1133SOL    HW2 5359   1.475   2.015   3.579
 1134SOL     OW 5360   0.614   1.984   1.979
 1134SOL    HW1 5361   0.712   1.962   1.986
 1134SOL    HW2 5362   0.583   1.967   1.886
 1135SOL     OW 5363   0.781   2.126   3.611
 1135SOL    HW1 5364   0.848   2.065   3.654
 1135SOL    HW2 5365   0.708   2.145   3.676
 1136SOL     OW 5366   0.888   3.376   3.057
 1136SOL    HW1 5367   0.865   3.351   2.963
 1136SOL    HW2 5368   0.949   3.307   3.096
 1137SOL     OW 5369   1.351   2.452   3.295
 1137SOL    HW1 5370   1.379   2.409   3.380
 1137SOL    HW2 5371   1.376   2.548   3.296
 1138SOL     OW 5372   0.803   3.264   2.786
 1138SOL    HW1 5373   0.893   3.278   2.744
 1138SOL    HW2 5374   0.732   3.266   2.715
 1139SOL     OW 5375   0.922   2.365   2.761
 1139SOL    HW1 5376   0.897   2.356   2.665
 1139SOL    HW2 5377   0.970   2.283   2.792
 1140SOL     OW 5378   0.539   1.926   2.374
 1140SOL    HW1 5379   0.458   1.927   2.432
 1140SOL    HW2 5380   0.542   2.009   2.319
 1141SOL     OW 5381   1.434   3.050   1.903
 1141SOL    HW1 5382   1.466   2.974   1.960
 1141SOL    HW2 5383   1.342   3.077   1.933
 1142SOL     OW 5384   0.297   1.897   2.033
 1142SOL    HW1 5385   0.346   1.981   2.012
 1142SOL    HW2 5386   0.359   1.832   2.078
 1143SOL     OW 5387   0.935   2.098   2.342
 1143SOL    HW1 5388   0.887   2.139   2.264
 1143SOL    HW2 5389   1.034   2.096   2.323
 1144SOL     OW 5390   1.076   2.545   3.326
 1144SOL    HW1 5391   0.996   2.484   3.329
 1144SOL    HW2 5392   1.157   2.492   3.302
 1145SOL     OW 5393   1.227   3.432   2.655
 1145SOL    HW1 5394   1.248   3.506   2.590
 1145SOL    HW2 5395   1.295   3.432   2.728
 1146SOL     OW 5396   0.459   3.014   2.603
 1146SOL    HW1 5397   0.388   2.987   2.668
 1146SOL    HW2 5398   0.433   2.986   2.510
 1147SOL     OW 5399   1.271   3.659   2.453
 1147SOL    HW1 5400   1.315   3.723   2.389
 1147SOL    HW2 5401   1.221   3.711   2.523
 1148SOL     OW 5402   1.032   2.411   1.878
 1148SOL    HW1 5403   0.991   2.493   1.839
 1148SOL    HW2 5404   1.096   2.437   1.951
 1149SOL     OW 5405   0.561   2.084   3.009
 1149SOL    HW1 5406   0.599   2.000   3.046
 1149SOL    HW2 5407   0.473   2.103   3.053
 1150SOL     OW 5408   0.866   2.316   2.504
 1150SOL    HW1 5409   0.834   2.388   2.442
 1150SOL    HW2 5410   0.890   2.235   2.451
 1151SOL     OW 5411   1.017   1.901   2.615
 1151SOL    HW1 5412   0.945   1.906   2.546
 1151SOL    HW2 5413   0.993   1.832   2.684
 1152SOL     OW 5414   1.429   3.035   2.729
 1152SOL    HW1 5415   1.374   2.951   2.722
 1152SOL    HW2 5416   1.455   3.064   2.637
 1153SOL     OW 5417   1.466   2.452   2.854
 1153SOL    HW1 5418   1.436   2.357   2.861
 1153SOL    HW2 5419   1.539   2.468   2.920
 1154SOL     OW 5420   1.857   2.695   2.239
 1154SOL    HW1 5421   1.899   2.631   2.303
 1154SOL    HW2 5422   1.819   2.644   2.161
 1155SOL     OW 5423   0.488   3.247   2.036
 1155SOL    HW1 5424   0.401   3.232   2.083
 1155SOL    HW2 5425   0.471   3.273   1.941
 1156SOL     OW 5426   1.664   3.142   2.519
 1156SOL    HW1 5427   1.763   3.150   2.533
 1156SOL    HW2 5428   1.619   3.226   2.550
 1157SOL     OW 5429   1.390   2.437   1.940
 1157SOL    HW1 5430   1.336   2.416   2.021
 1157SOL    HW2 5431   1.481   2.396   1.949
 1158SOL     OW 5432   0.527   2.118   2.190
 1158SOL    HW1 5433   0.554   2.059   2.115
 1158SOL    HW2 5434   0.527   2.213   2.159
 1159SOL     OW 5435   1.754   3.085   3.450
 1159SOL    HW1 5436   1.845   3.046   3.437
 1159SOL    HW2 5437   1.762   3.181   3.474
 1160SOL     OW 5438   1.064   3.209   3.202
 1160SOL    HW1 5439   0.984   3.186   3.257
 1160SOL    HW2 5440   1.147   3.183   3.251
 1161SOL     OW 5441   1.592   3.491   3.487
 1161SOL    HW1 5442   1.619   3.525   3.397
 1161SOL    HW2 5443   1.671   3.453   3.533
 1162SOL     OW 5444   1.111   3.057   2.962
 1162SOL    HW1 5445   1.071   3.101   3.043
 1162SOL    HW2 5446   1.070   3.094   2.879
 1163SOL     OW 5447   1.638   2.961   2.941
 1163SOL    HW1 5448   1.643   3.042   3.000
 1163SOL    HW2 5449   1.552   2.963   2.890
 1164SOL     OW 5450   0.915   1.951   3.264
 1164SOL    HW1 5451   0.940   1.931   3.169
 1164SOL    HW2 5452   0.987   2.007   3.306
 1165SOL     OW 5453   0.980   2.978   3.581
 1165SOL    HW1 5454   0.881   2.984   3.591
 1165SOL    HW2 5455   1.003   2.898   3.525
 1166SOL     OW 5456   0.705   2.912   2.230
 1166SOL    HW1 5457   0.691   2.919   2.329
 1166SOL    HW2 5458   0.789   2.861   2.212
 1167SOL     OW 5459   0.410   2.675   3.113
 1167SOL    HW1 5460   0.496   2.687   3.163
 1167SOL    HW2 5461   0.368   2.588   3.140
 1168SOL     OW 5462   1.274   2.248   3.124
 1168SOL    HW1 5463   1.295   2.322   3.188
 1168SOL    HW2 5464   1.185   2.265   3.081
 1169SOL     OW 5465   0.367   2.962   2.363
 1169SOL    HW1 5466   0.360   3.045   2.307
 1169SOL    HW2 5467   0.371   2.882   2.303
 1170SOL     OW 5468   0.566   2.399   2.727
 1170SOL    HW1 5469   0.578   2.465   2.653
 1170SOL    HW2 5470   0.612   2.433   2.810
 1171SOL     OW 5471   1.252   3.210   2.250
 1171SOL    HW1 5472   1.302   3.287   2.290
 1171SOL    HW2 5473   1.157   3.212   2.282
 1172SOL     OW 5474   1.272   3.307   3.004
 1172SOL    HW1 5475   1.319   3.320   3.091
 1172SOL    HW2 5476   1.206   3.233   3.013
 1173SOL     OW 5477   1.582   2.501   2.334
 1173SOL    HW1 5478   1.551   2.562   2.407
 1173SOL    HW2 5479   1.632   2.553   2.265
 1174SOL     OW 5480   0.354   3.372   3.191
 1174SOL    HW1 5481   0.333   3.328   3.104
 1174SOL    HW2 5482   0.451   3.398   3.194
 1175SOL     OW 5483   0.402   2.613   3.460
 1175SOL    HW1 5484   0.470   2.668   3.413
 1175SOL    HW2 5485   0.442   2.525   3.487
 1176SOL     OW 5486   1.587   2.641   3.532
 1176SOL    HW1 5487   1.495   2.679   3.527
 1176SOL    HW2 5488   1.647   2.688   3.467
 1177SOL     OW 5489   1.013   1.967   3.632
 1177SOL    HW1 5490   1.019   2.052   3.580
 1177SOL    HW2 5491   1.045   1.891   3.575
 1178SOL     OW 5492   0.504   1.912   3.602
 1178SOL    HW1 5493   0.462   1.855   3.532
 1178SOL    HW2 5494   0.438   1.981   3.634
 1179SOL     OW 5495   0.573   2.732   2.891
 1179SOL    HW1 5496   0.617   2.821   2.882
 1179SOL    HW2 5497   0.510   2.732   2.968
 1180SOL     OW 5498   1.360   2.724   2.907
 1180SOL    HW1 5499   1.285   2.724   2.841
 1180SOL    HW2 5500   1.397   2.632   2.916
 1181SOL     OW 5501   1.209   2.387   2.137
 1181SOL    HW1 5502   1.222   2.303   2.191
 1181SOL    HW2 5503   1.180   2.461   2.197
 1182SOL     OW 5504   0.732   2.496   2.926
 1182SOL    HW1 5505   0.791   2.470   2.850
 1182SOL    HW2 5506   0.704   2.592   2.915
 1183SOL     OW 5507   1.728   2.797   3.716
 1183SOL    HW1 5508   1.682   2.790   3.627
 1183SOL    HW2 5509   1.666   2.841   3.782
 1184SOL     OW 5510   0.307   1.925   2.480
 1184SOL    HW1 5511   0.296   2.019   2.513
 1184SOL    HW2 5512   0.302   1.862   2.557
 1185SOL     OW 5513   1.622   2.229   2.236
 1185SOL    HW1 5514   1.624   2.153   2.300
 1185SOL    HW2 5515   1.574   2.306   2.276
 1186SOL     OW 5516   1.023   2.628   2.828
 1186SOL    HW1 5517   1.038   2.649   2.924
 1186SOL    HW2 5518   0.993   2.533   2.819
 1187SOL     OW 5519   0.980   3.435   3.562
 1187SOL    HW1 5520   0.960   3.479   3.474
 1187SOL    HW2 5521   1.019   3.344   3.546
 1188SOL     OW 5522   1.859   3.380   3.467
 1188SOL    HW1 5523   1.873   3.407   3.372
 1188SOL    HW2 5524   1.942   3.402   3.520
 1189SOL     OW 5525   0.350   2.760   3.666
 1189SOL    HW1 5526   0.426   2.804   3.714
 1189SOL    HW2 5527   0.385   2.713   3.584
 1190SOL     OW 5528   1.540   2.136   1.987
 1190SOL    HW1 5529   1.479   2.061   2.010
 1190SOL    HW2 5530   1.562   2.188   2.070
 1191SOL     OW 5531   1.303   2.700   1.904
 1191SOL    HW1 5532   1.337   2.607   1.919
 1191SOL    HW2 5533   1.321   2.727   1.809
 1192SOL     OW 5534   1.068   3.195   2.711
 1192SOL    HW1 5535   1.075   3.111   2.656
 1192SOL    HW2 5536   1.130   3.264   2.675
 1193SOL     OW 5537   0.319   2.672   2.811
 1193SOL    HW1 5538   0.412   2.708   2.816
 1193SOL    HW2 5539   0.313   2.587   2.863
 1194SOL     OW 5540   1.138   2.242   3.540
 1194SOL    HW1 5541   1.093   2.305   3.604
 1194SOL    HW2 5542   1.231   2.273   3.523
 1195SOL     OW 5543   1.160   2.069   3.339
 1195SOL    HW1 5544   1.160   2.133   3.416
 1195SOL    HW2 5545   1.188   2.117   3.256
 1196SOL     OW 5546   0.504   3.430   2.772
 1196SOL    HW1 5547   0.570   3.504   2.781
 1196SOL    HW2 5548   0.548   3.351   2.730
 1197SOL     OW 5549   1.002   2.658   3.100
 1197SOL    HW1 5550   1.043   2.626   3.186
 1197SOL    HW2 5551   0.906   2.631   3.097
 1198SOL     OW 5552   1.369   2.812   3.522
 1198SOL    HW1 5553   1.408   2.901   3.542
 1198SOL    HW2 5554   1.379   2.792   3.425
 1199SOL     OW 5555   0.815   2.434   2.187
 1199SOL    HW1 5556   0.822   2.345   2.141
 1199SOL    HW2 5557   0.721   2.468   2.179
 1200SOL     OW 5558   1.657   2.466   3.068
 1200SOL    HW1 5559   1.619   2.397   3.130
 1200SOL    HW2 5560   1.739   2.430   3.024
 1201SOL     OW 5561   0.671   2.326   3.131
 1201SOL    HW1 5562   0.637   2.237   3.101
 1201SOL    HW2 5563   0.697   2.380   3.051
 1202SOL     OW 5564   0.930   3.540   3.327
 1202SOL    HW1 5565   0.906   3.522   3.232
 1202SOL    HW2 5566   0.960   3.634   3.337
 1203SOL     OW 5567   0.473   2.362   2.053
 1203SOL    HW1 5568   0.534   2.442   2.057
 1203SOL    HW2 5569   0.378   2.393   2.060
 1204SOL     OW 5570   1.347   2.921   3.096
 1204SOL    HW1 5571   1.371   2.858   3.022
 1204SOL    HW2 5572   1.257   2.961   3.078
 1205SOL     OW 5573   1.302   2.717   2.171
 1205SOL    HW1 5574   1.216   2.686   2.213
 1205SOL    HW2 5575   1.298   2.703   2.072
 1206SOL     OW 5576   1.759   3.609   3.016
 1206SOL    HW1 5577   1.820   3.639   2.943
 1206SOL    HW2 5578   1.721   3.520   2.994
 1207SOL     OW 5579   1.252   3.593   2.990
 1207SOL    HW1 5580   1.336   3.598   2.936
 1207SOL    HW2 5581   1.229   3.497   3.008
 1208SOL     OW 5582   0.688   3.524   3.578
 1208SOL    HW1 5583   0.632   3.605   3.587
 1208SOL    HW2 5584   0.740   3.528   3.492
 1209SOL     OW 5585   0.903   1.948   1.995
 1209SOL    HW1 5586   0.954   1.949   1.909
 1209SOL    HW2 5587   0.959   1.906   2.066
 1210SOL     OW 5588   1.726   1.997   2.385
 1210SOL    HW1 5589   1.799   1.980   2.318
 1210SOL    HW2 5590   1.695   1.910   2.423
 1211SOL     OW 5591   1.388   3.435   2.339
 1211SOL    HW1 5592   1.455   3.447   2.265
 1211SOL    HW2 5593   1.348   3.524   2.362
 1212SOL     OW 5594   0.130   3.656   3.713
 1212SOL    HW1 5595   0.089   3.582   3.766
 1212SOL    HW2 5596   0.194   3.707   3.771
 1213SOL     OW 5597   1.280   2.789   2.534
 1213SOL    HW1 5598   1.340   2.708   2.536
 1213SOL    HW2 5599   1.320   2.858   2.474
 1214SOL     OW 5600   0.830   3.135   3.284
 1214SOL    HW1 5601   0.825   3.168   3.379
 1214SOL    HW2 5602   0.744   3.154   3.238
 1215SOL     OW 5603   0.672   3.478   2.016
 1215SOL    HW1 5604   0.681   3.488   1.917
 1215SOL    HW2 5605   0.632   3.389   2.037
 1216SOL     OW 5606   1.650   3.582   3.256
 1216SOL    HW1 5607   1.703   3.592   3.172
 1216SOL    HW2 5608   1.623   3.672   3.290
 1217SOL     OW 5609   1.841   2.037   2.825
 1217SOL    HW1 5610   1.880   1.952   2.789
 1217SOL    HW2 5611   1.743   2.039   2.806
 1218SOL     OW 5612   0.263   2.188   2.582
 1218SOL    HW1 5613   0.184   2.239   2.548
 1218SOL    HW2 5614   0.254   2.173   2.680
 1219SOL     OW 5615   1.194   3.474   1.893
 1219SOL    HW1 5616   1.200   3.381   1.930
 1219SOL    HW2 5617   1.135   3.474   1.813
 1220SOL     OW 5618   0.822   2.864   3.234
 1220SOL    HW1 5619   0.862   2.863   3.142
 1220SOL    HW2 5620   0.832   2.956   3.274
 1221SOL     OW 5621   0.916   2.772   2.153
 1221SOL    HW1 5622   0.979   2.810   2.085
 1221SOL    HW2 5623   0.956   2.689   2.192
 1222SOL     OW 5624   1.504   3.469   1.906
 1222SOL    HW1 5625   1.412   3.506   1.913
 1222SOL    HW2 5626   1.542   3.489   1.816
 1223SOL     OW 5627   0.372   3.150   3.352
 1223SOL    HW1 5628   0.359   3.243   3.318
 1223SOL    HW2 5629   0.288   3.098   3.339
 1224SOL     OW 5630   1.614   3.154   3.151
 1224SOL    HW1 5631   1.674   3.157   3.231
 1224SOL    HW2 5632   1.539   3.218   3.164
 1225SOL     OW 5633   1.039   2.960   2.558
 1225SOL    HW1 5634   0.969   2.913   2.612
 1225SOL    HW2 5635   1.098   2.892   2.515
 1226SOL     OW 5636   1.014   2.098   2.833
 1226SOL    HW1 5637   1.006   2.062   2.740
 1226SOL    HW2 5638   1.012   2.022   2.898
 1227SOL     OW 5639   0.590   3.349   2.353
 1227SOL    HW1 5640   0.632   3.291   2.283
 1227SOL    HW2 5641   0.546   3.428   2.309
 1228SOL     OW 5642   1.709   2.247   3.243
 1228SOL    HW1 5643   1.782   2.316   3.247
 1228SOL    HW2 5644   1.737   2.172   3.184
 1229SOL     OW 5645   0.255   3.210   2.152
 1229SOL    HW1 5646   0.159   3.211   2.125
 1229SOL    HW2 5647   0.267   3.263   2.236
 1230SOL     OW 5648   0.672   2.065   3.351
 1230SOL    HW1 5649   0.762   2.049   3.311
 1230SOL    HW2 5650   0.680   2.070   3.450
 1231SOL     OW 5651   1.440   2.718   3.260
 1231SOL    HW1 5652   1.383   2.770   3.197
 1231SOL    HW2 5653   1.536   2.730   3.236
 1232SOL     OW 5654   1.183   3.197   1.981
 1232SOL    HW1 5655   1.084   3.186   1.983
 1232SOL    HW2 5656   1.217   3.212   2.074
 1233SOL     OW 5657   0.613   2.704   3.293
 1233SOL    HW1 5658   0.669   2.785   3.276
 1233SOL    HW2 5659   0.672   2.624   3.296
 1234SOL     OW 5660   1.493   3.629   2.821
 1234SOL    HW1 5661   1.526   3.693   2.752
 1234SOL    HW2 5662   1.559   3.623   2.896
 1235SOL     OW 5663   0.716   2.427   3.570
 1235SOL    HW1 5664   0.735   2.492   3.644
 1235SOL    HW2 5665   0.776   2.347   3.579
 1236SOL     OW 5666   1.450   3.082   3.495
 1236SOL    HW1 5667   1.441   3.072   3.594
 1236SOL    HW2 5668   1.546   3.075   3.469
 1237SOL     OW 5669   0.390   3.603   3.422
 1237SOL    HW1 5670   0.299   3.644   3.420
 1237SOL    HW2 5671   0.383   3.509   3.454
 1238SOL     OW 5672   1.674   2.745   3.116
 1238SOL    HW1 5673   1.647   2.656   3.079
 1238SOL    HW2 5674   1.675   2.813   3.043
 1239SOL     OW 5675   1.225   2.187   2.311
 1239SOL    HW1 5676   1.290   2.113   2.300
 1239SOL    HW2 5677   1.245   2.237   2.395
 1240SOL     OW 5678   0.594   2.607   2.514
 1240SOL    HW1 5679   0.644   2.692   2.495
 1240SOL    HW2 5680   0.506   2.609   2.466
 1241SOL     OW 5681   1.777   2.204   3.504
 1241SOL    HW1 5682   1.760   2.235   3.410
 1241SOL    HW2 5683   1.693   2.167   3.542
 1242SOL     OW 5684   1.730   2.796   3.379
 1242SOL    HW1 5685   1.768   2.887   3.394
 1242SOL    HW2 5686   1.722   2.779   3.280
 1243SOL     OW 5687   0.859   3.236   1.878
 1243SOL    HW1 5688   0.813   3.251   1.966
 1243SOL    HW2 5689   0.903   3.321   1.848
 1244SOL     OW 5690   0.661   3.652   2.815
 1244SOL    HW1 5691   0.615   3.740   2.802
 1244SOL    HW2 5692   0.760   3.664   2.808
 1245SOL     OW 5693   1.408   3.713   3.582
 1245SOL    HW1 5694   1.312   3.702   3.555
 1245SOL    HW2 5695   1.464   3.646   3.534
 1246SOL     OW 5696   0.859   2.818   2.723
 1246SOL    HW1 5697   0.913   2.749   2.771
 1246SOL    HW2 5698   0.827   2.887   2.789
 1247SOL     OW 5699   1.083   2.846   1.949
 1247SOL    HW1 5700   1.060   2.899   1.867
 1247SOL    HW2 5701   1.164   2.790   1.930
 1248SOL     OW 5702   1.861   3.431   2.713
 1248SOL    HW1 5703   1.790   3.419   2.643
 1248SOL    HW2 5704   1.862   3.352   2.773
 1249SOL     OW 5705   0.672   3.253   3.486
 1249SOL    HW1 5706   0.594   3.203   3.524
 1249SOL    HW2 5707   0.669   3.348   3.517
 1250SOL     OW 5708   1.824   2.054   3.089
 1250SOL    HW1 5709   1.820   1.964   3.133
 1250SOL    HW2 5710   1.827   2.043   2.990
 1251SOL     OW 5711   0.428   2.286   2.382
 1251SOL    HW1 5712   0.458   2.214   2.320
 1251SOL    HW2 5713   0.389   2.246   2.465
 1252SOL     OW 5714   1.705   3.349   2.966
 1252SOL    HW1 5715   1.612   3.324   2.939
 1252SOL    HW2 5716   1.731   3.299   3.048
 1253SOL     OW 5717   0.812   3.448   2.549
 1253SOL    HW1 5718   0.844   3.458   2.455
 1253SOL    HW2 5719   0.733   3.386   2.551
 1254SOL     OW 5720   1.424   2.076   2.974
 1254SOL    HW1 5721   1.476   2.011   3.029
 1254SOL    HW2 5722   1.375   2.139   3.035
 1255SOL     OW 5723   1.001   1.896   3.016
 1255SOL    HW1 5724   0.938   1.824   2.985
 1255SOL    HW2 5725   1.094   1.860   3.016
 1256SOL     OW 5726   0.770   3.192   2.163
 1256SOL    HW1 5727   0.724   3.105   2.180
 1256SOL    HW2 5728   0.861   3.189   2.204
 1257SOL     OW 5729   0.618   3.429   3.146
 1257SOL    HW1 5730   0.613   3.511   3.203
 1257SOL    HW2 5731   0.707   3.426   3.101
 1258SOL     OW 5732   1.352   1.914   2.030
 1258SOL    HW1 5733   1.387   1.873   1.946
 1258SOL    HW2 5734   1.262   1.876   2.050
 1259SOL     OW 5735   1.300   2.315   2.553
 1259SOL    HW1 5736   1.241   2.395   2.557
 1259SOL    HW2 5737   1.315   2.280   2.646
 1260SOL     OW 5738   1.593   2.083   2.744
 1260SOL    HW1 5739   1.509   2.082   2.798
 1260SOL    HW2 5740   1.595   2.166   2.688
 1261SOL     OW 5741   0.875   3.508   2.199
 1261SOL    HW1 5742   0.798   3.473   2.145
 1261SOL    HW2 5743   0.843   3.579   2.261
 1262SOL     OW 5744   0.019   2.230   4.371
 1262SOL    HW1 5745  -0.063   2.273   4.410
 1262SOL    HW2 5746  -0.009   2.157   4.308
 1263SOL     OW 5747   0.569   3.137   4.889
 1263SOL    HW1 5748   0.476   3.130   4.852
 1263SOL    HW2 5749   0.580   3.226   4.933
 1264SOL     OW 5750   1.555   3.373   4.427
 1264SOL    HW1 5751   1.498   3.357   4.508
 1264SOL    HW2 5752   1.496   3.383   4.347
 1265SOL     OW 5753   1.743   2.480   4.580
 1265SOL    HW1 5754   1.776   2.574   4.580
 1265SOL    HW2 5755   1.794   2.426   4.646
 1266SOL     OW 5756   1.135   2.565   4.441
 1266SOL    HW1 5757   1.192   2.643   4.416
 1266SOL    HW2 5758   1.075   2.591   4.517
 1267SOL     OW 5759   1.755   2.469   3.955
 1267SOL    HW1 5760   1.743   2.456   3.856
 1267SOL    HW2 5761   1.725   2.388   4.004
 1268SOL     OW 5762   0.768   3.006   4.747
 1268SOL    HW1 5763   0.690   3.023   4.807
 1268SOL    HW2 5764   0.802   3.093   4.711
 1269SOL     OW 5765   0.850   2.660   5.547
 1269SOL    HW1 5766   0.846   2.736   5.612
 1269SOL    HW2 5767   0.872   2.696   5.456
 1270SOL     OW 5768   0.685   2.874   4.389
 1270SOL    HW1 5769   0.754   2.858   4.459
 1270SOL    HW2 5770   0.612   2.931   4.427
 1271SOL     OW 5771   0.686   3.023   5.527
 1271SOL    HW1 5772   0.746   3.102   5.541
 1271SOL    HW2 5773   0.600   3.054   5.486
 1272SOL     OW 5774   0.335   3.297   4.785
 1272SOL    HW1 5775   0.257   3.266   4.732
 1272SOL    HW2 5776   0.393   3.355   4.728
 1273SOL     OW 5777   1.460   3.367   5.063
 1273SOL    HW1 5778   1.484   3.461   5.089
 1273SOL    HW2 5779   1.444   3.313   5.145
 1274SOL     OW 5780   0.438   2.254   5.223
 1274SOL    HW1 5781   0.520   2.198   5.232
 1274SOL    HW2 5782   0.357   2.196   5.227
 1275SOL     OW 5783   1.603   2.309   4.461
 1275SOL    HW1 5784   1.529   2.355   4.411
 1275SOL    HW2 5785   1.654   2.377   4.514
 1276SOL     OW 5786   1.127   3.203   5.414
 1276SOL    HW1 5787   1.174   3.203   5.502
 1276SOL    HW2 5788   1.079   3.116   5.403
 1277SOL     OW 5789   0.620   3.648   5.163
 1277SOL    HW1 5790   0.528   3.631   5.198
 1277SOL    HW2 5791   0.648   3.740   5.189
 1278SOL     OW 5792   0.606   2.826   3.847
 1278SOL    HW1 5793   0.613   2.910   3.793
 1278SOL    HW2 5794   0.652   2.839   3.935
 1279SOL     OW 5795   1.594   1.976   5.204
 1279SOL    HW1 5796   1.576   2.043   5.132
 1279SOL    HW2 5797   1.591   2.022   5.293
 1280SOL     OW 5798   1.842   3.629   4.083
 1280SOL    HW1 5799   1.896   3.600   4.163
 1280SOL    HW2 5800   1.872   3.719   4.054
 1281SOL     OW 5801   1.689   2.784   4.336
 1281SOL    HW1 5802   1.784   2.755   4.344
 1281SOL    HW2 5803   1.681   2.849   4.261
 1282SOL     OW 5804   1.641   2.970   4.156
 1282SOL    HW1 5805   1.727   2.972   4.104
 1282SOL    HW2 5806   1.655   3.017   4.244
 1283SOL     OW 5807   0.613   3.227   4.450
 1283SOL    HW1 5808   0.564   3.140   4.459
 1283SOL    HW2 5809   0.590   3.270   4.363
 1284SOL     OW 5810   1.293   3.090   5.147
 1284SOL    HW1 5811   1.330   3.017   5.089
 1284SOL    HW2 5812   1.345   3.095   5.232
 1285SOL     OW 5813   0.809   1.866   4.226
 1285SOL    HW1 5814   0.849   1.957   4.217
 1285SOL    HW2 5815   0.709   1.874   4.232
 1286SOL     OW 5816   1.525   2.861   3.914
 1286SOL    HW1 5817   1.462   2.785   3.927
 1286SOL    HW2 5818   1.573   2.879   4.000
 1287SOL     OW 5819   1.187   3.654   5.340
 1287SOL    HW1 5820   1.211   3.714   5.264
 1287SOL    HW2 5821   1.194   3.559   5.310
 1288SOL     OW 5822   0.317   2.113   5.525
 1288SOL    HW1 5823   0.388   2.184   5.531
 1288SOL    HW2 5824   0.229   2.152   5.553
 1289SOL     OW 5825   1.466   3.279   4.677
 1289SOL    HW1 5826   1.407   3.285   4.757
 1289SOL    HW2 5827   1.451   3.191   4.631
 1290SOL     OW 5828   1.667   3.576   4.296
 1290SOL    HW1 5829   1.626   3.553   4.208
 1290SOL    HW2 5830   1.649   3.502   4.361
 1291SOL     OW 5831   0.598   2.591   3.994
 1291SOL    HW1 5832   0.622   2.660   3.926
 1291SOL    HW2 5833   0.520   2.624   4.048
 1292SOL     OW 5834   1.281   2.207   4.668
 1292SOL    HW1 5835   1.195   2.157   4.655
 1292SOL    HW2 5836   1.343   2.153   4.724
 1293SOL     OW 5837   1.576   3.524   4.031
 1293SOL    HW1 5838   1.665   3.570   4.034
 1293SOL    HW2 5839   1.555   3.500   3.936
 1294SOL     OW 5840   0.807   2.467   5.189
 1294SOL    HW1 5841   0.760   2.464   5.278
 1294SOL    HW2 5842   0.756   2.412   5.123
 1295SOL     OW 5843   1.394   2.331   5.398
 1295SOL    HW1 5844   1.374   2.374   5.486
 1295SOL    HW2 5845   1.472   2.269   5.407
 1296SOL     OW 5846   0.973   2.752   5.296
 1296SOL    HW1 5847   1.019   2.668   5.267
 1296SOL    HW2 5848   0.917   2.786   5.221
 1297SOL     OW 5849   0.991   2.272   4.966
 1297SOL    HW1 5850   0.914   2.306   5.020
 1297SOL    HW2 5851   0.957   2.221   4.887
 1298SOL     OW 5852   1.041   2.563   4.153
 1298SOL    HW1 5853   1.067   2.559   4.249
 1298SOL    HW2 5854   0.956   2.512   4.139
 1299SOL     OW 5855   0.865   2.210   3.919
 1299SOL    HW1 5856   0.924   2.273   3.870
 1299SOL    HW2 5857   0.884   2.116   3.890
 1300SOL     OW 5858   1.719   2.447   5.555
 1300SOL    HW1 5859   1.693   2.536   5.519
 1300SOL    HW2 5860   1.717   2.379   5.482
 1301SOL     OW 5861   1.362   3.006   4.269
 1301SOL    HW1 5862   1.445   2.977   4.221
 1301SOL    HW2 5863   1.313   3.073   4.213
 1302SOL     OW 5864   0.550   2.058   4.609
 1302SOL    HW1 5865   0.545   2.053   4.709
 1302SOL    HW2 5866   0.552   2.154   4.580
 1303SOL     OW 5867   1.008   3.318   4.201
 1303SOL    HW1 5868   0.962   3.390   4.149
 1303SOL    HW2 5869   1.004   3.338   4.299
 1304SOL     OW 5870   0.351   3.663   4.577
 1304SOL    HW1 5871   0.401   3.577   4.583
 1304SOL    HW2 5872   0.416   3.740   4.574
 1305SOL     OW 5873   1.795   2.928   4.597
 1305SOL    HW1 5874   1.733   2.913   4.521
 1305SOL    HW2 5875   1.743   2.939   4.682
 1306SOL     OW 5876   1.227   3.412   5.230
 1306SOL    HW1 5877   1.233   3.335   5.294
 1306SOL    HW2 5878   1.175   3.386   5.150
 1307SOL     OW 5879   0.321   2.805   3.966
 1307SOL    HW1 5880   0.403   2.844   3.924
 1307SOL    HW2 5881   0.294   2.723   3.917
 1308SOL     OW 5882   1.458   2.597   4.452
 1308SOL    HW1 5883   1.453   2.532   4.527
 1308SOL    HW2 5884   1.538   2.656   4.465
 1309SOL     OW 5885   0.461   3.128   5.451
 1309SOL    HW1 5886   0.411   3.129   5.365
 1309SOL    HW2 5887   0.398   3.110   5.527
 1310SOL     OW 5888   1.111   3.638   3.961
 1310SOL    HW1 5889   1.051   3.576   4.011
 1310SOL    HW2 5890   1.142   3.594   3.876
 1311SOL     OW 5891   1.632   3.239   3.805
 1311SOL    HW1 5892   1.600   3.333   3.795
 1311SOL    HW2 5893   1.556   3.176   3.793
 1312SOL     OW 5894   0.464   3.605   4.047
 1312SOL    HW1 5895   0.497   3.644   4.133
 1312SOL    HW2 5896   0.540   3.598   3.982
 1313SOL     OW 5897   1.400   1.969   4.150
 1313SOL    HW1 5898   1.376   1.932   4.060
 1313SOL    HW2 5899   1.499   1.985   4.154
 1314SOL     OW 5900   0.940   3.560   4.628
 1314SOL    HW1 5901   1.020   3.503   4.649
 1314SOL    HW2 5902   0.891   3.520   4.551
 1315SOL     OW 5903   0.382   2.562   4.204
 1315SOL    HW1 5904   0.427   2.472   4.201
 1315SOL    HW2 5905   0.288   2.551   4.237
 1316SOL     OW 5906   1.547   2.084   5.453
 1316SOL    HW1 5907   1.542   2.121   5.545
 1316SOL    HW2 5908   1.475   2.015   5.441
 1317SOL     OW 5909   0.614   1.984   3.841
 1317SOL    HW1 5910   0.712   1.962   3.848
 1317SOL    HW2 5911   0.583   1.967   3.748
 1318SOL     OW 5912   0.781   2.126   5.473
 1318SOL    HW1 5913   0.848   2.065   5.516
 1318SOL    HW2 5914   0.708   2.145   5.538
 1319SOL     OW 5915   0.888   3.376   4.919
 1319SOL    HW1 5916   0.865   3.351   4.825
 1319SOL    HW2 5917   0.949   3.307   4.958
 1320SOL     OW 5918   1.351   2.452   5.157
 1320SOL    HW1 5919   1.379   2.409   5.242
 1320SOL    HW2 5920   1.376   2.548   5.158
 1321SOL     OW 5921   0.803   3.264   4.648
 1321SOL    HW1 5922   0.893   3.278   4.606
 1321SOL    HW2 5923   0.732   3.266   4.577
 1322SOL     OW 5924   0.922   2.365   4.623
 1322SOL    HW1 5925   0.897   2.356   4.527
 1322SOL    HW2 5926   0.970   2.283   4.654
 1323SOL     OW 5927   0.539   1.926   4.236
 1323SOL    HW1 5928   0.458   1.927   4.294
 1323SOL    HW2 5929   0.542   2.009   4.181
 1324SOL     OW 5930   1.434   3.050   3.765
 1324SOL    HW1 5931   1.466   2.974   3.822
 1324SOL    HW2 5932   1.342   3.077   3.795
 1325SOL     OW 5933   0.297   1.897   3.895
 1325SOL    HW1 5934   0.346   1.981   3.874
 1325SOL    HW2 5935   0.359   1.832   3.940
 1326SOL     OW 5936   0.935   2.098   4.204
 1326SOL    HW1 5937   0.887   2.139   4.126
 1326SOL    HW2 5938   1.034   2.096   4.185
 1327SOL     OW 5939   1.076   2.545   5.188
 1327SOL    HW1 5940   0.996   2.484   5.191
 1327SOL    HW2 5941   1.157   2.492   5.164
 1328SOL     OW 5942   1.227   3.432   4.517
 1328SOL    HW1 5943   1.248   3.506   4.452
 1328SOL    HW2 5944   1.295   3.432   4.590
 1329SOL     OW 5945   0.459   3.014   4.465
 1329SOL    HW1 5946   0.388   2.987   4.530
 1329SOL    HW2 5947   0.433   2.986   4.372
 1330SOL     OW 5948   1.271   3.659   4.315
 1330SOL    HW1 5949   1.315   3.723   4.251
 1330SOL    HW2 5950   1.221   3.711   4.385
 1331SOL     OW 5951   1.032   2.411   3.740
 1331SOL    HW1 5952   0.991   2.493   3.701
 1331SOL    HW2 5953   1.096   2.437   3.813
 1332SOL     OW 5954   0.561   2.084   4.871
 1332SOL    HW1 5955   0.599   2.000   4.908
 1332SOL    HW2 5956   0.473   2.103   4.915
 1333SOL     OW 5957   0.866   2.316   4.366
 1333SOL    HW1 5958   0.834   2.388   4.304
 1333SOL    HW2 5959   0.890   2.235   4.313
 1334SOL     OW 5960   1.017   1.901   4.477
 1334SOL    HW1 5961   0.945   1.906   4.408
 1334SOL    HW2 5962   0.993   1.832   4.546
 1335SOL     OW 5963   1.429   3.035   4.591
 1335SOL    HW1 5964   1.374   2.951   4.584
 1335SOL    HW2 5965   1.455   3.064   4.499
 1336SOL     OW 5966   1.466   2.452   4.716
 1336SOL    HW1 5967   1.436   2.357   4.723
 1336SOL    HW2 5968   1.539   2.468   4.782
 1337SOL     OW 5969   1.857   2.695   4.101
 1337SOL    HW1 5970   1.899   2.631   4.165
 1337SOL    HW2 5971   1.819   2.644   4.023
 1338SOL     OW 5972   0.488   3.247   3.898
 1338SOL    HW1 5973   0.401   3.232   3.945
 1338SOL    HW2 5974   0.471   3.273   3.803
 1339SOL     OW 5975   1.664   3.142   4.381
 1339SOL    HW1 5976   1.763   3.150   4.395
 1339SOL    HW2 5977   1.619   3.226   4.412
 1340SOL     OW 5978   1.390   2.437   3.802
 1340SOL    HW1 5979   1.336   2.416   3.883
 1340SOL    HW2 5980   1.481   2.396   3.811
 1341SOL     OW 5981   0.527   2.118   4.052
 1341SOL    HW1 5982   0.554   2.059   3.977
 1341SOL    HW2 5983   0.527   2.213   4.021
 1342SOL     OW 5984   1.754   3.085   5.312
 1342SOL    HW1 5985   1.845   3.046   5.299
 1342SOL    HW2 5986   1.762   3.181   5.336
 1343SOL     OW 5987   1.064   3.209   5.064
 1343SOL    HW1 5988   0.984   3.186   5.119
 1343SOL    HW2 5989   1.147   3.183   5.113
 1344SOL     OW 5990   1.592   3.491   5.349
 1344SOL    HW1 5991   1.619   3.525   5.259
 1344SOL    HW2 5992   1.671   3.453   5.395
 1345SOL     OW 5993   1.111   3.057   4.824
 1345SOL    HW1 5994   1.071   3.101   4.905
 1345SOL    HW2 5995   1.070   3.094   4.741
 1346SOL     OW 5996   1.638   2.961   4.803
 1346SOL    HW1 5997   1.643   3.042   4.862
 1346SOL    HW2 5998   1.552   2.963   4.752
 1347SOL     OW 5999   0.915   1.951   5.126
 1347SOL    HW1 6000   0.940   1.931   5.031
 1347SOL    HW2 6001   0.987   2.007   5.168
 1348SOL     OW 6002   0.980   2.978   5.443
 1348SOL    HW1 6003   0.881   2.984   5.453
 1348SOL    HW2 6004   1.003   2.898   5.387
 1349SOL     OW 6005   0.705   2.912   4.092
 1349SOL    HW1 6006   0.691   2.919   4.191
 1349SOL    HW2 6007   0.789   2.861   4.074
 1350SOL     OW 6008   0.410   2.675   4.975
 1350SOL    HW1 6009   0.496   2.687   5.025
 1350SOL    HW2 6010   0.368   2.588   5.002
 1351SOL     OW 6011   1.274   2.248   4.986
 1351SOL    HW1 6012   1.295   2.322   5.050
 1351SOL    HW2 6013   1.185   2.265   4.943
 1352SOL     OW 6014   0.367   2.962   4.225
 1352SOL    HW1 6015   0.360   3.045   4.169
 1352SOL    HW2 6016   0.371   2.882   4.165
 1353SOL     OW 6017   0.566   2.399   4.589
 1353SOL    HW1 6018   0.578   2.465   4.515
 1353SOL    HW2 6019   0.612   2.433   4.672
 1354SOL     OW 6020   1.252   3.210   4.112
 1354SOL    HW1 6021   1.302   3.287   4.152
 1354SOL    HW2 6022   1.157   3.212   4.144
 1355SOL     OW 6023   1.272   3.307   4.866
 1355SOL    HW1 6024   1.319   3.320   4.953
 1355SOL    HW2 6025   1.206   3.233   4.875
 1356SOL     OW 6026   1.582   2.501   4.196
 1356SOL    HW1 6027   1.551   2.562   4.269
 1356SOL    HW2 6028   1.632   2.553   4.127
 1357SOL     OW 6029   0.354   3.372   5.053
 1357SOL    HW1 6030   0.333   3.328   4.966
 1357SOL    HW2 6031   0.451   3.398   5.056
 1358SOL     OW 6032   0.402   2.613   5.322
 1358SOL    HW1 6033   0.470   2.668   5.275
 1358SOL    HW2 6034   0.442   2.525   5.349
 1359SOL     OW 6035   1.587   2.641   5.394
 1359SOL    HW1 6036   1.495   2.679   5.389
 1359SOL    HW2 6037   1.647   2.688   5.329
 1360SOL     OW 6038   1.013   1.967   5.494
 1360SOL    HW1 6039   1.019   2.052   5.442
 1360SOL    HW2 6040   1.045   1.891   5.437
 1361SOL     OW 6041   0.504   1.912   5.464
 1361SOL    HW1 6042   0.462   1.855   5.394
 1361SOL    HW2 6043   0.438   1.981   5.496
 1362SOL     OW 6044   0.573   2.732   4.753
 1362SOL    HW1 6045   0.617   2.821   4.744
 1362SOL    HW2 6046   0.510   2.732   4.830
 1363SOL     OW 6047   1.360   2.724   4.769
 1363SOL    HW1 6048   1.285   2.724   4.703
 1363SOL    HW2 6049   1.397   2.632   4.778
 1364SOL     OW 6050   1.209   2.387   3.999
 1364SOL    HW1 6051   1.222   2.303   4.053
 1364SOL    HW2 6052   1.180   2.461   4.059
 1365SOL     OW 6053   0.732   2.496   4.788
 1365SOL    HW1 6054   0.791   2.470   4.712
 1365SOL    HW2 6055   0.704   2.592   4.777
 1366SOL     OW 6056   1.728   2.797   5.578
 1366SOL    HW1 6057   1.682   2.790   5.489
 1366SOL    HW2 6058   1.666   2.841   5.644
 1367SOL     OW 6059   0.307   1.925   4.342
 1367SOL    HW1 6060   0.296   2.019   4.375
 1367SOL    HW2 6061   0.302   1.862   4.419
 1368SOL     OW 6062   1.622   2.229   4.098
 1368SOL    HW1 6063   1.624   2.153   4.162
 1368SOL    HW2 6064   1.574   2.306   4.138
 1369SOL     OW 6065   1.023   2.628   4.690
 1369SOL    HW1 6066   1.038   2.649   4.786
 1369SOL    HW2 6067   0.993   2.533   4.681
 1370SOL     OW 6068   0.980   3.435   5.424
 1370SOL    HW1 6069   0.960   3.479   5.336
 1370SOL    HW2 6070   1.019   3.344   5.408
 1371SOL     OW 6071   1.859   3.380   5.329
 1371SOL    HW1 6072   1.873   3.407   5.234
 1371SOL    HW2 6073   1.942   3.402   5.382
 1372SOL     OW 6074   0.350   2.760   5.528
 1372SOL    HW1 6075   0.426   2.804   5.576
 1372SOL    HW2 6076   0.385   2.713   5.446
 1373SOL     OW 6077   1.540   2.136   3.849
 1373SOL    HW1 6078   1.479   2.061   3.872
 1373SOL    HW2 6079   1.562   2.188   3.932
 1374SOL     OW 6080   1.303   2.700   3.766
 1374SOL    HW1 6081   1.337   2.607   3.781
 1374SOL    HW2 6082   1.321   2.727   3.671
 1375SOL     OW 6083   1.068   3.195   4.573
 1375SOL    HW1 6084   1.075   3.111   4.518
 1375SOL    HW2 6085   1.130   3.264   4.537
 1376SOL     OW 6086   0.319   2.672   4.673
 1376SOL    HW1 6087   0.412   2.708   4.678
 1376SOL    HW2 6088   0.313   2.587   4.725
 1377SOL     OW 6089   1.138   2.242   5.402
 1377SOL    HW1 6090   1.093   2.305   5.466
 1377SOL    HW2 6091   1.231   2.273   5.385
 1378SOL     OW 6092   1.160   2.069   5.201
 1378SOL    HW1 6093   1.160   2.133   5.278
 1378SOL    HW2 6094   1.188   2.117   5.118
 1379SOL     OW 6095   0.504   3.430   4.634
 1379SOL    HW1 6096   0.570   3.504   4.643
 1379SOL    HW2 6097   0.548   3.351   4.592
 1380SOL     OW 6098   1.002   2.658   4.962
 1380SOL    HW1 6099   1.043   2.626   5.048
 1380SOL    HW2 6100   0.906   2.631   4.959
 1381SOL     OW 6101   1.369   2.812   5.384
 1381SOL    HW1 6102   1.408   2.901   5.404
 1381SOL    HW2 6103   1.379   2.792   5.287
 1382SOL     OW 6104   0.815   2.434   4.049
 1382SOL    HW1 6105   0.822   2.345   4.003
 1382SOL    HW2 6106   0.721   2.468   4.041
 1383SOL     OW 6107   1.657   2.466   4.930
 1383SOL    HW1 6108   1.619   2.397   4.992
 1383SOL    HW2 6109   1.739   2.430   4.886
 1384SOL     OW 6110   0.671   2.326   4.993
 1384SOL    HW1 6111   0.637   2.237   4.963
 1384SOL    HW2 6112   0.697   2.380   4.913
 1385SOL     OW 6113   0.930   3.540   5.189
 1385SOL    HW1 6114   0.906   3.522   5.094
 1385SOL    HW2 6115   0.960   3.634   5.199
 1386SOL     OW 6116   0.473   2.362   3.915
 1386SOL    HW1 6117   0.534   2.442   3.919
 1386SOL    HW2 6118   0.378   2.393   3.922
 1387SOL     OW 6119   1.347   2.921   4.958
 1387SOL    HW1 6120   1.371   2.858   4.884
 1387SOL    HW2 6121   1.257   2.961   4.940
 1388SOL     OW 6122   1.302   2.717   4.033
 1388SOL    HW1 6123   1.216   2.686   4.075
 1388SOL    HW2 6124   1.298   2.703   3.934
 1389SOL     OW 6125   1.759   3.609   4.878
 1389SOL    HW1 6126   1.820   3.639   4.805
 1389SOL    HW2 6127   1.721   3.520   4.856
 1390SOL     OW 6128   1.252   3.593   4.852
 1390SOL    HW1 6129   1.336   3.598   4.798
 1390SOL    HW2 6130   1.229   3.497   4.870
 1391SOL     OW 6131   0.688   3.524   5.440
 1391SOL    HW1 6132   0.632   3.605   5.449
 1391SOL    HW2 6133   0.740   3.528   5.354
 1392SOL     OW 6134   0.903   1.948   3.857
 1392SOL    HW1 6135   0.954   1.949   3.771
 1392SOL    HW2 6136   0.959   1.906   3.928
 1393SOL     OW 6137   1.726   1.997   4.247
 1393SOL    HW1 6138   1.799   1.980   4.180
 1393SOL    HW2 6139   1.695   1.910   4.285
 1394SOL     OW 6140   1.388   3.435   4.201
 1394SOL    HW1 6141   1.455   3.447   4.127
 1394SOL    HW2 6142   1.348   3.524   4.224
 1395SOL     OW 6143   0.130   3.656   5.575
 1395SOL    HW1 6144   0.089   3.582   5.628
 1395SOL    HW2 6145   0.194   3.707   5.633
 1396SOL     OW 6146   1.280   2.789   4.396
 1396SOL    HW1 6147   1.340   2.708   4.398
 1396SOL    HW2 6148   1.320   2.858   4.336
 1397SOL     OW 6149   0.830   3.135   5.146
 1397SOL    HW1 6150   0.825   3.168   5.241
 1397SOL    HW2 6151   0.744   3.154   5.100
 1398SOL     OW 6152   0.672   3.478   3.878
 1398SOL    HW1 6153   0.681   3.488   3.779
 1398SOL    HW2 6154   0.632   3.389   3.899
 1399SOL     OW 6155   1.650   3.582   5.118
 1399SOL    HW1 6156   1.703   3.592   5.034
 1399SOL    HW2 6157   1.623   3.672   5.152
 1400SOL     OW 6158   1.841   2.037   4.687
 1400SOL    HW1 6159   1.880   1.952   4.651
 1400SOL    HW2 6160   1.743   2.039   4.668
 1401SOL     OW 6161   0.263   2.188   4.444
 1401SOL    HW1 6162   0.184   2.239   4.410
 1401SOL    HW2 6163   0.254   2.173   4.542
 1402SOL     OW 6164   1.194   3.474   3.755
 1402SOL    HW1 6165   1.200   3.381   3.792
 1402SOL    HW2 6166   1.135   3.474   3.675
 1403SOL     OW 6167   0.822   2.864   5.096
 1403SOL    HW1 6168   0.862   2.863   5.004
 1403SOL    HW2 6169   0.832   2.956   5.136
 1404SOL     OW 6170   0.916   2.772   4.015
 1404SOL    HW1 6171   0.979   2.810   3.947
 1404SOL    HW2 6172   0.956   2.689   4.054
 1405SOL     OW 6173   1.504   3.469   3.768
 1405SOL    HW1 6174   1.412   3.506   3.775
 1405SOL    HW2 6175   1.542   3.489   3.678
 1406SOL     OW 6176   0.372   3.150   5.214
 1406SOL    HW1 6177   0.359   3.243   5.180
 1406SOL    HW2 6178   0.288   3.098   5.201
 1407SOL     OW 6179   1.614   3.154   5.013
 1407SOL    HW1 6180   1.674   3.157   5.093
 1407SOL    HW2 6181   1.539   3.218   5.026
 1408SOL     OW 6182   1.039   2.960   4.420
 1408SOL    HW1 6183   0.969   2.913   4.474
 1408SOL    HW2 6184   1.098   2.892   4.377
 1409SOL     OW 6185   1.014   2.098   4.695
 1409SOL    HW1 6186   1.006   2.062   4.602
 1409SOL    HW2 6187   1.012   2.022   4.760
 1410SOL     OW 6188   0.590   3.349   4.215
 1410SOL    HW1 6189   0.632   3.291   4.145
 1410SOL    HW2 6190   0.546   3.428   4.171
 1411SOL     OW 6191   1.709   2.247   5.105
 1411SOL    HW1 6192   1.782   2.316   5.109
 1411SOL    HW2 6193   1.737   2.172   5.046
 1412SOL     OW 6194   0.255   3.210   4.014
 1412SOL    HW1 6195   0.159   3.211   3.987
 1412SOL    HW2 6196   0.267   3.263   4.098
 1413SOL     OW 6197   0.672   2.065   5.213
 1413SOL    HW1 6198   0.762   2.049   5.173
 1413SOL    HW2 6199   0.680   2.070   5.312
 1414SOL     OW 6200   1.440   2.718   5.122
 1414SOL    HW1 6201   1.383   2.770   5.059
 1414SOL    HW2 6202   1.536   2.730   5.098
 1415SOL     OW 6203   1.183   3.197   3.843
 1415SOL    HW1 6204   1.084   3.186   3.845
 1415SOL    HW2 6205   1.217   3.212   3.936
 1416SOL     OW 6206   0.613   2.704   5.155
 1416SOL    HW1 6207   0.669   2.785   5.138
 1416SOL    HW2 6208   0.672   2.624   5.158
 1417SOL     OW 6209   1.493   3.629   4.683
 1417SOL    HW1 6210   1.526   3.693   4.614
 1417SOL    HW2 6211   1.559   3.623   4.758
 1418SOL     OW 6212   0.716   2.427   5.432
 1418SOL    HW1 6213   0.735   2.492   5.506
 1418SOL    HW2 6214   0.776   2.347   5.441
 1419SOL     OW 6215   1.450   3.082   5.357
 1419SOL    HW1 6216   1.441   3.072   5.456
 1419SOL    HW2 6217   1.546   3.075   5.331
 1420SOL     OW 6218   0.390   3.603   5.284
 1420SOL    HW1 6219   0.299   3.644   5.282
 1420SOL    HW2 6220   0.383   3.509   5.316
 1421SOL     OW 6221   1.674   2.745   4.978
 1421SOL    HW1 6222   1.647   2.656   4.941
 1421SOL    HW2 6223   1.675   2.813   4.905
 1422SOL     OW 6224   1.225   2.187   4.173
 1422SOL    HW1 6225   1.290   2.113   4.162
 1422SOL    HW2 6226   1.245   2.237   4.257
 1423SOL     OW 6227   0.594   2.607   4.376
 1423SOL    HW1 6228   0.644   2.692   4.357
 1423SOL    HW2 6229   0.506   2.609   4.328
 1424SOL     OW 6230   1.777   2.204   5.366
 1424SOL    HW1 6231   1.760   2.235   5.272
 1424SOL    HW2 6232   1.693   2.167   5.404
 1425SOL     OW 6233   1.730   2.796   5.241
 1425SOL    HW1 6234   1.768   2.887   5.256
 1425SOL    HW2 6235   1.722   2.779   5.142
 1426SOL     OW 6236   0.859   3.236   3.740
 1426SOL    HW1 6237   0.813   3.251   3.828
 1426SOL    HW2 6238   0.903   3.321   3.710
 1427SOL     OW 6239   0.661   3.652   4.677
 1427SOL    HW1 6240   0.615   3.740   4.664
 1427SOL    HW2 6241   0.760   3.664   4.670
 1428SOL     OW 6242   1.408   3.713   5.444
 1428SOL    HW1 6243   1.312   3.702   5.417
 1428SOL    HW2 6244   1.464   3.646   5.396
 1429SOL     OW 6245   0.859   2.818   4.585
 1429SOL    HW1 6246   0.913   2.749   4.633
 1429SOL    HW2 6247   0.827   2.887   4.651
 1430SOL     OW 6248   1.083   2.846   3.811
 1430SOL    HW1 6249   1.060   2.899   3.729
 1430SOL    HW2 6250   1.164   2.790   3.792
 1431SOL     OW 6251   1.861   3.431   4.575
 1431SOL    HW1 6252   1.790   3.419   4.505
 1431SOL    HW2 6253   1.862   3.352   4.635
 1432SOL     OW 6254   0.672   3.253   5.348
 1432SOL    HW1 6255   0.594   3.203   5.386
 1432SOL    HW2 6256   0.669   3.348   5.379
 1433SOL     OW 6257   1.824   2.054   4.951
 1433SOL    HW1 6258   1.820   1.964   4.995
 1433SOL    HW2 6259   1.827   2.043   4.852
 1434SOL     OW 6260   0.428   2.286   4.244
 1434SOL    HW1 6261   0.458   2.214   4.182
 1434SOL    HW2 6262   0.389   2.246   4.327
 1435SOL     OW 6263   1.705   3.349   4.828
 1435SOL    HW1 6264   1.612   3.324   4.801
 1435SOL    HW2 6265   1.731   3.299   4.910
 1436SOL     OW 6266   0.812   3.448   4.411
 1436SOL    HW1 6267   0.844   3.458   4.317
 1436SOL    HW2 6268   0.733   3.386   4.413
 1437SOL     OW 6269   1.424   2.076   4.836
 1437SOL    HW1 6270   1.476   2.011   4.891
 1437SOL    HW2 6271   1.375   2.139   4.897
 1438SOL     OW 6272   1.001   1.896   4.878
 1438SOL    HW1 6273   0.938   1.824   4.847
 1438SOL    HW2 6274   1.094   1.860   4.878
 1439SOL     OW 6275   0.770   3.192   4.025
 1439SOL    HW1 6276   0.724   3.105   4.042
 1439SOL    HW2 6277   0.861   3.189   4.066
 1440SOL     OW 6278   0.618   3.429   5.008
 1440SOL    HW1 6279   0.613   3.511   5.065
 1440SOL    HW2 6280   0.707   3.426   4.963
 1441SOL     OW 6281   1.352   1.914   3.892
 1441SOL    HW1 6282   1.387   1.873   3.808
 1441SOL    HW2 6283   1.262   1.876   3.912
 1442SOL     OW 6284   1.300   2.315   4.415
 1442SOL    HW1 6285   1.241   2.395   4.419
 1442SOL    HW2 6286   1.315   2.280   4.508
 1443SOL     OW 6287   1.593   2.083   4.606
 1443SOL    HW1 6288   1.509   2.082   4.660
 1443SOL    HW2 6289   1.595   2.166   4.550
 1444SOL     OW 6290   0.875   3.508   4.061
 1444SOL    HW1 6291   0.798   3.473   4.007
 1444SOL    HW2 6292   0.843   3.579   4.123
 1445SOL     OW 6293   0.019   2.230   6.233
 1445SOL    HW1 6294  -0.063   2.273   6.272
 1445SOL    HW2 6295  -0.009   2.157   6.170
 1446SOL     OW 6296   0.569   3.137   6.751
 1446SOL    HW1 6297   0.476   3.130   6.714
 1446SOL    HW2 6298   0.580   3.226   6.795
 1447SOL     OW 6299   1.555   3.373   6.289
 1447SOL    HW1 6300   1.498   3.357   6.370
 1447SOL    HW2 6301   1.496   3.383   6.209
 1448SOL     OW 6302   1.743   2.480   6.442
 1448SOL    HW1 6303   1.776   2.574   6.442
 1448SOL    HW2 6304   1.794   2.426   6.508
 1449SOL     OW 6305   1.135   2.565   6.303
 1449SOL    HW1 6306   1.192   2.643   6.278
 1449SOL    HW2 6307   1.075   2.591   6.379
 1450SOL     OW 6308   1.755   2.469   5.817
 1450SOL    HW1 6309   1.743   2.456   5.718
 1450SOL    HW2 6310   1.725   2.388   5.866
 1451SOL     OW 6311   0.768   3.006   6.609
 1451SOL    HW1 6312   0.690   3.023   6.669
 1451SOL    HW2 6313   0.802   3.093   6.573
 1452SOL     OW 6314   0.850   2.660   7.409
 1452SOL    HW1 6315   0.846   2.736   7.474
 1452SOL    HW2 6316   0.872   2.696   7.318
 1453SOL     OW 6317   0.685   2.874   6.251
 1453SOL    HW1 6318   0.754   2.858   6.321
 1453SOL    HW2 6319   0.612   2.931   6.289
 1454SOL     OW 6320   0.686   3.023   7.389
 1454SOL    HW1 6321   0.746   3.102   7.403
 1454SOL    HW2 6322   0.600   3.054   7.348
 1455SOL     OW 6323   0.335   3.297   6.647
 1455SOL    HW1 6324   0.257   3.266   6.594
 1455SOL    HW2 6325   0.393   3.355   6.590
 1456SOL     OW 6326   1.460   3.367   6.925
 1456SOL    HW1 6327   1.484   3.461   6.951
 1456SOL    HW2 6328   1.444   3.313   7.007
 1457SOL     OW 6329   0.438   2.254   7.085
 1457SOL    HW1 6330   0.520   2.198   7.094
 1457SOL    HW2 6331   0.357   2.196   7.089
 1458SOL     OW 6332   1.603   2.309   6.323
 1458SOL    HW1 6333   1.529   2.355   6.273
 1458SOL    HW2 6334   1.654   2.377   6.376
 1459SOL     OW 6335   1.127   3.203   7.276
 1459SOL    HW1 6336   1.174   3.203   7.364
 1459SOL    HW2 6337   1.079   3.116   7.265
 1460SOL     OW 6338   0.620   3.648   7.025
 1460SOL    HW1 6339   0.528   3.631   7.060
 1460SOL    HW2 6340   0.648   3.740   7.051
 1461SOL     OW 6341   0.606   2.826   5.709
 1461SOL    HW1 6342   0.613   2.910   5.655
 1461SOL    HW2 6343   0.652   2.839   5.797
 1462SOL     OW 6344   1.594   1.976   7.066
 1462SOL    HW1 6345   1.576   2.043   6.994
 1462SOL    HW2 6346   1.591   2.022   7.155
 1463SOL     OW 6347   1.842   3.629   5.945
 1463SOL    HW1 6348   1.896   3.600   6.025
 1463SOL    HW2 6349   1.872   3.719   5.916
 1464SOL     OW 6350   1.689   2.784   6.198
 1464SOL    HW1 6351   1.784   2.755   6.206
 1464SOL    HW2 6352   1.681   2.849   6.123
 1465SOL     OW 6353   1.641   2.970   6.018
 1465SOL    HW1 6354   1.727   2.972   5.966
 1465SOL    HW2 6355   1.655   3.017   6.106
 1466SOL     OW 6356   0.613   3.227   6.312
 1466SOL    HW1 6357   0.564   3.140   6.321
 1466SOL    HW2 6358   0.590   3.270   6.225
 1467SOL     OW 6359   1.293   3.090   7.009
 1467SOL    HW1 6360   1.330   3.017   6.951
 1467SOL    HW2 6361   1.345   3.095   7.094
 1468SOL     OW 6362   0.809   1.866   6.088
 1468SOL    HW1 6363   0.849   1.957   6.079
 1468SOL    HW2 6364   0.709   1.874   6.094
 1469SOL     OW 6365   1.525   2.861   5.776
 1469SOL    HW1 6366   1.462   2.785   5.789
 1469SOL    HW2 6367   1.573   2.879   5.862
 1470SOL     OW 6368   1.187   3.654   7.202
 1470SOL    HW1 6369   1.211   3.714   7.126
 1470SOL    HW2 6370   1.194   3.559   7.172
 1471SOL     OW 6371   0.317   2.113   7.387
 1471SOL    HW1 6372   0.388   2.184   7.393
 1471SOL    HW2 6373   0.229   2.152   7.415
 1472SOL     OW 6374   1.466   3.279   6.539
 1472SOL    HW1 6375   1.407   3.285   6.619
 1472SOL    HW2 6376   1.451   3.191   6.493
 1473SOL     OW 6377   1.667   3.576   6.158
 1473SOL    HW1 6378   1.626   3.553   6.070
 1473SOL    HW2 6379   1.649   3.502   6.223
 1474SOL     OW 6380   0.598   2.591   5.856
 1474SOL    HW1 6381   0.622   2.660   5.788
 1474SOL    HW2 6382   0.520   2.624   5.910
 1475SOL     OW 6383   1.281   2.207   6.530
 1475SOL    HW1 6384   1.195   2.157   6.517
 1475SOL    HW2 6385   1.343   2.153   6.586
 1476SOL     OW 6386   1.576   3.524   5.893
 1476SOL    HW1 6387   1.665   3.570   5.896
 1476SOL    HW2 6388   1.555   3.500   5.798
 1477SOL     OW 6389   0.807   2.467   7.051
 1477SOL    HW1 6390   0.760   2.464   7.140
 1477SOL    HW2 6391   0.756   2.412   6.985
 1478SOL     OW 6392   1.394   2.331   7.260
 1478SOL    HW1 6393   1.374   2.374   7.348
 1478SOL    HW2 6394   1.472   2.269   7.269
 1479SOL     OW 6395   0.973   2.752   7.158
 1479SOL    HW1 6396   1.019   2.668   7.129
 1479SOL    HW2 6397   0.917   2.786   7.083
 1480SOL     OW 6398   0.991   2.272   6.828
 1480SOL    HW1 6399   0.914   2.306   6.882
 1480SOL    HW2 6400   0.957   2.221   6.749
 1481SOL     OW 6401   1.041   2.563   6.015
 1481SOL    HW1 6402   1.067   2.559   6.111
 1481SOL    HW2 6403   0.956   2.512   6.001
 1482SOL     OW 6404   0.865   2.210   5.781
 1482SOL    HW1 6405   0.924   2.273   5.732
 1482SOL    HW2 6406   0.884   2.116   5.752
 1483SOL     OW 6407   1.719   2.447   7.417
 1483SOL    HW1 6408   1.693   2.536   7.381
 1483SOL    HW2 6409   1.717   2.379   7.344
 1484SOL     OW 6410   1.362   3.006   6.131
 1484SOL    HW1 6411   1.445   2.977   6.083
 1484SOL    HW2 6412   1.313   3.073   6.075
 1485SOL     OW 6413   0.550   2.058   6.471
 1485SOL    HW1 6414   0.545   2.053   6.571
 1485SOL    HW2 6415   0.552   2.154   6.442
 1486SOL     OW 6416   1.008   3.318   6.063
 1486SOL    HW1 6417   0.962   3.390   6.011
 1486SOL    HW2 6418   1.004   3.338   6.161
 1487SOL     OW 6419   0.351   3.663   6.439
 1487SOL    HW1 6420   0.401   3.577   6.445
 1487SOL    HW2 6421   0.416   3.740   6.436
 1488SOL     OW 6422   1.795   2.928   6.459
 1488SOL    HW1 6423   1.733   2.913   6.383
 1488SOL    HW2 6424   1.743   2.939   6.544
 1489SOL     OW 6425   1.227   3.412   7.092
 1489SOL    HW1 6426   1.233   3.335   7.156
 1489SOL    HW2 6427   1.175   3.386   7.012
 1490SOL     OW 6428   0.321   2.805   5.828
 1490SOL    HW1 6429   0.403   2.844   5.786
 1490SOL    HW2 6430   0.294   2.723   5.779
 1491SOL     OW 6431   1.458   2.597   6.314
 1491SOL    HW1 6432   1.453   2.532   6.389
 1491SOL    HW2 6433   1.538   2.656   6.327
 1492SOL     OW 6434   0.461   3.128   7.313
 1492SOL    HW1 6435   0.411   3.129   7.227
 1492SOL    HW2 6436   0.398   3.110   7.389
 1493SOL     OW 6437   1.111   3.638   5.823
 1493SOL    HW1 6438   1.051   3.576   5.873
 1493SOL    HW2 6439   1.142   3.594   5.738
 1494SOL     OW 6440   1.632   3.239   5.667
 1494SOL    HW1 6441   1.600   3.333   5.657
 1494SOL    HW2 6442   1.556   3.176   5.655
 1495SOL     OW 6443   0.464   3.605   5.909
 1495SOL    HW1 6444   0.497   3.644   5.995
 1495SOL    HW2 6445   0.540   3.598   5.844
 1496SOL     OW 6446   1.400   1.969   6.012
 1496SOL    HW1 6447   1.376   1.932   5.922
 1496SOL    HW2 6448   1.499   1.985   6.016
 1497SOL     OW 6449   0.940   3.560   6.490
 1497SOL    HW1 6450   1.020   3.503   6.511
 1497SOL    HW2 6451   0.891   3.520   6.413
 1498SOL     OW 6452   0.382   2.562   6.066
 1498SOL    HW1 6453   0.427   2.472   6.063
 1498SOL    HW2 6454   0.288   2.551   6.099
 1499SOL     OW 6455   1.547   2.084   7.315
 1499SOL    HW1 6456   1.542   2.121   7.407
 1499SOL    HW2 6457   1.475   2.015   7.303
 1500SOL     OW 6458   0.614   1.984   5.703
 1500SOL    HW1 6459   0.712   1.962   5.710
 1500SOL    HW2 6460   0.583   1.967   5.610
 1501SOL     OW 6461   0.781   2.126   7.335
 1501SOL    HW1 6462   0.848   2.065   7.378
 1501SOL    HW2 6463   0.708   2.145   7.400
 1502SOL     OW 6464   0.888   3.376   6.781
 1502SOL    HW1 6465   0.865   3.351   6.687
 1502SOL    HW2 6466   0.949   3.307   6.820
 1503SOL     OW 6467   1.351   2.452   7.019
 1503SOL    HW1 6468   1.379   2.409   7.104
 1503SOL    HW2 6469   1.376   2.548   7.020
 1504SOL     OW 6470   0.803   3.264   6.510
 1504SOL    HW1 6471   0.893   3.278   6.468
 1504SOL    HW2 6472   0.732   3.266   6.439
 1505SOL     OW 6473   0.922   2.365   6.485
 1505SOL    HW1 6474   0.897   2.356   6.389
 1505SOL    HW2 6475   0.970   2.283   6.516
 1506SOL     OW 6476   0.539   1.926   6.098
 1506SOL    HW1 6477   0.458   1.927   6.156
 1506SOL    HW2 6478   0.542   2.009   6.043
 1507SOL     OW 6479   1.434   3.050   5.627
 1507SOL    HW1 6480   1.466   2.974   5.684
 1507SOL    HW2 6481   1.342   3.077   5.657
 1508SOL     OW 6482   0.297   1.897   5.757
 1508SOL    HW1 6483   0.346   1.981   5.736
 1508SOL    HW2 6484   0.359   1.832   5.802
 1509SOL     OW 6485   0.935   2.098   6.066
 1509SOL    HW1 6486   0.887   2.139   5.988
 1509SOL    HW2 6487   1.034   2.096   6.047
 1510SOL     OW 6488   1.076   2.545   7.050
 1510SOL    HW1 6489   0.996   2.484   7.053
 1510SOL    HW2 6490   1.157   2.492   7.026
 1511SOL     OW 6491   1.227   3.432   6.379
 1511SOL    HW1 6492   1.248   3.506   6.314
 1511SOL    HW2 6493   1.295   3.432   6.452
 1512SOL     OW 6494   0.459   3.014   6.327
 1512SOL    HW1 6495   0.388   2.987   6.392
 1512SOL    HW2 6496   0.433   2.986   6.234
 1513SOL     OW 6497   1.271   3.659   6.177
 1513SOL    HW1 6498   1.315   3.723   6.113
 1513SOL    HW2 6499   1.221   3.711   6.247
 1514SOL     OW 6500   1.032   2.411   5.602
 1514SOL    HW1 6501   0.991   2.493   5.563
 1514SOL    HW2 6502   1.096   2.437   5.675
 1515SOL     OW 6503   0.561   2.084   6.733
 1515SOL    HW1 6504   0.599   2.000   6.770
 1515SOL    HW2 6505   0.473   2.103   6.777
 1516SOL     OW 6506   0.866   2.316   6.228
 1516SOL    HW1 6507   0.834   2.388   6.166
 1516SOL    HW2 6508   0.890   2.235   6.175
 1517SOL     OW 6509   1.017   1.901   6.339
 1517SOL    HW1 6510   0.945   1.906   6.270
 1517SOL    HW2 6511   0.993   1.832   6.408
 1518SOL     OW 6512   1.429   3.035   6.453
 1518SOL    HW1 6513   1.374   2.951   6.446
 1518SOL    HW2 6514   1.455   3.064   6.361
 1519SOL     OW 6515   1.466   2.452   6.578
 1519SOL    HW1 6516   1.436   2.357   6.585
 1519SOL    HW2 6517   1.539   2.468   6.644
 1520SOL     OW 6518   1.857   2.695   5.963
 1520SOL    HW1 6519   1.899   2.631   6.027
 1520SOL    HW2 6520   1.819   2.644   5.885
 1521SOL     OW 6521   0.488   3.247   5.760
 1521SOL    HW1 6522   0.401   3.232   5.807
 1521SOL    HW2 6523   0.471   3.273   5.665
 1522SOL     OW 6524   1.664   3.142   6.243
 1522SOL    HW1 6525   1.763   3.150   6.257
 1522SOL    HW2 6526   1.619   3.226   6.274
 1523SOL     OW 6527   1.390   2.437   5.664
 1523SOL    HW1 6528   1.336   2.416   5.745
 1523SOL    HW2 6529   1.481   2.396   5.673
 1524SOL     OW 6530   0.527   2.118   5.914
 1524SOL    HW1 6531   0.554   2.059   5.839
 1524SOL    HW2 6532   0.527   2.213   5.883
 1525SOL     OW 6533   1.754   3.085   7.174
 1525SOL    HW1 6534   1.845   3.046   7.161
 1525SOL    HW2 6535   1.762   3.181   7.198
 1526SOL     OW 6536   1.064   3.209   6.926
 1526SOL    HW1 6537   0.984   3.186   6.981
 1526SOL    HW2 6538   1.147   3.183   6.975
 1527SOL     OW 6539   1.592   3.491   7.211
 1527SOL    HW1 6540   1.619   3.525   7.121
 1527SOL    HW2 6541   1.671   3.453   7.257
 1528SOL     OW 6542   1.111   3.057   6.686
 1528SOL    HW1 6543   1.071   3.101   6.767
 1528SOL    HW2 6544   1.070   3.094   6.603
 1529SOL     OW 6545   1.638   2.961   6.665
 1529SOL    HW1 6546   1.643   3.042   6.724
 1529SOL    HW2 6547   1.552   2.963   6.614
 1530SOL     OW 6548   0.915   1.951   6.988
 1530SOL    HW1 6549   0.940   1.931   6.893
 1530SOL    HW2 6550   0.987   2.007   7.030
 1531SOL     OW 6551   0.980   2.978   7.305
 1531SOL    HW1 6552   0.881   2.984   7.315
 1531SOL    HW2 6553   1.003   2.898   7.249
 1532SOL     OW 6554   0.705   2.912   5.954
 1532SOL    HW1 6555   0.691   2.919   6.053
 1532SOL    HW2 6556   0.789   2.861   5.936
 1533SOL     OW 6557   0.410   2.675   6.837
 1533SOL    HW1 6558   0.496   2.687   6.887
 1533SOL    HW2 6559   0.368   2.588   6.864
 1534SOL     OW 6560   1.274   2.248   6.848
 1534SOL    HW1 6561   1.295   2.322   6.912
 1534SOL    HW2 6562   1.185   2.265   6.805
 1535SOL     OW 6563   0.367   2.962   6.087
 1535SOL    HW1 6564   0.360   3.045   6.031
 1535SOL    HW2 6565   0.371   2.882   6.027
 1536SOL     OW 6566   0.566   2.399   6.451
 1536SOL    HW1 6567   0.578   2.465   6.377
 1536SOL    HW2 6568   0.612   2.433   6.534
 1537SOL     OW 6569   1.252   3.210   5.974
 1537SOL    HW1 6570   1.302   3.287   6.014
 1537SOL    HW2 6571   1.157   3.212   6.006
 1538SOL     OW 6572   1.272   3.307   6.728
 1538SOL    HW1 6573   1.319   3.320   6.815
 1538SOL    HW2 6574   1.206   3.233   6.737
 1539SOL     OW 6575   1.582   2.501   6.058
 1539SOL    HW1 6576   1.551   2.562   6.131
 1539SOL    HW2 6577   1.632   2.553   5.989
 1540SOL     OW 6578   0.354   3.372   6.915
 1540SOL    HW1 6579   0.333   3.328   6.828
 1540SOL    HW2 6580   0.451   3.398   6.918
 1541SOL     OW 6581   0.402   2.613   7.184
 1541SOL    HW1 6582   0.470   2.668   7.137
 1541SOL    HW2 6583   0.442   2.525   7.211
 1542SOL     OW 6584   1.587   2.641   7.256
 1542SOL    HW1 6585   1.495   2.679   7.251
 1542SOL    HW2 6586   1.647   2.688   7.191
 1543SOL     OW 6587   1.013   1.967   7.356
 1543SOL    HW1 6588   1.019   2.052   7.304
 1543SOL    HW2 6589   1.045   1.891   7.299
 1544SOL     OW 6590   0.504   1.912   7.326
 1544SOL    HW1 6591   0.462   1.855   7.256
 1544SOL    HW2 6592   0.438   1.981   7.358
 1545SOL     OW 6593   0.573   2.732   6.615
 1545SOL    HW1 6594   0.617   2.821   6.606
 1545SOL    HW2 6595   0.510   2.732   6.692
 1546SOL     OW 6596   1.360   2.724   6.631
 1546SOL    HW1 6597   1.285   2.724   6.565
 1546SOL    HW2 6598   1.397   2.632   6.640
 1547SOL     OW 6599   1.209   2.387   5.861
 1547SOL    HW1 6600   1.222   2.303   5.915
 1547SOL    HW2 6601   1.180   2.461   5.921
 1548SOL     OW 6602   0.732   2.496   6.650
 1548SOL    HW1 6603   0.791   2.470   6.574
 1548SOL    HW2 6604   0.704   2.592   6.639
 1549SOL     OW 6605   1.728   2.797   7.440
 1549SOL    HW1 6606   1.682   2.790   7.351
 1549SOL    HW2 6607   1.666   2.841   7.506
 1550SOL     OW 6608   0.307   1.925   6.204
 1550SOL    HW1 6609   0.296   2.019   6.237
 1550SOL    HW2 6610   0.302   1.862   6.281
 1551SOL     OW 6611   1.622   2.229   5.960
 1551SOL    HW1 6612   1.624   2.153   6.024
 1551SOL    HW2 6613   1.574   2.306   6.000
 1552SOL     OW 6614   1.023   2.628   6.552
 1552SOL    HW1 6615   1.038   2.649   6.648
 1552SOL    HW2 6616   0.993   2.533   6.543
 1553SOL     OW 6617   0.980   3.435   7.286
 1553SOL    HW1 6618   0.960   3.479   7.198
 1553SOL    HW2 6619   1.019   3.344   7.270
 1554SOL     OW 6620   1.859   3.380   7.191
 1554SOL    HW1 6621   1.873   3.407   7.096
 1554SOL    HW2 6622   1.942   3.402   7.244
 1555SOL     OW 6623   0.350   2.760   7.390
 1555SOL    HW1 6624   0.426   2.804   7.438
 1555SOL    HW2 6625   0.385   2.713   7.308
 1556SOL     OW 6626   1.540   2.136   5.711
 1556SOL    HW1 6627   1.479   2.061   5.734
 1556SOL    HW2 6628   1.562   2.188   5.794
 1557SOL     OW 6629   1.303   2.700   5.628
 1557SOL    HW1 6630   1.337   2.607   5.643
 1557SOL    HW2 6631   1.321   2.727   5.533
 1558SOL     OW 6632   1.068   3.195   6.435
 1558SOL    HW1 6633   1.075   3.111   6.380
 1558SOL    HW2 6634   1.130   3.264   6.399
 1559SOL     OW 6635   0.319   2.672   6.535
 1559SOL    HW1 6636   0.412   2.708   6.540
 1559SOL    HW2 6637   0.313   2.587   6.587
 1560SOL     OW 6638   1.138   2.242   7.264
 1560SOL    HW1 6639   1.093   2.305   7.328
 1560SOL    HW2 6640   1.231   2.273   7.247
 1561SOL     OW 6641   1.160   2.069   7.063
 1561SOL    HW1 6642   1.160   2.133   7.140
 1561SOL    HW2 6643   1.188   2.117   6.980
 1562SOL     OW 6644   0.504   3.430   6.496
 1562SOL    HW1 6645   0.570   3.504   6.505
 1562SOL    HW2 6646   0.548   3.351   6.454
 1563SOL     OW 6647   1.002   2.658   6.824
 1563SOL    HW1 6648   1.043   2.626   6.910
 1563SOL    HW2 6649   0.906   2.631   6.821
 1564SOL     OW 6650   1.369   2.812   7.246
 1564SOL    HW1 6651   1.408   2.901   7.266
 1564SOL    HW2 6652   1.379   2.792   7.149
 1565SOL     OW 6653   0.815   2.434   5.911
 1565SOL    HW1 6654   0.822   2.345   5.865
 1565SOL    HW2 6655   0.721   2.468   5.903
 1566SOL     OW 6656   1.657   2.466   6.792
 1566SOL    HW1 6657   1.619   2.397   6.854
 1566SOL    HW2 6658   1.739   2.430   6.748
 1567SOL     OW 6659   0.671   2.326   6.855
 1567SOL    HW1 6660   0.637   2.237   6.825
 1567SOL    HW2 6661   0.697   2.380   6.775
 1568SOL     OW 6662   0.930   3.540   7.051
 1568SOL    HW1 6663   0.906   3.522   6.956
 1568SOL    HW2 6664   0.960   3.634   7.061
 1569SOL     OW 6665   0.473   2.362   5.777
 1569SOL    HW1 6666   0.534   2.442   5.781
 1569SOL    HW2 6667   0.378   2.393   5.784
 1570SOL     OW 6668   1.347   2.921   6.820
 1570SOL    HW1 6669   1.371   2.858   6.746
 1570SOL    HW2 6670   1.257   2.961   6.802
 1571SOL     OW 6671   1.302   2.717   5.895
 1571SOL    HW1 6672   1.216   2.686   5.937
 1571SOL    HW2 6673   1.298   2.703   5.796
 1572SOL     OW 6674   1.759   3.609   6.740
 1572SOL    HW1 6675   1.820   3.639   6.667
 1572SOL    HW2 6676   1.721   3.520   6.718
 1573SOL     OW 6677   1.252   3.593   6.714
 1573SOL    HW1 6678   1.336   3.598   6.660
 1573SOL    HW2 6679   1.229   3.497   6.732
 1574SOL     OW 6680   0.688   3.524   7.302
 1574SOL    HW1 6681   0.632   3.605   7.311
 1574SOL    HW2 6682   0.740   3.528   7.216
 1575SOL     OW 6683   0.903   1.948   5.719
 1575SOL    HW1 6684   0.954   1.949   5.633
 1575SOL    HW2 6685   0.959   1.906   5.790
 1576SOL     OW 6686   1.726   1.997   6.109
 1576SOL    HW1 6687   1.799   1.980   6.042
 1576SOL    HW2 6688   1.695   1.910   6.147
 1577SOL     OW 6689   1.388   3.435   6.063
 1577SOL    HW1 6690   1.455   3.447   5.989
 1577SOL    HW2 6691   1.348   3.524   6.086
 1578SOL     OW 6692   0.130   3.656   7.437
 1578SOL    HW1 6693   0.089   3.582   7.490
 1578SOL    HW2 6694   0.194   3.707   7.495
 1579SOL     OW 6695   1.280   2.789   6.258
 1579SOL    HW1 6696   1.340   2.708   6.260
 1579SOL    HW2 6697   1.320   2.858   6.198
 1580SOL     OW 6698   0.830   3.135   7.008
 1580SOL    HW1 6699   0.825   3.168   7.103
 1580SOL    HW2 6700   0.744   3.154   6.962
 1581SOL     OW 6701   0.672   3.478   5.740
 1581SOL    HW1 6702   0.681   3.488   5.641
 1581SOL    HW2 6703   0.632   3.389   5.761
 1582SOL     OW 6704   1.650   3.582   6.980
 1582SOL    HW1 6705   1.703   3.592   6.896
 1582SOL    HW2 6706   1.623   3.672   7.014
 1583SOL     OW 6707   1.841   2.037   6.549
 1583SOL    HW1 6708   1.880   1.952   6.513
 1583SOL    HW2 6709   1.743   2.039   6.530
 1584SOL     OW 6710   0.263   2.188   6.306
 1584SOL    HW1 6711   0.184   2.239   6.272
 1584SOL    HW2 6712   0.254   2.173   6.404
 1585SOL     OW 6713   1.194   3.474   5.617
 1585SOL    HW1 6714   1.200   3.381   5.654
 1585SOL    HW2 6715   1.135   3.474   5.537
 1586SOL     OW 6716   0.822   2.864   6.958
 1586SOL    HW1 6717   0.862   2.863   6.866
 1586SOL    HW2 6718   0.832   2.956   6.998
 1587SOL     OW 6719   0.916   2.772   5.877
 1587SOL    HW1 6720   0.979   2.810   5.809
 1587SOL    HW2 6721   0.956   2.689   5.916
 1588SOL     OW 6722   1.504   3.469   5.630
 1588SOL    HW1 6723   1.412   3.506   5.637
 1588SOL    HW2 6724   1.542   3.489   5.540
 1589SOL     OW 6725   0.372   3.150   7.076
 1589SOL    HW1 6726   0.359   3.243   7.042
 1589SOL    HW2 6727   0.288   3.098   7.063
 1590SOL     OW 6728   1.614   3.154   6.875
 1590SOL    HW1 6729   1.674   3.157   6.955
 1590SOL    HW2 6730   1.539   3.218   6.888
 1591SOL     OW 6731   1.039   2.960   6.282
 1591SOL    HW1 6732   0.969   2.913   6.336
 1591SOL    HW2 6733   1.098   2.892   6.239
 1592SOL     OW 6734   1.014   2.098   6.557
 1592SOL    HW1 6735   1.006   2.062   6.464
 1592SOL    HW2 6736   1.012   2.022   6.622
 1593SOL     OW 6737   0.590   3.349   6.077
 1593SOL    HW1 6738   0.632   3.291   6.007
 1593SOL    HW2 6739   0.546   3.428   6.033
 1594SOL     OW 6740   1.709   2.247   6.967
 1594SOL    HW1 6741   1.782   2.316   6.971
 1594SOL    HW2 6742   1.737   2.172   6.908
 1595SOL     OW 6743   0.255   3.210   5.876
 1595SOL    HW1 6744   0.159   3.211   5.849
 1595SOL    HW2 6745   0.267   3.263   5.960
 1596SOL     OW 6746   0.672   2.065   7.075
 1596SOL    HW1 6747   0.762   2.049   7.035
 1596SOL    HW2 6748   0.680   2.070   7.174
 1597SOL     OW 6749   1.440   2.718   6.984
 1597SOL    HW1 6750   1.383   2.770   6.921
 1597SOL    HW2 6751   1.536   2.730   6.960
 1598SOL     OW 6752   1.183   3.197   5.705
 1598SOL    HW1 6753   1.084   3.186   5.707
 1598SOL    HW2 6754   1.217   3.212   5.798
 1599SOL     OW 6755   0.613   2.704   7.017
 1599SOL    HW1 6756   0.669   2.785   7.000
 1599SOL    HW2 6757   0.672   2.624   7.020
 1600SOL     OW 6758   1.493   3.629   6.545
 1600SOL    HW1 6759   1.526   3.693   6.476
 1600SOL    HW2 6760   1.559   3.623   6.620
 1601SOL     OW 6761   0.716   2.427   7.294
 1601SOL    HW1 6762   0.735   2.492   7.368
 1601SOL    HW2 6763   0.776   2.347   7.303
 1602SOL     OW 6764   1.450   3.082   7.219
 1602SOL    HW1 6765   1.441   3.072   7.318
 1602SOL    HW2 6766   1.546   3.075   7.193
 1603SOL     OW 6767   0.390   3.603   7.146
 1603SOL    HW1 6768   0.299   3.644   7.144
 1603SOL    HW2 6769   0.383   3.509   7.178
 1604SOL     OW 6770   1.674   2.745   6.840
 1604SOL    HW1 6771   1.647   2.656   6.803
 1604SOL    HW2 6772   1.675   2.813   6.767
 1605SOL     OW 6773   1.225   2.187   6.035
 1605SOL    HW1 6774   1.290   2.113   6.024
 1605SOL    HW2 6775   1.245   2.237   6.119
 1606SOL     OW 6776   0.594   2.607   6.238
 1606SOL    HW1 6777   0.644   2.692   6.219
 1606SOL    HW2 6778   0.506   2.609   6.190
 1607SOL     OW 6779   1.777   2.204   7.228
 1607SOL    HW1 6780   1.760   2.235   7.134
 1607SOL    HW2 6781   1.693   2.167   7.266
 1608SOL     OW 6782   1.730   2.796   7.103
 1608SOL    HW1 6783   1.768   2.887   7.118
 1608SOL    HW2 6784   1.722   2.779   7.004
 1609SOL     OW 6785   0.859   3.236   5.602
 1609SOL    HW1 6786   0.813   3.251   5.690
 1609SOL    HW2 6787   0.903   3.321   5.572
 1610SOL     OW 6788   0.661   3.652   6.539
 1610SOL    HW1 6789   0.615   3.740   6.526
 1610SOL    HW2 6790   0.760   3.664   6.532
 1611SOL     OW 6791   1.408   3.713   7.306
 1611SOL    HW1 6792   1.312   3.702   7.279
 1611SOL    HW2 6793   1.464   3.646   7.258
 1612SOL     OW 6794   0.859   2.818   6.447
 1612SOL    HW1 6795   0.913   2.749   6.495
 1612SOL    HW2 6796   0.827   2.887   6.513
 1613SOL     OW 6797   1.083   2.846   5.673
 1613SOL    HW1 6798   1.060   2.899   5.591
 1613SOL    HW2 6799   1.164   2.790   5.654
 1614SOL     OW 6800   1.861   3.431   6.437
 1614SOL    HW1 6801   1.790   3.419   6.367
 1614SOL    HW2 6802   1.862   3.352   6.497
 1615SOL     OW 6803   0.672   3.253   7.210
 1615SOL    HW1 6804   0.594   3.203   7.248
 1615SOL    HW2 6805   0.669   3.348   7.241
 1616SOL     OW 6806   1.824   2.054   6.813
 1616SOL    HW1 6807   1.820   1.964   6.857
 1616SOL    HW2 6808   1.827   2.043   6.714
 1617SOL     OW 6809   0.428   2.286   6.106
 1617SOL    HW1 6810   0.458   2.214   6.044
 1617SOL    HW2 6811   0.389   2.246   6.189
 1618SOL     OW 6812   1.705   3.349   6.690
 1618SOL    HW1 6813   1.612   3.324   6.663
 1618SOL    HW2 6814   1.731   3.299   6.772
 1619SOL     OW 6815   0.812   3.448   6.273
 1619SOL    HW1 6816   0.844   3.458   6.179
 1619SOL    HW2 6817   0.733   3.386   6.275
 1620SOL     OW 6818   1.424   2.076   6.698
 1620SOL    HW1 6819   1.476   2.011   6.753
 1620SOL    HW2 6820   1.375   2.139   6.759
 1621SOL     OW 6821   1.001   1.896   6.740
 1621SOL    HW1 6822   0.938   1.824   6.709
 1621SOL    HW2 6823   1.094   1.860   6.740
 1622SOL     OW 6824   0.770   3.192   5.887
 1622SOL    HW1 6825   0.724   3.105   5.904
 1622SOL    HW2 6826   0.861   3.189   5.928
 1623SOL     OW 6827   0.618   3.429   6.870
 1623SOL    HW1 6828   0.613   3.511   6.927
 1623SOL    HW2 6829   0.707   3.426   6.825
 1624SOL     OW 6830   1.352   1.914   5.754
 1624SOL    HW1 6831   1.387   1.873   5.670
 1624SOL    HW2 6832   1.262   1.876   5.774
 1625SOL     OW 6833   1.300   2.315   6.277
 1625SOL    HW1 6834   1.241   2.395   6.281
 1625SOL    HW2 6835   1.315   2.280   6.370
 1626SOL     OW 6836   1.593   2.083   6.468
 1626SOL    HW1 6837   1.509   2.082   6.522
 1626SOL    HW2 6838   1.595   2.166   6.412
 1627SOL     OW 6839   0.875   3.508   5.923
 1627SOL    HW1 6840   0.798   3.473   5.869
 1627SOL    HW2 6841   0.843   3.579   5.985
 1628SOL     OW 6842   0.019   2.230   8.095
 1628SOL    HW1 6843  -0.063   2.273   8.134
 1628SOL    HW2 6844  -0.009   2.157   8.032
 1629SOL     OW 6845   0.569   3.137   8.613
 1629SOL    HW1 6846   0.476   3.130   8.576
 1629SOL    HW2 6847   0.580   3.226   8.657
 1630SOL     OW 6848   1.555   3.373   8.151
 1630SOL    HW1 6849   1.498   3.357   8.232
 1630SOL    HW2 6850   1.496   3.383   8.071
 1631SOL     OW 6851   1.743   2.480   8.304
 1631SOL    HW1 6852   1.776   2.574   8.304
 1631SOL    HW2 6853   1.794   2.426   8.370
 1632SOL     OW 6854   1.135   2.565   8.165
 1632SOL    HW1 6855   1.192   2.643   8.140
 1632SOL    HW2 6856   1.075   2.591   8.241
 1633SOL     OW 6857   1.755   2.469   7.679
 1633SOL    HW1 6858   1.743   2.456   7.580
 1633SOL    HW2 6859   1.725   2.388   7.728
 1634SOL     OW 6860   0.768   3.006   8.471
 1634SOL    HW1 6861   0.690   3.023   8.531
 1634SOL    HW2 6862   0.802   3.093   8.435
 1635SOL     OW 6863   0.685   2.874   8.113
 1635SOL    HW1 6864   0.754   2.858   8.183
 1635SOL    HW2 6865   0.612   2.931   8.151
 1636SOL     OW 6866   0.335   3.297   8.509
 1636SOL    HW1 6867   0.257   3.266   8.456
 1636SOL    HW2 6868   0.393   3.355   8.452
 1637SOL     OW 6869   1.460   3.367   8.787
 1637SOL    HW1 6870   1.484   3.461   8.813
 1637SOL    HW2 6871   1.444   3.313   8.869
 1638SOL     OW 6872   0.438   2.254   8.947
 1638SOL    HW1 6873   0.520   2.198   8.956
 1638SOL    HW2 6874   0.357   2.196   8.951
 1639SOL     OW 6875   1.603   2.309   8.185
 1639SOL    HW1 6876   1.529   2.355   8.135
 1639SOL    HW2 6877   1.654   2.377   8.238
 1640SOL     OW 6878   0.620   3.648   8.887
 1640SOL    HW1 6879   0.528   3.631   8.922
 1640SOL    HW2 6880   0.648   3.740   8.913
 1641SOL     OW 6881   0.606   2.826   7.571
 1641SOL    HW1 6882   0.613   2.910   7.517
 1641SOL    HW2 6883   0.652   2.839   7.659
 1642SOL     OW 6884   1.594   1.976   8.928
 1642SOL    HW1 6885   1.576   2.043   8.856
 1642SOL    HW2 6886   1.591   2.022   9.017
 1643SOL     OW 6887   1.842   3.629   7.807
 1643SOL    HW1 6888   1.896   3.600   7.887
 1643SOL    HW2 6889   1.872   3.719   7.778
 1644SOL     OW 6890   1.689   2.784   8.060
 1644SOL    HW1 6891   1.784   2.755   8.068
 1644SOL    HW2 6892   1.681   2.849   7.985
 1645SOL     OW 6893   1.641   2.970   7.880
 1645SOL    HW1 6894   1.727   2.972   7.828
 1645SOL    HW2 6895   1.655   3.017   7.968
 1646SOL     OW 6896   0.613   3.227   8.174
 1646SOL    HW1 6897   0.564   3.140   8.183
 1646SOL    HW2 6898   0.590   3.270   8.087
 1647SOL     OW 6899   0.809   1.866   7.950
 1647SOL    HW1 6900   0.849   1.957   7.941
 1647SOL    HW2 6901   0.709   1.874   7.956
 1648SOL     OW 6902   1.525   2.861   7.638
 1648SOL    HW1 6903   1.462   2.785   7.651
 1648SOL    HW2 6904   1.573   2.879   7.724
 1649SOL     OW 6905   1.466   3.279   8.401
 1649SOL    HW1 6906   1.407   3.285   8.481
 1649SOL    HW2 6907   1.451   3.191   8.355
 1650SOL     OW 6908   1.667   3.576   8.020
 1650SOL    HW1 6909   1.626   3.553   7.932
 1650SOL    HW2 6910   1.649   3.502   8.085
 1651SOL     OW 6911   0.598   2.591   7.718
 1651SOL    HW1 6912   0.622   2.660   7.650
 1651SOL    HW2 6913   0.520   2.624   7.772
 1652SOL     OW 6914   1.281   2.207   8.392
 1652SOL    HW1 6915   1.195   2.157   8.379
 1652SOL    HW2 6916   1.343   2.153   8.448
 1653SOL     OW 6917   1.576   3.524   7.755
 1653SOL    HW1 6918   1.665   3.570   7.758
 1653SOL    HW2 6919   1.555   3.500   7.660
 1654SOL     OW 6920   0.807   2.467   8.913
 1654SOL    HW1 6921   0.760   2.464   9.002
 1654SOL    HW2 6922   0.756   2.412   8.847
 1655SOL     OW 6923   0.991   2.272   8.690
 1655SOL    HW1 6924   0.914   2.306   8.744
 1655SOL    HW2 6925   0.957   2.221   8.611
 1656SOL     OW 6926   1.041   2.563   7.877
 1656SOL    HW1 6927   1.067   2.559   7.973
 1656SOL    HW2 6928   0.956   2.512   7.863
 1657SOL     OW 6929   0.865   2.210   7.643
 1657SOL    HW1 6930   0.924   2.273   7.594
 1657SOL    HW2 6931   0.884   2.116   7.614
 1658SOL     OW 6932   1.362   3.006   7.993
 1658SOL    HW1 6933   1.445   2.977   7.945
 1658SOL    HW2 6934   1.313   3.073   7.937
 1659SOL     OW 6935   0.550   2.058   8.333
 1659SOL    HW1 6936   0.545   2.053   8.433
 1659SOL    HW2 6937   0.552   2.154   8.304
 1660SOL     OW 6938   1.008   3.318   7.925
 1660SOL    HW1 6939   0.962   3.390   7.873
 1660SOL    HW2 6940   1.004   3.338   8.023
 1661SOL     OW 6941   0.351   3.663   8.301
 1661SOL    HW1 6942   0.401   3.577   8.307
 1661SOL    HW2 6943   0.416   3.740   8.298
 1662SOL     OW 6944   1.795   2.928   8.321
 1662SOL    HW1 6945   1.733   2.913   8.245
 1662SOL    HW2 6946   1.743   2.939   8.406
 1663SOL     OW 6947   0.321   2.805   7.690
 1663SOL    HW1 6948   0.403   2.844   7.648
 1663SOL    HW2 6949   0.294   2.723   7.641
 1664SOL     OW 6950   1.458   2.597   8.176
 1664SOL    HW1 6951   1.453   2.532   8.251
 1664SOL    HW2 6952   1.538   2.656   8.189
 1665SOL     OW 6953   1.111   3.638   7.685
 1665SOL    HW1 6954   1.051   3.576   7.735
 1665SOL    HW2 6955   1.142   3.594   7.600
 1666SOL     OW 6956   1.632   3.239   7.529
 1666SOL    HW1 6957   1.600   3.333   7.519
 1666SOL    HW2 6958   1.556   3.176   7.517
 1667SOL     OW 6959   0.464   3.605   7.771
 1667SOL    HW1 6960   0.497   3.644   7.857
 1667SOL    HW2 6961   0.540   3.598   7.706
 1668SOL     OW 6962   1.400   1.969   7.874
 1668SOL    HW1 6963   1.376   1.932   7.784
 1668SOL    HW2 6964   1.499   1.985   7.878
 1669SOL     OW 6965   0.940   3.560   8.352
 1669SOL    HW1 6966   1.020   3.503   8.373
 1669SOL    HW2 6967   0.891   3.520   8.275
 1670SOL     OW 6968   0.382   2.562   7.928
 1670SOL    HW1 6969   0.427   2.472   7.925
 1670SOL    HW2 6970   0.288   2.551   7.961
 1671SOL     OW 6971   0.614   1.984   7.565
 1671SOL    HW1 6972   0.712   1.962   7.572
 1671SOL    HW2 6973   0.583   1.967   7.472
 1672SOL     OW 6974   0.888   3.376   8.643
 1672SOL    HW1 6975   0.865   3.351   8.549
 1672SOL    HW2 6976   0.949   3.307   8.682
 1673SOL     OW 6977   0.803   3.264   8.372
 1673SOL    HW1 6978   0.893   3.278   8.330
 1673SOL    HW2 6979   0.732   3.266   8.301
 1674SOL     OW 6980   0.922   2.365   8.347
 1674SOL    HW1 6981   0.897   2.356   8.251
 1674SOL    HW2 6982   0.970   2.283   8.378
 1675SOL     OW 6983   0.539   1.926   7.960
 1675SOL    HW1 6984   0.458   1.927   8.018
 1675SOL    HW2 6985   0.542   2.009   7.905
 1676SOL     OW 6986   1.434   3.050   7.489
 1676SOL    HW1 6987   1.466   2.974   7.546
 1676SOL    HW2 6988   1.342   3.077   7.519
 1677SOL     OW 6989   0.297   1.897   7.619
 1677SOL    HW1 6990   0.346   1.981   7.598
 1677SOL    HW2 6991   0.359   1.832   7.664
 1678SOL     OW 6992   0.935   2.098   7.928
 1678SOL    HW1 6993   0.887   2.139   7.850
 1678SOL    HW2 6994   1.034   2.096   7.909
 1679SOL     OW 6995   1.227   3.432   8.241
 1679SOL    HW1 6996   1.248   3.506   8.176
 1679SOL    HW2 6997   1.295   3.432   8.314
 1680SOL     OW 6998   0.459   3.014   8.189
 1680SOL    HW1 6999   0.388   2.987   8.254
 1680SOL    HW2 7000   0.433   2.986   8.096
 1681SOL     OW 7001   1.271   3.659   8.039
 1681SOL    HW1 7002   1.315   3.723   7.975
 1681SOL    HW2 7003   1.221   3.711   8.109
 1682SOL     OW 7004   1.032   2.411   7.464
 1682SOL    HW1 7005   0.991   2.493   7.425
 1682SOL    HW2 7006   1.096   2.437   7.537
 1683SOL     OW 7007   0.561   2.084   8.595
 1683SOL    HW1 7008   0.599   2.000   8.632
 1683SOL    HW2 7009   0.473   2.103   8.639
 1684SOL     OW 7010   0.866   2.316   8.090
 1684SOL    HW1 7011   0.834   2.388   8.028
 1684SOL    HW2 7012   0.890   2.235   8.037
 1685SOL     OW 7013   1.017   1.901   8.201
 1685SOL    HW1 7014   0.945   1.906   8.132
 1685SOL    HW2 7015   0.993   1.832   8.270
 1686SOL     OW 7016   1.429   3.035   8.315
 1686SOL    HW1 7017   1.374   2.951   8.308
 1686SOL    HW2 7018   1.455   3.064   8.223
 1687SOL     OW 7019   1.466   2.452   8.440
 1687SOL    HW1 7020   1.436   2.357   8.447
 1687SOL    HW2 7021   1.539   2.468   8.506
 1688SOL     OW 7022   1.857   2.695   7.825
 1688SOL    HW1 7023   1.899   2.631   7.889
 1688SOL    HW2 7024   1.819   2.644   7.747
 1689SOL     OW 7025   0.488   3.247   7.622
 1689SOL    HW1 7026   0.401   3.232   7.669
 1689SOL    HW2 7027   0.471   3.273   7.527
 1690SOL     OW 7028   1.664   3.142   8.105
 1690SOL    HW1 7029   1.763   3.150   8.119
 1690SOL    HW2 7030   1.619   3.226   8.136
 1691SOL     OW 7031   1.390   2.437   7.526
 1691SOL    HW1 7032   1.336   2.416   7.607
 1691SOL    HW2 7033   1.481   2.396   7.535
 1692SOL     OW 7034   0.527   2.118   7.776
 1692SOL    HW1 7035   0.554   2.059   7.701
 1692SOL    HW2 7036   0.527   2.213   7.745
 1693SOL     OW 7037   1.064   3.209   8.788
 1693SOL    HW1 7038   0.984   3.186   8.843
 1693SOL    HW2 7039   1.147   3.183   8.837
 1694SOL     OW 7040   1.111   3.057   8.548
 1694SOL    HW1 7041   1.071   3.101   8.629
 1694SOL    HW2 7042   1.070   3.094   8.465
 1695SOL     OW 7043   1.638   2.961   8.527
 1695SOL    HW1 7044   1.643   3.042   8.586
 1695SOL    HW2 7045   1.552   2.963   8.476
 1696SOL     OW 7046   0.915   1.951   8.850
 1696SOL    HW1 7047   0.940   1.931   8.755
 1696SOL    HW2 7048   0.987   2.007   8.892
 1697SOL     OW 7049   0.705   2.912   7.816
 1697SOL    HW1 7050   0.691   2.919   7.915
 1697SOL    HW2 7051   0.789   2.861   7.798
 1698SOL     OW 7052   0.410   2.675   8.699
 1698SOL    HW1 7053   0.496   2.687   8.749
 1698SOL    HW2 7054   0.368   2.588   8.726
 1699SOL     OW 7055   1.274   2.248   8.710
 1699SOL    HW1 7056   1.295   2.322   8.774
 1699SOL    HW2 7057   1.185   2.265   8.667
 1700SOL     OW 7058   0.367   2.962   7.949
 1700SOL    HW1 7059   0.360   3.045   7.893
 1700SOL    HW2 7060   0.371   2.882   7.889
 1701SOL     OW 7061   0.566   2.399   8.313
 1701SOL    HW1 7062   0.578   2.465   8.239
 1701SOL    HW2 7063   0.612   2.433   8.396
 1702SOL     OW 7064   1.252   3.210   7.836
 1702SOL    HW1 7065   1.302   3.287   7.876
 1702SOL    HW2 7066   1.157   3.212   7.868
 1703SOL     OW 7067   1.272   3.307   8.590
 1703SOL    HW1 7068   1.319   3.320   8.677
 1703SOL    HW2 7069   1.206   3.233   8.599
 1704SOL     OW 7070   1.582   2.501   7.920
 1704SOL    HW1 7071   1.551   2.562   7.993
 1704SOL    HW2 7072   1.632   2.553   7.851
 1705SOL     OW 7073   0.354   3.372   8.777
 1705SOL    HW1 7074   0.333   3.328   8.690
 1705SOL    HW2 7075   0.451   3.398   8.780
 1706SOL     OW 7076   0.402   2.613   0.046
 1706SOL    HW1 7077   0.470   2.668  -0.001
 1706SOL    HW2 7078   0.442   2.525   0.073
 1707SOL     OW 7079   1.587   2.641   0.118
 1707SOL    HW1 7080   1.495   2.679   0.113
 1707SOL    HW2 7081   1.647   2.688   0.053
 1708SOL     OW 7082   0.573   2.732   8.477
 1708SOL    HW1 7083   0.617   2.821   8.468
 1708SOL    HW2 7084   0.510   2.732   8.554
 1709SOL     OW 7085   1.360   2.724   8.493
 1709SOL    HW1 7086   1.285   2.724   8.427
 1709SOL    HW2 7087   1.397   2.632   8.502
 1710SOL     OW 7088   1.209   2.387   7.723
 1710SOL    HW1 7089   1.222   2.303   7.777
 1710SOL    HW2 7090   1.180   2.461   7.783
 1711SOL     OW 7091   0.732   2.496   8.512
 1711SOL    HW1 7092   0.791   2.470   8.436
 1711SOL    HW2 7093   0.704   2.592   8.501
 1712SOL     OW 7094   0.307   1.925   8.066
 1712SOL    HW1 7095   0.296   2.019   8.099
 1712SOL    HW2 7096   0.302   1.862   8.143
 1713SOL     OW 7097   1.622   2.229   7.822
 1713SOL    HW1 7098   1.624   2.153   7.886
 1713SOL    HW2 7099   1.574   2.306   7.862
 1714SOL     OW 7100   1.023   2.628   8.414
 1714SOL    HW1 7101   1.038   2.649   8.510
 1714SOL    HW2 7102   0.993   2.533   8.405
 1715SOL     OW 7103   0.980   3.435   0.148
 1715SOL    HW1 7104   0.960   3.479   0.060
 1715SOL    HW2 7105   1.019   3.344   0.132
 1716SOL     OW 7106   1.859   3.380   0.053
 1716SOL    HW1 7107   1.873   3.407  -0.042
 1716SOL    HW2 7108   1.942   3.402   0.106
 1717SOL     OW 7109   1.540   2.136   7.573
 1717SOL    HW1 7110   1.479   2.061   7.596
 1717SOL    HW2 7111   1.562   2.188   7.656
 1718SOL     OW 7112   1.303   2.700   7.490
 1718SOL    HW1 7113   1.337   2.607   7.505
 1718SOL    HW2 7114   1.321   2.727   7.395
 1719SOL     OW 7115   1.068   3.195   8.297
 1719SOL    HW1 7116   1.075   3.111   8.242
 1719SOL    HW2 7117   1.130   3.264   8.261
 1720SOL     OW 7118   0.319   2.672   8.397
 1720SOL    HW1 7119   0.412   2.708   8.402
 1720SOL    HW2 7120   0.313   2.587   8.449
 1721SOL     OW 7121   1.138   2.242   0.126
 1721SOL    HW1 7122   1.093   2.305   0.190
 1721SOL    HW2 7123   1.231   2.273   0.109
 1722SOL     OW 7124   1.160   2.069   8.925
 1722SOL    HW1 7125   1.160   2.133   9.002
 1722SOL    HW2 7126   1.188   2.117   8.842
 1723SOL     OW 7127   0.504   3.430   8.358
 1723SOL    HW1 7128   0.570   3.504   8.367
 1723SOL    HW2 7129   0.548   3.351   8.316
 1724SOL     OW 7130   1.002   2.658   8.686
 1724SOL    HW1 7131   1.043   2.626   8.772
 1724SOL    HW2 7132   0.906   2.631   8.683
 1725SOL     OW 7133   0.815   2.434   7.773
 1725SOL    HW1 7134   0.822   2.345   7.727
 1725SOL    HW2 7135   0.721   2.468   7.765
 1726SOL     OW 7136   1.657   2.466   8.654
 1726SOL    HW1 7137   1.619   2.397   8.716
 1726SOL    HW2 7138   1.739   2.430   8.610
 1727SOL     OW 7139   0.671   2.326   8.717
 1727SOL    HW1 7140   0.637   2.237   8.687
 1727SOL    HW2 7141   0.697   2.380   8.637
 1728SOL     OW 7142   0.930   3.540   8.913
 1728SOL    HW1 7143   0.906   3.522   8.818
 1728SOL    HW2 7144   0.960   3.634   8.923
 1729SOL     OW 7145   0.473   2.362   7.639
 1729SOL    HW1 7146   0.534   2.442   7.643
 1729SOL    HW2 7147   0.378   2.393   7.646
 1730SOL     OW 7148   1.347   2.921   8.682
 1730SOL    HW1 7149   1.371   2.858   8.608
 1730SOL    HW2 7150   1.257   2.961   8.664
 1731SOL     OW 7151   1.302   2.717   7.757
 1731SOL    HW1 7152   1.216   2.686   7.799
 1731SOL    HW2 7153   1.298   2.703   7.658
 1732SOL     OW 7154   1.759   3.609   8.602
 1732SOL    HW1 7155   1.820   3.639   8.529
 1732SOL    HW2 7156   1.721   3.520   8.580
 1733SOL     OW 7157   1.252   3.593   8.576
 1733SOL    HW1 7158   1.336   3.598   8.522
 1733SOL    HW2 7159   1.229   3.497   8.594
 1734SOL     OW 7160   0.903   1.948   7.581
 1734SOL    HW1 7161   0.954   1.949   7.495
 1734SOL    HW2 7162   0.959   1.906   7.652
 1735SOL     OW 7163   1.726   1.997   7.971
 1735SOL    HW1 7164   1.799   1.980   7.904
 1735SOL    HW2 7165   1.695   1.910   8.009
 1736SOL     OW 7166   1.388   3.435   7.925
 1736SOL    HW1 7167   1.455   3.447   7.851
 1736SOL    HW2 7168   1.348   3.524   7.948
 1737SOL     OW 7169   1.280   2.789   8.120
 1737SOL    HW1 7170   1.340   2.708   8.122
 1737SOL    HW2 7171   1.320   2.858   8.060
 1738SOL     OW 7172   0.672   3.478   7.602
 1738SOL    HW1 7173   0.681   3.488   7.503
 1738SOL    HW2 7174   0.632   3.389   7.623
 1739SOL     OW 7175   1.650   3.582   8.842
 1739SOL    HW1 7176   1.703   3.592   8.758
 1739SOL    HW2 7177   1.623   3.672   8.876
 1740SOL     OW 7178   1.841   2.037   8.411
 1740SOL    HW1 7179   1.880   1.952   8.375
 1740SOL    HW2 7180   1.743   2.039   8.392
 1741SOL     OW 7181   0.263   2.188   8.168
 1741SOL    HW1 7182   0.184   2.239   8.134
 1741SOL    HW2 7183   0.254   2.173   8.266
 1742SOL     OW 7184   1.194   3.474   7.479
 1742SOL    HW1 7185   1.200   3.381   7.516
 1742SOL    HW2 7186   1.135   3.474   7.399
 1743SOL     OW 7187   0.822   2.864   8.820
 1743SOL    HW1 7188   0.862   2.863   8.728
 1743SOL    HW2 7189   0.832   2.956   8.860
 1744SOL     OW 7190   0.916   2.772   7.739
 1744SOL    HW1 7191   0.979   2.810   7.671
 1744SOL    HW2 7192   0.956   2.689   7.778
 1745SOL     OW 7193   1.504   3.469   7.492
 1745SOL    HW1 7194   1.412   3.506   7.499
 1745SOL    HW2 7195   1.542   3.489   7.402
 1746SOL     OW 7196   0.372   3.150   8.938
 1746SOL    HW1 7197   0.359   3.243   8.904
 1746SOL    HW2 7198   0.288   3.098   8.925
 1747SOL     OW 7199   1.614   3.154   8.737
 1747SOL    HW1 7200   1.674   3.157   8.817
 1747SOL    HW2 7201   1.539   3.218   8.750
 1748SOL     OW 7202   1.039   2.960   8.144
 1748SOL    HW1 7203   0.969   2.913   8.198
 1748SOL    HW2 7204   1.098   2.892   8.101
 1749SOL     OW 7205   1.014   2.098   8.419
 1749SOL    HW1 7206   1.006   2.062   8.326
 1749SOL    HW2 7207   1.012   2.022   8.484
 1750SOL     OW 7208   0.590   3.349   7.939
 1750SOL    HW1 7209   0.632   3.291   7.869
 1750SOL    HW2 7210   0.546   3.428   7.895
 1751SOL     OW 7211   1.709   2.247   8.829
 1751SOL    HW1 7212   1.782   2.316   8.833
 1751SOL    HW2 7213   1.737   2.172   8.770
 1752SOL     OW 7214   0.255   3.210   7.738
 1752SOL    HW1 7215   0.159   3.211   7.711
 1752SOL    HW2 7216   0.267   3.263   7.822
 1753SOL     OW 7217   1.440   2.718   8.846
 1753SOL    HW1 7218   1.383   2.770   8.783
 1753SOL    HW2 7219   1.536   2.730   8.822
 1754SOL     OW 7220   1.183   3.197   7.567
 1754SOL    HW1 7221   1.084   3.186   7.569
 1754SOL    HW2 7222   1.217   3.212   7.660
 1755SOL     OW 7223   0.613   2.704   8.879
 1755SOL    HW1 7224   0.669   2.785   8.862
 1755SOL    HW2 7225   0.672   2.624   8.882
 1756SOL     OW 7226   1.493   3.629   8.407
 1756SOL    HW1 7227   1.526   3.693   8.338
 1756SOL    HW2 7228   1.559   3.623   8.482
 1757SOL     OW 7229   0.390   3.603   0.008
 1757SOL    HW1 7230   0.299   3.644   0.006
 1757SOL    HW2 7231   0.383   3.509   0.040
 1758SOL     OW 7232   1.674   2.745   8.702
 1758SOL    HW1 7233   1.647   2.656   8.665
 1758SOL    HW2 7234   1.675   2.813   8.629
 1759SOL     OW 7235   1.225   2.187   7.897
 1759SOL    HW1 7236   1.290   2.113   7.886
 1759SOL    HW2 7237   1.245   2.237   7.981
 1760SOL     OW 7238   0.594   2.607   8.100
 1760SOL    HW1 7239   0.644   2.692   8.081
 1760SOL    HW2 7240   0.506   2.609   8.052
 1761SOL     OW 7241   1.777   2.204   0.090
 1761SOL    HW1 7242   1.760   2.235  -0.004
 1761SOL    HW2 7243   1.693   2.167   0.128
 1762SOL     OW 7244   1.730   2.796   8.965
 1762SOL    HW1 7245   1.768   2.887   8.980
 1762SOL    HW2 7246   1.722   2.779   8.866
 1763SOL     OW 7247   0.859   3.236   7.464
 1763SOL    HW1 7248   0.813   3.251   7.552
 1763SOL    HW2 7249   0.903   3.321   7.434
 1764SOL     OW 7250   0.661   3.652   8.401
 1764SOL    HW1 7251   0.615   3.740   8.388
 1764SOL    HW2 7252   0.760   3.664   8.394
 1765SOL     OW 7253   1.408   3.713   0.168
 1765SOL    HW1 7254   1.312   3.702   0.141
 1765SOL    HW2 7255   1.464   3.646   0.120
 1766SOL     OW 7256   0.859   2.818   8.309
 1766SOL    HW1 7257   0.913   2.749   8.357
 1766SOL    HW2 7258   0.827   2.887   8.375
 1767SOL     OW 7259   1.083   2.846   7.535
 1767SOL    HW1 7260   1.060   2.899   7.453
 1767SOL    HW2 7261   1.164   2.790   7.516
 1768SOL     OW 7262   1.861   3.431   8.299
 1768SOL    HW1 7263   1.790   3.419   8.229
 1768SOL    HW2 7264   1.862   3.352   8.359
 1769SOL     OW 7265   1.824   2.054   8.675
 1769SOL    HW1 7266   1.820   1.964   8.719
 1769SOL    HW2 7267   1.827   2.043   8.576
 1770SOL     OW 7268   0.428   2.286   7.968
 1770SOL    HW1 7269   0.458   2.214   7.906
 1770SOL    HW2 7270   0.389   2.246   8.051
 1771SOL     OW 7271   1.705   3.349   8.552
 1771SOL    HW1 7272   1.612   3.324   8.525
 1771SOL    HW2 7273   1.731   3.299   8.634
 1772SOL     OW 7274   0.812   3.448   8.135
 1772SOL    HW1 7275   0.844   3.458   8.041
 1772SOL    HW2 7276   0.733   3.386   8.137
 1773SOL     OW 7277   1.424   2.076   8.560
 1773SOL    HW1 7278   1.476   2.011   8.615
 1773SOL    HW2 7279   1.375   2.139   8.621
 1774SOL     OW 7280   1.001   1.896   8.602
 1774SOL    HW1 7281   0.938   1.824   8.571
 1774SOL    HW2 7282   1.094   1.860   8.602
 1775SOL     OW 7283   0.770   3.192   7.749
 1775SOL    HW1 7284   0.724   3.105   7.766
 1775SOL    HW2 7285   0.861   3.189   7.790
 1776SOL     OW 7286   0.618   3.429   8.732
 1776SOL    HW1 7287   0.613   3.511   8.789
 1776SOL    HW2 7288   0.707   3.426   8.687
 1777SOL     OW 7289   1.352   1.914   7.616
 1777SOL    HW1 7290   1.387   1.873   7.532
 1777SOL    HW2 7291   1.262   1.876   7.636
 1778SOL     OW 7292   1.300   2.315   8.139
 1778SOL    HW1 7293   1.241   2.395   8.143
 1778SOL    HW2 7294   1.315   2.280   8.232
 1779SOL     OW 7295   1.593   2.083   8.330
 1779SOL    HW1 7296   1.509   2.082   8.384
 1779SOL    HW2 7297   1.595   2.166   8.274
 1780SOL     OW 7298   0.875   3.508   7.785
 1780SOL    HW1 7299   0.798   3.473   7.731
 1780SOL    HW2 7300   0.843   3.579   7.847
 1781SOL     OW 7301   0.019   4.092   0.647
 1781SOL    HW1 7302  -0.063   4.135   0.686
 1781SOL    HW2 7303  -0.009   4.019   0.584
 1782SOL     OW 7304   0.569   4.999   1.165
 1782SOL    HW1 7305   0.476   4.992   1.128
 1782SOL    HW2 7306   0.580   5.088   1.209
 1783SOL     OW 7307   1.555   5.235   0.703
 1783SOL    HW1 7308   1.498   5.219   0.784
 1783SOL    HW2 7309   1.496   5.245   0.623
 1784SOL     OW 7310   1.743   4.342   0.856
 1784SOL    HW1 7311   1.776   4.436   0.856
 1784SOL    HW2 7312   1.794   4.288   0.922
 1785SOL     OW 7313   1.135   4.427   0.717
 1785SOL    HW1 7314   1.192   4.505   0.692
 1785SOL    HW2 7315   1.075   4.453   0.793
 1786SOL     OW 7316   1.755   4.331   0.231
 1786SOL    HW1 7317   1.743   4.318   0.132
 1786SOL    HW2 7318   1.725   4.250   0.280
 1787SOL     OW 7319   0.768   4.868   1.023
 1787SOL    HW1 7320   0.690   4.885   1.083
 1787SOL    HW2 7321   0.802   4.955   0.987
 1788SOL     OW 7322   0.850   4.522   1.823
 1788SOL    HW1 7323   0.846   4.598   1.888
 1788SOL    HW2 7324   0.872   4.558   1.732
 1789SOL     OW 7325   0.685   4.736   0.665
 1789SOL    HW1 7326   0.754   4.720   0.735
 1789SOL    HW2 7327   0.612   4.793   0.703
 1790SOL     OW 7328   0.686   4.885   1.803
 1790SOL    HW1 7329   0.746   4.964   1.817
 1790SOL    HW2 7330   0.600   4.916   1.762
 1791SOL     OW 7331   0.335   5.159   1.061
 1791SOL    HW1 7332   0.257   5.128   1.008
 1791SOL    HW2 7333   0.393   5.217   1.004
 1792SOL     OW 7334   1.460   5.229   1.339
 1792SOL    HW1 7335   1.484   5.323   1.365
 1792SOL    HW2 7336   1.444   5.175   1.421
 1793SOL     OW 7337   0.438   4.116   1.499
 1793SOL    HW1 7338   0.520   4.060   1.508
 1793SOL    HW2 7339   0.357   4.058   1.503
 1794SOL     OW 7340   1.603   4.171   0.737
 1794SOL    HW1 7341   1.529   4.217   0.687
 1794SOL    HW2 7342   1.654   4.239   0.790
 1795SOL     OW 7343   1.127   5.065   1.690
 1795SOL    HW1 7344   1.174   5.065   1.778
 1795SOL    HW2 7345   1.079   4.978   1.679
 1796SOL     OW 7346   0.620   5.510   1.439
 1796SOL    HW1 7347   0.528   5.493   1.474
 1796SOL    HW2 7348   0.648   5.602   1.465
 1797SOL     OW 7349   0.606   4.688   0.123
 1797SOL    HW1 7350   0.613   4.772   0.069
 1797SOL    HW2 7351   0.652   4.701   0.211
 1798SOL     OW 7352   1.594   3.838   1.480
 1798SOL    HW1 7353   1.576   3.905   1.408
 1798SOL    HW2 7354   1.591   3.884   1.569
 1799SOL     OW 7355   1.842   5.491   0.359
 1799SOL    HW1 7356   1.896   5.462   0.439
 1799SOL    HW2 7357   1.872   5.581   0.330
 1800SOL     OW 7358   1.689   4.646   0.612
 1800SOL    HW1 7359   1.784   4.617   0.620
 1800SOL    HW2 7360   1.681   4.711   0.537
 1801SOL     OW 7361   1.641   4.832   0.432
 1801SOL    HW1 7362   1.727   4.834   0.380
 1801SOL    HW2 7363   1.655   4.879   0.520
 1802SOL     OW 7364   0.613   5.089   0.726
 1802SOL    HW1 7365   0.564   5.002   0.735
 1802SOL    HW2 7366   0.590   5.132   0.639
 1803SOL     OW 7367   1.293   4.952   1.423
 1803SOL    HW1 7368   1.330   4.879   1.365
 1803SOL    HW2 7369   1.345   4.957   1.508
 1804SOL     OW 7370   0.809   3.728   0.502
 1804SOL    HW1 7371   0.849   3.819   0.493
 1804SOL    HW2 7372   0.709   3.736   0.508
 1805SOL     OW 7373   1.525   4.723   0.190
 1805SOL    HW1 7374   1.462   4.647   0.203
 1805SOL    HW2 7375   1.573   4.741   0.276
 1806SOL     OW 7376   1.187   5.516   1.616
 1806SOL    HW1 7377   1.211   5.576   1.540
 1806SOL    HW2 7378   1.194   5.421   1.586
 1807SOL     OW 7379   0.317   3.975   1.801
 1807SOL    HW1 7380   0.388   4.046   1.807
 1807SOL    HW2 7381   0.229   4.014   1.829
 1808SOL     OW 7382   1.466   5.141   0.953
 1808SOL    HW1 7383   1.407   5.147   1.033
 1808SOL    HW2 7384   1.451   5.053   0.907
 1809SOL     OW 7385   1.667   5.438   0.572
 1809SOL    HW1 7386   1.626   5.415   0.484
 1809SOL    HW2 7387   1.649   5.364   0.637
 1810SOL     OW 7388   0.598   4.453   0.270
 1810SOL    HW1 7389   0.622   4.522   0.202
 1810SOL    HW2 7390   0.520   4.486   0.324
 1811SOL     OW 7391   1.281   4.069   0.944
 1811SOL    HW1 7392   1.195   4.019   0.931
 1811SOL    HW2 7393   1.343   4.015   1.000
 1812SOL     OW 7394   1.576   5.386   0.307
 1812SOL    HW1 7395   1.665   5.432   0.310
 1812SOL    HW2 7396   1.555   5.362   0.212
 1813SOL     OW 7397   0.807   4.329   1.465
 1813SOL    HW1 7398   0.760   4.326   1.554
 1813SOL    HW2 7399   0.756   4.274   1.399
 1814SOL     OW 7400   1.394   4.193   1.674
 1814SOL    HW1 7401   1.374   4.236   1.762
 1814SOL    HW2 7402   1.472   4.131   1.683
 1815SOL     OW 7403   0.973   4.614   1.572
 1815SOL    HW1 7404   1.019   4.530   1.543
 1815SOL    HW2 7405   0.917   4.648   1.497
 1816SOL     OW 7406   0.991   4.134   1.242
 1816SOL    HW1 7407   0.914   4.168   1.296
 1816SOL    HW2 7408   0.957   4.083   1.163
 1817SOL     OW 7409   1.041   4.425   0.429
 1817SOL    HW1 7410   1.067   4.421   0.525
 1817SOL    HW2 7411   0.956   4.374   0.415
 1818SOL     OW 7412   0.865   4.072   0.195
 1818SOL    HW1 7413   0.924   4.135   0.146
 1818SOL    HW2 7414   0.884   3.978   0.166
 1819SOL     OW 7415   1.719   4.309   1.831
 1819SOL    HW1 7416   1.693   4.398   1.795
 1819SOL    HW2 7417   1.717   4.241   1.758
 1820SOL     OW 7418   1.362   4.868   0.545
 1820SOL    HW1 7419   1.445   4.839   0.497
 1820SOL    HW2 7420   1.313   4.935   0.489
 1821SOL     OW 7421   0.550   3.920   0.885
 1821SOL    HW1 7422   0.545   3.915   0.985
 1821SOL    HW2 7423   0.552   4.016   0.856
 1822SOL     OW 7424   1.008   5.180   0.477
 1822SOL    HW1 7425   0.962   5.252   0.425
 1822SOL    HW2 7426   1.004   5.200   0.575
 1823SOL     OW 7427   0.351   5.525   0.853
 1823SOL    HW1 7428   0.401   5.439   0.859
 1823SOL    HW2 7429   0.416   5.602   0.850
 1824SOL     OW 7430   1.795   4.790   0.873
 1824SOL    HW1 7431   1.733   4.775   0.797
 1824SOL    HW2 7432   1.743   4.801   0.958
 1825SOL     OW 7433   1.227   5.274   1.506
 1825SOL    HW1 7434   1.233   5.197   1.570
 1825SOL    HW2 7435   1.175   5.248   1.426
 1826SOL     OW 7436   0.321   4.667   0.242
 1826SOL    HW1 7437   0.403   4.706   0.200
 1826SOL    HW2 7438   0.294   4.585   0.193
 1827SOL     OW 7439   1.458   4.459   0.728
 1827SOL    HW1 7440   1.453   4.394   0.803
 1827SOL    HW2 7441   1.538   4.518   0.741
 1828SOL     OW 7442   0.461   4.990   1.727
 1828SOL    HW1 7443   0.411   4.991   1.641
 1828SOL    HW2 7444   0.398   4.972   1.803
 1829SOL     OW 7445   1.111   5.500   0.237
 1829SOL    HW1 7446   1.051   5.438   0.287
 1829SOL    HW2 7447   1.142   5.456   0.152
 1830SOL     OW 7448   1.632   5.101   0.081
 1830SOL    HW1 7449   1.600   5.195   0.071
 1830SOL    HW2 7450   1.556   5.038   0.069
 1831SOL     OW 7451   0.464   5.467   0.323
 1831SOL    HW1 7452   0.497   5.506   0.409
 1831SOL    HW2 7453   0.540   5.460   0.258
 1832SOL     OW 7454   1.400   3.831   0.426
 1832SOL    HW1 7455   1.376   3.794   0.336
 1832SOL    HW2 7456   1.499   3.847   0.430
 1833SOL     OW 7457   0.940   5.422   0.904
 1833SOL    HW1 7458   1.020   5.365   0.925
 1833SOL    HW2 7459   0.891   5.382   0.827
 1834SOL     OW 7460   0.382   4.424   0.480
 1834SOL    HW1 7461   0.427   4.334   0.477
 1834SOL    HW2 7462   0.288   4.413   0.513
 1835SOL     OW 7463   1.547   3.946   1.729
 1835SOL    HW1 7464   1.542   3.983   1.821
 1835SOL    HW2 7465   1.475   3.877   1.717
 1836SOL     OW 7466   0.614   3.846   0.117
 1836SOL    HW1 7467   0.712   3.824   0.124
 1836SOL    HW2 7468   0.583   3.829   0.024
 1837SOL     OW 7469   0.781   3.988   1.749
 1837SOL    HW1 7470   0.848   3.927   1.792
 1837SOL    HW2 7471   0.708   4.007   1.814
 1838SOL     OW 7472   0.888   5.238   1.195
 1838SOL    HW1 7473   0.865   5.213   1.101
 1838SOL    HW2 7474   0.949   5.169   1.234
 1839SOL     OW 7475   1.351   4.314   1.433
 1839SOL    HW1 7476   1.379   4.271   1.518
 1839SOL    HW2 7477   1.376   4.410   1.434
 1840SOL     OW 7478   0.803   5.126   0.924
 1840SOL    HW1 7479   0.893   5.140   0.882
 1840SOL    HW2 7480   0.732   5.128   0.853
 1841SOL     OW 7481   0.922   4.227   0.899
 1841SOL    HW1 7482   0.897   4.218   0.803
 1841SOL    HW2 7483   0.970   4.145   0.930
 1842SOL     OW 7484   0.539   3.788   0.512
 1842SOL    HW1 7485   0.458   3.789   0.570
 1842SOL    HW2 7486   0.542   3.871   0.457
 1843SOL     OW 7487   1.434   4.912   0.041
 1843SOL    HW1 7488   1.466   4.836   0.098
 1843SOL    HW2 7489   1.342   4.939   0.071
 1844SOL     OW 7490   0.297   3.759   0.171
 1844SOL    HW1 7491   0.346   3.843   0.150
 1844SOL    HW2 7492   0.359   3.694   0.216
 1845SOL     OW 7493   0.935   3.960   0.480
 1845SOL    HW1 7494   0.887   4.001   0.402
 1845SOL    HW2 7495   1.034   3.958   0.461
 1846SOL     OW 7496   1.076   4.407   1.464
 1846SOL    HW1 7497   0.996   4.346   1.467
 1846SOL    HW2 7498   1.157   4.354   1.440
 1847SOL     OW 7499   1.227   5.294   0.793
 1847SOL    HW1 7500   1.248   5.368   0.728
 1847SOL    HW2 7501   1.295   5.294   0.866
 1848SOL     OW 7502   0.459   4.876   0.741
 1848SOL    HW1 7503   0.388   4.849   0.806
 1848SOL    HW2 7504   0.433   4.848   0.648
 1849SOL     OW 7505   1.271   5.521   0.591
 1849SOL    HW1 7506   1.315   5.585   0.527
 1849SOL    HW2 7507   1.221   5.573   0.661
 1850SOL     OW 7508   1.032   4.273   0.016
 1850SOL    HW1 7509   0.991   4.355  -0.023
 1850SOL    HW2 7510   1.096   4.299   0.089
 1851SOL     OW 7511   0.561   3.946   1.147
 1851SOL    HW1 7512   0.599   3.862   1.184
 1851SOL    HW2 7513   0.473   3.965   1.191
 1852SOL     OW 7514   0.866   4.178   0.642
 1852SOL    HW1 7515   0.834   4.250   0.580
 1852SOL    HW2 7516   0.890   4.097   0.589
 1853SOL     OW 7517   1.017   3.763   0.753
 1853SOL    HW1 7518   0.945   3.768   0.684
 1853SOL    HW2 7519   0.993   3.694   0.822
 1854SOL     OW 7520   1.429   4.897   0.867
 1854SOL    HW1 7521   1.374   4.813   0.860
 1854SOL    HW2 7522   1.455   4.926   0.775
 1855SOL     OW 7523   1.466   4.314   0.992
 1855SOL    HW1 7524   1.436   4.219   0.999
 1855SOL    HW2 7525   1.539   4.330   1.058
 1856SOL     OW 7526   1.857   4.557   0.377
 1856SOL    HW1 7527   1.899   4.493   0.441
 1856SOL    HW2 7528   1.819   4.506   0.299
 1857SOL     OW 7529   0.488   5.109   0.174
 1857SOL    HW1 7530   0.401   5.094   0.221
 1857SOL    HW2 7531   0.471   5.135   0.079
 1858SOL     OW 7532   1.664   5.004   0.657
 1858SOL    HW1 7533   1.763   5.012   0.671
 1858SOL    HW2 7534   1.619   5.088   0.688
 1859SOL     OW 7535   1.390   4.299   0.078
 1859SOL    HW1 7536   1.336   4.278   0.159
 1859SOL    HW2 7537   1.481   4.258   0.087
 1860SOL     OW 7538   0.527   3.980   0.328
 1860SOL    HW1 7539   0.554   3.921   0.253
 1860SOL    HW2 7540   0.527   4.075   0.297
 1861SOL     OW 7541   1.754   4.947   1.588
 1861SOL    HW1 7542   1.845   4.908   1.575
 1861SOL    HW2 7543   1.762   5.043   1.612
 1862SOL     OW 7544   1.064   5.071   1.340
 1862SOL    HW1 7545   0.984   5.048   1.395
 1862SOL    HW2 7546   1.147   5.045   1.389
 1863SOL     OW 7547   1.592   5.353   1.625
 1863SOL    HW1 7548   1.619   5.387   1.535
 1863SOL    HW2 7549   1.671   5.315   1.671
 1864SOL     OW 7550   1.111   4.919   1.100
 1864SOL    HW1 7551   1.071   4.963   1.181
 1864SOL    HW2 7552   1.070   4.956   1.017
 1865SOL     OW 7553   1.638   4.823   1.079
 1865SOL    HW1 7554   1.643   4.904   1.138
 1865SOL    HW2 7555   1.552   4.825   1.028
 1866SOL     OW 7556   0.915   3.813   1.402
 1866SOL    HW1 7557   0.940   3.793   1.307
 1866SOL    HW2 7558   0.987   3.869   1.444
 1867SOL     OW 7559   0.980   4.840   1.719
 1867SOL    HW1 7560   0.881   4.846   1.729
 1867SOL    HW2 7561   1.003   4.760   1.663
 1868SOL     OW 7562   0.705   4.774   0.368
 1868SOL    HW1 7563   0.691   4.781   0.467
 1868SOL    HW2 7564   0.789   4.723   0.350
 1869SOL     OW 7565   0.410   4.537   1.251
 1869SOL    HW1 7566   0.496   4.549   1.301
 1869SOL    HW2 7567   0.368   4.450   1.278
 1870SOL     OW 7568   1.274   4.110   1.262
 1870SOL    HW1 7569   1.295   4.184   1.326
 1870SOL    HW2 7570   1.185   4.127   1.219
 1871SOL     OW 7571   0.367   4.824   0.501
 1871SOL    HW1 7572   0.360   4.907   0.445
 1871SOL    HW2 7573   0.371   4.744   0.441
 1872SOL     OW 7574   0.566   4.261   0.865
 1872SOL    HW1 7575   0.578   4.327   0.791
 1872SOL    HW2 7576   0.612   4.295   0.948
 1873SOL     OW 7577   1.252   5.072   0.388
 1873SOL    HW1 7578   1.302   5.149   0.428
 1873SOL    HW2 7579   1.157   5.074   0.420
 1874SOL     OW 7580   1.272   5.169   1.142
 1874SOL    HW1 7581   1.319   5.182   1.229
 1874SOL    HW2 7582   1.206   5.095   1.151
 1875SOL     OW 7583   1.582   4.363   0.472
 1875SOL    HW1 7584   1.551   4.424   0.545
 1875SOL    HW2 7585   1.632   4.415   0.403
 1876SOL     OW 7586   0.354   5.234   1.329
 1876SOL    HW1 7587   0.333   5.190   1.242
 1876SOL    HW2 7588   0.451   5.260   1.332
 1877SOL     OW 7589   0.402   4.475   1.598
 1877SOL    HW1 7590   0.470   4.530   1.551
 1877SOL    HW2 7591   0.442   4.387   1.625
 1878SOL     OW 7592   1.587   4.503   1.670
 1878SOL    HW1 7593   1.495   4.541   1.665
 1878SOL    HW2 7594   1.647   4.550   1.605
 1879SOL     OW 7595   1.013   3.829   1.770
 1879SOL    HW1 7596   1.019   3.914   1.718
 1879SOL    HW2 7597   1.045   3.753   1.713
 1880SOL     OW 7598   0.504   3.774   1.740
 1880SOL    HW1 7599   0.462   3.717   1.670
 1880SOL    HW2 7600   0.438   3.843   1.772
 1881SOL     OW 7601   0.573   4.594   1.029
 1881SOL    HW1 7602   0.617   4.683   1.020
 1881SOL    HW2 7603   0.510   4.594   1.106
 1882SOL     OW 7604   1.360   4.586   1.045
 1882SOL    HW1 7605   1.285   4.586   0.979
 1882SOL    HW2 7606   1.397   4.494   1.054
 1883SOL     OW 7607   1.209   4.249   0.275
 1883SOL    HW1 7608   1.222   4.165   0.329
 1883SOL    HW2 7609   1.180   4.323   0.335
 1884SOL     OW 7610   0.732   4.358   1.064
 1884SOL    HW1 7611   0.791   4.332   0.988
 1884SOL    HW2 7612   0.704   4.454   1.053
 1885SOL     OW 7613   1.728   4.659   1.854
 1885SOL    HW1 7614   1.682   4.652   1.765
 1885SOL    HW2 7615   1.666   4.703   1.920
 1886SOL     OW 7616   0.307   3.787   0.618
 1886SOL    HW1 7617   0.296   3.881   0.651
 1886SOL    HW2 7618   0.302   3.724   0.695
 1887SOL     OW 7619   1.622   4.091   0.374
 1887SOL    HW1 7620   1.624   4.015   0.438
 1887SOL    HW2 7621   1.574   4.168   0.414
 1888SOL     OW 7622   1.023   4.490   0.966
 1888SOL    HW1 7623   1.038   4.511   1.062
 1888SOL    HW2 7624   0.993   4.395   0.957
 1889SOL     OW 7625   0.980   5.297   1.700
 1889SOL    HW1 7626   0.960   5.341   1.612
 1889SOL    HW2 7627   1.019   5.206   1.684
 1890SOL     OW 7628   1.859   5.242   1.605
 1890SOL    HW1 7629   1.873   5.269   1.510
 1890SOL    HW2 7630   1.942   5.264   1.658
 1891SOL     OW 7631   0.350   4.622   1.804
 1891SOL    HW1 7632   0.426   4.666   1.852
 1891SOL    HW2 7633   0.385   4.575   1.722
 1892SOL     OW 7634   1.540   3.998   0.125
 1892SOL    HW1 7635   1.479   3.923   0.148
 1892SOL    HW2 7636   1.562   4.050   0.208
 1893SOL     OW 7637   1.303   4.562   0.042
 1893SOL    HW1 7638   1.337   4.469   0.057
 1893SOL    HW2 7639   1.321   4.589  -0.053
 1894SOL     OW 7640   1.068   5.057   0.849
 1894SOL    HW1 7641   1.075   4.973   0.794
 1894SOL    HW2 7642   1.130   5.126   0.813
 1895SOL     OW 7643   0.319   4.534   0.949
 1895SOL    HW1 7644   0.412   4.570   0.954
 1895SOL    HW2 7645   0.313   4.449   1.001
 1896SOL     OW 7646   1.138   4.104   1.678
 1896SOL    HW1 7647   1.093   4.167   1.742
 1896SOL    HW2 7648   1.231   4.135   1.661
 1897SOL     OW 7649   1.160   3.931   1.477
 1897SOL    HW1 7650   1.160   3.995   1.554
 1897SOL    HW2 7651   1.188   3.979   1.394
 1898SOL     OW 7652   0.504   5.292   0.910
 1898SOL    HW1 7653   0.570   5.366   0.919
 1898SOL    HW2 7654   0.548   5.213   0.868
 1899SOL     OW 7655   1.002   4.520   1.238
 1899SOL    HW1 7656   1.043   4.488   1.324
 1899SOL    HW2 7657   0.906   4.493   1.235
 1900SOL     OW 7658   1.369   4.674   1.660
 1900SOL    HW1 7659   1.408   4.763   1.680
 1900SOL    HW2 7660   1.379   4.654   1.563
 1901SOL     OW 7661   0.815   4.296   0.325
 1901SOL    HW1 7662   0.822   4.207   0.279
 1901SOL    HW2 7663   0.721   4.330   0.317
 1902SOL     OW 7664   1.657   4.328   1.206
 1902SOL    HW1 7665   1.619   4.259   1.268
 1902SOL    HW2 7666   1.739   4.292   1.162
 1903SOL     OW 7667   0.671   4.188   1.269
 1903SOL    HW1 7668   0.637   4.099   1.239
 1903SOL    HW2 7669   0.697   4.242   1.189
 1904SOL     OW 7670   0.930   5.402   1.465
 1904SOL    HW1 7671   0.906   5.384   1.370
 1904SOL    HW2 7672   0.960   5.496   1.475
 1905SOL     OW 7673   0.473   4.224   0.191
 1905SOL    HW1 7674   0.534   4.304   0.195
 1905SOL    HW2 7675   0.378   4.255   0.198
 1906SOL     OW 7676   1.347   4.783   1.234
 1906SOL    HW1 7677   1.371   4.720   1.160
 1906SOL    HW2 7678   1.257   4.823   1.216
 1907SOL     OW 7679   1.302   4.579   0.309
 1907SOL    HW1 7680   1.216   4.548   0.351
 1907SOL    HW2 7681   1.298   4.565   0.210
 1908SOL     OW 7682   1.759   5.471   1.154
 1908SOL    HW1 7683   1.820   5.501   1.081
 1908SOL    HW2 7684   1.721   5.382   1.132
 1909SOL     OW 7685   1.252   5.455   1.128
 1909SOL    HW1 7686   1.336   5.460   1.074
 1909SOL    HW2 7687   1.229   5.359   1.146
 1910SOL     OW 7688   0.688   5.386   1.716
 1910SOL    HW1 7689   0.632   5.467   1.725
 1910SOL    HW2 7690   0.740   5.390   1.630
 1911SOL     OW 7691   0.903   3.810   0.133
 1911SOL    HW1 7692   0.954   3.811   0.047
 1911SOL    HW2 7693   0.959   3.768   0.204
 1912SOL     OW 7694   1.726   3.859   0.523
 1912SOL    HW1 7695   1.799   3.842   0.456
 1912SOL    HW2 7696   1.695   3.772   0.561
 1913SOL     OW 7697   1.388   5.297   0.477
 1913SOL    HW1 7698   1.455   5.309   0.403
 1913SOL    HW2 7699   1.348   5.386   0.500
 1914SOL     OW 7700   0.130   5.518   1.851
 1914SOL    HW1 7701   0.089   5.444   1.904
 1914SOL    HW2 7702   0.194   5.569   1.909
 1915SOL     OW 7703   1.280   4.651   0.672
 1915SOL    HW1 7704   1.340   4.570   0.674
 1915SOL    HW2 7705   1.320   4.720   0.612
 1916SOL     OW 7706   0.830   4.997   1.422
 1916SOL    HW1 7707   0.825   5.030   1.517
 1916SOL    HW2 7708   0.744   5.016   1.376
 1917SOL     OW 7709   0.672   5.340   0.154
 1917SOL    HW1 7710   0.681   5.350   0.055
 1917SOL    HW2 7711   0.632   5.251   0.175
 1918SOL     OW 7712   1.650   5.444   1.394
 1918SOL    HW1 7713   1.703   5.454   1.310
 1918SOL    HW2 7714   1.623   5.534   1.428
 1919SOL     OW 7715   1.841   3.899   0.963
 1919SOL    HW1 7716   1.880   3.814   0.927
 1919SOL    HW2 7717   1.743   3.901   0.944
 1920SOL     OW 7718   0.263   4.050   0.720
 1920SOL    HW1 7719   0.184   4.101   0.686
 1920SOL    HW2 7720   0.254   4.035   0.818
 1921SOL     OW 7721   1.194   5.336   0.031
 1921SOL    HW1 7722   1.200   5.243   0.068
 1921SOL    HW2 7723   1.135   5.336  -0.049
 1922SOL     OW 7724   0.822   4.726   1.372
 1922SOL    HW1 7725   0.862   4.725   1.280
 1922SOL    HW2 7726   0.832   4.818   1.412
 1923SOL     OW 7727   0.916   4.634   0.291
 1923SOL    HW1 7728   0.979   4.672   0.223
 1923SOL    HW2 7729   0.956   4.551   0.330
 1924SOL     OW 7730   1.504   5.331   0.044
 1924SOL    HW1 7731   1.412   5.368   0.051
 1924SOL    HW2 7732   1.542   5.351  -0.046
 1925SOL     OW 7733   0.372   5.012   1.490
 1925SOL    HW1 7734   0.359   5.105   1.456
 1925SOL    HW2 7735   0.288   4.960   1.477
 1926SOL     OW 7736   1.614   5.016   1.289
 1926SOL    HW1 7737   1.674   5.019   1.369
 1926SOL    HW2 7738   1.539   5.080   1.302
 1927SOL     OW 7739   1.039   4.822   0.696
 1927SOL    HW1 7740   0.969   4.775   0.750
 1927SOL    HW2 7741   1.098   4.754   0.653
 1928SOL     OW 7742   1.014   3.960   0.971
 1928SOL    HW1 7743   1.006   3.924   0.878
 1928SOL    HW2 7744   1.012   3.884   1.036
 1929SOL     OW 7745   0.590   5.211   0.491
 1929SOL    HW1 7746   0.632   5.153   0.421
 1929SOL    HW2 7747   0.546   5.290   0.447
 1930SOL     OW 7748   1.709   4.109   1.381
 1930SOL    HW1 7749   1.782   4.178   1.385
 1930SOL    HW2 7750   1.737   4.034   1.322
 1931SOL     OW 7751   0.255   5.072   0.290
 1931SOL    HW1 7752   0.159   5.073   0.263
 1931SOL    HW2 7753   0.267   5.125   0.374
 1932SOL     OW 7754   0.672   3.927   1.489
 1932SOL    HW1 7755   0.762   3.911   1.449
 1932SOL    HW2 7756   0.680   3.932   1.588
 1933SOL     OW 7757   1.440   4.580   1.398
 1933SOL    HW1 7758   1.383   4.632   1.335
 1933SOL    HW2 7759   1.536   4.592   1.374
 1934SOL     OW 7760   1.183   5.059   0.119
 1934SOL    HW1 7761   1.084   5.048   0.121
 1934SOL    HW2 7762   1.217   5.074   0.212
 1935SOL     OW 7763   0.613   4.566   1.431
 1935SOL    HW1 7764   0.669   4.647   1.414
 1935SOL    HW2 7765   0.672   4.486   1.434
 1936SOL     OW 7766   1.493   5.491   0.959
 1936SOL    HW1 7767   1.526   5.555   0.890
 1936SOL    HW2 7768   1.559   5.485   1.034
 1937SOL     OW 7769   0.716   4.289   1.708
 1937SOL    HW1 7770   0.735   4.354   1.782
 1937SOL    HW2 7771   0.776   4.209   1.717
 1938SOL     OW 7772   1.450   4.944   1.633
 1938SOL    HW1 7773   1.441   4.934   1.732
 1938SOL    HW2 7774   1.546   4.937   1.607
 1939SOL     OW 7775   0.390   5.465   1.560
 1939SOL    HW1 7776   0.299   5.506   1.558
 1939SOL    HW2 7777   0.383   5.371   1.592
 1940SOL     OW 7778   1.674   4.607   1.254
 1940SOL    HW1 7779   1.647   4.518   1.217
 1940SOL    HW2 7780   1.675   4.675   1.181
 1941SOL     OW 7781   1.225   4.049   0.449
 1941SOL    HW1 7782   1.290   3.975   0.438
 1941SOL    HW2 7783   1.245   4.099   0.533
 1942SOL     OW 7784   0.594   4.469   0.652
 1942SOL    HW1 7785   0.644   4.554   0.633
 1942SOL    HW2 7786   0.506   4.471   0.604
 1943SOL     OW 7787   1.777   4.066   1.642
 1943SOL    HW1 7788   1.760   4.097   1.548
 1943SOL    HW2 7789   1.693   4.029   1.680
 1944SOL     OW 7790   1.730   4.658   1.517
 1944SOL    HW1 7791   1.768   4.749   1.532
 1944SOL    HW2 7792   1.722   4.641   1.418
 1945SOL     OW 7793   0.859   5.098   0.016
 1945SOL    HW1 7794   0.813   5.113   0.104
 1945SOL    HW2 7795   0.903   5.183  -0.014
 1946SOL     OW 7796   0.661   5.514   0.953
 1946SOL    HW1 7797   0.615   5.602   0.940
 1946SOL    HW2 7798   0.760   5.526   0.946
 1947SOL     OW 7799   1.408   5.575   1.720
 1947SOL    HW1 7800   1.312   5.564   1.693
 1947SOL    HW2 7801   1.464   5.508   1.672
 1948SOL     OW 7802   0.859   4.680   0.861
 1948SOL    HW1 7803   0.913   4.611   0.909
 1948SOL    HW2 7804   0.827   4.749   0.927
 1949SOL     OW 7805   1.083   4.708   0.087
 1949SOL    HW1 7806   1.060   4.761   0.005
 1949SOL    HW2 7807   1.164   4.652   0.068
 1950SOL     OW 7808   1.861   5.293   0.851
 1950SOL    HW1 7809   1.790   5.281   0.781
 1950SOL    HW2 7810   1.862   5.214   0.911
 1951SOL     OW 7811   0.672   5.115   1.624
 1951SOL    HW1 7812   0.594   5.065   1.662
 1951SOL    HW2 7813   0.669   5.210   1.655
 1952SOL     OW 7814   1.824   3.916   1.227
 1952SOL    HW1 7815   1.820   3.826   1.271
 1952SOL    HW2 7816   1.827   3.905   1.128
 1953SOL     OW 7817   0.428   4.148   0.520
 1953SOL    HW1 7818   0.458   4.076   0.458
 1953SOL    HW2 7819   0.389   4.108   0.603
 1954SOL     OW 7820   1.705   5.211   1.104
 1954SOL    HW1 7821   1.612   5.186   1.077
 1954SOL    HW2 7822   1.731   5.161   1.186
 1955SOL     OW 7823   0.812   5.310   0.687
 1955SOL    HW1 7824   0.844   5.320   0.593
 1955SOL    HW2 7825   0.733   5.248   0.689
 1956SOL     OW 7826   1.424   3.938   1.112
 1956SOL    HW1 7827   1.476   3.873   1.167
 1956SOL    HW2 7828   1.375   4.001   1.173
 1957SOL     OW 7829   1.001   3.758   1.154
 1957SOL    HW1 7830   0.938   3.686   1.123
 1957SOL    HW2 7831   1.094   3.722   1.154
 1958SOL     OW 7832   0.770   5.054   0.301
 1958SOL    HW1 7833   0.724   4.967   0.318
 1958SOL    HW2 7834   0.861   5.051   0.342
 1959SOL     OW 7835   0.618   5.291   1.284
 1959SOL    HW1 7836   0.613   5.373   1.341
 1959SOL    HW2 7837   0.707   5.288   1.239
 1960SOL     OW 7838   1.300   4.177   0.691
 1960SOL    HW1 7839   1.241   4.257   0.695
 1960SOL    HW2 7840   1.315   4.142   0.784
 1961SOL     OW 7841   1.593   3.945   0.882
 1961SOL    HW1 7842   1.509   3.944   0.936
 1961SOL    HW2 7843   1.595   4.028   0.826
 1962SOL     OW 7844   0.875   5.370   0.337
 1962SOL    HW1 7845   0.798   5.335   0.283
 1962SOL    HW2 7846   0.843   5.441   0.399
 1963SOL     OW 7847   0.019   4.092   2.509
 1963SOL    HW1 7848  -0.063   4.135   2.548
 1963SOL    HW2 7849  -0.009   4.019   2.446
 1964SOL     OW 7850   0.569   4.999   3.027
 1964SOL    HW1 7851   0.476   4.992   2.990
 1964SOL    HW2 7852   0.580   5.088   3.071
 1965SOL     OW 7853   1.555   5.235   2.565
 1965SOL    HW1 7854   1.498   5.219   2.646
 1965SOL    HW2 7855   1.496   5.245   2.485
 1966SOL     OW 7856   1.743   4.342   2.718
 1966SOL    HW1 7857   1.776   4.436   2.718
 1966SOL    HW2 7858   1.794   4.288   2.784
 1967SOL     OW 7859   1.135   4.427   2.579
 1967SOL    HW1 7860   1.192   4.505   2.554
 1967SOL    HW2 7861   1.075   4.453   2.655
 1968SOL     OW 7862   1.755   4.331   2.093
 1968SOL    HW1 7863   1.743   4.318   1.994
 1968SOL    HW2 7864   1.725   4.250   2.142
 1969SOL     OW 7865   0.768   4.868   2.885
 1969SOL    HW1 7866   0.690   4.885   2.945
 1969SOL    HW2 7867   0.802   4.955   2.849
 1970SOL     OW 7868   0.850   4.522   3.685
 1970SOL    HW1 7869   0.846   4.598   3.750
 1970SOL    HW2 7870   0.872   4.558   3.594
 1971SOL     OW 7871   0.685   4.736   2.527
 1971SOL    HW1 7872   0.754   4.720   2.597
 1971SOL    HW2 7873   0.612   4.793   2.565
 1972SOL     OW 7874   0.686   4.885   3.665
 1972SOL    HW1 7875   0.746   4.964   3.679
 1972SOL    HW2 7876   0.600   4.916   3.624
 1973SOL     OW 7877   0.335   5.159   2.923
 1973SOL    HW1 7878   0.257   5.128   2.870
 1973SOL    HW2 7879   0.393   5.217   2.866
 1974SOL     OW 7880   1.460   5.229   3.201
 1974SOL    HW1 7881   1.484   5.323   3.227
 1974SOL    HW2 7882   1.444   5.175   3.283
 1975SOL     OW 7883   0.438   4.116   3.361
 1975SOL    HW1 7884   0.520   4.060   3.370
 1975SOL    HW2 7885   0.357   4.058   3.365
 1976SOL     OW 7886   1.603   4.171   2.599
 1976SOL    HW1 7887   1.529   4.217   2.549
 1976SOL    HW2 7888   1.654   4.239   2.652
 1977SOL     OW 7889   1.127   5.065   3.552
 1977SOL    HW1 7890   1.174   5.065   3.640
 1977SOL    HW2 7891   1.079   4.978   3.541
 1978SOL     OW 7892   0.620   5.510   3.301
 1978SOL    HW1 7893   0.528   5.493   3.336
 1978SOL    HW2 7894   0.648   5.602   3.327
 1979SOL     OW 7895   0.606   4.688   1.985
 1979SOL    HW1 7896   0.613   4.772   1.931
 1979SOL    HW2 7897   0.652   4.701   2.073
 1980SOL     OW 7898   1.594   3.838   3.342
 1980SOL    HW1 7899   1.576   3.905   3.270
 1980SOL    HW2 7900   1.591   3.884   3.431
 1981SOL     OW 7901   1.842   5.491   2.221
 1981SOL    HW1 7902   1.896   5.462   2.301
 1981SOL    HW2 7903   1.872   5.581   2.192
 1982SOL     OW 7904   1.689   4.646   2.474
 1982SOL    HW1 7905   1.784   4.617   2.482
 1982SOL    HW2 7906   1.681   4.711   2.399
 1983SOL     OW 7907   1.641   4.832   2.294
 1983SOL    HW1 7908   1.727   4.834   2.242
 1983SOL    HW2 7909   1.655   4.879   2.382
 1984SOL     OW 7910   0.613   5.089   2.588
 1984SOL    HW1 7911   0.564   5.002   2.597
 1984SOL    HW2 7912   0.590   5.132   2.501
 1985SOL     OW 7913   1.293   4.952   3.285
 1985SOL    HW1 7914   1.330   4.879   3.227
 1985SOL    HW2 7915   1.345   4.957   3.370
 1986SOL     OW 7916   0.809   3.728   2.364
 1986SOL    HW1 7917   0.849   3.819   2.355
 1986SOL    HW2 7918   0.709   3.736   2.370
 1987SOL     OW 7919   1.525   4.723   2.052
 1987SOL    HW1 7920   1.462   4.647   2.065
 1987SOL    HW2 7921   1.573   4.741   2.138
 1988SOL     OW 7922   1.187   5.516   3.478
 1988SOL    HW1 7923   1.211   5.576   3.402
 1988SOL    HW2 7924   1.194   5.421   3.448
 1989SOL     OW 7925   0.317   3.975   3.663
 1989SOL    HW1 7926   0.388   4.046   3.669
 1989SOL    HW2 7927   0.229   4.014   3.691
 1990SOL     OW 7928   1.466   5.141   2.815
 1990SOL    HW1 7929   1.407   5.147   2.895
 1990SOL    HW2 7930   1.451   5.053   2.769
 1991SOL     OW 7931   1.667   5.438   2.434
 1991SOL    HW1 7932   1.626   5.415   2.346
 1991SOL    HW2 7933   1.649   5.364   2.499
 1992SOL     OW 7934   0.598   4.453   2.132
 1992SOL    HW1 7935   0.622   4.522   2.064
 1992SOL    HW2 7936   0.520   4.486   2.186
 1993SOL     OW 7937   1.281   4.069   2.806
 1993SOL    HW1 7938   1.195   4.019   2.793
 1993SOL    HW2 7939   1.343   4.015   2.862
 1994SOL     OW 7940   0.807   4.329   3.327
 1994SOL    HW1 7941   0.760   4.326   3.416
 1994SOL    HW2 7942   0.756   4.274   3.261
 1995SOL     OW 7943   1.394   4.193   3.536
 1995SOL    HW1 7944   1.374   4.236   3.624
 1995SOL    HW2 7945   1.472   4.131   3.545
 1996SOL     OW 7946   0.973   4.614   3.434
 1996SOL    HW1 7947   1.019   4.530   3.405
 1996SOL    HW2 7948   0.917   4.648   3.359
 1997SOL     OW 7949   0.991   4.134   3.104
 1997SOL    HW1 7950   0.914   4.168   3.158
 1997SOL    HW2 7951   0.957   4.083   3.025
 1998SOL     OW 7952   1.041   4.425   2.291
 1998SOL    HW1 7953   1.067   4.421   2.387
 1998SOL    HW2 7954   0.956   4.374   2.277
 1999SOL     OW 7955   0.865   4.072   2.057
 1999SOL    HW1 7956   0.924   4.135   2.008
 1999SOL    HW2 7957   0.884   3.978   2.028
 2000SOL     OW 7958   1.719   4.309   3.693
 2000SOL    HW1 7959   1.693   4.398   3.657
 2000SOL    HW2 7960   1.717   4.241   3.620
 2001SOL     OW 7961   1.362   4.868   2.407
 2001SOL    HW1 7962   1.445   4.839   2.359
 2001SOL    HW2 7963   1.313   4.935   2.351
 2002SOL     OW 7964   0.550   3.920   2.747
 2002SOL    HW1 7965   0.545   3.915   2.847
 2002SOL    HW2 7966   0.552   4.016   2.718
 2003SOL     OW 7967   1.008   5.180   2.339
 2003SOL    HW1 7968   0.962   5.252   2.287
 2003SOL    HW2 7969   1.004   5.200   2.437
 2004SOL     OW 7970   0.351   5.525   2.715
 2004SOL    HW1 7971   0.401   5.439   2.721
 2004SOL    HW2 7972   0.416   5.602   2.712
 2005SOL     OW 7973   1.795   4.790   2.735
 2005SOL    HW1 7974   1.733   4.775   2.659
 2005SOL    HW2 7975   1.743   4.801   2.820
 2006SOL     OW 7976   1.227   5.274   3.368
 2006SOL    HW1 7977   1.233   5.197   3.432
 2006SOL    HW2 7978   1.175   5.248   3.288
 2007SOL     OW 7979   0.321   4.667   2.104
 2007SOL    HW1 7980   0.403   4.706   2.062
 2007SOL    HW2 7981   0.294   4.585   2.055
 2008SOL     OW 7982   1.458   4.459   2.590
 2008SOL    HW1 7983   1.453   4.394   2.665
 2008SOL    HW2 7984   1.538   4.518   2.603
 2009SOL     OW 7985   0.461   4.990   3.589
 2009SOL    HW1 7986   0.411   4.991   3.503
 2009SOL    HW2 7987   0.398   4.972   3.665
 2010SOL     OW 7988   1.632   5.101   1.943
 2010SOL    HW1 7989   1.600   5.195   1.933
 2010SOL    HW2 7990   1.556   5.038   1.931
 2011SOL     OW 7991   0.464   5.467   2.185
 2011SOL    HW1 7992   0.497   5.506   2.271
 2011SOL    HW2 7993   0.540   5.460   2.120
 2012SOL     OW 7994   1.400   3.831   2.288
 2012SOL    HW1 7995   1.376   3.794   2.198
 2012SOL    HW2 7996   1.499   3.847   2.292
 2013SOL     OW 7997   0.940   5.422   2.766
 2013SOL    HW1 7998   1.020   5.365   2.787
 2013SOL    HW2 7999   0.891   5.382   2.689
 2014SOL     OW 8000   0.382   4.424   2.342
 2014SOL    HW1 8001   0.427   4.334   2.339
 2014SOL    HW2 8002   0.288   4.413   2.375
 2015SOL     OW 8003   1.547   3.946   3.591
 2015SOL    HW1 8004   1.542   3.983   3.683
 2015SOL    HW2 8005   1.475   3.877   3.579
 2016SOL     OW 8006   0.614   3.846   1.979
 2016SOL    HW1 8007   0.712   3.824   1.986
 2016SOL    HW2 8008   0.583   3.829   1.886
 2017SOL     OW 8009   0.781   3.988   3.611
 2017SOL    HW1 8010   0.848   3.927   3.654
 2017SOL    HW2 8011   0.708   4.007   3.676
 2018SOL     OW 8012   0.888   5.238   3.057
 2018SOL    HW1 8013   0.865   5.213   2.963
 2018SOL    HW2 8014   0.949   5.169   3.096
 2019SOL     OW 8015   1.351   4.314   3.295
 2019SOL    HW1 8016   1.379   4.271   3.380
 2019SOL    HW2 8017   1.376   4.410   3.296
 2020SOL     OW 8018   0.803   5.126   2.786
 2020SOL    HW1 8019   0.893   5.140   2.744
 2020SOL    HW2 8020   0.732   5.128   2.715
 2021SOL     OW 8021   0.922   4.227   2.761
 2021SOL    HW1 8022   0.897   4.218   2.665
 2021SOL    HW2 8023   0.970   4.145   2.792
 2022SOL     OW 8024   0.539   3.788   2.374
 2022SOL    HW1 8025   0.458   3.789   2.432
 2022SOL    HW2 8026   0.542   3.871   2.319
 2023SOL     OW 8027   1.434   4.912   1.903
 2023SOL    HW1 8028   1.466   4.836   1.960
 2023SOL    HW2 8029   1.342   4.939   1.933
 2024SOL     OW 8030   0.297   3.759   2.033
 2024SOL    HW1 8031   0.346   3.843   2.012
 2024SOL    HW2 8032   0.359   3.694   2.078
 2025SOL     OW 8033   0.935   3.960   2.342
 2025SOL    HW1 8034   0.887   4.001   2.264
 2025SOL    HW2 8035   1.034   3.958   2.323
 2026SOL     OW 8036   1.076   4.407   3.326
 2026SOL    HW1 8037   0.996   4.346   3.329
 2026SOL    HW2 8038   1.157   4.354   3.302
 2027SOL     OW 8039   1.227   5.294   2.655
 2027SOL    HW1 8040   1.248   5.368   2.590
 2027SOL    HW2 8041   1.295   5.294   2.728
 2028SOL     OW 8042   0.459   4.876   2.603
 2028SOL    HW1 8043   0.388   4.849   2.668
 2028SOL    HW2 8044   0.433   4.848   2.510
 2029SOL     OW 8045   1.271   5.521   2.453
 2029SOL    HW1 8046   1.315   5.585   2.389
 2029SOL    HW2 8047   1.221   5.573   2.523
 2030SOL     OW 8048   1.032   4.273   1.878
 2030SOL    HW1 8049   0.991   4.355   1.839
 2030SOL    HW2 8050   1.096   4.299   1.951
 2031SOL     OW 8051   0.561   3.946   3.009
 2031SOL    HW1 8052   0.599   3.862   3.046
 2031SOL    HW2 8053   0.473   3.965   3.053
 2032SOL     OW 8054   0.866   4.178   2.504
 2032SOL    HW1 8055   0.834   4.250   2.442
 2032SOL    HW2 8056   0.890   4.097   2.451
 2033SOL     OW 8057   1.017   3.763   2.615
 2033SOL    HW1 8058   0.945   3.768   2.546
 2033SOL    HW2 8059   0.993   3.694   2.684
 2034SOL     OW 8060   1.429   4.897   2.729
 2034SOL    HW1 8061   1.374   4.813   2.722
 2034SOL    HW2 8062   1.455   4.926   2.637
 2035SOL     OW 8063   1.466   4.314   2.854
 2035SOL    HW1 8064   1.436   4.219   2.861
 2035SOL    HW2 8065   1.539   4.330   2.920
 2036SOL     OW 8066   1.857   4.557   2.239
 2036SOL    HW1 8067   1.899   4.493   2.303
 2036SOL    HW2 8068   1.819   4.506   2.161
 2037SOL     OW 8069   0.488   5.109   2.036
 2037SOL    HW1 8070   0.401   5.094   2.083
 2037SOL    HW2 8071   0.471   5.135   1.941
 2038SOL     OW 8072   1.664   5.004   2.519
 2038SOL    HW1 8073   1.763   5.012   2.533
 2038SOL    HW2 8074   1.619   5.088   2.550
 2039SOL     OW 8075   1.390   4.299   1.940
 2039SOL    HW1 8076   1.336   4.278   2.021
 2039SOL    HW2 8077   1.481   4.258   1.949
 2040SOL     OW 8078   0.527   3.980   2.190
 2040SOL    HW1 8079   0.554   3.921   2.115
 2040SOL    HW2 8080   0.527   4.075   2.159
 2041SOL     OW 8081   1.754   4.947   3.450
 2041SOL    HW1 8082   1.845   4.908   3.437
 2041SOL    HW2 8083   1.762   5.043   3.474
 2042SOL     OW 8084   1.064   5.071   3.202
 2042SOL    HW1 8085   0.984   5.048   3.257
 2042SOL    HW2 8086   1.147   5.045   3.251
 2043SOL     OW 8087   1.592   5.353   3.487
 2043SOL    HW1 8088   1.619   5.387   3.397
 2043SOL    HW2 8089   1.671   5.315   3.533
 2044SOL     OW 8090   1.111   4.919   2.962
 2044SOL    HW1 8091   1.071   4.963   3.043
 2044SOL    HW2 8092   1.070   4.956   2.879
 2045SOL     OW 8093   1.638   4.823   2.941
 2045SOL    HW1 8094   1.643   4.904   3.000
 2045SOL    HW2 8095   1.552   4.825   2.890
 2046SOL     OW 8096   0.915   3.813   3.264
 2046SOL    HW1 8097   0.940   3.793   3.169
 2046SOL    HW2 8098   0.987   3.869   3.306
 2047SOL     OW 8099   0.980   4.840   3.581
 2047SOL    HW1 8100   0.881   4.846   3.591
 2047SOL    HW2 8101   1.003   4.760   3.525
 2048SOL     OW 8102   0.705   4.774   2.230
 2048SOL    HW1 8103   0.691   4.781   2.329
 2048SOL    HW2 8104   0.789   4.723   2.212
 2049SOL     OW 8105   0.410   4.537   3.113
 2049SOL    HW1 8106   0.496   4.549   3.163
 2049SOL    HW2 8107   0.368   4.450   3.140
 2050SOL     OW 8108   1.274   4.110   3.124
 2050SOL    HW1 8109   1.295   4.184   3.188
 2050SOL    HW2 8110   1.185   4.127   3.081
 2051SOL     OW 8111   0.367   4.824   2.363
 2051SOL    HW1 8112   0.360   4.907   2.307
 2051SOL    HW2 8113   0.371   4.744   2.303
 2052SOL     OW 8114   0.566   4.261   2.727
 2052SOL    HW1 8115   0.578   4.327   2.653
 2052SOL    HW2 8116   0.612   4.295   2.810
 2053SOL     OW 8117   1.252   5.072   2.250
 2053SOL    HW1 8118   1.302   5.149   2.290
 2053SOL    HW2 8119   1.157   5.074   2.282
 2054SOL     OW 8120   1.272   5.169   3.004
 2054SOL    HW1 8121   1.319   5.182   3.091
 2054SOL    HW2 8122   1.206   5.095   3.013
 2055SOL     OW 8123   1.582   4.363   2.334
 2055SOL    HW1 8124   1.551   4.424   2.407
 2055SOL    HW2 8125   1.632   4.415   2.265
 2056SOL     OW 8126   0.354   5.234   3.191
 2056SOL    HW1 8127   0.333   5.190   3.104
 2056SOL    HW2 8128   0.451   5.260   3.194
 2057SOL     OW 8129   0.402   4.475   3.460
 2057SOL    HW1 8130   0.470   4.530   3.413
 2057SOL    HW2 8131   0.442   4.387   3.487
 2058SOL     OW 8132   1.587   4.503   3.532
 2058SOL    HW1 8133   1.495   4.541   3.527
 2058SOL    HW2 8134   1.647   4.550   3.467
 2059SOL     OW 8135   1.013   3.829   3.632
 2059SOL    HW1 8136   1.019   3.914   3.580
 2059SOL    HW2 8137   1.045   3.753   3.575
 2060SOL     OW 8138   0.504   3.774   3.602
 2060SOL    HW1 8139   0.462   3.717   3.532
 2060SOL    HW2 8140   0.438   3.843   3.634
 2061SOL     OW 8141   0.573   4.594   2.891
 2061SOL    HW1 8142   0.617   4.683   2.882
 2061SOL    HW2 8143   0.510   4.594   2.968
 2062SOL     OW 8144   1.360   4.586   2.907
 2062SOL    HW1 8145   1.285   4.586   2.841
 2062SOL    HW2 8146   1.397   4.494   2.916
 2063SOL     OW 8147   1.209   4.249   2.137
 2063SOL    HW1 8148   1.222   4.165   2.191
 2063SOL    HW2 8149   1.180   4.323   2.197
 2064SOL     OW 8150   0.732   4.358   2.926
 2064SOL    HW1 8151   0.791   4.332   2.850
 2064SOL    HW2 8152   0.704   4.454   2.915
 2065SOL     OW 8153   1.728   4.659   3.716
 2065SOL    HW1 8154   1.682   4.652   3.627
 2065SOL    HW2 8155   1.666   4.703   3.782
 2066SOL     OW 8156   0.307   3.787   2.480
 2066SOL    HW1 8157   0.296   3.881   2.513
 2066SOL    HW2 8158   0.302   3.724   2.557
 2067SOL     OW 8159   1.622   4.091   2.236
 2067SOL    HW1 8160   1.624   4.015   2.300
 2067SOL    HW2 8161   1.574   4.168   2.276
 2068SOL     OW 8162   1.023   4.490   2.828
 2068SOL    HW1 8163   1.038   4.511   2.924
 2068SOL    HW2 8164   0.993   4.395   2.819
 2069SOL     OW 8165   0.980   5.297   3.562
 2069SOL    HW1 8166   0.960   5.341   3.474
 2069SOL    HW2 8167   1.019   5.206   3.546
 2070SOL     OW 8168   1.859   5.242   3.467
 2070SOL    HW1 8169   1.873   5.269   3.372
 2070SOL    HW2 8170   1.942   5.264   3.520
 2071SOL     OW 8171   0.350   4.622   3.666
 2071SOL    HW1 8172   0.426   4.666   3.714
 2071SOL    HW2 8173   0.385   4.575   3.584
 2072SOL     OW 8174   1.540   3.998   1.987
 2072SOL    HW1 8175   1.479   3.923   2.010
 2072SOL    HW2 8176   1.562   4.050   2.070
 2073SOL     OW 8177   1.303   4.562   1.904
 2073SOL    HW1 8178   1.337   4.469   1.919
 2073SOL    HW2 8179   1.321   4.589   1.809
 2074SOL     OW 8180   1.068   5.057   2.711
 2074SOL    HW1 8181   1.075   4.973   2.656
 2074SOL    HW2 8182   1.130   5.126   2.675
 2075SOL     OW 8183   0.319   4.534   2.811
 2075SOL    HW1 8184   0.412   4.570   2.816
 2075SOL    HW2 8185   0.313   4.449   2.863
 2076SOL     OW 8186   1.138   4.104   3.540
 2076SOL    HW1 8187   1.093   4.167   3.604
 2076SOL    HW2 8188   1.231   4.135   3.523
 2077SOL     OW 8189   1.160   3.931   3.339
 2077SOL    HW1 8190   1.160   3.995   3.416
 2077SOL    HW2 8191   1.188   3.979   3.256
 2078SOL     OW 8192   0.504   5.292   2.772
 2078SOL    HW1 8193   0.570   5.366   2.781
 2078SOL    HW2 8194   0.548   5.213   2.730
 2079SOL     OW 8195   1.002   4.520   3.100
 2079SOL    HW1 8196   1.043   4.488   3.186
 2079SOL    HW2 8197   0.906   4.493   3.097
 2080SOL     OW 8198   1.369   4.674   3.522
 2080SOL    HW1 8199   1.408   4.763   3.542
 2080SOL    HW2 8200   1.379   4.654   3.425
 2081SOL     OW 8201   0.815   4.296   2.187
 2081SOL    HW1 8202   0.822   4.207   2.141
 2081SOL    HW2 8203   0.721   4.330   2.179
 2082SOL     OW 8204   1.657   4.328   3.068
 2082SOL    HW1 8205   1.619   4.259   3.130
 2082SOL    HW2 8206   1.739   4.292   3.024
 2083SOL     OW 8207   0.671   4.188   3.131
 2083SOL    HW1 8208   0.637   4.099   3.101
 2083SOL    HW2 8209   0.697   4.242   3.051
 2084SOL     OW 8210   0.930   5.402   3.327
 2084SOL    HW1 8211   0.906   5.384   3.232
 2084SOL    HW2 8212   0.960   5.496   3.337
 2085SOL     OW 8213   0.473   4.224   2.053
 2085SOL    HW1 8214   0.534   4.304   2.057
 2085SOL    HW2 8215   0.378   4.255   2.060
 2086SOL     OW 8216   1.347   4.783   3.096
 2086SOL    HW1 8217   1.371   4.720   3.022
 2086SOL    HW2 8218   1.257   4.823   3.078
 2087SOL     OW 8219   1.302   4.579   2.171
 2087SOL    HW1 8220   1.216   4.548   2.213
 2087SOL    HW2 8221   1.298   4.565   2.072
 2088SOL     OW 8222   1.759   5.471   3.016
 2088SOL    HW1 8223   1.820   5.501   2.943
 2088SOL    HW2 8224   1.721   5.382   2.994
 2089SOL     OW 8225   1.252   5.455   2.990
 2089SOL    HW1 8226   1.336   5.460   2.936
 2089SOL    HW2 8227   1.229   5.359   3.008
 2090SOL     OW 8228   0.688   5.386   3.578
 2090SOL    HW1 8229   0.632   5.467   3.587
 2090SOL    HW2 8230   0.740   5.390   3.492
 2091SOL     OW 8231   0.903   3.810   1.995
 2091SOL    HW1 8232   0.954   3.811   1.909
 2091SOL    HW2 8233   0.959   3.768   2.066
 2092SOL     OW 8234   1.726   3.859   2.385
 2092SOL    HW1 8235   1.799   3.842   2.318
 2092SOL    HW2 8236   1.695   3.772   2.423
 2093SOL     OW 8237   0.130   5.518   3.713
 2093SOL    HW1 8238   0.089   5.444   3.766
 2093SOL    HW2 8239   0.194   5.569   3.771
 2094SOL     OW 8240   1.280   4.651   2.534
 2094SOL    HW1 8241   1.340   4.570   2.536
 2094SOL    HW2 8242   1.320   4.720   2.474
 2095SOL     OW 8243   0.830   4.997   3.284
 2095SOL    HW1 8244   0.825   5.030   3.379
 2095SOL    HW2 8245   0.744   5.016   3.238
 2096SOL     OW 8246   0.672   5.340   2.016
 2096SOL    HW1 8247   0.681   5.350   1.917
 2096SOL    HW2 8248   0.632   5.251   2.037
 2097SOL     OW 8249   1.650   5.444   3.256
 2097SOL    HW1 8250   1.703   5.454   3.172
 2097SOL    HW2 8251   1.623   5.534   3.290
 2098SOL     OW 8252   1.841   3.899   2.825
 2098SOL    HW1 8253   1.880   3.814   2.789
 2098SOL    HW2 8254   1.743   3.901   2.806
 2099SOL     OW 8255   0.263   4.050   2.582
 2099SOL    HW1 8256   0.184   4.101   2.548
 2099SOL    HW2 8257   0.254   4.035   2.680
 2100SOL     OW 8258   1.194   5.336   1.893
 2100SOL    HW1 8259   1.200   5.243   1.930
 2100SOL    HW2 8260   1.135   5.336   1.813
 2101SOL     OW 8261   0.822   4.726   3.234
 2101SOL    HW1 8262   0.862   4.725   3.142
 2101SOL    HW2 8263   0.832   4.818   3.274
 2102SOL     OW 8264   0.916   4.634   2.153
 2102SOL    HW1 8265   0.979   4.672   2.085
 2102SOL    HW2 8266   0.956   4.551   2.192
 2103SOL     OW 8267   1.504   5.331   1.906
 2103SOL    HW1 8268   1.412   5.368   1.913
 2103SOL    HW2 8269   1.542   5.351   1.816
 2104SOL     OW 8270   0.372   5.012   3.352
 2104SOL    HW1 8271   0.359   5.105   3.318
 2104SOL    HW2 8272   0.288   4.960   3.339
 2105SOL     OW 8273   1.614   5.016   3.151
 2105SOL    HW1 8274   1.674   5.019   3.231
 2105SOL    HW2 8275   1.539   5.080   3.164
 2106SOL     OW 8276   1.039   4.822   2.558
 2106SOL    HW1 8277   0.969   4.775   2.612
 2106SOL    HW2 8278   1.098   4.754   2.515
 2107SOL     OW 8279   1.014   3.960   2.833
 2107SOL    HW1 8280   1.006   3.924   2.740
 2107SOL    HW2 8281   1.012   3.884   2.898
 2108SOL     OW 8282   0.590   5.211   2.353
 2108SOL    HW1 8283   0.632   5.153   2.283
 2108SOL    HW2 8284   0.546   5.290   2.309
 2109SOL     OW 8285   1.709   4.109   3.243
 2109SOL    HW1 8286   1.782   4.178   3.247
 2109SOL    HW2 8287   1.737   4.034   3.184
 2110SOL     OW 8288   0.255   5.072   2.152
 2110SOL    HW1 8289   0.159   5.073   2.125
 2110SOL    HW2 8290   0.267   5.125   2.236
 2111SOL     OW 8291   0.672   3.927   3.351
 2111SOL    HW1 8292   0.762   3.911   3.311
 2111SOL    HW2 8293   0.680   3.932   3.450
 2112SOL     OW 8294   1.440   4.580   3.260
 2112SOL    HW1 8295   1.383   4.632   3.197
 2112SOL    HW2 8296   1.536   4.592   3.236
 2113SOL     OW 8297   1.183   5.059   1.981
 2113SOL    HW1 8298   1.084   5.048   1.983
 2113SOL    HW2 8299   1.217   5.074   2.074
 2114SOL     OW 8300   0.613   4.566   3.293
 2114SOL    HW1 8301   0.669   4.647   3.276
 2114SOL    HW2 8302   0.672   4.486   3.296
 2115SOL     OW 8303   1.493   5.491   2.821
 2115SOL    HW1 8304   1.526   5.555   2.752
 2115SOL    HW2 8305   1.559   5.485   2.896
 2116SOL     OW 8306   0.716   4.289   3.570
 2116SOL    HW1 8307   0.735   4.354   3.644
 2116SOL    HW2 8308   0.776   4.209   3.579
 2117SOL     OW 8309   1.450   4.944   3.495
 2117SOL    HW1 8310   1.441   4.934   3.594
 2117SOL    HW2 8311   1.546   4.937   3.469
 2118SOL     OW 8312   0.390   5.465   3.422
 2118SOL    HW1 8313   0.299   5.506   3.420
 2118SOL    HW2 8314   0.383   5.371   3.454
 2119SOL     OW 8315   1.674   4.607   3.116
 2119SOL    HW1 8316   1.647   4.518   3.079
 2119SOL    HW2 8317   1.675   4.675   3.043
 2120SOL     OW 8318   1.225   4.049   2.311
 2120SOL    HW1 8319   1.290   3.975   2.300
 2120SOL    HW2 8320   1.245   4.099   2.395
 2121SOL     OW 8321   0.594   4.469   2.514
 2121SOL    HW1 8322   0.644   4.554   2.495
 2121SOL    HW2 8323   0.506   4.471   2.466
 2122SOL     OW 8324   1.777   4.066   3.504
 2122SOL    HW1 8325   1.760   4.097   3.410
 2122SOL    HW2 8326   1.693   4.029   3.542
 2123SOL     OW 8327   1.730   4.658   3.379
 2123SOL    HW1 8328   1.768   4.749   3.394
 2123SOL    HW2 8329   1.722   4.641   3.280
 2124SOL     OW 8330   0.859   5.098   1.878
 2124SOL    HW1 8331   0.813   5.113   1.966
 2124SOL    HW2 8332   0.903   5.183   1.848
 2125SOL     OW 8333   0.661   5.514   2.815
 2125SOL    HW1 8334   0.615   5.602   2.802
 2125SOL    HW2 8335   0.760   5.526   2.808
 2126SOL     OW 8336   1.408   5.575   3.582
 2126SOL    HW1 8337   1.312   5.564   3.555
 2126SOL    HW2 8338   1.464   5.508   3.534
 2127SOL     OW 8339   0.859   4.680   2.723
 2127SOL    HW1 8340   0.913   4.611   2.771
 2127SOL    HW2 8341   0.827   4.749   2.789
 2128SOL     OW 8342   1.083   4.708   1.949
 2128SOL    HW1 8343   1.060   4.761   1.867
 2128SOL    HW2 8344   1.164   4.652   1.930
 2129SOL     OW 8345   1.861   5.293   2.713
 2129SOL    HW1 8346   1.790   5.281   2.643
 2129SOL    HW2 8347   1.862   5.214   2.773
 2130SOL     OW 8348   0.672   5.115   3.486
 2130SOL    HW1 8349   0.594   5.065   3.524
 2130SOL    HW2 8350   0.669   5.210   3.517
 2131SOL     OW 8351   1.824   3.916   3.089
 2131SOL    HW1 8352   1.820   3.826   3.133
 2131SOL    HW2 8353   1.827   3.905   2.990
 2132SOL     OW 8354   0.428   4.148   2.382
 2132SOL    HW1 8355   0.458   4.076   2.320
 2132SOL    HW2 8356   0.389   4.108   2.465
 2133SOL     OW 8357   1.705   5.211   2.966
 2133SOL    HW1 8358   1.612   5.186   2.939
 2133SOL    HW2 8359   1.731   5.161   3.048
 2134SOL     OW 8360   0.812   5.310   2.549
 2134SOL    HW1 8361   0.844   5.320   2.455
 2134SOL    HW2 8362   0.733   5.248   2.551
 2135SOL     OW 8363   1.424   3.938   2.974
 2135SOL    HW1 8364   1.476   3.873   3.029
 2135SOL    HW2 8365   1.375   4.001   3.035
 2136SOL     OW 8366   1.001   3.758   3.016
 2136SOL    HW1 8367   0.938   3.686   2.985
 2136SOL    HW2 8368   1.094   3.722   3.016
 2137SOL     OW 8369   0.770   5.054   2.163
 2137SOL    HW1 8370   0.724   4.967   2.180
 2137SOL    HW2 8371   0.861   5.051   2.204
 2138SOL     OW 8372   0.618   5.291   3.146
 2138SOL    HW1 8373   0.613   5.373   3.203
 2138SOL    HW2 8374   0.707   5.288   3.101
 2139SOL     OW 8375   1.352   3.776   2.030
 2139SOL    HW1 8376   1.387   3.735   1.946
 2139SOL    HW2 8377   1.262   3.738   2.050
 2140SOL     OW 8378   1.300   4.177   2.553
 2140SOL    HW1 8379   1.241   4.257   2.557
 2140SOL    HW2 8380   1.315   4.142   2.646
 2141SOL     OW 8381   1.593   3.945   2.744
 2141SOL    HW1 8382   1.509   3.944   2.798
 2141SOL    HW2 8383   1.595   4.028   2.688
 2142SOL     OW 8384   0.875   5.370   2.199
 2142SOL    HW1 8385   0.798   5.335   2.145
 2142SOL    HW2 8386   0.843   5.441   2.261
 2143SOL     OW 8387   0.019   4.092   4.371
 2143SOL    HW1 8388  -0.063   4.135   4.410
 2143SOL    HW2 8389  -0.009   4.019   4.308
 2144SOL     OW 8390   0.569   4.999   4.889
 2144SOL    HW1 8391   0.476   4.992   4.852
 2144SOL    HW2 8392   0.580   5.088   4.933
 2145SOL     OW 8393   1.555   5.235   4.427
 2145SOL    HW1 8394   1.498   5.219   4.508
 2145SOL    HW2 8395   1.496   5.245   4.347
 2146SOL     OW 8396   1.743   4.342   4.580
 2146SOL    HW1 8397   1.776   4.436   4.580
 2146SOL    HW2 8398   1.794   4.288   4.646
 2147SOL     OW 8399   1.135   4.427   4.441
 2147SOL    HW1 8400   1.192   4.505   4.416
 2147SOL    HW2 8401   1.075   4.453   4.517
 2148SOL     OW 8402   1.755   4.331   3.955
 2148SOL    HW1 8403   1.743   4.318   3.856
 2148SOL    HW2 8404   1.725   4.250   4.004
 2149SOL     OW 8405   0.768   4.868   4.747
 2149SOL    HW1 8406   0.690   4.885   4.807
 2149SOL    HW2 8407   0.802   4.955   4.711
 2150SOL     OW 8408   0.850   4.522   5.547
 2150SOL    HW1 8409   0.846   4.598   5.612
 2150SOL    HW2 8410   0.872   4.558   5.456
 2151SOL     OW 8411   0.685   4.736   4.389
 2151SOL    HW1 8412   0.754   4.720   4.459
 2151SOL    HW2 8413   0.612   4.793   4.427
 2152SOL     OW 8414   0.686   4.885   5.527
 2152SOL    HW1 8415   0.746   4.964   5.541
 2152SOL    HW2 8416   0.600   4.916   5.486
 2153SOL     OW 8417   0.335   5.159   4.785
 2153SOL    HW1 8418   0.257   5.128   4.732
 2153SOL    HW2 8419   0.393   5.217   4.728
 2154SOL     OW 8420   1.460   5.229   5.063
 2154SOL    HW1 8421   1.484   5.323   5.089
 2154SOL    HW2 8422   1.444   5.175   5.145
 2155SOL     OW 8423   0.438   4.116   5.223
 2155SOL    HW1 8424   0.520   4.060   5.232
 2155SOL    HW2 8425   0.357   4.058   5.227
 2156SOL     OW 8426   1.603   4.171   4.461
 2156SOL    HW1 8427   1.529   4.217   4.411
 2156SOL    HW2 8428   1.654   4.239   4.514
 2157SOL     OW 8429   1.127   5.065   5.414
 2157SOL    HW1 8430   1.174   5.065   5.502
 2157SOL    HW2 8431   1.079   4.978   5.403
 2158SOL     OW 8432   0.620   5.510   5.163
 2158SOL    HW1 8433   0.528   5.493   5.198
 2158SOL    HW2 8434   0.648   5.602   5.189
 2159SOL     OW 8435   0.606   4.688   3.847
 2159SOL    HW1 8436   0.613   4.772   3.793
 2159SOL    HW2 8437   0.652   4.701   3.935
 2160SOL     OW 8438   1.594   3.838   5.204
 2160SOL    HW1 8439   1.576   3.905   5.132
 2160SOL    HW2 8440   1.591   3.884   5.293
 2161SOL     OW 8441   1.842   5.491   4.083
 2161SOL    HW1 8442   1.896   5.462   4.163
 2161SOL    HW2 8443   1.872   5.581   4.054
 2162SOL     OW 8444   1.689   4.646   4.336
 2162SOL    HW1 8445   1.784   4.617   4.344
 2162SOL    HW2 8446   1.681   4.711   4.261
 2163SOL     OW 8447   1.641   4.832   4.156
 2163SOL    HW1 8448   1.727   4.834   4.104
 2163SOL    HW2 8449   1.655   4.879   4.244
 2164SOL     OW 8450   0.613   5.089   4.450
 2164SOL    HW1 8451   0.564   5.002   4.459
 2164SOL    HW2 8452   0.590   5.132   4.363
 2165SOL     OW 8453   1.293   4.952   5.147
 2165SOL    HW1 8454   1.330   4.879   5.089
 2165SOL    HW2 8455   1.345   4.957   5.232
 2166SOL     OW 8456   0.809   3.728   4.226
 2166SOL    HW1 8457   0.849   3.819   4.217
 2166SOL    HW2 8458   0.709   3.736   4.232
 2167SOL     OW 8459   1.525   4.723   3.914
 2167SOL    HW1 8460   1.462   4.647   3.927
 2167SOL    HW2 8461   1.573   4.741   4.000
 2168SOL     OW 8462   1.187   5.516   5.340
 2168SOL    HW1 8463   1.211   5.576   5.264
 2168SOL    HW2 8464   1.194   5.421   5.310
 2169SOL     OW 8465   0.317   3.975   5.525
 2169SOL    HW1 8466   0.388   4.046   5.531
 2169SOL    HW2 8467   0.229   4.014   5.553
 2170SOL     OW 8468   1.466   5.141   4.677
 2170SOL    HW1 8469   1.407   5.147   4.757
 2170SOL    HW2 8470   1.451   5.053   4.631
 2171SOL     OW 8471   1.667   5.438   4.296
 2171SOL    HW1 8472   1.626   5.415   4.208
 2171SOL    HW2 8473   1.649   5.364   4.361
 2172SOL     OW 8474   0.598   4.453   3.994
 2172SOL    HW1 8475   0.622   4.522   3.926
 2172SOL    HW2 8476   0.520   4.486   4.048
 2173SOL     OW 8477   1.281   4.069   4.668
 2173SOL    HW1 8478   1.195   4.019   4.655
 2173SOL    HW2 8479   1.343   4.015   4.724
 2174SOL     OW 8480   1.576   5.386   4.031
 2174SOL    HW1 8481   1.665   5.432   4.034
 2174SOL    HW2 8482   1.555   5.362   3.936
 2175SOL     OW 8483   0.807   4.329   5.189
 2175SOL    HW1 8484   0.760   4.326   5.278
 2175SOL    HW2 8485   0.756   4.274   5.123
 2176SOL     OW 8486   1.394   4.193   5.398
 2176SOL    HW1 8487   1.374   4.236   5.486
 2176SOL    HW2 8488   1.472   4.131   5.407
 2177SOL     OW 8489   0.973   4.614   5.296
 2177SOL    HW1 8490   1.019   4.530   5.267
 2177SOL    HW2 8491   0.917   4.648   5.221
 2178SOL     OW 8492   0.991   4.134   4.966
 2178SOL    HW1 8493   0.914   4.168   5.020
 2178SOL    HW2 8494   0.957   4.083   4.887
 2179SOL     OW 8495   1.041   4.425   4.153
 2179SOL    HW1 8496   1.067   4.421   4.249
 2179SOL    HW2 8497   0.956   4.374   4.139
 2180SOL     OW 8498   0.865   4.072   3.919
 2180SOL    HW1 8499   0.924   4.135   3.870
 2180SOL    HW2 8500   0.884   3.978   3.890
 2181SOL     OW 8501   1.719   4.309   5.555
 2181SOL    HW1 8502   1.693   4.398   5.519
 2181SOL    HW2 8503   1.717   4.241   5.482
 2182SOL     OW 8504   1.362   4.868   4.269
 2182SOL    HW1 8505   1.445   4.839   4.221
 2182SOL    HW2 8506   1.313   4.935   4.213
 2183SOL     OW 8507   0.550   3.920   4.609
 2183SOL    HW1 8508   0.545   3.915   4.709
 2183SOL    HW2 8509   0.552   4.016   4.580
 2184SOL     OW 8510   1.008   5.180   4.201
 2184SOL    HW1 8511   0.962   5.252   4.149
 2184SOL    HW2 8512   1.004   5.200   4.299
 2185SOL     OW 8513   0.351   5.525   4.577
 2185SOL    HW1 8514   0.401   5.439   4.583
 2185SOL    HW2 8515   0.416   5.602   4.574
 2186SOL     OW 8516   1.795   4.790   4.597
 2186SOL    HW1 8517   1.733   4.775   4.521
 2186SOL    HW2 8518   1.743   4.801   4.682
 2187SOL     OW 8519   1.227   5.274   5.230
 2187SOL    HW1 8520   1.233   5.197   5.294
 2187SOL    HW2 8521   1.175   5.248   5.150
 2188SOL     OW 8522   0.321   4.667   3.966
 2188SOL    HW1 8523   0.403   4.706   3.924
 2188SOL    HW2 8524   0.294   4.585   3.917
 2189SOL     OW 8525   1.458   4.459   4.452
 2189SOL    HW1 8526   1.453   4.394   4.527
 2189SOL    HW2 8527   1.538   4.518   4.465
 2190SOL     OW 8528   0.461   4.990   5.451
 2190SOL    HW1 8529   0.411   4.991   5.365
 2190SOL    HW2 8530   0.398   4.972   5.527
 2191SOL     OW 8531   1.111   5.500   3.961
 2191SOL    HW1 8532   1.051   5.438   4.011
 2191SOL    HW2 8533   1.142   5.456   3.876
 2192SOL     OW 8534   1.632   5.101   3.805
 2192SOL    HW1 8535   1.600   5.195   3.795
 2192SOL    HW2 8536   1.556   5.038   3.793
 2193SOL     OW 8537   0.464   5.467   4.047
 2193SOL    HW1 8538   0.497   5.506   4.133
 2193SOL    HW2 8539   0.540   5.460   3.982
 2194SOL     OW 8540   1.400   3.831   4.150
 2194SOL    HW1 8541   1.376   3.794   4.060
 2194SOL    HW2 8542   1.499   3.847   4.154
 2195SOL     OW 8543   0.940   5.422   4.628
 2195SOL    HW1 8544   1.020   5.365   4.649
 2195SOL    HW2 8545   0.891   5.382   4.551
 2196SOL     OW 8546   0.382   4.424   4.204
 2196SOL    HW1 8547   0.427   4.334   4.201
 2196SOL    HW2 8548   0.288   4.413   4.237
 2197SOL     OW 8549   1.547   3.946   5.453
 2197SOL    HW1 8550   1.542   3.983   5.545
 2197SOL    HW2 8551   1.475   3.877   5.441
 2198SOL     OW 8552   0.614   3.846   3.841
 2198SOL    HW1 8553   0.712   3.824   3.848
 2198SOL    HW2 8554   0.583   3.829   3.748
 2199SOL     OW 8555   0.781   3.988   5.473
 2199SOL    HW1 8556   0.848   3.927   5.516
 2199SOL    HW2 8557   0.708   4.007   5.538
 2200SOL     OW 8558   0.888   5.238   4.919
 2200SOL    HW1 8559   0.865   5.213   4.825
 2200SOL    HW2 8560   0.949   5.169   4.958
 2201SOL     OW 8561   1.351   4.314   5.157
 2201SOL    HW1 8562   1.379   4.271   5.242
 2201SOL    HW2 8563   1.376   4.410   5.158
 2202SOL     OW 8564   0.803   5.126   4.648
 2202SOL    HW1 8565   0.893   5.140   4.606
 2202SOL    HW2 8566   0.732   5.128   4.577
 2203SOL     OW 8567   0.922   4.227   4.623
 2203SOL    HW1 8568   0.897   4.218   4.527
 2203SOL    HW2 8569   0.970   4.145   4.654
 2204SOL     OW 8570   0.539   3.788   4.236
 2204SOL    HW1 8571   0.458   3.789   4.294
 2204SOL    HW2 8572   0.542   3.871   4.181
 2205SOL     OW 8573   1.434   4.912   3.765
 2205SOL    HW1 8574   1.466   4.836   3.822
 2205SOL    HW2 8575   1.342   4.939   3.795
 2206SOL     OW 8576   0.297   3.759   3.895
 2206SOL    HW1 8577   0.346   3.843   3.874
 2206SOL    HW2 8578   0.359   3.694   3.940
 2207SOL     OW 8579   0.935   3.960   4.204
 2207SOL    HW1 8580   0.887   4.001   4.126
 2207SOL    HW2 8581   1.034   3.958   4.185
 2208SOL     OW 8582   1.076   4.407   5.188
 2208SOL    HW1 8583   0.996   4.346   5.191
 2208SOL    HW2 8584   1.157   4.354   5.164
 2209SOL     OW 8585   1.227   5.294   4.517
 2209SOL    HW1 8586   1.248   5.368   4.452
 2209SOL    HW2 8587   1.295   5.294   4.590
 2210SOL     OW 8588   0.459   4.876   4.465
 2210SOL    HW1 8589   0.388   4.849   4.530
 2210SOL    HW2 8590   0.433   4.848   4.372
 2211SOL     OW 8591   1.271   5.521   4.315
 2211SOL    HW1 8592   1.315   5.585   4.251
 2211SOL    HW2 8593   1.221   5.573   4.385
 2212SOL     OW 8594   1.032   4.273   3.740
 2212SOL    HW1 8595   0.991   4.355   3.701
 2212SOL    HW2 8596   1.096   4.299   3.813
 2213SOL     OW 8597   0.561   3.946   4.871
 2213SOL    HW1 8598   0.599   3.862   4.908
 2213SOL    HW2 8599   0.473   3.965   4.915
 2214SOL     OW 8600   0.866   4.178   4.366
 2214SOL    HW1 8601   0.834   4.250   4.304
 2214SOL    HW2 8602   0.890   4.097   4.313
 2215SOL     OW 8603   1.017   3.763   4.477
 2215SOL    HW1 8604   0.945   3.768   4.408
 2215SOL    HW2 8605   0.993   3.694   4.546
 2216SOL     OW 8606   1.429   4.897   4.591
 2216SOL    HW1 8607   1.374   4.813   4.584
 2216SOL    HW2 8608   1.455   4.926   4.499
 2217SOL     OW 8609   1.466   4.314   4.716
 2217SOL    HW1 8610   1.436   4.219   4.723
 2217SOL    HW2 8611   1.539   4.330   4.782
 2218SOL     OW 8612   1.857   4.557   4.101
 2218SOL    HW1 8613   1.899   4.493   4.165
 2218SOL    HW2 8614   1.819   4.506   4.023
 2219SOL     OW 8615   0.488   5.109   3.898
 2219SOL    HW1 8616   0.401   5.094   3.945
 2219SOL    HW2 8617   0.471   5.135   3.803
 2220SOL     OW 8618   1.664   5.004   4.381
 2220SOL    HW1 8619   1.763   5.012   4.395
 2220SOL    HW2 8620   1.619   5.088   4.412
 2221SOL     OW 8621   1.390   4.299   3.802
 2221SOL    HW1 8622   1.336   4.278   3.883
 2221SOL    HW2 8623   1.481   4.258   3.811
 2222SOL     OW 8624   0.527   3.980   4.052
 2222SOL    HW1 8625   0.554   3.921   3.977
 2222SOL    HW2 8626   0.527   4.075   4.021
 2223SOL     OW 8627   1.754   4.947   5.312
 2223SOL    HW1 8628   1.845   4.908   5.299
 2223SOL    HW2 8629   1.762   5.043   5.336
 2224SOL     OW 8630   1.064   5.071   5.064
 2224SOL    HW1 8631   0.984   5.048   5.119
 2224SOL    HW2 8632   1.147   5.045   5.113
 2225SOL     OW 8633   1.592   5.353   5.349
 2225SOL    HW1 8634   1.619   5.387   5.259
 2225SOL    HW2 8635   1.671   5.315   5.395
 2226SOL     OW 8636   1.111   4.919   4.824
 2226SOL    HW1 8637   1.071   4.963   4.905
 2226SOL    HW2 8638   1.070   4.956   4.741
 2227SOL     OW 8639   1.638   4.823   4.803
 2227SOL    HW1 8640   1.643   4.904   4.862
 2227SOL    HW2 8641   1.552   4.825   4.752
 2228SOL     OW 8642   0.915   3.813   5.126
 2228SOL    HW1 8643   0.940   3.793   5.031
 2228SOL    HW2 8644   0.987   3.869   5.168
 2229SOL     OW 8645   0.980   4.840   5.443
 2229SOL    HW1 8646   0.881   4.846   5.453
 2229SOL    HW2 8647   1.003   4.760   5.387
 2230SOL     OW 8648   0.705   4.774   4.092
 2230SOL    HW1 8649   0.691   4.781   4.191
 2230SOL    HW2 8650   0.789   4.723   4.074
 2231SOL     OW 8651   0.410   4.537   4.975
 2231SOL    HW1 8652   0.496   4.549   5.025
 2231SOL    HW2 8653   0.368   4.450   5.002
 2232SOL     OW 8654   1.274   4.110   4.986
 2232SOL    HW1 8655   1.295   4.184   5.050
 2232SOL    HW2 8656   1.185   4.127   4.943
 2233SOL     OW 8657   0.367   4.824   4.225
 2233SOL    HW1 8658   0.360   4.907   4.169
 2233SOL    HW2 8659   0.371   4.744   4.165
 2234SOL     OW 8660   0.566   4.261   4.589
 2234SOL    HW1 8661   0.578   4.327   4.515
 2234SOL    HW2 8662   0.612   4.295   4.672
 2235SOL     OW 8663   1.252   5.072   4.112
 2235SOL    HW1 8664   1.302   5.149   4.152
 2235SOL    HW2 8665   1.157   5.074   4.144
 2236SOL     OW 8666   1.272   5.169   4.866
 2236SOL    HW1 8667   1.319   5.182   4.953
 2236SOL    HW2 8668   1.206   5.095   4.875
 2237SOL     OW 8669   1.582   4.363   4.196
 2237SOL    HW1 8670   1.551   4.424   4.269
 2237SOL    HW2 8671   1.632   4.415   4.127
 2238SOL     OW 8672   0.354   5.234   5.053
 2238SOL    HW1 8673   0.333   5.190   4.966
 2238SOL    HW2 8674   0.451   5.260   5.056
 2239SOL     OW 8675   0.402   4.475   5.322
 2239SOL    HW1 8676   0.470   4.530   5.275
 2239SOL    HW2 8677   0.442   4.387   5.349
 2240SOL     OW 8678   1.587   4.503   5.394
 2240SOL    HW1 8679   1.495   4.541   5.389
 2240SOL    HW2 8680   1.647   4.550   5.329
 2241SOL     OW 8681   1.013   3.829   5.494
 2241SOL    HW1 8682   1.019   3.914   5.442
 2241SOL    HW2 8683   1.045   3.753   5.437
 2242SOL     OW 8684   0.504   3.774   5.464
 2242SOL    HW1 8685   0.462   3.717   5.394
 2242SOL    HW2 8686   0.438   3.843   5.496
 2243SOL     OW 8687   0.573   4.594   4.753
 2243SOL    HW1 8688   0.617   4.683   4.744
 2243SOL    HW2 8689   0.510   4.594   4.830
 2244SOL     OW 8690   1.360   4.586   4.769
 2244SOL    HW1 8691   1.285   4.586   4.703
 2244SOL    HW2 8692   1.397   4.494   4.778
 2245SOL     OW 8693   1.209   4.249   3.999
 2245SOL    HW1 8694   1.222   4.165   4.053
 2245SOL    HW2 8695   1.180   4.323   4.059
 2246SOL     OW 8696   0.732   4.358   4.788
 2246SOL    HW1 8697   0.791   4.332   4.712
 2246SOL    HW2 8698   0.704   4.454   4.777
 2247SOL     OW 8699   1.728   4.659   5.578
 2247SOL    HW1 8700   1.682   4.652   5.489
 2247SOL    HW2 8701   1.666   4.703   5.644
 2248SOL     OW 8702   0.307   3.787   4.342
 2248SOL    HW1 8703   0.296   3.881   4.375
 2248SOL    HW2 8704   0.302   3.724   4.419
 2249SOL     OW 8705   1.622   4.091   4.098
 2249SOL    HW1 8706   1.624   4.015   4.162
 2249SOL    HW2 8707   1.574   4.168   4.138
 2250SOL     OW 8708   1.023   4.490   4.690
 2250SOL    HW1 8709   1.038   4.511   4.786
 2250SOL    HW2 8710   0.993   4.395   4.681
 2251SOL     OW 8711   0.980   5.297   5.424
 2251SOL    HW1 8712   0.960   5.341   5.336
 2251SOL    HW2 8713   1.019   5.206   5.408
 2252SOL     OW 8714   1.859   5.242   5.329
 2252SOL    HW1 8715   1.873   5.269   5.234
 2252SOL    HW2 8716   1.942   5.264   5.382
 2253SOL     OW 8717   0.350   4.622   5.528
 2253SOL    HW1 8718   0.426   4.666   5.576
 2253SOL    HW2 8719   0.385   4.575   5.446
 2254SOL     OW 8720   1.540   3.998   3.849
 2254SOL    HW1 8721   1.479   3.923   3.872
 2254SOL    HW2 8722   1.562   4.050   3.932
 2255SOL     OW 8723   1.303   4.562   3.766
 2255SOL    HW1 8724   1.337   4.469   3.781
 2255SOL    HW2 8725   1.321   4.589   3.671
 2256SOL     OW 8726   1.068   5.057   4.573
 2256SOL    HW1 8727   1.075   4.973   4.518
 2256SOL    HW2 8728   1.130   5.126   4.537
 2257SOL     OW 8729   0.319   4.534   4.673
 2257SOL    HW1 8730   0.412   4.570   4.678
 2257SOL    HW2 8731   0.313   4.449   4.725
 2258SOL     OW 8732   1.138   4.104   5.402
 2258SOL    HW1 8733   1.093   4.167   5.466
 2258SOL    HW2 8734   1.231   4.135   5.385
 2259SOL     OW 8735   1.160   3.931   5.201
 2259SOL    HW1 8736   1.160   3.995   5.278
 2259SOL    HW2 8737   1.188   3.979   5.118
 2260SOL     OW 8738   0.504   5.292   4.634
 2260SOL    HW1 8739   0.570   5.366   4.643
 2260SOL    HW2 8740   0.548   5.213   4.592
 2261SOL     OW 8741   1.002   4.520   4.962
 2261SOL    HW1 8742   1.043   4.488   5.048
 2261SOL    HW2 8743   0.906   4.493   4.959
 2262SOL     OW 8744   1.369   4.674   5.384
 2262SOL    HW1 8745   1.408   4.763   5.404
 2262SOL    HW2 8746   1.379   4.654   5.287
 2263SOL     OW 8747   0.815   4.296   4.049
 2263SOL    HW1 8748   0.822   4.207   4.003
 2263SOL    HW2 8749   0.721   4.330   4.041
 2264SOL     OW 8750   1.657   4.328   4.930
 2264SOL    HW1 8751   1.619   4.259   4.992
 2264SOL    HW2 8752   1.739   4.292   4.886
 2265SOL     OW 8753   0.671   4.188   4.993
 2265SOL    HW1 8754   0.637   4.099   4.963
 2265SOL    HW2 8755   0.697   4.242   4.913
 2266SOL     OW 8756   0.930   5.402   5.189
 2266SOL    HW1 8757   0.906   5.384   5.094
 2266SOL    HW2 8758   0.960   5.496   5.199
 2267SOL     OW 8759   0.473   4.224   3.915
 2267SOL    HW1 8760   0.534   4.304   3.919
 2267SOL    HW2 8761   0.378   4.255   3.922
 2268SOL     OW 8762   1.347   4.783   4.958
 2268SOL    HW1 8763   1.371   4.720   4.884
 2268SOL    HW2 8764   1.257   4.823   4.940
 2269SOL     OW 8765   1.302   4.579   4.033
 2269SOL    HW1 8766   1.216   4.548   4.075
 2269SOL    HW2 8767   1.298   4.565   3.934
 2270SOL     OW 8768   1.759   5.471   4.878
 2270SOL    HW1 8769   1.820   5.501   4.805
 2270SOL    HW2 8770   1.721   5.382   4.856
 2271SOL     OW 8771   1.252   5.455   4.852
 2271SOL    HW1 8772   1.336   5.460   4.798
 2271SOL    HW2 8773   1.229   5.359   4.870
 2272SOL     OW 8774   0.688   5.386   5.440
 2272SOL    HW1 8775   0.632   5.467   5.449
 2272SOL    HW2 8776   0.740   5.390   5.354
 2273SOL     OW 8777   0.903   3.810   3.857
 2273SOL    HW1 8778   0.954   3.811   3.771
 2273SOL    HW2 8779   0.959   3.768   3.928
 2274SOL     OW 8780   1.726   3.859   4.247
 2274SOL    HW1 8781   1.799   3.842   4.180
 2274SOL    HW2 8782   1.695   3.772   4.285
 2275SOL     OW 8783   1.388   5.297   4.201
 2275SOL    HW1 8784   1.455   5.309   4.127
 2275SOL    HW2 8785   1.348   5.386   4.224
 2276SOL     OW 8786   0.130   5.518   5.575
 2276SOL    HW1 8787   0.089   5.444   5.628
 2276SOL    HW2 8788   0.194   5.569   5.633
 2277SOL     OW 8789   1.280   4.651   4.396
 2277SOL    HW1 8790   1.340   4.570   4.398
 2277SOL    HW2 8791   1.320   4.720   4.336
 2278SOL     OW 8792   0.830   4.997   5.146
 2278SOL    HW1 8793   0.825   5.030   5.241
 2278SOL    HW2 8794   0.744   5.016   5.100
 2279SOL     OW 8795   0.672   5.340   3.878
 2279SOL    HW1 8796   0.681   5.350   3.779
 2279SOL    HW2 8797   0.632   5.251   3.899
 2280SOL     OW 8798   1.650   5.444   5.118
 2280SOL    HW1 8799   1.703   5.454   5.034
 2280SOL    HW2 8800   1.623   5.534   5.152
 2281SOL     OW 8801   1.841   3.899   4.687
 2281SOL    HW1 8802   1.880   3.814   4.651
 2281SOL    HW2 8803   1.743   3.901   4.668
 2282SOL     OW 8804   0.263   4.050   4.444
 2282SOL    HW1 8805   0.184   4.101   4.410
 2282SOL    HW2 8806   0.254   4.035   4.542
 2283SOL     OW 8807   1.194   5.336   3.755
 2283SOL    HW1 8808   1.200   5.243   3.792
 2283SOL    HW2 8809   1.135   5.336   3.675
 2284SOL     OW 8810   0.822   4.726   5.096
 2284SOL    HW1 8811   0.862   4.725   5.004
 2284SOL    HW2 8812   0.832   4.818   5.136
 2285SOL     OW 8813   0.916   4.634   4.015
 2285SOL    HW1 8814   0.979   4.672   3.947
 2285SOL    HW2 8815   0.956   4.551   4.054
 2286SOL     OW 8816   1.504   5.331   3.768
 2286SOL    HW1 8817   1.412   5.368   3.775
 2286SOL    HW2 8818   1.542   5.351   3.678
 2287SOL     OW 8819   0.372   5.012   5.214
 2287SOL    HW1 8820   0.359   5.105   5.180
 2287SOL    HW2 8821   0.288   4.960   5.201
 2288SOL     OW 8822   1.614   5.016   5.013
 2288SOL    HW1 8823   1.674   5.019   5.093
 2288SOL    HW2 8824   1.539   5.080   5.026
 2289SOL     OW 8825   1.039   4.822   4.420
 2289SOL    HW1 8826   0.969   4.775   4.474
 2289SOL    HW2 8827   1.098   4.754   4.377
 2290SOL     OW 8828   1.014   3.960   4.695
 2290SOL    HW1 8829   1.006   3.924   4.602
 2290SOL    HW2 8830   1.012   3.884   4.760
 2291SOL     OW 8831   0.590   5.211   4.215
 2291SOL    HW1 8832   0.632   5.153   4.145
 2291SOL    HW2 8833   0.546   5.290   4.171
 2292SOL     OW 8834   1.709   4.109   5.105
 2292SOL    HW1 8835   1.782   4.178   5.109
 2292SOL    HW2 8836   1.737   4.034   5.046
 2293SOL     OW 8837   0.255   5.072   4.014
 2293SOL    HW1 8838   0.159   5.073   3.987
 2293SOL    HW2 8839   0.267   5.125   4.098
 2294SOL     OW 8840   0.672   3.927   5.213
 2294SOL    HW1 8841   0.762   3.911   5.173
 2294SOL    HW2 8842   0.680   3.932   5.312
 2295SOL     OW 8843   1.440   4.580   5.122
 2295SOL    HW1 8844   1.383   4.632   5.059
 2295SOL    HW2 8845   1.536   4.592   5.098
 2296SOL     OW 8846   1.183   5.059   3.843
 2296SOL    HW1 8847   1.084   5.048   3.845
 2296SOL    HW2 8848   1.217   5.074   3.936
 2297SOL     OW 8849   0.613   4.566   5.155
 2297SOL    HW1 8850   0.669   4.647   5.138
 2297SOL    HW2 8851   0.672   4.486   5.158
 2298SOL     OW 8852   1.493   5.491   4.683
 2298SOL    HW1 8853   1.526   5.555   4.614
 2298SOL    HW2 8854   1.559   5.485   4.758
 2299SOL     OW 8855   0.716   4.289   5.432
 2299SOL    HW1 8856   0.735   4.354   5.506
 2299SOL    HW2 8857   0.776   4.209   5.441
 2300SOL     OW 8858   1.450   4.944   5.357
 2300SOL    HW1 8859   1.441   4.934   5.456
 2300SOL    HW2 8860   1.546   4.937   5.331
 2301SOL     OW 8861   0.390   5.465   5.284
 2301SOL    HW1 8862   0.299   5.506   5.282
 2301SOL    HW2 8863   0.383   5.371   5.316
 2302SOL     OW 8864   1.674   4.607   4.978
 2302SOL    HW1 8865   1.647   4.518   4.941
 2302SOL    HW2 8866   1.675   4.675   4.905
 2303SOL     OW 8867   1.225   4.049   4.173
 2303SOL    HW1 8868   1.290   3.975   4.162
 2303SOL    HW2 8869   1.245   4.099   4.257
 2304SOL     OW 8870   0.594   4.469   4.376
 2304SOL    HW1 8871   0.644   4.554   4.357
 2304SOL    HW2 8872   0.506   4.471   4.328
 2305SOL     OW 8873   1.777   4.066   5.366
 2305SOL    HW1 8874   1.760   4.097   5.272
 2305SOL    HW2 8875   1.693   4.029   5.404
 2306SOL     OW 8876   1.730   4.658   5.241
 2306SOL    HW1 8877   1.768   4.749   5.256
 2306SOL    HW2 8878   1.722   4.641   5.142
 2307SOL     OW 8879   0.859   5.098   3.740
 2307SOL    HW1 8880   0.813   5.113   3.828
 2307SOL    HW2 8881   0.903   5.183   3.710
 2308SOL     OW 8882   0.661   5.514   4.677
 2308SOL    HW1 8883   0.615   5.602   4.664
 2308SOL    HW2 8884   0.760   5.526   4.670
 2309SOL     OW 8885   1.408   5.575   5.444
 2309SOL    HW1 8886   1.312   5.564   5.417
 2309SOL    HW2 8887   1.464   5.508   5.396
 2310SOL     OW 8888   0.859   4.680   4.585
 2310SOL    HW1 8889   0.913   4.611   4.633
 2310SOL    HW2 8890   0.827   4.749   4.651
 2311SOL     OW 8891   1.083   4.708   3.811
 2311SOL    HW1 8892   1.060   4.761   3.729
 2311SOL    HW2 8893   1.164   4.652   3.792
 2312SOL     OW 8894   1.861   5.293   4.575
 2312SOL    HW1 8895   1.790   5.281   4.505
 2312SOL    HW2 8896   1.862   5.214   4.635
 2313SOL     OW 8897   0.672   5.115   5.348
 2313SOL    HW1 8898   0.594   5.065   5.386
 2313SOL    HW2 8899   0.669   5.210   5.379
 2314SOL     OW 8900   1.824   3.916   4.951
 2314SOL    HW1 8901   1.820   3.826   4.995
 2314SOL    HW2 8902   1.827   3.905   4.852
 2315SOL     OW 8903   0.428   4.148   4.244
 2315SOL    HW1 8904   0.458   4.076   4.182
 2315SOL    HW2 8905   0.389   4.108   4.327
 2316SOL     OW 8906   1.705   5.211   4.828
 2316SOL    HW1 8907   1.612   5.186   4.801
 2316SOL    HW2 8908   1.731   5.161   4.910
 2317SOL     OW 8909   0.812   5.310   4.411
 2317SOL    HW1 8910   0.844   5.320   4.317
 2317SOL    HW2 8911   0.733   5.248   4.413
 2318SOL     OW 8912   1.424   3.938   4.836
 2318SOL    HW1 8913   1.476   3.873   4.891
 2318SOL    HW2 8914   1.375   4.001   4.897
 2319SOL     OW 8915   1.001   3.758   4.878
 2319SOL    HW1 8916   0.938   3.686   4.847
 2319SOL    HW2 8917   1.094   3.722   4.878
 2320SOL     OW 8918   0.770   5.054   4.025
 2320SOL    HW1 8919   0.724   4.967   4.042
 2320SOL    HW2 8920   0.861   5.051   4.066
 2321SOL     OW 8921   0.618   5.291   5.008
 2321SOL    HW1 8922   0.613   5.373   5.065
 2321SOL    HW2 8923   0.707   5.288   4.963
 2322SOL     OW 8924   1.352   3.776   3.892
 2322SOL    HW1 8925   1.387   3.735   3.808
 2322SOL    HW2 8926   1.262   3.738   3.912
 2323SOL     OW 8927   1.300   4.177   4.415
 2323SOL    HW1 8928   1.241   4.257   4.419
 2323SOL    HW2 8929   1.315   4.142   4.508
 2324SOL     OW 8930   1.593   3.945   4.606
 2324SOL    HW1 8931   1.509   3.944   4.660
 2324SOL    HW2 8932   1.595   4.028   4.550
 2325SOL     OW 8933   0.875   5.370   4.061
 2325SOL    HW1 8934   0.798   5.335   4.007
 2325SOL    HW2 8935   0.843   5.441   4.123
 2326SOL     OW 8936   0.019   4.092   6.233
 2326SOL    HW1 8937  -0.063   4.135   6.272
 2326SOL    HW2 8938  -0.009   4.019   6.170
 2327SOL     OW 8939   0.569   4.999   6.751
 2327SOL    HW1 8940   0.476   4.992   6.714
 2327SOL    HW2 8941   0.580   5.088   6.795
 2328SOL     OW 8942   1.555   5.235   6.289
 2328SOL    HW1 8943   1.498   5.219   6.370
 2328SOL    HW2 8944   1.496   5.245   6.209
 2329SOL     OW 8945   1.743   4.342   6.442
 2329SOL    HW1 8946   1.776   4.436   6.442
 2329SOL    HW2 8947   1.794   4.288   6.508
 2330SOL     OW 8948   1.135   4.427   6.303
 2330SOL    HW1 8949   1.192   4.505   6.278
 2330SOL    HW2 8950   1.075   4.453   6.379
 2331SOL     OW 8951   1.755   4.331   5.817
 2331SOL    HW1 8952   1.743   4.318   5.718
 2331SOL    HW2 8953   1.725   4.250   5.866
 2332SOL     OW 8954   0.768   4.868   6.609
 2332SOL    HW1 8955   0.690   4.885   6.669
 2332SOL    HW2 8956   0.802   4.955   6.573
 2333SOL     OW 8957   0.850   4.522   7.409
 2333SOL    HW1 8958   0.846   4.598   7.474
 2333SOL    HW2 8959   0.872   4.558   7.318
 2334SOL     OW 8960   0.685   4.736   6.251
 2334SOL    HW1 8961   0.754   4.720   6.321
 2334SOL    HW2 8962   0.612   4.793   6.289
 2335SOL     OW 8963   0.686   4.885   7.389
 2335SOL    HW1 8964   0.746   4.964   7.403
 2335SOL    HW2 8965   0.600   4.916   7.348
 2336SOL     OW 8966   0.335   5.159   6.647
 2336SOL    HW1 8967   0.257   5.128   6.594
 2336SOL    HW2 8968   0.393   5.217   6.590
 2337SOL     OW 8969   1.460   5.229   6.925
 2337SOL    HW1 8970   1.484   5.323   6.951
 2337SOL    HW2 8971   1.444   5.175   7.007
 2338SOL     OW 8972   0.438   4.116   7.085
 2338SOL    HW1 8973   0.520   4.060   7.094
 2338SOL    HW2 8974   0.357   4.058   7.089
 2339SOL     OW 8975   1.603   4.171   6.323
 2339SOL    HW1 8976   1.529   4.217   6.273
 2339SOL    HW2 8977   1.654   4.239   6.376
 2340SOL     OW 8978   1.127   5.065   7.276
 2340SOL    HW1 8979   1.174   5.065   7.364
 2340SOL    HW2 8980   1.079   4.978   7.265
 2341SOL     OW 8981   0.620   5.510   7.025
 2341SOL    HW1 8982   0.528   5.493   7.060
 2341SOL    HW2 8983   0.648   5.602   7.051
 2342SOL     OW 8984   0.606   4.688   5.709
 2342SOL    HW1 8985   0.613   4.772   5.655
 2342SOL    HW2 8986   0.652   4.701   5.797
 2343SOL     OW 8987   1.594   3.838   7.066
 2343SOL    HW1 8988   1.576   3.905   6.994
 2343SOL    HW2 8989   1.591   3.884   7.155
 2344SOL     OW 8990   1.842   5.491   5.945
 2344SOL    HW1 8991   1.896   5.462   6.025
 2344SOL    HW2 8992   1.872   5.581   5.916
 2345SOL     OW 8993   1.689   4.646   6.198
 2345SOL    HW1 8994   1.784   4.617   6.206
 2345SOL    HW2 8995   1.681   4.711   6.123
 2346SOL     OW 8996   1.641   4.832   6.018
 2346SOL    HW1 8997   1.727   4.834   5.966
 2346SOL    HW2 8998   1.655   4.879   6.106
 2347SOL     OW 8999   0.613   5.089   6.312
 2347SOL    HW1 9000   0.564   5.002   6.321
 2347SOL    HW2 9001   0.590   5.132   6.225
 2348SOL     OW 9002   1.293   4.952   7.009
 2348SOL    HW1 9003   1.330   4.879   6.951
 2348SOL    HW2 9004   1.345   4.957   7.094
 2349SOL     OW 9005   0.809   3.728   6.088
 2349SOL    HW1 9006   0.849   3.819   6.079
 2349SOL    HW2 9007   0.709   3.736   6.094
 2350SOL     OW 9008   1.525   4.723   5.776
 2350SOL    HW1 9009   1.462   4.647   5.789
 2350SOL    HW2 9010   1.573   4.741   5.862
 2351SOL     OW 9011   1.187   5.516   7.202
 2351SOL    HW1 9012   1.211   5.576   7.126
 2351SOL    HW2 9013   1.194   5.421   7.172
 2352SOL     OW 9014   0.317   3.975   7.387
 2352SOL    HW1 9015   0.388   4.046   7.393
 2352SOL    HW2 9016   0.229   4.014   7.415
 2353SOL     OW 9017   1.466   5.141   6.539
 2353SOL    HW1 9018   1.407   5.147   6.619
 2353SOL    HW2 9019   1.451   5.053   6.493
 2354SOL     OW 9020   1.667   5.438   6.158
 2354SOL    HW1 9021   1.626   5.415   6.070
 2354SOL    HW2 9022   1.649   5.364   6.223
 2355SOL     OW 9023   0.598   4.453   5.856
 2355SOL    HW1 9024   0.622   4.522   5.788
 2355SOL    HW2 9025   0.520   4.486   5.910
 2356SOL     OW 9026   1.281   4.069   6.530
 2356SOL    HW1 9027   1.195   4.019   6.517
 2356SOL    HW2 9028   1.343   4.015   6.586
 2357SOL     OW 9029   1.576   5.386   5.893
 2357SOL    HW1 9030   1.665   5.432   5.896
 2357SOL    HW2 9031   1.555   5.362   5.798
 2358SOL     OW 9032   0.807   4.329   7.051
 2358SOL    HW1 9033   0.760   4.326   7.140
 2358SOL    HW2 9034   0.756   4.274   6.985
 2359SOL     OW 9035   1.394   4.193   7.260
 2359SOL    HW1 9036   1.374   4.236   7.348
 2359SOL    HW2 9037   1.472   4.131   7.269
 2360SOL     OW 9038   0.973   4.614   7.158
 2360SOL    HW1 9039   1.019   4.530   7.129
 2360SOL    HW2 9040   0.917   4.648   7.083
 2361SOL     OW 9041   0.991   4.134   6.828
 2361SOL    HW1 9042   0.914   4.168   6.882
 2361SOL    HW2 9043   0.957   4.083   6.749
 2362SOL     OW 9044   1.041   4.425   6.015
 2362SOL    HW1 9045   1.067   4.421   6.111
 2362SOL    HW2 9046   0.956   4.374   6.001
 2363SOL     OW 9047   0.865   4.072   5.781
 2363SOL    HW1 9048   0.924   4.135   5.732
 2363SOL    HW2 9049   0.884   3.978   5.752
 2364SOL     OW 9050   1.719   4.309   7.417
 2364SOL    HW1 9051   1.693   4.398   7.381
 2364SOL    HW2 9052   1.717   4.241   7.344
 2365SOL     OW 9053   1.362   4.868   6.131
 2365SOL    HW1 9054   1.445   4.839   6.083
 2365SOL    HW2 9055   1.313   4.935   6.075
 2366SOL     OW 9056   0.550   3.920   6.471
 2366SOL    HW1 9057   0.545   3.915   6.571
 2366SOL    HW2 9058   0.552   4.016   6.442
 2367SOL     OW 9059   1.008   5.180   6.063
 2367SOL    HW1 9060   0.962   5.252   6.011
 2367SOL    HW2 9061   1.004   5.200   6.161
 2368SOL     OW 9062   0.351   5.525   6.439
 2368SOL    HW1 9063   0.401   5.439   6.445
 2368SOL    HW2 9064   0.416   5.602   6.436
 2369SOL     OW 9065   1.795   4.790   6.459
 2369SOL    HW1 9066   1.733   4.775   6.383
 2369SOL    HW2 9067   1.743   4.801   6.544
 2370SOL     OW 9068   1.227   5.274   7.092
 2370SOL    HW1 9069   1.233   5.197   7.156
 2370SOL    HW2 9070   1.175   5.248   7.012
 2371SOL     OW 9071   0.321   4.667   5.828
 2371SOL    HW1 9072   0.403   4.706   5.786
 2371SOL    HW2 9073   0.294   4.585   5.779
 2372SOL     OW 9074   1.458   4.459   6.314
 2372SOL    HW1 9075   1.453   4.394   6.389
 2372SOL    HW2 9076   1.538   4.518   6.327
 2373SOL     OW 9077   0.461   4.990   7.313
 2373SOL    HW1 9078   0.411   4.991   7.227
 2373SOL    HW2 9079   0.398   4.972   7.389
 2374SOL     OW 9080   1.111   5.500   5.823
 2374SOL    HW1 9081   1.051   5.438   5.873
 2374SOL    HW2 9082   1.142   5.456   5.738
 2375SOL     OW 9083   1.632   5.101   5.667
 2375SOL    HW1 9084   1.600   5.195   5.657
 2375SOL    HW2 9085   1.556   5.038   5.655
 2376SOL     OW 9086   0.464   5.467   5.909
 2376SOL    HW1 9087   0.497   5.506   5.995
 2376SOL    HW2 9088   0.540   5.460   5.844
 2377SOL     OW 9089   1.400   3.831   6.012
 2377SOL    HW1 9090   1.376   3.794   5.922
 2377SOL    HW2 9091   1.499   3.847   6.016
 2378SOL     OW 9092   0.940   5.422   6.490
 2378SOL    HW1 9093   1.020   5.365   6.511
 2378SOL    HW2 9094   0.891   5.382   6.413
 2379SOL     OW 9095   0.382   4.424   6.066
 2379SOL    HW1 9096   0.427   4.334   6.063
 2379SOL    HW2 9097   0.288   4.413   6.099
 2380SOL     OW 9098   1.547   3.946   7.315
 2380SOL    HW1 9099   1.542   3.983   7.407
 2380SOL    HW2 9100   1.475   3.877   7.303
 2381SOL     OW 9101   0.614   3.846   5.703
 2381SOL    HW1 9102   0.712   3.824   5.710
 2381SOL    HW2 9103   0.583   3.829   5.610
 2382SOL     OW 9104   0.781   3.988   7.335
 2382SOL    HW1 9105   0.848   3.927   7.378
 2382SOL    HW2 9106   0.708   4.007   7.400
 2383SOL     OW 9107   0.888   5.238   6.781
 2383SOL    HW1 9108   0.865   5.213   6.687
 2383SOL    HW2 9109   0.949   5.169   6.820
 2384SOL     OW 9110   1.351   4.314   7.019
 2384SOL    HW1 9111   1.379   4.271   7.104
 2384SOL    HW2 9112   1.376   4.410   7.020
 2385SOL     OW 9113   0.803   5.126   6.510
 2385SOL    HW1 9114   0.893   5.140   6.468
 2385SOL    HW2 9115   0.732   5.128   6.439
 2386SOL     OW 9116   0.922   4.227   6.485
 2386SOL    HW1 9117   0.897   4.218   6.389
 2386SOL    HW2 9118   0.970   4.145   6.516
 2387SOL     OW 9119   0.539   3.788   6.098
 2387SOL    HW1 9120   0.458   3.789   6.156
 2387SOL    HW2 9121   0.542   3.871   6.043
 2388SOL     OW 9122   1.434   4.912   5.627
 2388SOL    HW1 9123   1.466   4.836   5.684
 2388SOL    HW2 9124   1.342   4.939   5.657
 2389SOL     OW 9125   0.297   3.759   5.757
 2389SOL    HW1 9126   0.346   3.843   5.736
 2389SOL    HW2 9127   0.359   3.694   5.802
 2390SOL     OW 9128   0.935   3.960   6.066
 2390SOL    HW1 9129   0.887   4.001   5.988
 2390SOL    HW2 9130   1.034   3.958   6.047
 2391SOL     OW 9131   1.076   4.407   7.050
 2391SOL    HW1 9132   0.996   4.346   7.053
 2391SOL    HW2 9133   1.157   4.354   7.026
 2392SOL     OW 9134   1.227   5.294   6.379
 2392SOL    HW1 9135   1.248   5.368   6.314
 2392SOL    HW2 9136   1.295   5.294   6.452
 2393SOL     OW 9137   0.459   4.876   6.327
 2393SOL    HW1 9138   0.388   4.849   6.392
 2393SOL    HW2 9139   0.433   4.848   6.234
 2394SOL     OW 9140   1.271   5.521   6.177
 2394SOL    HW1 9141   1.315   5.585   6.113
 2394SOL    HW2 9142   1.221   5.573   6.247
 2395SOL     OW 9143   1.032   4.273   5.602
 2395SOL    HW1 9144   0.991   4.355   5.563
 2395SOL    HW2 9145   1.096   4.299   5.675
 2396SOL     OW 9146   0.561   3.946   6.733
 2396SOL    HW1 9147   0.599   3.862   6.770
 2396SOL    HW2 9148   0.473   3.965   6.777
 2397SOL     OW 9149   0.866   4.178   6.228
 2397SOL    HW1 9150   0.834   4.250   6.166
 2397SOL    HW2 9151   0.890   4.097   6.175
 2398SOL     OW 9152   1.017   3.763   6.339
 2398SOL    HW1 9153   0.945   3.768   6.270
 2398SOL    HW2 9154   0.993   3.694   6.408
 2399SOL     OW 9155   1.429   4.897   6.453
 2399SOL    HW1 9156   1.374   4.813   6.446
 2399SOL    HW2 9157   1.455   4.926   6.361
 2400SOL     OW 9158   1.466   4.314   6.578
 2400SOL    HW1 9159   1.436   4.219   6.585
 2400SOL    HW2 9160   1.539   4.330   6.644
 2401SOL     OW 9161   1.857   4.557   5.963
 2401SOL    HW1 9162   1.899   4.493   6.027
 2401SOL    HW2 9163   1.819   4.506   5.885
 2402SOL     OW 9164   0.488   5.109   5.760
 2402SOL    HW1 9165   0.401   5.094   5.807
 2402SOL    HW2 9166   0.471   5.135   5.665
 2403SOL     OW 9167   1.664   5.004   6.243
 2403SOL    HW1 9168   1.763   5.012   6.257
 2403SOL    HW2 9169   1.619   5.088   6.274
 2404SOL     OW 9170   1.390   4.299   5.664
 2404SOL    HW1 9171   1.336   4.278   5.745
 2404SOL    HW2 9172   1.481   4.258   5.673
 2405SOL     OW 9173   0.527   3.980   5.914
 2405SOL    HW1 9174   0.554   3.921   5.839
 2405SOL    HW2 9175   0.527   4.075   5.883
 2406SOL     OW 9176   1.754   4.947   7.174
 2406SOL    HW1 9177   1.845   4.908   7.161
 2406SOL    HW2 9178   1.762   5.043   7.198
 2407SOL     OW 9179   1.064   5.071   6.926
 2407SOL    HW1 9180   0.984   5.048   6.981
 2407SOL    HW2 9181   1.147   5.045   6.975
 2408SOL     OW 9182   1.592   5.353   7.211
 2408SOL    HW1 9183   1.619   5.387   7.121
 2408SOL    HW2 9184   1.671   5.315   7.257
 2409SOL     OW 9185   1.111   4.919   6.686
 2409SOL    HW1 9186   1.071   4.963   6.767
 2409SOL    HW2 9187   1.070   4.956   6.603
 2410SOL     OW 9188   1.638   4.823   6.665
 2410SOL    HW1 9189   1.643   4.904   6.724
 2410SOL    HW2 9190   1.552   4.825   6.614
 2411SOL     OW 9191   0.915   3.813   6.988
 2411SOL    HW1 9192   0.940   3.793   6.893
 2411SOL    HW2 9193   0.987   3.869   7.030
 2412SOL     OW 9194   0.980   4.840   7.305
 2412SOL    HW1 9195   0.881   4.846   7.315
 2412SOL    HW2 9196   1.003   4.760   7.249
 2413SOL     OW 9197   0.705   4.774   5.954
 2413SOL    HW1 9198   0.691   4.781   6.053
 2413SOL    HW2 9199   0.789   4.723   5.936
 2414SOL     OW 9200   0.410   4.537   6.837
 2414SOL    HW1 9201   0.496   4.549   6.887
 2414SOL    HW2 9202   0.368   4.450   6.864
 2415SOL     OW 9203   1.274   4.110   6.848
 2415SOL    HW1 9204   1.295   4.184   6.912
 2415SOL    HW2 9205   1.185   4.127   6.805
 2416SOL     OW 9206   0.367   4.824   6.087
 2416SOL    HW1 9207   0.360   4.907   6.031
 2416SOL    HW2 9208   0.371   4.744   6.027
 2417SOL     OW 9209   0.566   4.261   6.451
 2417SOL    HW1 9210   0.578   4.327   6.377
 2417SOL    HW2 9211   0.612   4.295   6.534
 2418SOL     OW 9212   1.252   5.072   5.974
 2418SOL    HW1 9213   1.302   5.149   6.014
 2418SOL    HW2 9214   1.157   5.074   6.006
 2419SOL     OW 9215   1.272   5.169   6.728
 2419SOL    HW1 9216   1.319   5.182   6.815
 2419SOL    HW2 9217   1.206   5.095   6.737
 2420SOL     OW 9218   1.582   4.363   6.058
 2420SOL    HW1 9219   1.551   4.424   6.131
 2420SOL    HW2 9220   1.632   4.415   5.989
 2421SOL     OW 9221   0.354   5.234   6.915
 2421SOL    HW1 9222   0.333   5.190   6.828
 2421SOL    HW2 9223   0.451   5.260   6.918
 2422SOL     OW 9224   0.402   4.475   7.184
 2422SOL    HW1 9225   0.470   4.530   7.137
 2422SOL    HW2 9226   0.442   4.387   7.211
 2423SOL     OW 9227   1.587   4.503   7.256
 2423SOL    HW1 9228   1.495   4.541   7.251
 2423SOL    HW2 9229   1.647   4.550   7.191
 2424SOL     OW 9230   1.013   3.829   7.356
 2424SOL    HW1 9231   1.019   3.914   7.304
 2424SOL    HW2 9232   1.045   3.753   7.299
 2425SOL     OW 9233   0.504   3.774   7.326
 2425SOL    HW1 9234   0.462   3.717   7.256
 2425SOL    HW2 9235   0.438   3.843   7.358
 2426SOL     OW 9236   0.573   4.594   6.615
 2426SOL    HW1 9237   0.617   4.683   6.606
 2426SOL    HW2 9238   0.510   4.594   6.692
 2427SOL     OW 9239   1.360   4.586   6.631
 2427SOL    HW1 9240   1.285   4.586   6.565
 2427SOL    HW2 9241   1.397   4.494   6.640
 2428SOL     OW 9242   1.209   4.249   5.861
 2428SOL    HW1 9243   1.222   4.165   5.915
 2428SOL    HW2 9244   1.180   4.323   5.921
 2429SOL     OW 9245   0.732   4.358   6.650
 2429SOL    HW1 9246   0.791   4.332   6.574
 2429SOL    HW2 9247   0.704   4.454   6.639
 2430SOL     OW 9248   1.728   4.659   7.440
 2430SOL    HW1 9249   1.682   4.652   7.351
 2430SOL    HW2 9250   1.666   4.703   7.506
 2431SOL     OW 9251   0.307   3.787   6.204
 2431SOL    HW1 9252   0.296   3.881   6.237
 2431SOL    HW2 9253   0.302   3.724   6.281
 2432SOL     OW 9254   1.622   4.091   5.960
 2432SOL    HW1 9255   1.624   4.015   6.024
 2432SOL    HW2 9256   1.574   4.168   6.000
 2433SOL     OW 9257   1.023   4.490   6.552
 2433SOL    HW1 9258   1.038   4.511   6.648
 2433SOL    HW2 9259   0.993   4.395   6.543
 2434SOL     OW 9260   0.980   5.297   7.286
 2434SOL    HW1 9261   0.960   5.341   7.198
 2434SOL    HW2 9262   1.019   5.206   7.270
 2435SOL     OW 9263   1.859   5.242   7.191
 2435SOL    HW1 9264   1.873   5.269   7.096
 2435SOL    HW2 9265   1.942   5.264   7.244
 2436SOL     OW 9266   0.350   4.622   7.390
 2436SOL    HW1 9267   0.426   4.666   7.438
 2436SOL    HW2 9268   0.385   4.575   7.308
 2437SOL     OW 9269   1.540   3.998   5.711
 2437SOL    HW1 9270   1.479   3.923   5.734
 2437SOL    HW2 9271   1.562   4.050   5.794
 2438SOL     OW 9272   1.303   4.562   5.628
 2438SOL    HW1 9273   1.337   4.469   5.643
 2438SOL    HW2 9274   1.321   4.589   5.533
 2439SOL     OW 9275   1.068   5.057   6.435
 2439SOL    HW1 9276   1.075   4.973   6.380
 2439SOL    HW2 9277   1.130   5.126   6.399
 2440SOL     OW 9278   0.319   4.534   6.535
 2440SOL    HW1 9279   0.412   4.570   6.540
 2440SOL    HW2 9280   0.313   4.449   6.587
 2441SOL     OW 9281   1.138   4.104   7.264
 2441SOL    HW1 9282   1.093   4.167   7.328
 2441SOL    HW2 9283   1.231   4.135   7.247
 2442SOL     OW 9284   1.160   3.931   7.063
 2442SOL    HW1 9285   1.160   3.995   7.140
 2442SOL    HW2 9286   1.188   3.979   6.980
 2443SOL     OW 9287   0.504   5.292   6.496
 2443SOL    HW1 9288   0.570   5.366   6.505
 2443SOL    HW2 9289   0.548   5.213   6.454
 2444SOL     OW 9290   1.002   4.520   6.824
 2444SOL    HW1 9291   1.043   4.488   6.910
 2444SOL    HW2 9292   0.906   4.493   6.821
 2445SOL     OW 9293   1.369   4.674   7.246
 2445SOL    HW1 9294   1.408   4.763   7.266
 2445SOL    HW2 9295   1.379   4.654   7.149
 2446SOL     OW 9296   0.815   4.296   5.911
 2446SOL    HW1 9297   0.822   4.207   5.865
 2446SOL    HW2 9298   0.721   4.330   5.903
 2447SOL     OW 9299   1.657   4.328   6.792
 2447SOL    HW1 9300   1.619   4.259   6.854
 2447SOL    HW2 9301   1.739   4.292   6.748
 2448SOL     OW 9302   0.671   4.188   6.855
 2448SOL    HW1 9303   0.637   4.099   6.825
 2448SOL    HW2 9304   0.697   4.242   6.775
 2449SOL     OW 9305   0.930   5.402   7.051
 2449SOL    HW1 9306   0.906   5.384   6.956
 2449SOL    HW2 9307   0.960   5.496   7.061
 2450SOL     OW 9308   0.473   4.224   5.777
 2450SOL    HW1 9309   0.534   4.304   5.781
 2450SOL    HW2 9310   0.378   4.255   5.784
 2451SOL     OW 9311   1.347   4.783   6.820
 2451SOL    HW1 9312   1.371   4.720   6.746
 2451SOL    HW2 9313   1.257   4.823   6.802
 2452SOL     OW 9314   1.302   4.579   5.895
 2452SOL    HW1 9315   1.216   4.548   5.937
 2452SOL    HW2 9316   1.298   4.565   5.796
 2453SOL     OW 9317   1.759   5.471   6.740
 2453SOL    HW1 9318   1.820   5.501   6.667
 2453SOL    HW2 9319   1.721   5.382   6.718
 2454SOL     OW 9320   1.252   5.455   6.714
 2454SOL    HW1 9321   1.336   5.460   6.660
 2454SOL    HW2 9322   1.229   5.359   6.732
 2455SOL     OW 9323   0.688   5.386   7.302
 2455SOL    HW1 9324   0.632   5.467   7.311
 2455SOL    HW2 9325   0.740   5.390   7.216
 2456SOL     OW 9326   0.903   3.810   5.719
 2456SOL    HW1 9327   0.954   3.811   5.633
 2456SOL    HW2 9328   0.959   3.768   5.790
 2457SOL     OW 9329   1.726   3.859   6.109
 2457SOL    HW1 9330   1.799   3.842   6.042
 2457SOL    HW2 9331   1.695   3.772   6.147
 2458SOL     OW 9332   1.388   5.297   6.063
 2458SOL    HW1 9333   1.455   5.309   5.989
 2458SOL    HW2 9334   1.348   5.386   6.086
 2459SOL     OW 9335   0.130   5.518   7.437
 2459SOL    HW1 9336   0.089   5.444   7.490
 2459SOL    HW2 9337   0.194   5.569   7.495
 2460SOL     OW 9338   1.280   4.651   6.258
 2460SOL    HW1 9339   1.340   4.570   6.260
 2460SOL    HW2 9340   1.320   4.720   6.198
 2461SOL     OW 9341   0.830   4.997   7.008
 2461SOL    HW1 9342   0.825   5.030   7.103
 2461SOL    HW2 9343   0.744   5.016   6.962
 2462SOL     OW 9344   0.672   5.340   5.740
 2462SOL    HW1 9345   0.681   5.350   5.641
 2462SOL    HW2 9346   0.632   5.251   5.761
 2463SOL     OW 9347   1.650   5.444   6.980
 2463SOL    HW1 9348   1.703   5.454   6.896
 2463SOL    HW2 9349   1.623   5.534   7.014
 2464SOL     OW 9350   1.841   3.899   6.549
 2464SOL    HW1 9351   1.880   3.814   6.513
 2464SOL    HW2 9352   1.743   3.901   6.530
 2465SOL     OW 9353   0.263   4.050   6.306
 2465SOL    HW1 9354   0.184   4.101   6.272
 2465SOL    HW2 9355   0.254   4.035   6.404
 2466SOL     OW 9356   1.194   5.336   5.617
 2466SOL    HW1 9357   1.200   5.243   5.654
 2466SOL    HW2 9358   1.135   5.336   5.537
 2467SOL     OW 9359   0.822   4.726   6.958
 2467SOL    HW1 9360   0.862   4.725   6.866
 2467SOL    HW2 9361   0.832   4.818   6.998
 2468SOL     OW 9362   0.916   4.634   5.877
 2468SOL    HW1 9363   0.979   4.672   5.809
 2468SOL    HW2 9364   0.956   4.551   5.916
 2469SOL     OW 9365   1.504   5.331   5.630
 2469SOL    HW1 9366   1.412   5.368   5.637
 2469SOL    HW2 9367   1.542   5.351   5.540
 2470SOL     OW 9368   0.372   5.012   7.076
 2470SOL    HW1 9369   0.359   5.105   7.042
 2470SOL    HW2 9370   0.288   4.960   7.063
 2471SOL     OW 9371   1.614   5.016   6.875
 2471SOL    HW1 9372   1.674   5.019   6.955
 2471SOL    HW2 9373   1.539   5.080   6.888
 2472SOL     OW 9374   1.039   4.822   6.282
 2472SOL    HW1 9375   0.969   4.775   6.336
 2472SOL    HW2 9376   1.098   4.754   6.239
 2473SOL     OW 9377   1.014   3.960   6.557
 2473SOL    HW1 9378   1.006   3.924   6.464
 2473SOL    HW2 9379   1.012   3.884   6.622
 2474SOL     OW 9380   0.590   5.211   6.077
 2474SOL    HW1 9381   0.632   5.153   6.007
 2474SOL    HW2 9382   0.546   5.290   6.033
 2475SOL     OW 9383   1.709   4.109   6.967
 2475SOL    HW1 9384   1.782   4.178   6.971
 2475SOL    HW2 9385   1.737   4.034   6.908
 2476SOL     OW 9386   0.255   5.072   5.876
 2476SOL    HW1 9387   0.159   5.073   5.849
 2476SOL    HW2 9388   0.267   5.125   5.960
 2477SOL     OW 9389   0.672   3.927   7.075
 2477SOL    HW1 9390   0.762   3.911   7.035
 2477SOL    HW2 9391   0.680   3.932   7.174
 2478SOL     OW 9392   1.440   4.580   6.984
 2478SOL    HW1 9393   1.383   4.632   6.921
 2478SOL    HW2 9394   1.536   4.592   6.960
 2479SOL     OW 9395   1.183   5.059   5.705
 2479SOL    HW1 9396   1.084   5.048   5.707
 2479SOL    HW2 9397   1.217   5.074   5.798
 2480SOL     OW 9398   0.613   4.566   7.017
 2480SOL    HW1 9399   0.669   4.647   7.000
 2480SOL    HW2 9400   0.672   4.486   7.020
 2481SOL     OW 9401   1.493   5.491   6.545
 2481SOL    HW1 9402   1.526   5.555   6.476
 2481SOL    HW2 9403   1.559   5.485   6.620
 2482SOL     OW 9404   0.716   4.289   7.294
 2482SOL    HW1 9405   0.735   4.354   7.368
 2482SOL    HW2 9406   0.776   4.209   7.303
 2483SOL     OW 9407   1.450   4.944   7.219
 2483SOL    HW1 9408   1.441   4.934   7.318
 2483SOL    HW2 9409   1.546   4.937   7.193
 2484SOL     OW 9410   0.390   5.465   7.146
 2484SOL    HW1 9411   0.299   5.506   7.144
 2484SOL    HW2 9412   0.383   5.371   7.178
 2485SOL     OW 9413   1.674   4.607   6.840
 2485SOL    HW1 9414   1.647   4.518   6.803
 2485SOL    HW2 9415   1.675   4.675   6.767
 2486SOL     OW 9416   1.225   4.049   6.035
 2486SOL    HW1 9417   1.290   3.975   6.024
 2486SOL    HW2 9418   1.245   4.099   6.119
 2487SOL     OW 9419   0.594   4.469   6.238
 2487SOL    HW1 9420   0.644   4.554   6.219
 2487SOL    HW2 9421   0.506   4.471   6.190
 2488SOL     OW 9422   1.777   4.066   7.228
 2488SOL    HW1 9423   1.760   4.097   7.134
 2488SOL    HW2 9424   1.693   4.029   7.266
 2489SOL     OW 9425   1.730   4.658   7.103
 2489SOL    HW1 9426   1.768   4.749   7.118
 2489SOL    HW2 9427   1.722   4.641   7.004
 2490SOL     OW 9428   0.859   5.098   5.602
 2490SOL    HW1 9429   0.813   5.113   5.690
 2490SOL    HW2 9430   0.903   5.183   5.572
 2491SOL     OW 9431   0.661   5.514   6.539
 2491SOL    HW1 9432   0.615   5.602   6.526
 2491SOL    HW2 9433   0.760   5.526   6.532
 2492SOL     OW 9434   1.408   5.575   7.306
 2492SOL    HW1 9435   1.312   5.564   7.279
 2492SOL    HW2 9436   1.464   5.508   7.258
 2493SOL     OW 9437   0.859   4.680   6.447
 2493SOL    HW1 9438   0.913   4.611   6.495
 2493SOL    HW2 9439   0.827   4.749   6.513
 2494SOL     OW 9440   1.083   4.708   5.673
 2494SOL    HW1 9441   1.060   4.761   5.591
 2494SOL    HW2 9442   1.164   4.652   5.654
 2495SOL     OW 9443   1.861   5.293   6.437
 2495SOL    HW1 9444   1.790   5.281   6.367
 2495SOL    HW2 9445   1.862   5.214   6.497
 2496SOL     OW 9446   0.672   5.115   7.210
 2496SOL    HW1 9447   0.594   5.065   7.248
 2496SOL    HW2 9448   0.669   5.210   7.241
 2497SOL     OW 9449   1.824   3.916   6.813
 2497SOL    HW1 9450   1.820   3.826   6.857
 2497SOL    HW2 9451   1.827   3.905   6.714
 2498SOL     OW 9452   0.428   4.148   6.106
 2498SOL    HW1 9453   0.458   4.076   6.044
 2498SOL    HW2 9454   0.389   4.108   6.189
 2499SOL     OW 9455   1.705   5.211   6.690
 2499SOL    HW1 9456   1.612   5.186   6.663
 2499SOL    HW2 9457   1.731   5.161   6.772
 2500SOL     OW 9458   0.812   5.310   6.273
 2500SOL    HW1 9459   0.844   5.320   6.179
 2500SOL    HW2 9460   0.733   5.248   6.275
 2501SOL     OW 9461   1.424   3.938   6.698
 2501SOL    HW1 9462   1.476   3.873   6.753
 2501SOL    HW2 9463   1.375   4.001   6.759
 2502SOL     OW 9464   1.001   3.758   6.740
 2502SOL    HW1 9465   0.938   3.686   6.709
 2502SOL    HW2 9466   1.094   3.722   6.740
 2503SOL     OW 9467   0.770   5.054   5.887
 2503SOL    HW1 9468   0.724   4.967   5.904
 2503SOL    HW2 9469   0.861   5.051   5.928
 2504SOL     OW 9470   0.618   5.291   6.870
 2504SOL    HW1 9471   0.613   5.373   6.927
 2504SOL    HW2 9472   0.707   5.288   6.825
 2505SOL     OW 9473   1.352   3.776   5.754
 2505SOL    HW1 9474   1.387   3.735   5.670
 2505SOL    HW2 9475   1.262   3.738   5.774
 2506SOL     OW 9476   1.300   4.177   6.277
 2506SOL    HW1 9477   1.241   4.257   6.281
 2506SOL    HW2 9478   1.315   4.142   6.370
 2507SOL     OW 9479   1.593   3.945   6.468
 2507SOL    HW1 9480   1.509   3.944   6.522
 2507SOL    HW2 9481   1.595   4.028   6.412
 2508SOL     OW 9482   0.875   5.370   5.923
 2508SOL    HW1 9483   0.798   5.335   5.869
 2508SOL    HW2 9484   0.843   5.441   5.985
 2509SOL     OW 9485   0.019   4.092   8.095
 2509SOL    HW1 9486  -0.063   4.135   8.134
 2509SOL    HW2 9487  -0.009   4.019   8.032
 2510SOL     OW 9488   0.569   4.999   8.613
 2510SOL    HW1 9489   0.476   4.992   8.576
 2510SOL    HW2 9490   0.580   5.088   8.657
 2511SOL     OW 9491   1.555   5.235   8.151
 2511SOL    HW1 9492   1.498   5.219   8.232
 2511SOL    HW2 9493   1.496   5.245   8.071
 2512SOL     OW 9494   1.743   4.342   8.304
 2512SOL    HW1 9495   1.776   4.436   8.304
 2512SOL    HW2 9496   1.794   4.288   8.370
 2513SOL     OW 9497   1.135   4.427   8.165
 2513SOL    HW1 9498   1.192   4.505   8.140
 2513SOL    HW2 9499   1.075   4.453   8.241
 2514SOL     OW 9500   1.755   4.331   7.679
 2514SOL    HW1 9501   1.743   4.318   7.580
 2514SOL    HW2 9502   1.725   4.250   7.728
 2515SOL     OW 9503   0.768   4.868   8.471
 2515SOL    HW1 9504   0.690   4.885   8.531
 2515SOL    HW2 9505   0.802   4.955   8.435
 2516SOL     OW 9506   0.685   4.736   8.113
 2516SOL    HW1 9507   0.754   4.720   8.183
 2516SOL    HW2 9508   0.612   4.793   8.151
 2517SOL     OW 9509   0.335   5.159   8.509
 2517SOL    HW1 9510   0.257   5.128   8.456
 2517SOL    HW2 9511   0.393   5.217   8.452
 2518SOL     OW 9512   1.460   5.229   8.787
 2518SOL    HW1 9513   1.484   5.323   8.813
 2518SOL    HW2 9514   1.444   5.175   8.869
 2519SOL     OW 9515   0.438   4.116   8.947
 2519SOL    HW1 9516   0.520   4.060   8.956
 2519SOL    HW2 9517   0.357   4.058   8.951
 2520SOL     OW 9518   1.603   4.171   8.185
 2520SOL    HW1 9519   1.529   4.217   8.135
 2520SOL    HW2 9520   1.654   4.239   8.238
 2521SOL     OW 9521   0.620   5.510   8.887
 2521SOL    HW1 9522   0.528   5.493   8.922
 2521SOL    HW2 9523   0.648   5.602   8.913
 2522SOL     OW 9524   0.606   4.688   7.571
 2522SOL    HW1 9525   0.613   4.772   7.517
 2522SOL    HW2 9526   0.652   4.701   7.659
 2523SOL     OW 9527   1.594   3.838   8.928
 2523SOL    HW1 9528   1.576   3.905   8.856
 2523SOL    HW2 9529   1.591   3.884   9.017
 2524SOL     OW 9530   1.842   5.491   7.807
 2524SOL    HW1 9531   1.896   5.462   7.887
 2524SOL    HW2 9532   1.872   5.581   7.778
 2525SOL     OW 9533   1.689   4.646   8.060
 2525SOL    HW1 9534   1.784   4.617   8.068
 2525SOL    HW2 9535   1.681   4.711   7.985
 2526SOL     OW 9536   1.641   4.832   7.880
 2526SOL    HW1 9537   1.727   4.834   7.828
 2526SOL    HW2 9538   1.655   4.879   7.968
 2527SOL     OW 9539   0.613   5.089   8.174
 2527SOL    HW1 9540   0.564   5.002   8.183
 2527SOL    HW2 9541   0.590   5.132   8.087
 2528SOL     OW 9542   0.809   3.728   7.950
 2528SOL    HW1 9543   0.849   3.819   7.941
 2528SOL    HW2 9544   0.709   3.736   7.956
 2529SOL     OW 9545   1.525   4.723   7.638
 2529SOL    HW1 9546   1.462   4.647   7.651
 2529SOL    HW2 9547   1.573   4.741   7.724
 2530SOL     OW 9548   1.466   5.141   8.401
 2530SOL    HW1 9549   1.407   5.147   8.481
 2530SOL    HW2 9550   1.451   5.053   8.355
 2531SOL     OW 9551   1.667   5.438   8.020
 2531SOL    HW1 9552   1.626   5.415   7.932
 2531SOL    HW2 9553   1.649   5.364   8.085
 2532SOL     OW 9554   0.598   4.453   7.718
 2532SOL    HW1 9555   0.622   4.522   7.650
 2532SOL    HW2 9556   0.520   4.486   7.772
 2533SOL     OW 9557   1.281   4.069   8.392
 2533SOL    HW1 9558   1.195   4.019   8.379
 2533SOL    HW2 9559   1.343   4.015   8.448
 2534SOL     OW 9560   1.576   5.386   7.755
 2534SOL    HW1 9561   1.665   5.432   7.758
 2534SOL    HW2 9562   1.555   5.362   7.660
 2535SOL     OW 9563   0.807   4.329   8.913
 2535SOL    HW1 9564   0.760   4.326   9.002
 2535SOL    HW2 9565   0.756   4.274   8.847
 2536SOL     OW 9566   0.991   4.134   8.690
 2536SOL    HW1 9567   0.914   4.168   8.744
 2536SOL    HW2 9568   0.957   4.083   8.611
 2537SOL     OW 9569   1.041   4.425   7.877
 2537SOL    HW1 9570   1.067   4.421   7.973
 2537SOL    HW2 9571   0.956   4.374   7.863
 2538SOL     OW 9572   0.865   4.072   7.643
 2538SOL    HW1 9573   0.924   4.135   7.594
 2538SOL    HW2 9574   0.884   3.978   7.614
 2539SOL     OW 9575   1.362   4.868   7.993
 2539SOL    HW1 9576   1.445   4.839   7.945
 2539SOL    HW2 9577   1.313   4.935   7.937
 2540SOL     OW 9578   0.550   3.920   8.333
 2540SOL    HW1 9579   0.545   3.915   8.433
 2540SOL    HW2 9580   0.552   4.016   8.304
 2541SOL     OW 9581   1.008   5.180   7.925
 2541SOL    HW1 9582   0.962   5.252   7.873
 2541SOL    HW2 9583   1.004   5.200   8.023
 2542SOL     OW 9584   0.351   5.525   8.301
 2542SOL    HW1 9585   0.401   5.439   8.307
 2542SOL    HW2 9586   0.416   5.602   8.298
 2543SOL     OW 9587   1.795   4.790   8.321
 2543SOL    HW1 9588   1.733   4.775   8.245
 2543SOL    HW2 9589   1.743   4.801   8.406
 2544SOL     OW 9590   0.321   4.667   7.690
 2544SOL    HW1 9591   0.403   4.706   7.648
 2544SOL    HW2 9592   0.294   4.585   7.641
 2545SOL     OW 9593   1.458   4.459   8.176
 2545SOL    HW1 9594   1.453   4.394   8.251
 2545SOL    HW2 9595   1.538   4.518   8.189
 2546SOL     OW 9596   1.111   5.500   7.685
 2546SOL    HW1 9597   1.051   5.438   7.735
 2546SOL    HW2 9598   1.142   5.456   7.600
 2547SOL     OW 9599   1.632   5.101   7.529
 2547SOL    HW1 9600   1.600   5.195   7.519
 2547SOL    HW2 9601   1.556   5.038   7.517
 2548SOL     OW 9602   0.464   5.467   7.771
 2548SOL    HW1 9603   0.497   5.506   7.857
 2548SOL    HW2 9604   0.540   5.460   7.706
 2549SOL     OW 9605   1.400   3.831   7.874
 2549SOL    HW1 9606   1.376   3.794   7.784
 2549SOL    HW2 9607   1.499   3.847   7.878
 2550SOL     OW 9608   0.940   5.422   8.352
 2550SOL    HW1 9609   1.020   5.365   8.373
 2550SOL    HW2 9610   0.891   5.382   8.275
 2551SOL     OW 9611   0.382   4.424   7.928
 2551SOL    HW1 9612   0.427   4.334   7.925
 2551SOL    HW2 9613   0.288   4.413   7.961
 2552SOL     OW 9614   0.614   3.846   7.565
 2552SOL    HW1 9615   0.712   3.824   7.572
 2552SOL    HW2 9616   0.583   3.829   7.472
 2553SOL     OW 9617   0.888   5.238   8.643
 2553SOL    HW1 9618   0.865   5.213   8.549
 2553SOL    HW2 9619   0.949   5.169   8.682
 2554SOL     OW 9620   0.803   5.126   8.372
 2554SOL    HW1 9621   0.893   5.140   8.330
 2554SOL    HW2 9622   0.732   5.128   8.301
 2555SOL     OW 9623   0.922   4.227   8.347
 2555SOL    HW1 9624   0.897   4.218   8.251
 2555SOL    HW2 9625   0.970   4.145   8.378
 2556SOL     OW 9626   0.539   3.788   7.960
 2556SOL    HW1 9627   0.458   3.789   8.018
 2556SOL    HW2 9628   0.542   3.871   7.905
 2557SOL     OW 9629   1.434   4.912   7.489
 2557SOL    HW1 9630   1.466   4.836   7.546
 2557SOL    HW2 9631   1.342   4.939   7.519
 2558SOL     OW 9632   0.297   3.759   7.619
 2558SOL    HW1 9633   0.346   3.843   7.598
 2558SOL    HW2 9634   0.359   3.694   7.664
 2559SOL     OW 9635   0.935   3.960   7.928
 2559SOL    HW1 9636   0.887   4.001   7.850
 2559SOL    HW2 9637   1.034   3.958   7.909
 2560SOL     OW 9638   1.227   5.294   8.241
 2560SOL    HW1 9639   1.248   5.368   8.176
 2560SOL    HW2 9640   1.295   5.294   8.314
 2561SOL     OW 9641   0.459   4.876   8.189
 2561SOL    HW1 9642   0.388   4.849   8.254
 2561SOL    HW2 9643   0.433   4.848   8.096
 2562SOL     OW 9644   1.271   5.521   8.039
 2562SOL    HW1 9645   1.315   5.585   7.975
 2562SOL    HW2 9646   1.221   5.573   8.109
 2563SOL     OW 9647   1.032   4.273   7.464
 2563SOL    HW1 9648   0.991   4.355   7.425
 2563SOL    HW2 9649   1.096   4.299   7.537
 2564SOL     OW 9650   0.561   3.946   8.595
 2564SOL    HW1 9651   0.599   3.862   8.632
 2564SOL    HW2 9652   0.473   3.965   8.639
 2565SOL     OW 9653   0.866   4.178   8.090
 2565SOL    HW1 9654   0.834   4.250   8.028
 2565SOL    HW2 9655   0.890   4.097   8.037
 2566SOL     OW 9656   1.017   3.763   8.201
 2566SOL    HW1 9657   0.945   3.768   8.132
 2566SOL    HW2 9658   0.993   3.694   8.270
 2567SOL     OW 9659   1.429   4.897   8.315
 2567SOL    HW1 9660   1.374   4.813   8.308
 2567SOL    HW2 9661   1.455   4.926   8.223
 2568SOL     OW 9662   1.466   4.314   8.440
 2568SOL    HW1 9663   1.436   4.219   8.447
 2568SOL    HW2 9664   1.539   4.330   8.506
 2569SOL     OW 9665   1.857   4.557   7.825
 2569SOL    HW1 9666   1.899   4.493   7.889
 2569SOL    HW2 9667   1.819   4.506   7.747
 2570SOL     OW 9668   0.488   5.109   7.622
 2570SOL    HW1 9669   0.401   5.094   7.669
 2570SOL    HW2 9670   0.471   5.135   7.527
 2571SOL     OW 9671   1.664   5.004   8.105
 2571SOL    HW1 9672   1.763   5.012   8.119
 2571SOL    HW2 9673   1.619   5.088   8.136
 2572SOL     OW 9674   1.390   4.299   7.526
 2572SOL    HW1 9675   1.336   4.278   7.607
 2572SOL    HW2 9676   1.481   4.258   7.535
 2573SOL     OW 9677   0.527   3.980   7.776
 2573SOL    HW1 9678   0.554   3.921   7.701
 2573SOL    HW2 9679   0.527   4.075   7.745
 2574SOL     OW 9680   1.064   5.071   8.788
 2574SOL    HW1 9681   0.984   5.048   8.843
 2574SOL    HW2 9682   1.147   5.045   8.837
 2575SOL     OW 9683   1.111   4.919   8.548
 2575SOL    HW1 9684   1.071   4.963   8.629
 2575SOL    HW2 9685   1.070   4.956   8.465
 2576SOL     OW 9686   1.638   4.823   8.527
 2576SOL    HW1 9687   1.643   4.904   8.586
 2576SOL    HW2 9688   1.552   4.825   8.476
 2577SOL     OW 9689   0.915   3.813   8.850
 2577SOL    HW1 9690   0.940   3.793   8.755
 2577SOL    HW2 9691   0.987   3.869   8.892
 2578SOL     OW 9692   0.705   4.774   7.816
 2578SOL    HW1 9693   0.691   4.781   7.915
 2578SOL    HW2 9694   0.789   4.723   7.798
 2579SOL     OW 9695   0.410   4.537   8.699
 2579SOL    HW1 9696   0.496   4.549   8.749
 2579SOL    HW2 9697   0.368   4.450   8.726
 2580SOL     OW 9698   1.274   4.110   8.710
 2580SOL    HW1 9699   1.295   4.184   8.774
 2580SOL    HW2 9700   1.185   4.127   8.667
 2581SOL     OW 9701   0.367   4.824   7.949
 2581SOL    HW1 9702   0.360   4.907   7.893
 2581SOL    HW2 9703   0.371   4.744   7.889
 2582SOL     OW 9704   0.566   4.261   8.313
 2582SOL    HW1 9705   0.578   4.327   8.239
 2582SOL    HW2 9706   0.612   4.295   8.396
 2583SOL     OW 9707   1.252   5.072   7.836
 2583SOL    HW1 9708   1.302   5.149   7.876
 2583SOL    HW2 9709   1.157   5.074   7.868
 2584SOL     OW 9710   1.272   5.169   8.590
 2584SOL    HW1 9711   1.319   5.182   8.677
 2584SOL    HW2 9712   1.206   5.095   8.599
 2585SOL     OW 9713   1.582   4.363   7.920
 2585SOL    HW1 9714   1.551   4.424   7.993
 2585SOL    HW2 9715   1.632   4.415   7.851
 2586SOL     OW 9716   0.354   5.234   8.777
 2586SOL    HW1 9717   0.333   5.190   8.690
 2586SOL    HW2 9718   0.451   5.260   8.780
 2587SOL     OW 9719   0.402   4.475   0.046
 2587SOL    HW1 9720   0.470   4.530  -0.001
 2587SOL    HW2 9721   0.442   4.387   0.073
 2588SOL     OW 9722   1.587   4.503   0.118
 2588SOL    HW1 9723   1.495   4.541   0.113
 2588SOL    HW2 9724   1.647   4.550   0.053
 2589SOL     OW 9725   0.573   4.594   8.477
 2589SOL    HW1 9726   0.617   4.683   8.468
 2589SOL    HW2 9727   0.510   4.594   8.554
 2590SOL     OW 9728   1.360   4.586   8.493
 2590SOL    HW1 9729   1.285   4.586   8.427
 2590SOL    HW2 9730   1.397   4.494   8.502
 2591SOL     OW 9731   1.209   4.249   7.723
 2591SOL    HW1 9732   1.222   4.165   7.777
 2591SOL    HW2 9733   1.180   4.323   7.783
 2592SOL     OW 9734   0.732   4.358   8.512
 2592SOL    HW1 9735   0.791   4.332   8.436
 2592SOL    HW2 9736   0.704   4.454   8.501
 2593SOL     OW 9737   0.307   3.787   8.066
 2593SOL    HW1 9738   0.296   3.881   8.099
 2593SOL    HW2 9739   0.302   3.724   8.143
 2594SOL     OW 9740   1.622   4.091   7.822
 2594SOL    HW1 9741   1.624   4.015   7.886
 2594SOL    HW2 9742   1.574   4.168   7.862
 2595SOL     OW 9743   1.023   4.490   8.414
 2595SOL    HW1 9744   1.038   4.511   8.510
 2595SOL    HW2 9745   0.993   4.395   8.405
 2596SOL     OW 9746   0.980   5.297   0.148
 2596SOL    HW1 9747   0.960   5.341   0.060
 2596SOL    HW2 9748   1.019   5.206   0.132
 2597SOL     OW 9749   1.859   5.242   0.053
 2597SOL    HW1 9750   1.873   5.269  -0.042
 2597SOL    HW2 9751   1.942   5.264   0.106
 2598SOL     OW 9752   1.540   3.998   7.573
 2598SOL    HW1 9753   1.479   3.923   7.596
 2598SOL    HW2 9754   1.562   4.050   7.656
 2599SOL     OW 9755   1.303   4.562   7.490
 2599SOL    HW1 9756   1.337   4.469   7.505
 2599SOL    HW2 9757   1.321   4.589   7.395
 2600SOL     OW 9758   1.068   5.057   8.297
 2600SOL    HW1 9759   1.075   4.973   8.242
 2600SOL    HW2 9760   1.130   5.126   8.261
 2601SOL     OW 9761   0.319   4.534   8.397
 2601SOL    HW1 9762   0.412   4.570   8.402
 2601SOL    HW2 9763   0.313   4.449   8.449
 2602SOL     OW 9764   1.138   4.104   0.126
 2602SOL    HW1 9765   1.093   4.167   0.190
 2602SOL    HW2 9766   1.231   4.135   0.109
 2603SOL     OW 9767   1.160   3.931   8.925
 2603SOL    HW1 9768   1.160   3.995   9.002
 2603SOL    HW2 9769   1.188   3.979   8.842
 2604SOL     OW 9770   0.504   5.292   8.358
 2604SOL    HW1 9771   0.570   5.366   8.367
 2604SOL    HW2 9772   0.548   5.213   8.316
 2605SOL     OW 9773   1.002   4.520   8.686
 2605SOL    HW1 9774   1.043   4.488   8.772
 2605SOL    HW2 9775   0.906   4.493   8.683
 2606SOL     OW 9776   0.815   4.296   7.773
 2606SOL    HW1 9777   0.822   4.207   7.727
 2606SOL    HW2 9778   0.721   4.330   7.765
 2607SOL     OW 9779   1.657   4.328   8.654
 2607SOL    HW1 9780   1.619   4.259   8.716
 2607SOL    HW2 9781   1.739   4.292   8.610
 2608SOL     OW 9782   0.671   4.188   8.717
 2608SOL    HW1 9783   0.637   4.099   8.687
 2608SOL    HW2 9784   0.697   4.242   8.637
 2609SOL     OW 9785   0.930   5.402   8.913
 2609SOL    HW1 9786   0.906   5.384   8.818
 2609SOL    HW2 9787   0.960   5.496   8.923
 2610SOL     OW 9788   0.473   4.224   7.639
 2610SOL    HW1 9789   0.534   4.304   7.643
 2610SOL    HW2 9790   0.378   4.255   7.646
 2611SOL     OW 9791   1.347   4.783   8.682
 2611SOL    HW1 9792   1.371   4.720   8.608
 2611SOL    HW2 9793   1.257   4.823   8.664
 2612SOL     OW 9794   1.302   4.579   7.757
 2612SOL    HW1 9795   1.216   4.548   7.799
 2612SOL    HW2 9796   1.298   4.565   7.658
 2613SOL     OW 9797   1.759   5.471   8.602
 2613SOL    HW1 9798   1.820   5.501   8.529
 2613SOL    HW2 9799   1.721   5.382   8.580
 2614SOL     OW 9800   1.252   5.455   8.576
 2614SOL    HW1 9801   1.336   5.460   8.522
 2614SOL    HW2 9802   1.229   5.359   8.594
 2615SOL     OW 9803   0.903   3.810   7.581
 2615SOL    HW1 9804   0.954   3.811   7.495
 2615SOL    HW2 9805   0.959   3.768   7.652
 2616SOL     OW 9806   1.726   3.859   7.971
 2616SOL    HW1 9807   1.799   3.842   7.904
 2616SOL    HW2 9808   1.695   3.772   8.009
 2617SOL     OW 9809   1.388   5.297   7.925
 2617SOL    HW1 9810   1.455   5.309   7.851
 2617SOL    HW2 9811   1.348   5.386   7.948
 2618SOL     OW 9812   1.280   4.651   8.120
 2618SOL    HW1 9813   1.340   4.570   8.122
 2618SOL    HW2 9814   1.320   4.720   8.060
 2619SOL     OW 9815   0.672   5.340   7.602
 2619SOL    HW1 9816   0.681   5.350   7.503
 2619SOL    HW2 9817   0.632   5.251   7.623
 2620SOL     OW 9818   1.650   5.444   8.842
 2620SOL    HW1 9819   1.703   5.454   8.758
 2620SOL    HW2 9820   1.623   5.534   8.876
 2621SOL     OW 9821   1.841   3.899   8.411
 2621SOL    HW1 9822   1.880   3.814   8.375
 2621SOL    HW2 9823   1.743   3.901   8.392
 2622SOL     OW 9824   0.263   4.050   8.168
 2622SOL    HW1 9825   0.184   4.101   8.134
 2622SOL    HW2 9826   0.254   4.035   8.266
 2623SOL     OW 9827   1.194   5.336   7.479
 2623SOL    HW1 9828   1.200   5.243   7.516
 2623SOL    HW2 9829   1.135   5.336   7.399
 2624SOL     OW 9830   0.822   4.726   8.820
 2624SOL    HW1 9831   0.862   4.725   8.728
 2624SOL    HW2 9832   0.832   4.818   8.860
 2625SOL     OW 9833   0.916   4.634   7.739
 2625SOL    HW1 9834   0.979   4.672   7.671
 2625SOL    HW2 9835   0.956   4.551   7.778
 2626SOL     OW 9836   1.504   5.331   7.492
 2626SOL    HW1 9837   1.412   5.368   7.499
 2626SOL    HW2 9838   1.542   5.351   7.402
 2627SOL     OW 9839   0.372   5.012   8.938
 2627SOL    HW1 9840   0.359   5.105   8.904
 2627SOL    HW2 9841   0.288   4.960   8.925
 2628SOL     OW 9842   1.614   5.016   8.737
 2628SOL    HW1 9843   1.674   5.019   8.817
 2628SOL    HW2 9844   1.539   5.080   8.750
 2629SOL     OW 9845   1.039   4.822   8.144
 2629SOL    HW1 9846   0.969   4.775   8.198
 2629SOL    HW2 9847   1.098   4.754   8.101
 2630SOL     OW 9848   1.014   3.960   8.419
 2630SOL    HW1 9849   1.006   3.924   8.326
 2630SOL    HW2 9850   1.012   3.884   8.484
 2631SOL     OW 9851   0.590   5.211   7.939
 2631SOL    HW1 9852   0.632   5.153   7.869
 2631SOL    HW2 9853   0.546   5.290   7.895
 2632SOL     OW 9854   1.709   4.109   8.829
 2632SOL    HW1 9855   1.782   4.178   8.833
 2632SOL    HW2 9856   1.737   4.034   8.770
 2633SOL     OW 9857   0.255   5.072   7.738
 2633SOL    HW1 9858   0.159   5.073   7.711
 2633SOL    HW2 9859   0.267   5.125   7.822
 2634SOL     OW 9860   1.440   4.580   8.846
 2634SOL    HW1 9861   1.383   4.632   8.783
 2634SOL    HW2 9862   1.536   4.592   8.822
 2635SOL     OW 9863   1.183   5.059   7.567
 2635SOL    HW1 9864   1.084   5.048   7.569
 2635SOL    HW2 9865   1.217   5.074   7.660
 2636SOL     OW 9866   0.613   4.566   8.879
 2636SOL    HW1 9867   0.669   4.647   8.862
 2636SOL    HW2 9868   0.672   4.486   8.882
 2637SOL     OW 9869   1.493   5.491   8.407
 2637SOL    HW1 9870   1.526   5.555   8.338
 2637SOL    HW2 9871   1.559   5.485   8.482
 2638SOL     OW 9872   0.390   5.465   0.008
 2638SOL    HW1 9873   0.299   5.506   0.006
 2638SOL    HW2 9874   0.383   5.371   0.040
 2639SOL     OW 9875   1.674   4.607   8.702
 2639SOL    HW1 9876   1.647   4.518   8.665
 2639SOL    HW2 9877   1.675   4.675   8.629
 2640SOL     OW 9878   1.225   4.049   7.897
 2640SOL    HW1 9879   1.290   3.975   7.886
 2640SOL    HW2 9880   1.245   4.099   7.981
 2641SOL     OW 9881   0.594   4.469   8.100
 2641SOL    HW1 9882   0.644   4.554   8.081
 2641SOL    HW2 9883   0.506   4.471   8.052
 2642SOL     OW 9884   1.777   4.066   0.090
 2642SOL    HW1 9885   1.760   4.097  -0.004
 2642SOL    HW2 9886   1.693   4.029   0.128
 2643SOL     OW 9887   1.730   4.658   8.965
 2643SOL    HW1 9888   1.768   4.749   8.980
 2643SOL    HW2 9889   1.722   4.641   8.866
 2644SOL     OW 9890   0.859   5.098   7.464
 2644SOL    HW1 9891   0.813   5.113   7.552
 2644SOL    HW2 9892   0.903   5.183   7.434
 2645SOL     OW 9893   0.661   5.514   8.401
 2645SOL    HW1 9894   0.615   5.602   8.388
 2645SOL    HW2 9895   0.760   5.526   8.394
 2646SOL     OW 9896   1.408   5.575   0.168
 2646SOL    HW1 9897   1.312   5.564   0.141
 2646SOL    HW2 9898   1.464   5.508   0.120
 2647SOL     OW 9899   0.859   4.680   8.309
 2647SOL    HW1 9900   0.913   4.611   8.357
 2647SOL    HW2 9901   0.827   4.749   8.375
 2648SOL     OW 9902   1.083   4.708   7.535
 2648SOL    HW1 9903   1.060   4.761   7.453
 2648SOL    HW2 9904   1.164   4.652   7.516
 2649SOL     OW 9905   1.861   5.293   8.299
 2649SOL    HW1 9906   1.790   5.281   8.229
 2649SOL    HW2 9907   1.862   5.214   8.359
 2650SOL     OW 9908   1.824   3.916   8.675
 2650SOL    HW1 9909   1.820   3.826   8.719
 2650SOL    HW2 9910   1.827   3.905   8.576
 2651SOL     OW 9911   0.428   4.148   7.968
 2651SOL    HW1 9912   0.458   4.076   7.906
 2651SOL    HW2 9913   0.389   4.108   8.051
 2652SOL     OW 9914   1.705   5.211   8.552
 2652SOL    HW1 9915   1.612   5.186   8.525
 2652SOL    HW2 9916   1.731   5.161   8.634
 2653SOL     OW 9917   0.812   5.310   8.135
 2653SOL    HW1 9918   0.844   5.320   8.041
 2653SOL    HW2 9919   0.733   5.248   8.137
 2654SOL     OW 9920   1.424   3.938   8.560
 2654SOL    HW1 9921   1.476   3.873   8.615
 2654SOL    HW2 9922   1.375   4.001   8.621
 2655SOL     OW 9923   1.001   3.758   8.602
 2655SOL    HW1 9924   0.938   3.686   8.571
 2655SOL    HW2 9925   1.094   3.722   8.602
 2656SOL     OW 9926   0.770   5.054   7.749
 2656SOL    HW1 9927   0.724   4.967   7.766
 2656SOL    HW2 9928   0.861   5.051   7.790
 2657SOL     OW 9929   0.618   5.291   8.732
 2657SOL    HW1 9930   0.613   5.373   8.789
 2657SOL    HW2 9931   0.707   5.288   8.687
 2658SOL     OW 9932   1.352   3.776   7.616
 2658SOL    HW1 9933   1.387   3.735   7.532
 2658SOL    HW2 9934   1.262   3.738   7.636
 2659SOL     OW 9935   1.300   4.177   8.139
 2659SOL    HW1 9936   1.241   4.257   8.143
 2659SOL    HW2 9937   1.315   4.142   8.232
 2660SOL     OW 9938   1.593   3.945   8.330
 2660SOL    HW1 9939   1.509   3.944   8.384
 2660SOL    HW2 9940   1.595   4.028   8.274
 2661SOL     OW 9941   0.875   5.370   7.785
 2661SOL    HW1 9942   0.798   5.335   7.731
 2661SOL    HW2 9943   0.843   5.441   7.847
 2662SOL     OW 9944   0.019   5.954   0.647
 2662SOL    HW1 9945  -0.063   5.997   0.686
 2662SOL    HW2 9946  -0.009   5.881   0.584
 2663SOL     OW 9947   0.569   6.861   1.165
 2663SOL    HW1 9948   0.476   6.854   1.128
 2663SOL    HW2 9949   0.580   6.950   1.209
 2664SOL     OW 9950   1.555   7.097   0.703
 2664SOL    HW1 9951   1.498   7.081   0.784
 2664SOL    HW2 9952   1.496   7.107   0.623
 2665SOL     OW 9953   1.743   6.204   0.856
 2665SOL    HW1 9954   1.776   6.298   0.856
 2665SOL    HW2 9955   1.794   6.150   0.922
 2666SOL     OW 9956   1.135   6.289   0.717
 2666SOL    HW1 9957   1.192   6.367   0.692
 2666SOL    HW2 9958   1.075   6.315   0.793
 2667SOL     OW 9959   1.755   6.193   0.231
 2667SOL    HW1 9960   1.743   6.180   0.132
 2667SOL    HW2 9961   1.725   6.112   0.280
 2668SOL     OW 9962   0.768   6.730   1.023
 2668SOL    HW1 9963   0.690   6.747   1.083
 2668SOL    HW2 9964   0.802   6.817   0.987
 2669SOL     OW 9965   0.850   6.384   1.823
 2669SOL    HW1 9966   0.846   6.460   1.888
 2669SOL    HW2 9967   0.872   6.420   1.732
 2670SOL     OW 9968   0.685   6.598   0.665
 2670SOL    HW1 9969   0.754   6.582   0.735
 2670SOL    HW2 9970   0.612   6.655   0.703
 2671SOL     OW 9971   0.686   6.747   1.803
 2671SOL    HW1 9972   0.746   6.826   1.817
 2671SOL    HW2 9973   0.600   6.778   1.762
 2672SOL     OW 9974   0.335   7.021   1.061
 2672SOL    HW1 9975   0.257   6.990   1.008
 2672SOL    HW2 9976   0.393   7.079   1.004
 2673SOL     OW 9977   1.460   7.091   1.339
 2673SOL    HW1 9978   1.484   7.185   1.365
 2673SOL    HW2 9979   1.444   7.037   1.421
 2674SOL     OW 9980   0.438   5.978   1.499
 2674SOL    HW1 9981   0.520   5.922   1.508
 2674SOL    HW2 9982   0.357   5.920   1.503
 2675SOL     OW 9983   1.603   6.033   0.737
 2675SOL    HW1 9984   1.529   6.079   0.687
 2675SOL    HW2 9985   1.654   6.101   0.790
 2676SOL     OW 9986   1.127   6.927   1.690
 2676SOL    HW1 9987   1.174   6.927   1.778
 2676SOL    HW2 9988   1.079   6.840   1.679
 2677SOL     OW 9989   0.620   7.372   1.439
 2677SOL    HW1 9990   0.528   7.355   1.474
 2677SOL    HW2 9991   0.648   7.464   1.465
 2678SOL     OW 9992   0.606   6.550   0.123
 2678SOL    HW1 9993   0.613   6.634   0.069
 2678SOL    HW2 9994   0.652   6.563   0.211
 2679SOL     OW 9995   1.594   5.700   1.480
 2679SOL    HW1 9996   1.576   5.767   1.408
 2679SOL    HW2 9997   1.591   5.746   1.569
 2680SOL     OW 9998   1.842   7.353   0.359
 2680SOL    HW1 9999   1.896   7.324   0.439
 2680SOL    HW210000   1.872   7.443   0.330
 2681SOL     OW10001   1.689   6.508   0.612
 2681SOL    HW110002   1.784   6.479   0.620
 2681SOL    HW210003   1.681   6.573   0.537
 2682SOL     OW10004   1.641   6.694   0.432
 2682SOL    HW110005   1.727   6.696   0.380
 2682SOL    HW210006   1.655   6.741   0.520
 2683SOL     OW10007   0.613   6.951   0.726
 2683SOL    HW110008   0.564   6.864   0.735
 2683SOL    HW210009   0.590   6.994   0.639
 2684SOL     OW10010   1.293   6.814   1.423
 2684SOL    HW110011   1.330   6.741   1.365
 2684SOL    HW210012   1.345   6.819   1.508
 2685SOL     OW10013   0.809   5.590   0.502
 2685SOL    HW110014   0.849   5.681   0.493
 2685SOL    HW210015   0.709   5.598   0.508
 2686SOL     OW10016   1.525   6.585   0.190
 2686SOL    HW110017   1.462   6.509   0.203
 2686SOL    HW210018   1.573   6.603   0.276
 2687SOL     OW10019   1.187   7.378   1.616
 2687SOL    HW110020   1.211   7.438   1.540
 2687SOL    HW210021   1.194   7.283   1.586
 2688SOL     OW10022   0.317   5.837   1.801
 2688SOL    HW110023   0.388   5.908   1.807
 2688SOL    HW210024   0.229   5.876   1.829
 2689SOL     OW10025   1.466   7.003   0.953
 2689SOL    HW110026   1.407   7.009   1.033
 2689SOL    HW210027   1.451   6.915   0.907
 2690SOL     OW10028   1.667   7.300   0.572
 2690SOL    HW110029   1.626   7.277   0.484
 2690SOL    HW210030   1.649   7.226   0.637
 2691SOL     OW10031   0.598   6.315   0.270
 2691SOL    HW110032   0.622   6.384   0.202
 2691SOL    HW210033   0.520   6.348   0.324
 2692SOL     OW10034   1.281   5.931   0.944
 2692SOL    HW110035   1.195   5.881   0.931
 2692SOL    HW210036   1.343   5.877   1.000
 2693SOL     OW10037   1.576   7.248   0.307
 2693SOL    HW110038   1.665   7.294   0.310
 2693SOL    HW210039   1.555   7.224   0.212
 2694SOL     OW10040   0.807   6.191   1.465
 2694SOL    HW110041   0.760   6.188   1.554
 2694SOL    HW210042   0.756   6.136   1.399
 2695SOL     OW10043   1.394   6.055   1.674
 2695SOL    HW110044   1.374   6.098   1.762
 2695SOL    HW210045   1.472   5.993   1.683
 2696SOL     OW10046   0.973   6.476   1.572
 2696SOL    HW110047   1.019   6.392   1.543
 2696SOL    HW210048   0.917   6.510   1.497
 2697SOL     OW10049   0.991   5.996   1.242
 2697SOL    HW110050   0.914   6.030   1.296
 2697SOL    HW210051   0.957   5.945   1.163
 2698SOL     OW10052   1.041   6.287   0.429
 2698SOL    HW110053   1.067   6.283   0.525
 2698SOL    HW210054   0.956   6.236   0.415
 2699SOL     OW10055   0.865   5.934   0.195
 2699SOL    HW110056   0.924   5.997   0.146
 2699SOL    HW210057   0.884   5.840   0.166
 2700SOL     OW10058   1.719   6.171   1.831
 2700SOL    HW110059   1.693   6.260   1.795
 2700SOL    HW210060   1.717   6.103   1.758
 2701SOL     OW10061   1.362   6.730   0.545
 2701SOL    HW110062   1.445   6.701   0.497
 2701SOL    HW210063   1.313   6.797   0.489
 2702SOL     OW10064   0.550   5.782   0.885
 2702SOL    HW110065   0.545   5.777   0.985
 2702SOL    HW210066   0.552   5.878   0.856
 2703SOL     OW10067   1.008   7.042   0.477
 2703SOL    HW110068   0.962   7.114   0.425
 2703SOL    HW210069   1.004   7.062   0.575
 2704SOL     OW10070   0.351   7.387   0.853
 2704SOL    HW110071   0.401   7.301   0.859
 2704SOL    HW210072   0.416   7.464   0.850
 2705SOL     OW10073   1.795   6.652   0.873
 2705SOL    HW110074   1.733   6.637   0.797
 2705SOL    HW210075   1.743   6.663   0.958
 2706SOL     OW10076   1.227   7.136   1.506
 2706SOL    HW110077   1.233   7.059   1.570
 2706SOL    HW210078   1.175   7.110   1.426
 2707SOL     OW10079   0.321   6.529   0.242
 2707SOL    HW110080   0.403   6.568   0.200
 2707SOL    HW210081   0.294   6.447   0.193
 2708SOL     OW10082   1.458   6.321   0.728
 2708SOL    HW110083   1.453   6.256   0.803
 2708SOL    HW210084   1.538   6.380   0.741
 2709SOL     OW10085   0.461   6.852   1.727
 2709SOL    HW110086   0.411   6.853   1.641
 2709SOL    HW210087   0.398   6.834   1.803
 2710SOL     OW10088   1.111   7.362   0.237
 2710SOL    HW110089   1.051   7.300   0.287
 2710SOL    HW210090   1.142   7.318   0.152
 2711SOL     OW10091   1.632   6.963   0.081
 2711SOL    HW110092   1.600   7.057   0.071
 2711SOL    HW210093   1.556   6.900   0.069
 2712SOL     OW10094   0.464   7.329   0.323
 2712SOL    HW110095   0.497   7.368   0.409
 2712SOL    HW210096   0.540   7.322   0.258
 2713SOL     OW10097   1.400   5.693   0.426
 2713SOL    HW110098   1.376   5.656   0.336
 2713SOL    HW210099   1.499   5.709   0.430
 2714SOL     OW10100   0.940   7.284   0.904
 2714SOL    HW110101   1.020   7.227   0.925
 2714SOL    HW210102   0.891   7.244   0.827
 2715SOL     OW10103   0.382   6.286   0.480
 2715SOL    HW110104   0.427   6.196   0.477
 2715SOL    HW210105   0.288   6.275   0.513
 2716SOL     OW10106   1.547   5.808   1.729
 2716SOL    HW110107   1.542   5.845   1.821
 2716SOL    HW210108   1.475   5.739   1.717
 2717SOL     OW10109   0.614   5.708   0.117
 2717SOL    HW110110   0.712   5.686   0.124
 2717SOL    HW210111   0.583   5.691   0.024
 2718SOL     OW10112   0.781   5.850   1.749
 2718SOL    HW110113   0.848   5.789   1.792
 2718SOL    HW210114   0.708   5.869   1.814
 2719SOL     OW10115   0.888   7.100   1.195
 2719SOL    HW110116   0.865   7.075   1.101
 2719SOL    HW210117   0.949   7.031   1.234
 2720SOL     OW10118   1.351   6.176   1.433
 2720SOL    HW110119   1.379   6.133   1.518
 2720SOL    HW210120   1.376   6.272   1.434
 2721SOL     OW10121   0.803   6.988   0.924
 2721SOL    HW110122   0.893   7.002   0.882
 2721SOL    HW210123   0.732   6.990   0.853
 2722SOL     OW10124   0.922   6.089   0.899
 2722SOL    HW110125   0.897   6.080   0.803
 2722SOL    HW210126   0.970   6.007   0.930
 2723SOL     OW10127   0.539   5.650   0.512
 2723SOL    HW110128   0.458   5.651   0.570
 2723SOL    HW210129   0.542   5.733   0.457
 2724SOL     OW10130   1.434   6.774   0.041
 2724SOL    HW110131   1.466   6.698   0.098
 2724SOL    HW210132   1.342   6.801   0.071
 2725SOL     OW10133   0.297   5.621   0.171
 2725SOL    HW110134   0.346   5.705   0.150
 2725SOL    HW210135   0.359   5.556   0.216
 2726SOL     OW10136   0.935   5.822   0.480
 2726SOL    HW110137   0.887   5.863   0.402
 2726SOL    HW210138   1.034   5.820   0.461
 2727SOL     OW10139   1.076   6.269   1.464
 2727SOL    HW110140   0.996   6.208   1.467
 2727SOL    HW210141   1.157   6.216   1.440
 2728SOL     OW10142   1.227   7.156   0.793
 2728SOL    HW110143   1.248   7.230   0.728
 2728SOL    HW210144   1.295   7.156   0.866
 2729SOL     OW10145   0.459   6.738   0.741
 2729SOL    HW110146   0.388   6.711   0.806
 2729SOL    HW210147   0.433   6.710   0.648
 2730SOL     OW10148   1.271   7.383   0.591
 2730SOL    HW110149   1.315   7.447   0.527
 2730SOL    HW210150   1.221   7.435   0.661
 2731SOL     OW10151   1.032   6.135   0.016
 2731SOL    HW110152   0.991   6.217  -0.023
 2731SOL    HW210153   1.096   6.161   0.089
 2732SOL     OW10154   0.561   5.808   1.147
 2732SOL    HW110155   0.599   5.724   1.184
 2732SOL    HW210156   0.473   5.827   1.191
 2733SOL     OW10157   0.866   6.040   0.642
 2733SOL    HW110158   0.834   6.112   0.580
 2733SOL    HW210159   0.890   5.959   0.589
 2734SOL     OW10160   1.017   5.625   0.753
 2734SOL    HW110161   0.945   5.630   0.684
 2734SOL    HW210162   0.993   5.556   0.822
 2735SOL     OW10163   1.429   6.759   0.867
 2735SOL    HW110164   1.374   6.675   0.860
 2735SOL    HW210165   1.455   6.788   0.775
 2736SOL     OW10166   1.466   6.176   0.992
 2736SOL    HW110167   1.436   6.081   0.999
 2736SOL    HW210168   1.539   6.192   1.058
 2737SOL     OW10169   1.857   6.419   0.377
 2737SOL    HW110170   1.899   6.355   0.441
 2737SOL    HW210171   1.819   6.368   0.299
 2738SOL     OW10172   0.488   6.971   0.174
 2738SOL    HW110173   0.401   6.956   0.221
 2738SOL    HW210174   0.471   6.997   0.079
 2739SOL     OW10175   1.664   6.866   0.657
 2739SOL    HW110176   1.763   6.874   0.671
 2739SOL    HW210177   1.619   6.950   0.688
 2740SOL     OW10178   1.390   6.161   0.078
 2740SOL    HW110179   1.336   6.140   0.159
 2740SOL    HW210180   1.481   6.120   0.087
 2741SOL     OW10181   0.527   5.842   0.328
 2741SOL    HW110182   0.554   5.783   0.253
 2741SOL    HW210183   0.527   5.937   0.297
 2742SOL     OW10184   1.754   6.809   1.588
 2742SOL    HW110185   1.845   6.770   1.575
 2742SOL    HW210186   1.762   6.905   1.612
 2743SOL     OW10187   1.064   6.933   1.340
 2743SOL    HW110188   0.984   6.910   1.395
 2743SOL    HW210189   1.147   6.907   1.389
 2744SOL     OW10190   1.592   7.215   1.625
 2744SOL    HW110191   1.619   7.249   1.535
 2744SOL    HW210192   1.671   7.177   1.671
 2745SOL     OW10193   1.111   6.781   1.100
 2745SOL    HW110194   1.071   6.825   1.181
 2745SOL    HW210195   1.070   6.818   1.017
 2746SOL     OW10196   1.638   6.685   1.079
 2746SOL    HW110197   1.643   6.766   1.138
 2746SOL    HW210198   1.552   6.687   1.028
 2747SOL     OW10199   0.915   5.675   1.402
 2747SOL    HW110200   0.940   5.655   1.307
 2747SOL    HW210201   0.987   5.731   1.444
 2748SOL     OW10202   0.980   6.702   1.719
 2748SOL    HW110203   0.881   6.708   1.729
 2748SOL    HW210204   1.003   6.622   1.663
 2749SOL     OW10205   0.705   6.636   0.368
 2749SOL    HW110206   0.691   6.643   0.467
 2749SOL    HW210207   0.789   6.585   0.350
 2750SOL     OW10208   0.410   6.399   1.251
 2750SOL    HW110209   0.496   6.411   1.301
 2750SOL    HW210210   0.368   6.312   1.278
 2751SOL     OW10211   1.274   5.972   1.262
 2751SOL    HW110212   1.295   6.046   1.326
 2751SOL    HW210213   1.185   5.989   1.219
 2752SOL     OW10214   0.367   6.686   0.501
 2752SOL    HW110215   0.360   6.769   0.445
 2752SOL    HW210216   0.371   6.606   0.441
 2753SOL     OW10217   0.566   6.123   0.865
 2753SOL    HW110218   0.578   6.189   0.791
 2753SOL    HW210219   0.612   6.157   0.948
 2754SOL     OW10220   1.252   6.934   0.388
 2754SOL    HW110221   1.302   7.011   0.428
 2754SOL    HW210222   1.157   6.936   0.420
 2755SOL     OW10223   1.272   7.031   1.142
 2755SOL    HW110224   1.319   7.044   1.229
 2755SOL    HW210225   1.206   6.957   1.151
 2756SOL     OW10226   1.582   6.225   0.472
 2756SOL    HW110227   1.551   6.286   0.545
 2756SOL    HW210228   1.632   6.277   0.403
 2757SOL     OW10229   0.354   7.096   1.329
 2757SOL    HW110230   0.333   7.052   1.242
 2757SOL    HW210231   0.451   7.122   1.332
 2758SOL     OW10232   0.402   6.337   1.598
 2758SOL    HW110233   0.470   6.392   1.551
 2758SOL    HW210234   0.442   6.249   1.625
 2759SOL     OW10235   1.587   6.365   1.670
 2759SOL    HW110236   1.495   6.403   1.665
 2759SOL    HW210237   1.647   6.412   1.605
 2760SOL     OW10238   1.013   5.691   1.770
 2760SOL    HW110239   1.019   5.776   1.718
 2760SOL    HW210240   1.045   5.615   1.713
 2761SOL     OW10241   0.504   5.636   1.740
 2761SOL    HW110242   0.462   5.579   1.670
 2761SOL    HW210243   0.438   5.705   1.772
 2762SOL     OW10244   0.573   6.456   1.029
 2762SOL    HW110245   0.617   6.545   1.020
 2762SOL    HW210246   0.510   6.456   1.106
 2763SOL     OW10247   1.360   6.448   1.045
 2763SOL    HW110248   1.285   6.448   0.979
 2763SOL    HW210249   1.397   6.356   1.054
 2764SOL     OW10250   1.209   6.111   0.275
 2764SOL    HW110251   1.222   6.027   0.329
 2764SOL    HW210252   1.180   6.185   0.335
 2765SOL     OW10253   0.732   6.220   1.064
 2765SOL    HW110254   0.791   6.194   0.988
 2765SOL    HW210255   0.704   6.316   1.053
 2766SOL     OW10256   1.728   6.521   1.854
 2766SOL    HW110257   1.682   6.514   1.765
 2766SOL    HW210258   1.666   6.565   1.920
 2767SOL     OW10259   0.307   5.649   0.618
 2767SOL    HW110260   0.296   5.743   0.651
 2767SOL    HW210261   0.302   5.586   0.695
 2768SOL     OW10262   1.622   5.953   0.374
 2768SOL    HW110263   1.624   5.877   0.438
 2768SOL    HW210264   1.574   6.030   0.414
 2769SOL     OW10265   1.023   6.352   0.966
 2769SOL    HW110266   1.038   6.373   1.062
 2769SOL    HW210267   0.993   6.257   0.957
 2770SOL     OW10268   0.980   7.159   1.700
 2770SOL    HW110269   0.960   7.203   1.612
 2770SOL    HW210270   1.019   7.068   1.684
 2771SOL     OW10271   1.859   7.104   1.605
 2771SOL    HW110272   1.873   7.131   1.510
 2771SOL    HW210273   1.942   7.126   1.658
 2772SOL     OW10274   0.350   6.484   1.804
 2772SOL    HW110275   0.426   6.528   1.852
 2772SOL    HW210276   0.385   6.437   1.722
 2773SOL     OW10277   1.540   5.860   0.125
 2773SOL    HW110278   1.479   5.785   0.148
 2773SOL    HW210279   1.562   5.912   0.208
 2774SOL     OW10280   1.303   6.424   0.042
 2774SOL    HW110281   1.337   6.331   0.057
 2774SOL    HW210282   1.321   6.451  -0.053
 2775SOL     OW10283   1.068   6.919   0.849
 2775SOL    HW110284   1.075   6.835   0.794
 2775SOL    HW210285   1.130   6.988   0.813
 2776SOL     OW10286   0.319   6.396   0.949
 2776SOL    HW110287   0.412   6.432   0.954
 2776SOL    HW210288   0.313   6.311   1.001
 2777SOL     OW10289   1.138   5.966   1.678
 2777SOL    HW110290   1.093   6.029   1.742
 2777SOL    HW210291   1.231   5.997   1.661
 2778SOL     OW10292   1.160   5.793   1.477
 2778SOL    HW110293   1.160   5.857   1.554
 2778SOL    HW210294   1.188   5.841   1.394
 2779SOL     OW10295   0.504   7.154   0.910
 2779SOL    HW110296   0.570   7.228   0.919
 2779SOL    HW210297   0.548   7.075   0.868
 2780SOL     OW10298   1.002   6.382   1.238
 2780SOL    HW110299   1.043   6.350   1.324
 2780SOL    HW210300   0.906   6.355   1.235
 2781SOL     OW10301   1.369   6.536   1.660
 2781SOL    HW110302   1.408   6.625   1.680
 2781SOL    HW210303   1.379   6.516   1.563
 2782SOL     OW10304   0.815   6.158   0.325
 2782SOL    HW110305   0.822   6.069   0.279
 2782SOL    HW210306   0.721   6.192   0.317
 2783SOL     OW10307   1.657   6.190   1.206
 2783SOL    HW110308   1.619   6.121   1.268
 2783SOL    HW210309   1.739   6.154   1.162
 2784SOL     OW10310   0.671   6.050   1.269
 2784SOL    HW110311   0.637   5.961   1.239
 2784SOL    HW210312   0.697   6.104   1.189
 2785SOL     OW10313   0.930   7.264   1.465
 2785SOL    HW110314   0.906   7.246   1.370
 2785SOL    HW210315   0.960   7.358   1.475
 2786SOL     OW10316   0.473   6.086   0.191
 2786SOL    HW110317   0.534   6.166   0.195
 2786SOL    HW210318   0.378   6.117   0.198
 2787SOL     OW10319   1.347   6.645   1.234
 2787SOL    HW110320   1.371   6.582   1.160
 2787SOL    HW210321   1.257   6.685   1.216
 2788SOL     OW10322   1.302   6.441   0.309
 2788SOL    HW110323   1.216   6.410   0.351
 2788SOL    HW210324   1.298   6.427   0.210
 2789SOL     OW10325   1.759   7.333   1.154
 2789SOL    HW110326   1.820   7.363   1.081
 2789SOL    HW210327   1.721   7.244   1.132
 2790SOL     OW10328   1.252   7.317   1.128
 2790SOL    HW110329   1.336   7.322   1.074
 2790SOL    HW210330   1.229   7.221   1.146
 2791SOL     OW10331   0.688   7.248   1.716
 2791SOL    HW110332   0.632   7.329   1.725
 2791SOL    HW210333   0.740   7.252   1.630
 2792SOL     OW10334   0.903   5.672   0.133
 2792SOL    HW110335   0.954   5.673   0.047
 2792SOL    HW210336   0.959   5.630   0.204
 2793SOL     OW10337   1.726   5.721   0.523
 2793SOL    HW110338   1.799   5.704   0.456
 2793SOL    HW210339   1.695   5.634   0.561
 2794SOL     OW10340   1.388   7.159   0.477
 2794SOL    HW110341   1.455   7.171   0.403
 2794SOL    HW210342   1.348   7.248   0.500
 2795SOL     OW10343   0.130   7.380   1.851
 2795SOL    HW110344   0.089   7.306   1.904
 2795SOL    HW210345   0.194   7.431   1.909
 2796SOL     OW10346   1.280   6.513   0.672
 2796SOL    HW110347   1.340   6.432   0.674
 2796SOL    HW210348   1.320   6.582   0.612
 2797SOL     OW10349   0.830   6.859   1.422
 2797SOL    HW110350   0.825   6.892   1.517
 2797SOL    HW210351   0.744   6.878   1.376
 2798SOL     OW10352   0.672   7.202   0.154
 2798SOL    HW110353   0.681   7.212   0.055
 2798SOL    HW210354   0.632   7.113   0.175
 2799SOL     OW10355   1.650   7.306   1.394
 2799SOL    HW110356   1.703   7.316   1.310
 2799SOL    HW210357   1.623   7.396   1.428
 2800SOL     OW10358   1.841   5.761   0.963
 2800SOL    HW110359   1.880   5.676   0.927
 2800SOL    HW210360   1.743   5.763   0.944
 2801SOL     OW10361   0.263   5.912   0.720
 2801SOL    HW110362   0.184   5.963   0.686
 2801SOL    HW210363   0.254   5.897   0.818
 2802SOL     OW10364   1.194   7.198   0.031
 2802SOL    HW110365   1.200   7.105   0.068
 2802SOL    HW210366   1.135   7.198  -0.049
 2803SOL     OW10367   0.822   6.588   1.372
 2803SOL    HW110368   0.862   6.587   1.280
 2803SOL    HW210369   0.832   6.680   1.412
 2804SOL     OW10370   0.916   6.496   0.291
 2804SOL    HW110371   0.979   6.534   0.223
 2804SOL    HW210372   0.956   6.413   0.330
 2805SOL     OW10373   1.504   7.193   0.044
 2805SOL    HW110374   1.412   7.230   0.051
 2805SOL    HW210375   1.542   7.213  -0.046
 2806SOL     OW10376   0.372   6.874   1.490
 2806SOL    HW110377   0.359   6.967   1.456
 2806SOL    HW210378   0.288   6.822   1.477
 2807SOL     OW10379   1.614   6.878   1.289
 2807SOL    HW110380   1.674   6.881   1.369
 2807SOL    HW210381   1.539   6.942   1.302
 2808SOL     OW10382   1.039   6.684   0.696
 2808SOL    HW110383   0.969   6.637   0.750
 2808SOL    HW210384   1.098   6.616   0.653
 2809SOL     OW10385   1.014   5.822   0.971
 2809SOL    HW110386   1.006   5.786   0.878
 2809SOL    HW210387   1.012   5.746   1.036
 2810SOL     OW10388   0.590   7.073   0.491
 2810SOL    HW110389   0.632   7.015   0.421
 2810SOL    HW210390   0.546   7.152   0.447
 2811SOL     OW10391   1.709   5.971   1.381
 2811SOL    HW110392   1.782   6.040   1.385
 2811SOL    HW210393   1.737   5.896   1.322
 2812SOL     OW10394   0.255   6.934   0.290
 2812SOL    HW110395   0.159   6.935   0.263
 2812SOL    HW210396   0.267   6.987   0.374
 2813SOL     OW10397   0.672   5.789   1.489
 2813SOL    HW110398   0.762   5.773   1.449
 2813SOL    HW210399   0.680   5.794   1.588
 2814SOL     OW10400   1.440   6.442   1.398
 2814SOL    HW110401   1.383   6.494   1.335
 2814SOL    HW210402   1.536   6.454   1.374
 2815SOL     OW10403   1.183   6.921   0.119
 2815SOL    HW110404   1.084   6.910   0.121
 2815SOL    HW210405   1.217   6.936   0.212
 2816SOL     OW10406   0.613   6.428   1.431
 2816SOL    HW110407   0.669   6.509   1.414
 2816SOL    HW210408   0.672   6.348   1.434
 2817SOL     OW10409   1.493   7.353   0.959
 2817SOL    HW110410   1.526   7.417   0.890
 2817SOL    HW210411   1.559   7.347   1.034
 2818SOL     OW10412   0.716   6.151   1.708
 2818SOL    HW110413   0.735   6.216   1.782
 2818SOL    HW210414   0.776   6.071   1.717
 2819SOL     OW10415   1.450   6.806   1.633
 2819SOL    HW110416   1.441   6.796   1.732
 2819SOL    HW210417   1.546   6.799   1.607
 2820SOL     OW10418   0.390   7.327   1.560
 2820SOL    HW110419   0.299   7.368   1.558
 2820SOL    HW210420   0.383   7.233   1.592
 2821SOL     OW10421   1.674   6.469   1.254
 2821SOL    HW110422   1.647   6.380   1.217
 2821SOL    HW210423   1.675   6.537   1.181
 2822SOL     OW10424   1.225   5.911   0.449
 2822SOL    HW110425   1.290   5.837   0.438
 2822SOL    HW210426   1.245   5.961   0.533
 2823SOL     OW10427   0.594   6.331   0.652
 2823SOL    HW110428   0.644   6.416   0.633
 2823SOL    HW210429   0.506   6.333   0.604
 2824SOL     OW10430   1.777   5.928   1.642
 2824SOL    HW110431   1.760   5.959   1.548
 2824SOL    HW210432   1.693   5.891   1.680
 2825SOL     OW10433   1.730   6.520   1.517
 2825SOL    HW110434   1.768   6.611   1.532
 2825SOL    HW210435   1.722   6.503   1.418
 2826SOL     OW10436   0.859   6.960   0.016
 2826SOL    HW110437   0.813   6.975   0.104
 2826SOL    HW210438   0.903   7.045  -0.014
 2827SOL     OW10439   0.661   7.376   0.953
 2827SOL    HW110440   0.615   7.464   0.940
 2827SOL    HW210441   0.760   7.388   0.946
 2828SOL     OW10442   1.408   7.437   1.720
 2828SOL    HW110443   1.312   7.426   1.693
 2828SOL    HW210444   1.464   7.370   1.672
 2829SOL     OW10445   0.859   6.542   0.861
 2829SOL    HW110446   0.913   6.473   0.909
 2829SOL    HW210447   0.827   6.611   0.927
 2830SOL     OW10448   1.083   6.570   0.087
 2830SOL    HW110449   1.060   6.623   0.005
 2830SOL    HW210450   1.164   6.514   0.068
 2831SOL     OW10451   1.861   7.155   0.851
 2831SOL    HW110452   1.790   7.143   0.781
 2831SOL    HW210453   1.862   7.076   0.911
 2832SOL     OW10454   0.672   6.977   1.624
 2832SOL    HW110455   0.594   6.927   1.662
 2832SOL    HW210456   0.669   7.072   1.655
 2833SOL     OW10457   1.824   5.778   1.227
 2833SOL    HW110458   1.820   5.688   1.271
 2833SOL    HW210459   1.827   5.767   1.128
 2834SOL     OW10460   0.428   6.010   0.520
 2834SOL    HW110461   0.458   5.938   0.458
 2834SOL    HW210462   0.389   5.970   0.603
 2835SOL     OW10463   1.705   7.073   1.104
 2835SOL    HW110464   1.612   7.048   1.077
 2835SOL    HW210465   1.731   7.023   1.186
 2836SOL     OW10466   0.812   7.172   0.687
 2836SOL    HW110467   0.844   7.182   0.593
 2836SOL    HW210468   0.733   7.110   0.689
 2837SOL     OW10469   1.424   5.800   1.112
 2837SOL    HW110470   1.476   5.735   1.167
 2837SOL    HW210471   1.375   5.863   1.173
 2838SOL     OW10472   1.001   5.620   1.154
 2838SOL    HW110473   0.938   5.548   1.123
 2838SOL    HW210474   1.094   5.584   1.154
 2839SOL     OW10475   0.770   6.916   0.301
 2839SOL    HW110476   0.724   6.829   0.318
 2839SOL    HW210477   0.861   6.913   0.342
 2840SOL     OW10478   0.618   7.153   1.284
 2840SOL    HW110479   0.613   7.235   1.341
 2840SOL    HW210480   0.707   7.150   1.239
 2841SOL     OW10481   1.300   6.039   0.691
 2841SOL    HW110482   1.241   6.119   0.695
 2841SOL    HW210483   1.315   6.004   0.784
 2842SOL     OW10484   1.593   5.807   0.882
 2842SOL    HW110485   1.509   5.806   0.936
 2842SOL    HW210486   1.595   5.890   0.826
 2843SOL     OW10487   0.875   7.232   0.337
 2843SOL    HW110488   0.798   7.197   0.283
 2843SOL    HW210489   0.843   7.303   0.399
 2844SOL     OW10490   0.019   5.954   2.509
 2844SOL    HW110491  -0.063   5.997   2.548
 2844SOL    HW210492  -0.009   5.881   2.446
 2845SOL     OW10493   0.569   6.861   3.027
 2845SOL    HW110494   0.476   6.854   2.990
 2845SOL    HW210495   0.580   6.950   3.071
 2846SOL     OW10496   1.555   7.097   2.565
 2846SOL    HW110497   1.498   7.081   2.646
 2846SOL    HW210498   1.496   7.107   2.485
 2847SOL     OW10499   1.743   6.204   2.718
 2847SOL    HW110500   1.776   6.298   2.718
 2847SOL    HW210501   1.794   6.150   2.784
 2848SOL     OW10502   1.135   6.289   2.579
 2848SOL    HW110503   1.192   6.367   2.554
 2848SOL    HW210504   1.075   6.315   2.655
 2849SOL     OW10505   1.755   6.193   2.093
 2849SOL    HW110506   1.743   6.180   1.994
 2849SOL    HW210507   1.725   6.112   2.142
 2850SOL     OW10508   0.768   6.730   2.885
 2850SOL    HW110509   0.690   6.747   2.945
 2850SOL    HW210510   0.802   6.817   2.849
 2851SOL     OW10511   0.850   6.384   3.685
 2851SOL    HW110512   0.846   6.460   3.750
 2851SOL    HW210513   0.872   6.420   3.594
 2852SOL     OW10514   0.685   6.598   2.527
 2852SOL    HW110515   0.754   6.582   2.597
 2852SOL    HW210516   0.612   6.655   2.565
 2853SOL     OW10517   0.686   6.747   3.665
 2853SOL    HW110518   0.746   6.826   3.679
 2853SOL    HW210519   0.600   6.778   3.624
 2854SOL     OW10520   0.335   7.021   2.923
 2854SOL    HW110521   0.257   6.990   2.870
 2854SOL    HW210522   0.393   7.079   2.866
 2855SOL     OW10523   1.460   7.091   3.201
 2855SOL    HW110524   1.484   7.185   3.227
 2855SOL    HW210525   1.444   7.037   3.283
 2856SOL     OW10526   0.438   5.978   3.361
 2856SOL    HW110527   0.520   5.922   3.370
 2856SOL    HW210528   0.357   5.920   3.365
 2857SOL     OW10529   1.127   6.927   3.552
 2857SOL    HW110530   1.174   6.927   3.640
 2857SOL    HW210531   1.079   6.840   3.541
 2858SOL     OW10532   0.620   7.372   3.301
 2858SOL    HW110533   0.528   7.355   3.336
 2858SOL    HW210534   0.648   7.464   3.327
 2859SOL     OW10535   0.606   6.550   1.985
 2859SOL    HW110536   0.613   6.634   1.931
 2859SOL    HW210537   0.652   6.563   2.073
 2860SOL     OW10538   1.594   5.700   3.342
 2860SOL    HW110539   1.576   5.767   3.270
 2860SOL    HW210540   1.591   5.746   3.431
 2861SOL     OW10541   1.842   7.353   2.221
 2861SOL    HW110542   1.896   7.324   2.301
 2861SOL    HW210543   1.872   7.443   2.192
 2862SOL     OW10544   1.689   6.508   2.474
 2862SOL    HW110545   1.784   6.479   2.482
 2862SOL    HW210546   1.681   6.573   2.399
 2863SOL     OW10547   1.641   6.694   2.294
 2863SOL    HW110548   1.727   6.696   2.242
 2863SOL    HW210549   1.655   6.741   2.382
 2864SOL     OW10550   0.613   6.951   2.588
 2864SOL    HW110551   0.564   6.864   2.597
 2864SOL    HW210552   0.590   6.994   2.501
 2865SOL     OW10553   1.293   6.814   3.285
 2865SOL    HW110554   1.330   6.741   3.227
 2865SOL    HW210555   1.345   6.819   3.370
 2866SOL     OW10556   0.809   5.590   2.364
 2866SOL    HW110557   0.849   5.681   2.355
 2866SOL    HW210558   0.709   5.598   2.370
 2867SOL     OW10559   1.525   6.585   2.052
 2867SOL    HW110560   1.462   6.509   2.065
 2867SOL    HW210561   1.573   6.603   2.138
 2868SOL     OW10562   1.187   7.378   3.478
 2868SOL    HW110563   1.211   7.438   3.402
 2868SOL    HW210564   1.194   7.283   3.448
 2869SOL     OW10565   0.317   5.837   3.663
 2869SOL    HW110566   0.388   5.908   3.669
 2869SOL    HW210567   0.229   5.876   3.691
 2870SOL     OW10568   1.466   7.003   2.815
 2870SOL    HW110569   1.407   7.009   2.895
 2870SOL    HW210570   1.451   6.915   2.769
 2871SOL     OW10571   1.667   7.300   2.434
 2871SOL    HW110572   1.626   7.277   2.346
 2871SOL    HW210573   1.649   7.226   2.499
 2872SOL     OW10574   0.598   6.315   2.132
 2872SOL    HW110575   0.622   6.384   2.064
 2872SOL    HW210576   0.520   6.348   2.186
 2873SOL     OW10577   1.281   5.931   2.806
 2873SOL    HW110578   1.195   5.881   2.793
 2873SOL    HW210579   1.343   5.877   2.862
 2874SOL     OW10580   1.576   7.248   2.169
 2874SOL    HW110581   1.665   7.294   2.172
 2874SOL    HW210582   1.555   7.224   2.074
 2875SOL     OW10583   0.807   6.191   3.327
 2875SOL    HW110584   0.760   6.188   3.416
 2875SOL    HW210585   0.756   6.136   3.261
 2876SOL     OW10586   1.394   6.055   3.536
 2876SOL    HW110587   1.374   6.098   3.624
 2876SOL    HW210588   1.472   5.993   3.545
 2877SOL     OW10589   0.973   6.476   3.434
 2877SOL    HW110590   1.019   6.392   3.405
 2877SOL    HW210591   0.917   6.510   3.359
 2878SOL     OW10592   0.991   5.996   3.104
 2878SOL    HW110593   0.914   6.030   3.158
 2878SOL    HW210594   0.957   5.945   3.025
 2879SOL     OW10595   1.041   6.287   2.291
 2879SOL    HW110596   1.067   6.283   2.387
 2879SOL    HW210597   0.956   6.236   2.277
 2880SOL     OW10598   0.865   5.934   2.057
 2880SOL    HW110599   0.924   5.997   2.008
 2880SOL    HW210600   0.884   5.840   2.028
 2881SOL     OW10601   1.719   6.171   3.693
 2881SOL    HW110602   1.693   6.260   3.657
 2881SOL    HW210603   1.717   6.103   3.620
 2882SOL     OW10604   1.362   6.730   2.407
 2882SOL    HW110605   1.445   6.701   2.359
 2882SOL    HW210606   1.313   6.797   2.351
 2883SOL     OW10607   0.550   5.782   2.747
 2883SOL    HW110608   0.545   5.777   2.847
 2883SOL    HW210609   0.552   5.878   2.718
 2884SOL     OW10610   1.008   7.042   2.339
 2884SOL    HW110611   0.962   7.114   2.287
 2884SOL    HW210612   1.004   7.062   2.437
 2885SOL     OW10613   0.351   7.387   2.715
 2885SOL    HW110614   0.401   7.301   2.721
 2885SOL    HW210615   0.416   7.464   2.712
 2886SOL     OW10616   1.795   6.652   2.735
 2886SOL    HW110617   1.733   6.637   2.659
 2886SOL    HW210618   1.743   6.663   2.820
 2887SOL     OW10619   1.227   7.136   3.368
 2887SOL    HW110620   1.233   7.059   3.432
 2887SOL    HW210621   1.175   7.110   3.288
 2888SOL     OW10622   0.321   6.529   2.104
 2888SOL    HW110623   0.403   6.568   2.062
 2888SOL    HW210624   0.294   6.447   2.055
 2889SOL     OW10625   1.458   6.321   2.590
 2889SOL    HW110626   1.453   6.256   2.665
 2889SOL    HW210627   1.538   6.380   2.603
 2890SOL     OW10628   0.461   6.852   3.589
 2890SOL    HW110629   0.411   6.853   3.503
 2890SOL    HW210630   0.398   6.834   3.665
 2891SOL     OW10631   1.111   7.362   2.099
 2891SOL    HW110632   1.051   7.300   2.149
 2891SOL    HW210633   1.142   7.318   2.014
 2892SOL     OW10634   1.632   6.963   1.943
 2892SOL    HW110635   1.600   7.057   1.933
 2892SOL    HW210636   1.556   6.900   1.931
 2893SOL     OW10637   0.464   7.329   2.185
 2893SOL    HW110638   0.497   7.368   2.271
 2893SOL    HW210639   0.540   7.322   2.120
 2894SOL     OW10640   0.940   7.284   2.766
 2894SOL    HW110641   1.020   7.227   2.787
 2894SOL    HW210642   0.891   7.244   2.689
 2895SOL     OW10643   0.382   6.286   2.342
 2895SOL    HW110644   0.427   6.196   2.339
 2895SOL    HW210645   0.288   6.275   2.375
 2896SOL     OW10646   1.547   5.808   3.591
 2896SOL    HW110647   1.542   5.845   3.683
 2896SOL    HW210648   1.475   5.739   3.579
 2897SOL     OW10649   0.614   5.708   1.979
 2897SOL    HW110650   0.712   5.686   1.986
 2897SOL    HW210651   0.583   5.691   1.886
 2898SOL     OW10652   0.781   5.850   3.611
 2898SOL    HW110653   0.848   5.789   3.654
 2898SOL    HW210654   0.708   5.869   3.676
 2899SOL     OW10655   0.888   7.100   3.057
 2899SOL    HW110656   0.865   7.075   2.963
 2899SOL    HW210657   0.949   7.031   3.096
 2900SOL     OW10658   1.351   6.176   3.295
 2900SOL    HW110659   1.379   6.133   3.380
 2900SOL    HW210660   1.376   6.272   3.296
 2901SOL     OW10661   0.803   6.988   2.786
 2901SOL    HW110662   0.893   7.002   2.744
 2901SOL    HW210663   0.732   6.990   2.715
 2902SOL     OW10664   0.922   6.089   2.761
 2902SOL    HW110665   0.897   6.080   2.665
 2902SOL    HW210666   0.970   6.007   2.792
 2903SOL     OW10667   0.539   5.650   2.374
 2903SOL    HW110668   0.458   5.651   2.432
 2903SOL    HW210669   0.542   5.733   2.319
 2904SOL     OW10670   1.434   6.774   1.903
 2904SOL    HW110671   1.466   6.698   1.960
 2904SOL    HW210672   1.342   6.801   1.933
 2905SOL     OW10673   0.297   5.621   2.033
 2905SOL    HW110674   0.346   5.705   2.012
 2905SOL    HW210675   0.359   5.556   2.078
 2906SOL     OW10676   0.935   5.822   2.342
 2906SOL    HW110677   0.887   5.863   2.264
 2906SOL    HW210678   1.034   5.820   2.323
 2907SOL     OW10679   1.076   6.269   3.326
 2907SOL    HW110680   0.996   6.208   3.329
 2907SOL    HW210681   1.157   6.216   3.302
 2908SOL     OW10682   1.227   7.156   2.655
 2908SOL    HW110683   1.248   7.230   2.590
 2908SOL    HW210684   1.295   7.156   2.728
 2909SOL     OW10685   0.459   6.738   2.603
 2909SOL    HW110686   0.388   6.711   2.668
 2909SOL    HW210687   0.433   6.710   2.510
 2910SOL     OW10688   1.271   7.383   2.453
 2910SOL    HW110689   1.315   7.447   2.389
 2910SOL    HW210690   1.221   7.435   2.523
 2911SOL     OW10691   1.032   6.135   1.878
 2911SOL    HW110692   0.991   6.217   1.839
 2911SOL    HW210693   1.096   6.161   1.951
 2912SOL     OW10694   0.561   5.808   3.009
 2912SOL    HW110695   0.599   5.724   3.046
 2912SOL    HW210696   0.473   5.827   3.053
 2913SOL     OW10697   0.866   6.040   2.504
 2913SOL    HW110698   0.834   6.112   2.442
 2913SOL    HW210699   0.890   5.959   2.451
 2914SOL     OW10700   1.017   5.625   2.615
 2914SOL    HW110701   0.945   5.630   2.546
 2914SOL    HW210702   0.993   5.556   2.684
 2915SOL     OW10703   1.429   6.759   2.729
 2915SOL    HW110704   1.374   6.675   2.722
 2915SOL    HW210705   1.455   6.788   2.637
 2916SOL     OW10706   1.466   6.176   2.854
 2916SOL    HW110707   1.436   6.081   2.861
 2916SOL    HW210708   1.539   6.192   2.920
 2917SOL     OW10709   1.857   6.419   2.239
 2917SOL    HW110710   1.899   6.355   2.303
 2917SOL    HW210711   1.819   6.368   2.161
 2918SOL     OW10712   0.488   6.971   2.036
 2918SOL    HW110713   0.401   6.956   2.083
 2918SOL    HW210714   0.471   6.997   1.941
 2919SOL     OW10715   1.664   6.866   2.519
 2919SOL    HW110716   1.763   6.874   2.533
 2919SOL    HW210717   1.619   6.950   2.550
 2920SOL     OW10718   1.390   6.161   1.940
 2920SOL    HW110719   1.336   6.140   2.021
 2920SOL    HW210720   1.481   6.120   1.949
 2921SOL     OW10721   0.527   5.842   2.190
 2921SOL    HW110722   0.554   5.783   2.115
 2921SOL    HW210723   0.527   5.937   2.159
 2922SOL     OW10724   1.754   6.809   3.450
 2922SOL    HW110725   1.845   6.770   3.437
 2922SOL    HW210726   1.762   6.905   3.474
 2923SOL     OW10727   1.064   6.933   3.202
 2923SOL    HW110728   0.984   6.910   3.257
 2923SOL    HW210729   1.147   6.907   3.251
 2924SOL     OW10730   1.592   7.215   3.487
 2924SOL    HW110731   1.619   7.249   3.397
 2924SOL    HW210732   1.671   7.177   3.533
 2925SOL     OW10733   1.111   6.781   2.962
 2925SOL    HW110734   1.071   6.825   3.043
 2925SOL    HW210735   1.070   6.818   2.879
 2926SOL     OW10736   1.638   6.685   2.941
 2926SOL    HW110737   1.643   6.766   3.000
 2926SOL    HW210738   1.552   6.687   2.890
 2927SOL     OW10739   0.915   5.675   3.264
 2927SOL    HW110740   0.940   5.655   3.169
 2927SOL    HW210741   0.987   5.731   3.306
 2928SOL     OW10742   0.980   6.702   3.581
 2928SOL    HW110743   0.881   6.708   3.591
 2928SOL    HW210744   1.003   6.622   3.525
 2929SOL     OW10745   0.705   6.636   2.230
 2929SOL    HW110746   0.691   6.643   2.329
 2929SOL    HW210747   0.789   6.585   2.212
 2930SOL     OW10748   0.410   6.399   3.113
 2930SOL    HW110749   0.496   6.411   3.163
 2930SOL    HW210750   0.368   6.312   3.140
 2931SOL     OW10751   1.274   5.972   3.124
 2931SOL    HW110752   1.295   6.046   3.188
 2931SOL    HW210753   1.185   5.989   3.081
 2932SOL     OW10754   0.367   6.686   2.363
 2932SOL    HW110755   0.360   6.769   2.307
 2932SOL    HW210756   0.371   6.606   2.303
 2933SOL     OW10757   0.566   6.123   2.727
 2933SOL    HW110758   0.578   6.189   2.653
 2933SOL    HW210759   0.612   6.157   2.810
 2934SOL     OW10760   1.252   6.934   2.250
 2934SOL    HW110761   1.302   7.011   2.290
 2934SOL    HW210762   1.157   6.936   2.282
 2935SOL     OW10763   1.272   7.031   3.004
 2935SOL    HW110764   1.319   7.044   3.091
 2935SOL    HW210765   1.206   6.957   3.013
 2936SOL     OW10766   1.582   6.225   2.334
 2936SOL    HW110767   1.551   6.286   2.407
 2936SOL    HW210768   1.632   6.277   2.265
 2937SOL     OW10769   0.354   7.096   3.191
 2937SOL    HW110770   0.333   7.052   3.104
 2937SOL    HW210771   0.451   7.122   3.194
 2938SOL     OW10772   0.402   6.337   3.460
 2938SOL    HW110773   0.470   6.392   3.413
 2938SOL    HW210774   0.442   6.249   3.487
 2939SOL     OW10775   1.587   6.365   3.532
 2939SOL    HW110776   1.495   6.403   3.527
 2939SOL    HW210777   1.647   6.412   3.467
 2940SOL     OW10778   1.013   5.691   3.632
 2940SOL    HW110779   1.019   5.776   3.580
 2940SOL    HW210780   1.045   5.615   3.575
 2941SOL     OW10781   0.504   5.636   3.602
 2941SOL    HW110782   0.462   5.579   3.532
 2941SOL    HW210783   0.438   5.705   3.634
 2942SOL     OW10784   0.573   6.456   2.891
 2942SOL    HW110785   0.617   6.545   2.882
 2942SOL    HW210786   0.510   6.456   2.968
 2943SOL     OW10787   1.360   6.448   2.907
 2943SOL    HW110788   1.285   6.448   2.841
 2943SOL    HW210789   1.397   6.356   2.916
 2944SOL     OW10790   1.209   6.111   2.137
 2944SOL    HW110791   1.222   6.027   2.191
 2944SOL    HW210792   1.180   6.185   2.197
 2945SOL     OW10793   0.732   6.220   2.926
 2945SOL    HW110794   0.791   6.194   2.850
 2945SOL    HW210795   0.704   6.316   2.915
 2946SOL     OW10796   1.728   6.521   3.716
 2946SOL    HW110797   1.682   6.514   3.627
 2946SOL    HW210798   1.666   6.565   3.782
 2947SOL     OW10799   0.307   5.649   2.480
 2947SOL    HW110800   0.296   5.743   2.513
 2947SOL    HW210801   0.302   5.586   2.557
 2948SOL     OW10802   1.622   5.953   2.236
 2948SOL    HW110803   1.624   5.877   2.300
 2948SOL    HW210804   1.574   6.030   2.276
 2949SOL     OW10805   1.023   6.352   2.828
 2949SOL    HW110806   1.038   6.373   2.924
 2949SOL    HW210807   0.993   6.257   2.819
 2950SOL     OW10808   0.980   7.159   3.562
 2950SOL    HW110809   0.960   7.203   3.474
 2950SOL    HW210810   1.019   7.068   3.546
 2951SOL     OW10811   1.859   7.104   3.467
 2951SOL    HW110812   1.873   7.131   3.372
 2951SOL    HW210813   1.942   7.126   3.520
 2952SOL     OW10814   0.350   6.484   3.666
 2952SOL    HW110815   0.426   6.528   3.714
 2952SOL    HW210816   0.385   6.437   3.584
 2953SOL     OW10817   1.540   5.860   1.987
 2953SOL    HW110818   1.479   5.785   2.010
 2953SOL    HW210819   1.562   5.912   2.070
 2954SOL     OW10820   1.303   6.424   1.904
 2954SOL    HW110821   1.337   6.331   1.919
 2954SOL    HW210822   1.321   6.451   1.809
 2955SOL     OW10823   1.068   6.919   2.711
 2955SOL    HW110824   1.075   6.835   2.656
 2955SOL    HW210825   1.130   6.988   2.675
 2956SOL     OW10826   0.319   6.396   2.811
 2956SOL    HW110827   0.412   6.432   2.816
 2956SOL    HW210828   0.313   6.311   2.863
 2957SOL     OW10829   1.138   5.966   3.540
 2957SOL    HW110830   1.093   6.029   3.604
 2957SOL    HW210831   1.231   5.997   3.523
 2958SOL     OW10832   1.160   5.793   3.339
 2958SOL    HW110833   1.160   5.857   3.416
 2958SOL    HW210834   1.188   5.841   3.256
 2959SOL     OW10835   0.504   7.154   2.772
 2959SOL    HW110836   0.570   7.228   2.781
 2959SOL    HW210837   0.548   7.075   2.730
 2960SOL     OW10838   1.002   6.382   3.100
 2960SOL    HW110839   1.043   6.350   3.186
 2960SOL    HW210840   0.906   6.355   3.097
 2961SOL     OW10841   1.369   6.536   3.522
 2961SOL    HW110842   1.408   6.625   3.542
 2961SOL    HW210843   1.379   6.516   3.425
 2962SOL     OW10844   0.815   6.158   2.187
 2962SOL    HW110845   0.822   6.069   2.141
 2962SOL    HW210846   0.721   6.192   2.179
 2963SOL     OW10847   1.657   6.190   3.068
 2963SOL    HW110848   1.619   6.121   3.130
 2963SOL    HW210849   1.739   6.154   3.024
 2964SOL     OW10850   0.671   6.050   3.131
 2964SOL    HW110851   0.637   5.961   3.101
 2964SOL    HW210852   0.697   6.104   3.051
 2965SOL     OW10853   0.930   7.264   3.327
 2965SOL    HW110854   0.906   7.246   3.232
 2965SOL    HW210855   0.960   7.358   3.337
 2966SOL     OW10856   0.473   6.086   2.053
 2966SOL    HW110857   0.534   6.166   2.057
 2966SOL    HW210858   0.378   6.117   2.060
 2967SOL     OW10859   1.347   6.645   3.096
 2967SOL    HW110860   1.371   6.582   3.022
 2967SOL    HW210861   1.257   6.685   3.078
 2968SOL     OW10862   1.302   6.441   2.171
 2968SOL    HW110863   1.216   6.410   2.213
 2968SOL    HW210864   1.298   6.427   2.072
 2969SOL     OW10865   1.759   7.333   3.016
 2969SOL    HW110866   1.820   7.363   2.943
 2969SOL    HW210867   1.721   7.244   2.994
 2970SOL     OW10868   1.252   7.317   2.990
 2970SOL    HW110869   1.336   7.322   2.936
 2970SOL    HW210870   1.229   7.221   3.008
 2971SOL     OW10871   0.688   7.248   3.578
 2971SOL    HW110872   0.632   7.329   3.587
 2971SOL    HW210873   0.740   7.252   3.492
 2972SOL     OW10874   0.903   5.672   1.995
 2972SOL    HW110875   0.954   5.673   1.909
 2972SOL    HW210876   0.959   5.630   2.066
 2973SOL     OW10877   1.726   5.721   2.385
 2973SOL    HW110878   1.799   5.704   2.318
 2973SOL    HW210879   1.695   5.634   2.423
 2974SOL     OW10880   1.388   7.159   2.339
 2974SOL    HW110881   1.455   7.171   2.265
 2974SOL    HW210882   1.348   7.248   2.362
 2975SOL     OW10883   0.130   7.380   3.713
 2975SOL    HW110884   0.089   7.306   3.766
 2975SOL    HW210885   0.194   7.431   3.771
 2976SOL     OW10886   1.280   6.513   2.534
 2976SOL    HW110887   1.340   6.432   2.536
 2976SOL    HW210888   1.320   6.582   2.474
 2977SOL     OW10889   0.830   6.859   3.284
 2977SOL    HW110890   0.825   6.892   3.379
 2977SOL    HW210891   0.744   6.878   3.238
 2978SOL     OW10892   0.672   7.202   2.016
 2978SOL    HW110893   0.681   7.212   1.917
 2978SOL    HW210894   0.632   7.113   2.037
 2979SOL     OW10895   1.650   7.306   3.256
 2979SOL    HW110896   1.703   7.316   3.172
 2979SOL    HW210897   1.623   7.396   3.290
 2980SOL     OW10898   0.263   5.912   2.582
 2980SOL    HW110899   0.184   5.963   2.548
 2980SOL    HW210900   0.254   5.897   2.680
 2981SOL     OW10901   1.194   7.198   1.893
 2981SOL    HW110902   1.200   7.105   1.930
 2981SOL    HW210903   1.135   7.198   1.813
 2982SOL     OW10904   0.822   6.588   3.234
 2982SOL    HW110905   0.862   6.587   3.142
 2982SOL    HW210906   0.832   6.680   3.274
 2983SOL     OW10907   0.916   6.496   2.153
 2983SOL    HW110908   0.979   6.534   2.085
 2983SOL    HW210909   0.956   6.413   2.192
 2984SOL     OW10910   1.504   7.193   1.906
 2984SOL    HW110911   1.412   7.230   1.913
 2984SOL    HW210912   1.542   7.213   1.816
 2985SOL     OW10913   0.372   6.874   3.352
 2985SOL    HW110914   0.359   6.967   3.318
 2985SOL    HW210915   0.288   6.822   3.339
 2986SOL     OW10916   1.614   6.878   3.151
 2986SOL    HW110917   1.674   6.881   3.231
 2986SOL    HW210918   1.539   6.942   3.164
 2987SOL     OW10919   1.039   6.684   2.558
 2987SOL    HW110920   0.969   6.637   2.612
 2987SOL    HW210921   1.098   6.616   2.515
 2988SOL     OW10922   1.014   5.822   2.833
 2988SOL    HW110923   1.006   5.786   2.740
 2988SOL    HW210924   1.012   5.746   2.898
 2989SOL     OW10925   0.590   7.073   2.353
 2989SOL    HW110926   0.632   7.015   2.283
 2989SOL    HW210927   0.546   7.152   2.309
 2990SOL     OW10928   1.709   5.971   3.243
 2990SOL    HW110929   1.782   6.040   3.247
 2990SOL    HW210930   1.737   5.896   3.184
 2991SOL     OW10931   0.255   6.934   2.152
 2991SOL    HW110932   0.159   6.935   2.125
 2991SOL    HW210933   0.267   6.987   2.236
 2992SOL     OW10934   0.672   5.789   3.351
 2992SOL    HW110935   0.762   5.773   3.311
 2992SOL    HW210936   0.680   5.794   3.450
 2993SOL     OW10937   1.440   6.442   3.260
 2993SOL    HW110938   1.383   6.494   3.197
 2993SOL    HW210939   1.536   6.454   3.236
 2994SOL     OW10940   1.183   6.921   1.981
 2994SOL    HW110941   1.084   6.910   1.983
 2994SOL    HW210942   1.217   6.936   2.074
 2995SOL     OW10943   0.613   6.428   3.293
 2995SOL    HW110944   0.669   6.509   3.276
 2995SOL    HW210945   0.672   6.348   3.296
 2996SOL     OW10946   1.493   7.353   2.821
 2996SOL    HW110947   1.526   7.417   2.752
 2996SOL    HW210948   1.559   7.347   2.896
 2997SOL     OW10949   0.716   6.151   3.570
 2997SOL    HW110950   0.735   6.216   3.644
 2997SOL    HW210951   0.776   6.071   3.579
 2998SOL     OW10952   1.450   6.806   3.495
 2998SOL    HW110953   1.441   6.796   3.594
 2998SOL    HW210954   1.546   6.799   3.469
 2999SOL     OW10955   0.390   7.327   3.422
 2999SOL    HW110956   0.299   7.368   3.420
 2999SOL    HW210957   0.383   7.233   3.454
 3000SOL     OW10958   1.674   6.469   3.116
 3000SOL    HW110959   1.647   6.380   3.079
 3000SOL    HW210960   1.675   6.537   3.043
 3001SOL     OW10961   1.225   5.911   2.311
 3001SOL    HW110962   1.290   5.837   2.300
 3001SOL    HW210963   1.245   5.961   2.395
 3002SOL     OW10964   0.594   6.331   2.514
 3002SOL    HW110965   0.644   6.416   2.495
 3002SOL    HW210966   0.506   6.333   2.466
 3003SOL     OW10967   1.777   5.928   3.504
 3003SOL    HW110968   1.760   5.959   3.410
 3003SOL    HW210969   1.693   5.891   3.542
 3004SOL     OW10970   1.730   6.520   3.379
 3004SOL    HW110971   1.768   6.611   3.394
 3004SOL    HW210972   1.722   6.503   3.280
 3005SOL     OW10973   0.859   6.960   1.878
 3005SOL    HW110974   0.813   6.975   1.966
 3005SOL    HW210975   0.903   7.045   1.848
 3006SOL     OW10976   0.661   7.376   2.815
 3006SOL    HW110977   0.615   7.464   2.802
 3006SOL    HW210978   0.760   7.388   2.808
 3007SOL     OW10979   1.408   7.437   3.582
 3007SOL    HW110980   1.312   7.426   3.555
 3007SOL    HW210981   1.464   7.370   3.534
 3008SOL     OW10982   0.859   6.542   2.723
 3008SOL    HW110983   0.913   6.473   2.771
 3008SOL    HW210984   0.827   6.611   2.789
 3009SOL     OW10985   1.083   6.570   1.949
 3009SOL    HW110986   1.060   6.623   1.867
 3009SOL    HW210987   1.164   6.514   1.930
 3010SOL     OW10988   1.861   7.155   2.713
 3010SOL    HW110989   1.790   7.143   2.643
 3010SOL    HW210990   1.862   7.076   2.773
 3011SOL     OW10991   0.672   6.977   3.486
 3011SOL    HW110992   0.594   6.927   3.524
 3011SOL    HW210993   0.669   7.072   3.517
 3012SOL     OW10994   1.824   5.778   3.089
 3012SOL    HW110995   1.820   5.688   3.133
 3012SOL    HW210996   1.827   5.767   2.990
 3013SOL     OW10997   0.428   6.010   2.382
 3013SOL    HW110998   0.458   5.938   2.320
 3013SOL    HW210999   0.389   5.970   2.465
 3014SOL     OW11000   1.705   7.073   2.966
 3014SOL    HW111001   1.612   7.048   2.939
 3014SOL    HW211002   1.731   7.023   3.048
 3015SOL     OW11003   0.812   7.172   2.549
 3015SOL    HW111004   0.844   7.182   2.455
 3015SOL    HW211005   0.733   7.110   2.551
 3016SOL     OW11006   1.424   5.800   2.974
 3016SOL    HW111007   1.476   5.735   3.029
 3016SOL    HW211008   1.375   5.863   3.035
 3017SOL     OW11009   1.001   5.620   3.016
 3017SOL    HW111010   0.938   5.548   2.985
 3017SOL    HW211011   1.094   5.584   3.016
 3018SOL     OW11012   0.770   6.916   2.163
 3018SOL    HW111013   0.724   6.829   2.180
 3018SOL    HW211014   0.861   6.913   2.204
 3019SOL     OW11015   0.618   7.153   3.146
 3019SOL    HW111016   0.613   7.235   3.203
 3019SOL    HW211017   0.707   7.150   3.101
 3020SOL     OW11018   1.300   6.039   2.553
 3020SOL    HW111019   1.241   6.119   2.557
 3020SOL    HW211020   1.315   6.004   2.646
 3021SOL     OW11021   0.875   7.232   2.199
 3021SOL    HW111022   0.798   7.197   2.145
 3021SOL    HW211023   0.843   7.303   2.261
 3022SOL     OW11024   0.019   5.954   4.371
 3022SOL    HW111025  -0.063   5.997   4.410
 3022SOL    HW211026  -0.009   5.881   4.308
 3023SOL     OW11027   0.569   6.861   4.889
 3023SOL    HW111028   0.476   6.854   4.852
 3023SOL    HW211029   0.580   6.950   4.933
 3024SOL     OW11030   1.555   7.097   4.427
 3024SOL    HW111031   1.498   7.081   4.508
 3024SOL    HW211032   1.496   7.107   4.347
 3025SOL     OW11033   1.743   6.204   4.580
 3025SOL    HW111034   1.776   6.298   4.580
 3025SOL    HW211035   1.794   6.150   4.646
 3026SOL     OW11036   1.135   6.289   4.441
 3026SOL    HW111037   1.192   6.367   4.416
 3026SOL    HW211038   1.075   6.315   4.517
 3027SOL     OW11039   1.755   6.193   3.955
 3027SOL    HW111040   1.743   6.180   3.856
 3027SOL    HW211041   1.725   6.112   4.004
 3028SOL     OW11042   0.768   6.730   4.747
 3028SOL    HW111043   0.690   6.747   4.807
 3028SOL    HW211044   0.802   6.817   4.711
 3029SOL     OW11045   0.850   6.384   5.547
 3029SOL    HW111046   0.846   6.460   5.612
 3029SOL    HW211047   0.872   6.420   5.456
 3030SOL     OW11048   0.685   6.598   4.389
 3030SOL    HW111049   0.754   6.582   4.459
 3030SOL    HW211050   0.612   6.655   4.427
 3031SOL     OW11051   0.686   6.747   5.527
 3031SOL    HW111052   0.746   6.826   5.541
 3031SOL    HW211053   0.600   6.778   5.486
 3032SOL     OW11054   0.335   7.021   4.785
 3032SOL    HW111055   0.257   6.990   4.732
 3032SOL    HW211056   0.393   7.079   4.728
 3033SOL     OW11057   1.460   7.091   5.063
 3033SOL    HW111058   1.484   7.185   5.089
 3033SOL    HW211059   1.444   7.037   5.145
 3034SOL     OW11060   0.438   5.978   5.223
 3034SOL    HW111061   0.520   5.922   5.232
 3034SOL    HW211062   0.357   5.920   5.227
 3035SOL     OW11063   1.603   6.033   4.461
 3035SOL    HW111064   1.529   6.079   4.411
 3035SOL    HW211065   1.654   6.101   4.514
 3036SOL     OW11066   1.127   6.927   5.414
 3036SOL    HW111067   1.174   6.927   5.502
 3036SOL    HW211068   1.079   6.840   5.403
 3037SOL     OW11069   0.620   7.372   5.163
 3037SOL    HW111070   0.528   7.355   5.198
 3037SOL    HW211071   0.648   7.464   5.189
 3038SOL     OW11072   0.606   6.550   3.847
 3038SOL    HW111073   0.613   6.634   3.793
 3038SOL    HW211074   0.652   6.563   3.935
 3039SOL     OW11075   1.594   5.700   5.204
 3039SOL    HW111076   1.576   5.767   5.132
 3039SOL    HW211077   1.591   5.746   5.293
 3040SOL     OW11078   1.842   7.353   4.083
 3040SOL    HW111079   1.896   7.324   4.163
 3040SOL    HW211080   1.872   7.443   4.054
 3041SOL     OW11081   1.689   6.508   4.336
 3041SOL    HW111082   1.784   6.479   4.344
 3041SOL    HW211083   1.681   6.573   4.261
 3042SOL     OW11084   1.641   6.694   4.156
 3042SOL    HW111085   1.727   6.696   4.104
 3042SOL    HW211086   1.655   6.741   4.244
 3043SOL     OW11087   0.613   6.951   4.450
 3043SOL    HW111088   0.564   6.864   4.459
 3043SOL    HW211089   0.590   6.994   4.363
 3044SOL     OW11090   1.293   6.814   5.147
 3044SOL    HW111091   1.330   6.741   5.089
 3044SOL    HW211092   1.345   6.819   5.232
 3045SOL     OW11093   0.809   5.590   4.226
 3045SOL    HW111094   0.849   5.681   4.217
 3045SOL    HW211095   0.709   5.598   4.232
 3046SOL     OW11096   1.525   6.585   3.914
 3046SOL    HW111097   1.462   6.509   3.927
 3046SOL    HW211098   1.573   6.603   4.000
 3047SOL     OW11099   1.187   7.378   5.340
 3047SOL    HW111100   1.211   7.438   5.264
 3047SOL    HW211101   1.194   7.283   5.310
 3048SOL     OW11102   0.317   5.837   5.525
 3048SOL    HW111103   0.388   5.908   5.531
 3048SOL    HW211104   0.229   5.876   5.553
 3049SOL     OW11105   1.466   7.003   4.677
 3049SOL    HW111106   1.407   7.009   4.757
 3049SOL    HW211107   1.451   6.915   4.631
 3050SOL     OW11108   1.667   7.300   4.296
 3050SOL    HW111109   1.626   7.277   4.208
 3050SOL    HW211110   1.649   7.226   4.361
 3051SOL     OW11111   0.598   6.315   3.994
 3051SOL    HW111112   0.622   6.384   3.926
 3051SOL    HW211113   0.520   6.348   4.048
 3052SOL     OW11114   1.281   5.931   4.668
 3052SOL    HW111115   1.195   5.881   4.655
 3052SOL    HW211116   1.343   5.877   4.724
 3053SOL     OW11117   1.576   7.248   4.031
 3053SOL    HW111118   1.665   7.294   4.034
 3053SOL    HW211119   1.555   7.224   3.936
 3054SOL     OW11120   0.807   6.191   5.189
 3054SOL    HW111121   0.760   6.188   5.278
 3054SOL    HW211122   0.756   6.136   5.123
 3055SOL     OW11123   1.394   6.055   5.398
 3055SOL    HW111124   1.374   6.098   5.486
 3055SOL    HW211125   1.472   5.993   5.407
 3056SOL     OW11126   0.973   6.476   5.296
 3056SOL    HW111127   1.019   6.392   5.267
 3056SOL    HW211128   0.917   6.510   5.221
 3057SOL     OW11129   0.991   5.996   4.966
 3057SOL    HW111130   0.914   6.030   5.020
 3057SOL    HW211131   0.957   5.945   4.887
 3058SOL     OW11132   1.041   6.287   4.153
 3058SOL    HW111133   1.067   6.283   4.249
 3058SOL    HW211134   0.956   6.236   4.139
 3059SOL     OW11135   0.865   5.934   3.919
 3059SOL    HW111136   0.924   5.997   3.870
 3059SOL    HW211137   0.884   5.840   3.890
 3060SOL     OW11138   1.719   6.171   5.555
 3060SOL    HW111139   1.693   6.260   5.519
 3060SOL    HW211140   1.717   6.103   5.482
 3061SOL     OW11141   1.362   6.730   4.269
 3061SOL    HW111142   1.445   6.701   4.221
 3061SOL    HW211143   1.313   6.797   4.213
 3062SOL     OW11144   0.550   5.782   4.609
 3062SOL    HW111145   0.545   5.777   4.709
 3062SOL    HW211146   0.552   5.878   4.580
 3063SOL     OW11147   1.008   7.042   4.201
 3063SOL    HW111148   0.962   7.114   4.149
 3063SOL    HW211149   1.004   7.062   4.299
 3064SOL     OW11150   0.351   7.387   4.577
 3064SOL    HW111151   0.401   7.301   4.583
 3064SOL    HW211152   0.416   7.464   4.574
 3065SOL     OW11153   1.795   6.652   4.597
 3065SOL    HW111154   1.733   6.637   4.521
 3065SOL    HW211155   1.743   6.663   4.682
 3066SOL     OW11156   1.227   7.136   5.230
 3066SOL    HW111157   1.233   7.059   5.294
 3066SOL    HW211158   1.175   7.110   5.150
 3067SOL     OW11159   0.321   6.529   3.966
 3067SOL    HW111160   0.403   6.568   3.924
 3067SOL    HW211161   0.294   6.447   3.917
 3068SOL     OW11162   1.458   6.321   4.452
 3068SOL    HW111163   1.453   6.256   4.527
 3068SOL    HW211164   1.538   6.380   4.465
 3069SOL     OW11165   0.461   6.852   5.451
 3069SOL    HW111166   0.411   6.853   5.365
 3069SOL    HW211167   0.398   6.834   5.527
 3070SOL     OW11168   1.111   7.362   3.961
 3070SOL    HW111169   1.051   7.300   4.011
 3070SOL    HW211170   1.142   7.318   3.876
 3071SOL     OW11171   1.632   6.963   3.805
 3071SOL    HW111172   1.600   7.057   3.795
 3071SOL    HW211173   1.556   6.900   3.793
 3072SOL     OW11174   0.464   7.329   4.047
 3072SOL    HW111175   0.497   7.368   4.133
 3072SOL    HW211176   0.540   7.322   3.982
 3073SOL     OW11177   1.400   5.693   4.150
 3073SOL    HW111178   1.376   5.656   4.060
 3073SOL    HW211179   1.499   5.709   4.154
 3074SOL     OW11180   0.940   7.284   4.628
 3074SOL    HW111181   1.020   7.227   4.649
 3074SOL    HW211182   0.891   7.244   4.551
 3075SOL     OW11183   0.382   6.286   4.204
 3075SOL    HW111184   0.427   6.196   4.201
 3075SOL    HW211185   0.288   6.275   4.237
 3076SOL     OW11186   1.547   5.808   5.453
 3076SOL    HW111187   1.542   5.845   5.545
 3076SOL    HW211188   1.475   5.739   5.441
 3077SOL     OW11189   0.614   5.708   3.841
 3077SOL    HW111190   0.712   5.686   3.848
 3077SOL    HW211191   0.583   5.691   3.748
 3078SOL     OW11192   0.781   5.850   5.473
 3078SOL    HW111193   0.848   5.789   5.516
 3078SOL    HW211194   0.708   5.869   5.538
 3079SOL     OW11195   0.888   7.100   4.919
 3079SOL    HW111196   0.865   7.075   4.825
 3079SOL    HW211197   0.949   7.031   4.958
 3080SOL     OW11198   1.351   6.176   5.157
 3080SOL    HW111199   1.379   6.133   5.242
 3080SOL    HW211200   1.376   6.272   5.158
 3081SOL     OW11201   0.803   6.988   4.648
 3081SOL    HW111202   0.893   7.002   4.606
 3081SOL    HW211203   0.732   6.990   4.577
 3082SOL     OW11204   0.922   6.089   4.623
 3082SOL    HW111205   0.897   6.080   4.527
 3082SOL    HW211206   0.970   6.007   4.654
 3083SOL     OW11207   0.539   5.650   4.236
 3083SOL    HW111208   0.458   5.651   4.294
 3083SOL    HW211209   0.542   5.733   4.181
 3084SOL     OW11210   1.434   6.774   3.765
 3084SOL    HW111211   1.466   6.698   3.822
 3084SOL    HW211212   1.342   6.801   3.795
 3085SOL     OW11213   0.297   5.621   3.895
 3085SOL    HW111214   0.346   5.705   3.874
 3085SOL    HW211215   0.359   5.556   3.940
 3086SOL     OW11216   0.935   5.822   4.204
 3086SOL    HW111217   0.887   5.863   4.126
 3086SOL    HW211218   1.034   5.820   4.185
 3087SOL     OW11219   1.076   6.269   5.188
 3087SOL    HW111220   0.996   6.208   5.191
 3087SOL    HW211221   1.157   6.216   5.164
 3088SOL     OW11222   1.227   7.156   4.517
 3088SOL    HW111223   1.248   7.230   4.452
 3088SOL    HW211224   1.295   7.156   4.590
 3089SOL     OW11225   0.459   6.738   4.465
 3089SOL    HW111226   0.388   6.711   4.530
 3089SOL    HW211227   0.433   6.710   4.372
 3090SOL     OW11228   1.271   7.383   4.315
 3090SOL    HW111229   1.315   7.447   4.251
 3090SOL    HW211230   1.221   7.435   4.385
 3091SOL     OW11231   1.032   6.135   3.740
 3091SOL    HW111232   0.991   6.217   3.701
 3091SOL    HW211233   1.096   6.161   3.813
 3092SOL     OW11234   0.561   5.808   4.871
 3092SOL    HW111235   0.599   5.724   4.908
 3092SOL    HW211236   0.473   5.827   4.915
 3093SOL     OW11237   0.866   6.040   4.366
 3093SOL    HW111238   0.834   6.112   4.304
 3093SOL    HW211239   0.890   5.959   4.313
 3094SOL     OW11240   1.017   5.625   4.477
 3094SOL    HW111241   0.945   5.630   4.408
 3094SOL    HW211242   0.993   5.556   4.546
 3095SOL     OW11243   1.429   6.759   4.591
 3095SOL    HW111244   1.374   6.675   4.584
 3095SOL    HW211245   1.455   6.788   4.499
 3096SOL     OW11246   1.466   6.176   4.716
 3096SOL    HW111247   1.436   6.081   4.723
 3096SOL    HW211248   1.539   6.192   4.782
 3097SOL     OW11249   1.857   6.419   4.101
 3097SOL    HW111250   1.899   6.355   4.165
 3097SOL    HW211251   1.819   6.368   4.023
 3098SOL     OW11252   0.488   6.971   3.898
 3098SOL    HW111253   0.401   6.956   3.945
 3098SOL    HW211254   0.471   6.997   3.803
 3099SOL     OW11255   1.664   6.866   4.381
 3099SOL    HW111256   1.763   6.874   4.395
 3099SOL    HW211257   1.619   6.950   4.412
 3100SOL     OW11258   1.390   6.161   3.802
 3100SOL    HW111259   1.336   6.140   3.883
 3100SOL    HW211260   1.481   6.120   3.811
 3101SOL     OW11261   0.527   5.842   4.052
 3101SOL    HW111262   0.554   5.783   3.977
 3101SOL    HW211263   0.527   5.937   4.021
 3102SOL     OW11264   1.754   6.809   5.312
 3102SOL    HW111265   1.845   6.770   5.299
 3102SOL    HW211266   1.762   6.905   5.336
 3103SOL     OW11267   1.064   6.933   5.064
 3103SOL    HW111268   0.984   6.910   5.119
 3103SOL    HW211269   1.147   6.907   5.113
 3104SOL     OW11270   1.592   7.215   5.349
 3104SOL    HW111271   1.619   7.249   5.259
 3104SOL    HW211272   1.671   7.177   5.395
 3105SOL     OW11273   1.111   6.781   4.824
 3105SOL    HW111274   1.071   6.825   4.905
 3105SOL    HW211275   1.070   6.818   4.741
 3106SOL     OW11276   1.638   6.685   4.803
 3106SOL    HW111277   1.643   6.766   4.862
 3106SOL    HW211278   1.552   6.687   4.752
 3107SOL     OW11279   0.915   5.675   5.126
 3107SOL    HW111280   0.940   5.655   5.031
 3107SOL    HW211281   0.987   5.731   5.168
 3108SOL     OW11282   0.980   6.702   5.443
 3108SOL    HW111283   0.881   6.708   5.453
 3108SOL    HW211284   1.003   6.622   5.387
 3109SOL     OW11285   0.705   6.636   4.092
 3109SOL    HW111286   0.691   6.643   4.191
 3109SOL    HW211287   0.789   6.585   4.074
 3110SOL     OW11288   0.410   6.399   4.975
 3110SOL    HW111289   0.496   6.411   5.025
 3110SOL    HW211290   0.368   6.312   5.002
 3111SOL     OW11291   1.274   5.972   4.986
 3111SOL    HW111292   1.295   6.046   5.050
 3111SOL    HW211293   1.185   5.989   4.943
 3112SOL     OW11294   0.367   6.686   4.225
 3112SOL    HW111295   0.360   6.769   4.169
 3112SOL    HW211296   0.371   6.606   4.165
 3113SOL     OW11297   0.566   6.123   4.589
 3113SOL    HW111298   0.578   6.189   4.515
 3113SOL    HW211299   0.612   6.157   4.672
 3114SOL     OW11300   1.252   6.934   4.112
 3114SOL    HW111301   1.302   7.011   4.152
 3114SOL    HW211302   1.157   6.936   4.144
 3115SOL     OW11303   1.272   7.031   4.866
 3115SOL    HW111304   1.319   7.044   4.953
 3115SOL    HW211305   1.206   6.957   4.875
 3116SOL     OW11306   1.582   6.225   4.196
 3116SOL    HW111307   1.551   6.286   4.269
 3116SOL    HW211308   1.632   6.277   4.127
 3117SOL     OW11309   0.354   7.096   5.053
 3117SOL    HW111310   0.333   7.052   4.966
 3117SOL    HW211311   0.451   7.122   5.056
 3118SOL     OW11312   0.402   6.337   5.322
 3118SOL    HW111313   0.470   6.392   5.275
 3118SOL    HW211314   0.442   6.249   5.349
 3119SOL     OW11315   1.587   6.365   5.394
 3119SOL    HW111316   1.495   6.403   5.389
 3119SOL    HW211317   1.647   6.412   5.329
 3120SOL     OW11318   1.013   5.691   5.494
 3120SOL    HW111319   1.019   5.776   5.442
 3120SOL    HW211320   1.045   5.615   5.437
 3121SOL     OW11321   0.504   5.636   5.464
 3121SOL    HW111322   0.462   5.579   5.394
 3121SOL    HW211323   0.438   5.705   5.496
 3122SOL     OW11324   0.573   6.456   4.753
 3122SOL    HW111325   0.617   6.545   4.744
 3122SOL    HW211326   0.510   6.456   4.830
 3123SOL     OW11327   1.360   6.448   4.769
 3123SOL    HW111328   1.285   6.448   4.703
 3123SOL    HW211329   1.397   6.356   4.778
 3124SOL     OW11330   1.209   6.111   3.999
 3124SOL    HW111331   1.222   6.027   4.053
 3124SOL    HW211332   1.180   6.185   4.059
 3125SOL     OW11333   0.732   6.220   4.788
 3125SOL    HW111334   0.791   6.194   4.712
 3125SOL    HW211335   0.704   6.316   4.777
 3126SOL     OW11336   1.728   6.521   5.578
 3126SOL    HW111337   1.682   6.514   5.489
 3126SOL    HW211338   1.666   6.565   5.644
 3127SOL     OW11339   0.307   5.649   4.342
 3127SOL    HW111340   0.296   5.743   4.375
 3127SOL    HW211341   0.302   5.586   4.419
 3128SOL     OW11342   1.622   5.953   4.098
 3128SOL    HW111343   1.624   5.877   4.162
 3128SOL    HW211344   1.574   6.030   4.138
 3129SOL     OW11345   1.023   6.352   4.690
 3129SOL    HW111346   1.038   6.373   4.786
 3129SOL    HW211347   0.993   6.257   4.681
 3130SOL     OW11348   0.980   7.159   5.424
 3130SOL    HW111349   0.960   7.203   5.336
 3130SOL    HW211350   1.019   7.068   5.408
 3131SOL     OW11351   1.859   7.104   5.329
 3131SOL    HW111352   1.873   7.131   5.234
 3131SOL    HW211353   1.942   7.126   5.382
 3132SOL     OW11354   0.350   6.484   5.528
 3132SOL    HW111355   0.426   6.528   5.576
 3132SOL    HW211356   0.385   6.437   5.446
 3133SOL     OW11357   1.540   5.860   3.849
 3133SOL    HW111358   1.479   5.785   3.872
 3133SOL    HW211359   1.562   5.912   3.932
 3134SOL     OW11360   1.303   6.424   3.766
 3134SOL    HW111361   1.337   6.331   3.781
 3134SOL    HW211362   1.321   6.451   3.671
 3135SOL     OW11363   1.068   6.919   4.573
 3135SOL    HW111364   1.075   6.835   4.518
 3135SOL    HW211365   1.130   6.988   4.537
 3136SOL     OW11366   0.319   6.396   4.673
 3136SOL    HW111367   0.412   6.432   4.678
 3136SOL    HW211368   0.313   6.311   4.725
 3137SOL     OW11369   1.138   5.966   5.402
 3137SOL    HW111370   1.093   6.029   5.466
 3137SOL    HW211371   1.231   5.997   5.385
 3138SOL     OW11372   1.160   5.793   5.201
 3138SOL    HW111373   1.160   5.857   5.278
 3138SOL    HW211374   1.188   5.841   5.118
 3139SOL     OW11375   0.504   7.154   4.634
 3139SOL    HW111376   0.570   7.228   4.643
 3139SOL    HW211377   0.548   7.075   4.592
 3140SOL     OW11378   1.002   6.382   4.962
 3140SOL    HW111379   1.043   6.350   5.048
 3140SOL    HW211380   0.906   6.355   4.959
 3141SOL     OW11381   1.369   6.536   5.384
 3141SOL    HW111382   1.408   6.625   5.404
 3141SOL    HW211383   1.379   6.516   5.287
 3142SOL     OW11384   0.815   6.158   4.049
 3142SOL    HW111385   0.822   6.069   4.003
 3142SOL    HW211386   0.721   6.192   4.041
 3143SOL     OW11387   1.657   6.190   4.930
 3143SOL    HW111388   1.619   6.121   4.992
 3143SOL    HW211389   1.739   6.154   4.886
 3144SOL     OW11390   0.671   6.050   4.993
 3144SOL    HW111391   0.637   5.961   4.963
 3144SOL    HW211392   0.697   6.104   4.913
 3145SOL     OW11393   0.930   7.264   5.189
 3145SOL    HW111394   0.906   7.246   5.094
 3145SOL    HW211395   0.960   7.358   5.199
 3146SOL     OW11396   0.473   6.086   3.915
 3146SOL    HW111397   0.534   6.166   3.919
 3146SOL    HW211398   0.378   6.117   3.922
 3147SOL     OW11399   1.347   6.645   4.958
 3147SOL    HW111400   1.371   6.582   4.884
 3147SOL    HW211401   1.257   6.685   4.940
 3148SOL     OW11402   1.302   6.441   4.033
 3148SOL    HW111403   1.216   6.410   4.075
 3148SOL    HW211404   1.298   6.427   3.934
 3149SOL     OW11405   1.759   7.333   4.878
 3149SOL    HW111406   1.820   7.363   4.805
 3149SOL    HW211407   1.721   7.244   4.856
 3150SOL     OW11408   1.252   7.317   4.852
 3150SOL    HW111409   1.336   7.322   4.798
 3150SOL    HW211410   1.229   7.221   4.870
 3151SOL     OW11411   0.688   7.248   5.440
 3151SOL    HW111412   0.632   7.329   5.449
 3151SOL    HW211413   0.740   7.252   5.354
 3152SOL     OW11414   0.903   5.672   3.857
 3152SOL    HW111415   0.954   5.673   3.771
 3152SOL    HW211416   0.959   5.630   3.928
 3153SOL     OW11417   1.726   5.721   4.247
 3153SOL    HW111418   1.799   5.704   4.180
 3153SOL    HW211419   1.695   5.634   4.285
 3154SOL     OW11420   1.388   7.159   4.201
 3154SOL    HW111421   1.455   7.171   4.127
 3154SOL    HW211422   1.348   7.248   4.224
 3155SOL     OW11423   0.130   7.380   5.575
 3155SOL    HW111424   0.089   7.306   5.628
 3155SOL    HW211425   0.194   7.431   5.633
 3156SOL     OW11426   1.280   6.513   4.396
 3156SOL    HW111427   1.340   6.432   4.398
 3156SOL    HW211428   1.320   6.582   4.336
 3157SOL     OW11429   0.830   6.859   5.146
 3157SOL    HW111430   0.825   6.892   5.241
 3157SOL    HW211431   0.744   6.878   5.100
 3158SOL     OW11432   0.672   7.202   3.878
 3158SOL    HW111433   0.681   7.212   3.779
 3158SOL    HW211434   0.632   7.113   3.899
 3159SOL     OW11435   1.650   7.306   5.118
 3159SOL    HW111436   1.703   7.316   5.034
 3159SOL    HW211437   1.623   7.396   5.152
 3160SOL     OW11438   1.841   5.761   4.687
 3160SOL    HW111439   1.880   5.676   4.651
 3160SOL    HW211440   1.743   5.763   4.668
 3161SOL     OW11441   0.263   5.912   4.444
 3161SOL    HW111442   0.184   5.963   4.410
 3161SOL    HW211443   0.254   5.897   4.542
 3162SOL     OW11444   1.194   7.198   3.755
 3162SOL    HW111445   1.200   7.105   3.792
 3162SOL    HW211446   1.135   7.198   3.675
 3163SOL     OW11447   0.822   6.588   5.096
 3163SOL    HW111448   0.862   6.587   5.004
 3163SOL    HW211449   0.832   6.680   5.136
 3164SOL     OW11450   0.916   6.496   4.015
 3164SOL    HW111451   0.979   6.534   3.947
 3164SOL    HW211452   0.956   6.413   4.054
 3165SOL     OW11453   1.504   7.193   3.768
 3165SOL    HW111454   1.412   7.230   3.775
 3165SOL    HW211455   1.542   7.213   3.678
 3166SOL     OW11456   0.372   6.874   5.214
 3166SOL    HW111457   0.359   6.967   5.180
 3166SOL    HW211458   0.288   6.822   5.201
 3167SOL     OW11459   1.614   6.878   5.013
 3167SOL    HW111460   1.674   6.881   5.093
 3167SOL    HW211461   1.539   6.942   5.026
 3168SOL     OW11462   1.039   6.684   4.420
 3168SOL    HW111463   0.969   6.637   4.474
 3168SOL    HW211464   1.098   6.616   4.377
 3169SOL     OW11465   1.014   5.822   4.695
 3169SOL    HW111466   1.006   5.786   4.602
 3169SOL    HW211467   1.012   5.746   4.760
 3170SOL     OW11468   0.590   7.073   4.215
 3170SOL    HW111469   0.632   7.015   4.145
 3170SOL    HW211470   0.546   7.152   4.171
 3171SOL     OW11471   1.709   5.971   5.105
 3171SOL    HW111472   1.782   6.040   5.109
 3171SOL    HW211473   1.737   5.896   5.046
 3172SOL     OW11474   0.255   6.934   4.014
 3172SOL    HW111475   0.159   6.935   3.987
 3172SOL    HW211476   0.267   6.987   4.098
 3173SOL     OW11477   0.672   5.789   5.213
 3173SOL    HW111478   0.762   5.773   5.173
 3173SOL    HW211479   0.680   5.794   5.312
 3174SOL     OW11480   1.440   6.442   5.122
 3174SOL    HW111481   1.383   6.494   5.059
 3174SOL    HW211482   1.536   6.454   5.098
 3175SOL     OW11483   1.183   6.921   3.843
 3175SOL    HW111484   1.084   6.910   3.845
 3175SOL    HW211485   1.217   6.936   3.936
 3176SOL     OW11486   0.613   6.428   5.155
 3176SOL    HW111487   0.669   6.509   5.138
 3176SOL    HW211488   0.672   6.348   5.158
 3177SOL     OW11489   1.493   7.353   4.683
 3177SOL    HW111490   1.526   7.417   4.614
 3177SOL    HW211491   1.559   7.347   4.758
 3178SOL     OW11492   0.716   6.151   5.432
 3178SOL    HW111493   0.735   6.216   5.506
 3178SOL    HW211494   0.776   6.071   5.441
 3179SOL     OW11495   1.450   6.806   5.357
 3179SOL    HW111496   1.441   6.796   5.456
 3179SOL    HW211497   1.546   6.799   5.331
 3180SOL     OW11498   0.390   7.327   5.284
 3180SOL    HW111499   0.299   7.368   5.282
 3180SOL    HW211500   0.383   7.233   5.316
 3181SOL     OW11501   1.674   6.469   4.978
 3181SOL    HW111502   1.647   6.380   4.941
 3181SOL    HW211503   1.675   6.537   4.905
 3182SOL     OW11504   1.225   5.911   4.173
 3182SOL    HW111505   1.290   5.837   4.162
 3182SOL    HW211506   1.245   5.961   4.257
 3183SOL     OW11507   0.594   6.331   4.376
 3183SOL    HW111508   0.644   6.416   4.357
 3183SOL    HW211509   0.506   6.333   4.328
 3184SOL     OW11510   1.777   5.928   5.366
 3184SOL    HW111511   1.760   5.959   5.272
 3184SOL    HW211512   1.693   5.891   5.404
 3185SOL     OW11513   1.730   6.520   5.241
 3185SOL    HW111514   1.768   6.611   5.256
 3185SOL    HW211515   1.722   6.503   5.142
 3186SOL     OW11516   0.859   6.960   3.740
 3186SOL    HW111517   0.813   6.975   3.828
 3186SOL    HW211518   0.903   7.045   3.710
 3187SOL     OW11519   0.661   7.376   4.677
 3187SOL    HW111520   0.615   7.464   4.664
 3187SOL    HW211521   0.760   7.388   4.670
 3188SOL     OW11522   1.408   7.437   5.444
 3188SOL    HW111523   1.312   7.426   5.417
 3188SOL    HW211524   1.464   7.370   5.396
 3189SOL     OW11525   0.859   6.542   4.585
 3189SOL    HW111526   0.913   6.473   4.633
 3189SOL    HW211527   0.827   6.611   4.651
 3190SOL     OW11528   1.083   6.570   3.811
 3190SOL    HW111529   1.060   6.623   3.729
 3190SOL    HW211530   1.164   6.514   3.792
 3191SOL     OW11531   1.861   7.155   4.575
 3191SOL    HW111532   1.790   7.143   4.505
 3191SOL    HW211533   1.862   7.076   4.635
 3192SOL     OW11534   0.672   6.977   5.348
 3192SOL    HW111535   0.594   6.927   5.386
 3192SOL    HW211536   0.669   7.072   5.379
 3193SOL     OW11537   1.824   5.778   4.951
 3193SOL    HW111538   1.820   5.688   4.995
 3193SOL    HW211539   1.827   5.767   4.852
 3194SOL     OW11540   0.428   6.010   4.244
 3194SOL    HW111541   0.458   5.938   4.182
 3194SOL    HW211542   0.389   5.970   4.327
 3195SOL     OW11543   1.705   7.073   4.828
 3195SOL    HW111544   1.612   7.048   4.801
 3195SOL    HW211545   1.731   7.023   4.910
 3196SOL     OW11546   0.812   7.172   4.411
 3196SOL    HW111547   0.844   7.182   4.317
 3196SOL    HW211548   0.733   7.110   4.413
 3197SOL     OW11549   1.424   5.800   4.836
 3197SOL    HW111550   1.476   5.735   4.891
 3197SOL    HW211551   1.375   5.863   4.897
 3198SOL     OW11552   1.001   5.620   4.878
 3198SOL    HW111553   0.938   5.548   4.847
 3198SOL    HW211554   1.094   5.584   4.878
 3199SOL     OW11555   0.770   6.916   4.025
 3199SOL    HW111556   0.724   6.829   4.042
 3199SOL    HW211557   0.861   6.913   4.066
 3200SOL     OW11558   0.618   7.153   5.008
 3200SOL    HW111559   0.613   7.235   5.065
 3200SOL    HW211560   0.707   7.150   4.963
 3201SOL     OW11561   1.352   5.638   3.892
 3201SOL    HW111562   1.387   5.597   3.808
 3201SOL    HW211563   1.262   5.600   3.912
 3202SOL     OW11564   1.300   6.039   4.415
 3202SOL    HW111565   1.241   6.119   4.419
 3202SOL    HW211566   1.315   6.004   4.508
 3203SOL     OW11567   1.593   5.807   4.606
 3203SOL    HW111568   1.509   5.806   4.660
 3203SOL    HW211569   1.595   5.890   4.550
 3204SOL     OW11570   0.875   7.232   4.061
 3204SOL    HW111571   0.798   7.197   4.007
 3204SOL    HW211572   0.843   7.303   4.123
 3205SOL     OW11573   0.019   5.954   6.233
 3205SOL    HW111574  -0.063   5.997   6.272
 3205SOL    HW211575  -0.009   5.881   6.170
 3206SOL     OW11576   0.569   6.861   6.751
 3206SOL    HW111577   0.476   6.854   6.714
 3206SOL    HW211578   0.580   6.950   6.795
 3207SOL     OW11579   1.555   7.097   6.289
 3207SOL    HW111580   1.498   7.081   6.370
 3207SOL    HW211581   1.496   7.107   6.209
 3208SOL     OW11582   1.743   6.204   6.442
 3208SOL    HW111583   1.776   6.298   6.442
 3208SOL    HW211584   1.794   6.150   6.508
 3209SOL     OW11585   1.135   6.289   6.303
 3209SOL    HW111586   1.192   6.367   6.278
 3209SOL    HW211587   1.075   6.315   6.379
 3210SOL     OW11588   1.755   6.193   5.817
 3210SOL    HW111589   1.743   6.180   5.718
 3210SOL    HW211590   1.725   6.112   5.866
 3211SOL     OW11591   0.768   6.730   6.609
 3211SOL    HW111592   0.690   6.747   6.669
 3211SOL    HW211593   0.802   6.817   6.573
 3212SOL     OW11594   0.850   6.384   7.409
 3212SOL    HW111595   0.846   6.460   7.474
 3212SOL    HW211596   0.872   6.420   7.318
 3213SOL     OW11597   0.685   6.598   6.251
 3213SOL    HW111598   0.754   6.582   6.321
 3213SOL    HW211599   0.612   6.655   6.289
 3214SOL     OW11600   0.686   6.747   7.389
 3214SOL    HW111601   0.746   6.826   7.403
 3214SOL    HW211602   0.600   6.778   7.348
 3215SOL     OW11603   0.335   7.021   6.647
 3215SOL    HW111604   0.257   6.990   6.594
 3215SOL    HW211605   0.393   7.079   6.590
 3216SOL     OW11606   1.460   7.091   6.925
 3216SOL    HW111607   1.484   7.185   6.951
 3216SOL    HW211608   1.444   7.037   7.007
 3217SOL     OW11609   0.438   5.978   7.085
 3217SOL    HW111610   0.520   5.922   7.094
 3217SOL    HW211611   0.357   5.920   7.089
 3218SOL     OW11612   1.603   6.033   6.323
 3218SOL    HW111613   1.529   6.079   6.273
 3218SOL    HW211614   1.654   6.101   6.376
 3219SOL     OW11615   1.127   6.927   7.276
 3219SOL    HW111616   1.174   6.927   7.364
 3219SOL    HW211617   1.079   6.840   7.265
 3220SOL     OW11618   0.620   7.372   7.025
 3220SOL    HW111619   0.528   7.355   7.060
 3220SOL    HW211620   0.648   7.464   7.051
 3221SOL     OW11621   0.606   6.550   5.709
 3221SOL    HW111622   0.613   6.634   5.655
 3221SOL    HW211623   0.652   6.563   5.797
 3222SOL     OW11624   1.594   5.700   7.066
 3222SOL    HW111625   1.576   5.767   6.994
 3222SOL    HW211626   1.591   5.746   7.155
 3223SOL     OW11627   1.842   7.353   5.945
 3223SOL    HW111628   1.896   7.324   6.025
 3223SOL    HW211629   1.872   7.443   5.916
 3224SOL     OW11630   1.689   6.508   6.198
 3224SOL    HW111631   1.784   6.479   6.206
 3224SOL    HW211632   1.681   6.573   6.123
 3225SOL     OW11633   1.641   6.694   6.018
 3225SOL    HW111634   1.727   6.696   5.966
 3225SOL    HW211635   1.655   6.741   6.106
 3226SOL     OW11636   0.613   6.951   6.312
 3226SOL    HW111637   0.564   6.864   6.321
 3226SOL    HW211638   0.590   6.994   6.225
 3227SOL     OW11639   1.293   6.814   7.009
 3227SOL    HW111640   1.330   6.741   6.951
 3227SOL    HW211641   1.345   6.819   7.094
 3228SOL     OW11642   0.809   5.590   6.088
 3228SOL    HW111643   0.849   5.681   6.079
 3228SOL    HW211644   0.709   5.598   6.094
 3229SOL     OW11645   1.525   6.585   5.776
 3229SOL    HW111646   1.462   6.509   5.789
 3229SOL    HW211647   1.573   6.603   5.862
 3230SOL     OW11648   1.187   7.378   7.202
 3230SOL    HW111649   1.211   7.438   7.126
 3230SOL    HW211650   1.194   7.283   7.172
 3231SOL     OW11651   0.317   5.837   7.387
 3231SOL    HW111652   0.388   5.908   7.393
 3231SOL    HW211653   0.229   5.876   7.415
 3232SOL     OW11654   1.466   7.003   6.539
 3232SOL    HW111655   1.407   7.009   6.619
 3232SOL    HW211656   1.451   6.915   6.493
 3233SOL     OW11657   1.667   7.300   6.158
 3233SOL    HW111658   1.626   7.277   6.070
 3233SOL    HW211659   1.649   7.226   6.223
 3234SOL     OW11660   0.598   6.315   5.856
 3234SOL    HW111661   0.622   6.384   5.788
 3234SOL    HW211662   0.520   6.348   5.910
 3235SOL     OW11663   1.281   5.931   6.530
 3235SOL    HW111664   1.195   5.881   6.517
 3235SOL    HW211665   1.343   5.877   6.586
 3236SOL     OW11666   1.576   7.248   5.893
 3236SOL    HW111667   1.665   7.294   5.896
 3236SOL    HW211668   1.555   7.224   5.798
 3237SOL     OW11669   0.807   6.191   7.051
 3237SOL    HW111670   0.760   6.188   7.140
 3237SOL    HW211671   0.756   6.136   6.985
 3238SOL     OW11672   1.394   6.055   7.260
 3238SOL    HW111673   1.374   6.098   7.348
 3238SOL    HW211674   1.472   5.993   7.269
 3239SOL     OW11675   0.973   6.476   7.158
 3239SOL    HW111676   1.019   6.392   7.129
 3239SOL    HW211677   0.917   6.510   7.083
 3240SOL     OW11678   0.991   5.996   6.828
 3240SOL    HW111679   0.914   6.030   6.882
 3240SOL    HW211680   0.957   5.945   6.749
 3241SOL     OW11681   1.041   6.287   6.015
 3241SOL    HW111682   1.067   6.283   6.111
 3241SOL    HW211683   0.956   6.236   6.001
 3242SOL     OW11684   0.865   5.934   5.781
 3242SOL    HW111685   0.924   5.997   5.732
 3242SOL    HW211686   0.884   5.840   5.752
 3243SOL     OW11687   1.719   6.171   7.417
 3243SOL    HW111688   1.693   6.260   7.381
 3243SOL    HW211689   1.717   6.103   7.344
 3244SOL     OW11690   1.362   6.730   6.131
 3244SOL    HW111691   1.445   6.701   6.083
 3244SOL    HW211692   1.313   6.797   6.075
 3245SOL     OW11693   0.550   5.782   6.471
 3245SOL    HW111694   0.545   5.777   6.571
 3245SOL    HW211695   0.552   5.878   6.442
 3246SOL     OW11696   1.008   7.042   6.063
 3246SOL    HW111697   0.962   7.114   6.011
 3246SOL    HW211698   1.004   7.062   6.161
 3247SOL     OW11699   0.351   7.387   6.439
 3247SOL    HW111700   0.401   7.301   6.445
 3247SOL    HW211701   0.416   7.464   6.436
 3248SOL     OW11702   1.795   6.652   6.459
 3248SOL    HW111703   1.733   6.637   6.383
 3248SOL    HW211704   1.743   6.663   6.544
 3249SOL     OW11705   1.227   7.136   7.092
 3249SOL    HW111706   1.233   7.059   7.156
 3249SOL    HW211707   1.175   7.110   7.012
 3250SOL     OW11708   0.321   6.529   5.828
 3250SOL    HW111709   0.403   6.568   5.786
 3250SOL    HW211710   0.294   6.447   5.779
 3251SOL     OW11711   1.458   6.321   6.314
 3251SOL    HW111712   1.453   6.256   6.389
 3251SOL    HW211713   1.538   6.380   6.327
 3252SOL     OW11714   0.461   6.852   7.313
 3252SOL    HW111715   0.411   6.853   7.227
 3252SOL    HW211716   0.398   6.834   7.389
 3253SOL     OW11717   1.111   7.362   5.823
 3253SOL    HW111718   1.051   7.300   5.873
 3253SOL    HW211719   1.142   7.318   5.738
 3254SOL     OW11720   1.632   6.963   5.667
 3254SOL    HW111721   1.600   7.057   5.657
 3254SOL    HW211722   1.556   6.900   5.655
 3255SOL     OW11723   0.464   7.329   5.909
 3255SOL    HW111724   0.497   7.368   5.995
 3255SOL    HW211725   0.540   7.322   5.844
 3256SOL     OW11726   1.400   5.693   6.012
 3256SOL    HW111727   1.376   5.656   5.922
 3256SOL    HW211728   1.499   5.709   6.016
 3257SOL     OW11729   0.940   7.284   6.490
 3257SOL    HW111730   1.020   7.227   6.511
 3257SOL    HW211731   0.891   7.244   6.413
 3258SOL     OW11732   0.382   6.286   6.066
 3258SOL    HW111733   0.427   6.196   6.063
 3258SOL    HW211734   0.288   6.275   6.099
 3259SOL     OW11735   1.547   5.808   7.315
 3259SOL    HW111736   1.542   5.845   7.407
 3259SOL    HW211737   1.475   5.739   7.303
 3260SOL     OW11738   0.614   5.708   5.703
 3260SOL    HW111739   0.712   5.686   5.710
 3260SOL    HW211740   0.583   5.691   5.610
 3261SOL     OW11741   0.781   5.850   7.335
 3261SOL    HW111742   0.848   5.789   7.378
 3261SOL    HW211743   0.708   5.869   7.400
 3262SOL     OW11744   0.888   7.100   6.781
 3262SOL    HW111745   0.865   7.075   6.687
 3262SOL    HW211746   0.949   7.031   6.820
 3263SOL     OW11747   1.351   6.176   7.019
 3263SOL    HW111748   1.379   6.133   7.104
 3263SOL    HW211749   1.376   6.272   7.020
 3264SOL     OW11750   0.803   6.988   6.510
 3264SOL    HW111751   0.893   7.002   6.468
 3264SOL    HW211752   0.732   6.990   6.439
 3265SOL     OW11753   0.922   6.089   6.485
 3265SOL    HW111754   0.897   6.080   6.389
 3265SOL    HW211755   0.970   6.007   6.516
 3266SOL     OW11756   0.539   5.650   6.098
 3266SOL    HW111757   0.458   5.651   6.156
 3266SOL    HW211758   0.542   5.733   6.043
 3267SOL     OW11759   1.434   6.774   5.627
 3267SOL    HW111760   1.466   6.698   5.684
 3267SOL    HW211761   1.342   6.801   5.657
 3268SOL     OW11762   0.297   5.621   5.757
 3268SOL    HW111763   0.346   5.705   5.736
 3268SOL    HW211764   0.359   5.556   5.802
 3269SOL     OW11765   0.935   5.822   6.066
 3269SOL    HW111766   0.887   5.863   5.988
 3269SOL    HW211767   1.034   5.820   6.047
 3270SOL     OW11768   1.076   6.269   7.050
 3270SOL    HW111769   0.996   6.208   7.053
 3270SOL    HW211770   1.157   6.216   7.026
 3271SOL     OW11771   1.227   7.156   6.379
 3271SOL    HW111772   1.248   7.230   6.314
 3271SOL    HW211773   1.295   7.156   6.452
 3272SOL     OW11774   0.459   6.738   6.327
 3272SOL    HW111775   0.388   6.711   6.392
 3272SOL    HW211776   0.433   6.710   6.234
 3273SOL     OW11777   1.271   7.383   6.177
 3273SOL    HW111778   1.315   7.447   6.113
 3273SOL    HW211779   1.221   7.435   6.247
 3274SOL     OW11780   1.032   6.135   5.602
 3274SOL    HW111781   0.991   6.217   5.563
 3274SOL    HW211782   1.096   6.161   5.675
 3275SOL     OW11783   0.561   5.808   6.733
 3275SOL    HW111784   0.599   5.724   6.770
 3275SOL    HW211785   0.473   5.827   6.777
 3276SOL     OW11786   0.866   6.040   6.228
 3276SOL    HW111787   0.834   6.112   6.166
 3276SOL    HW211788   0.890   5.959   6.175
 3277SOL     OW11789   1.017   5.625   6.339
 3277SOL    HW111790   0.945   5.630   6.270
 3277SOL    HW211791   0.993   5.556   6.408
 3278SOL     OW11792   1.429   6.759   6.453
 3278SOL    HW111793   1.374   6.675   6.446
 3278SOL    HW211794   1.455   6.788   6.361
 3279SOL     OW11795   1.466   6.176   6.578
 3279SOL    HW111796   1.436   6.081   6.585
 3279SOL    HW211797   1.539   6.192   6.644
 3280SOL     OW11798   1.857   6.419   5.963
 3280SOL    HW111799   1.899   6.355   6.027
 3280SOL    HW211800   1.819   6.368   5.885
 3281SOL     OW11801   0.488   6.971   5.760
 3281SOL    HW111802   0.401   6.956   5.807
 3281SOL    HW211803   0.471   6.997   5.665
 3282SOL     OW11804   1.664   6.866   6.243
 3282SOL    HW111805   1.763   6.874   6.257
 3282SOL    HW211806   1.619   6.950   6.274
 3283SOL     OW11807   1.390   6.161   5.664
 3283SOL    HW111808   1.336   6.140   5.745
 3283SOL    HW211809   1.481   6.120   5.673
 3284SOL     OW11810   0.527   5.842   5.914
 3284SOL    HW111811   0.554   5.783   5.839
 3284SOL    HW211812   0.527   5.937   5.883
 3285SOL     OW11813   1.754   6.809   7.174
 3285SOL    HW111814   1.845   6.770   7.161
 3285SOL    HW211815   1.762   6.905   7.198
 3286SOL     OW11816   1.064   6.933   6.926
 3286SOL    HW111817   0.984   6.910   6.981
 3286SOL    HW211818   1.147   6.907   6.975
 3287SOL     OW11819   1.592   7.215   7.211
 3287SOL    HW111820   1.619   7.249   7.121
 3287SOL    HW211821   1.671   7.177   7.257
 3288SOL     OW11822   1.111   6.781   6.686
 3288SOL    HW111823   1.071   6.825   6.767
 3288SOL    HW211824   1.070   6.818   6.603
 3289SOL     OW11825   1.638   6.685   6.665
 3289SOL    HW111826   1.643   6.766   6.724
 3289SOL    HW211827   1.552   6.687   6.614
 3290SOL     OW11828   0.915   5.675   6.988
 3290SOL    HW111829   0.940   5.655   6.893
 3290SOL    HW211830   0.987   5.731   7.030
 3291SOL     OW11831   0.980   6.702   7.305
 3291SOL    HW111832   0.881   6.708   7.315
 3291SOL    HW211833   1.003   6.622   7.249
 3292SOL     OW11834   0.705   6.636   5.954
 3292SOL    HW111835   0.691   6.643   6.053
 3292SOL    HW211836   0.789   6.585   5.936
 3293SOL     OW11837   0.410   6.399   6.837
 3293SOL    HW111838   0.496   6.411   6.887
 3293SOL    HW211839   0.368   6.312   6.864
 3294SOL     OW11840   1.274   5.972   6.848
 3294SOL    HW111841   1.295   6.046   6.912
 3294SOL    HW211842   1.185   5.989   6.805
 3295SOL     OW11843   0.367   6.686   6.087
 3295SOL    HW111844   0.360   6.769   6.031
 3295SOL    HW211845   0.371   6.606   6.027
 3296SOL     OW11846   0.566   6.123   6.451
 3296SOL    HW111847   0.578   6.189   6.377
 3296SOL    HW211848   0.612   6.157   6.534
 3297SOL     OW11849   1.252   6.934   5.974
 3297SOL    HW111850   1.302   7.011   6.014
 3297SOL    HW211851   1.157   6.936   6.006
 3298SOL     OW11852   1.272   7.031   6.728
 3298SOL    HW111853   1.319   7.044   6.815
 3298SOL    HW211854   1.206   6.957   6.737
 3299SOL     OW11855   1.582   6.225   6.058
 3299SOL    HW111856   1.551   6.286   6.131
 3299SOL    HW211857   1.632   6.277   5.989
 3300SOL     OW11858   0.354   7.096   6.915
 3300SOL    HW111859   0.333   7.052   6.828
 3300SOL    HW211860   0.451   7.122   6.918
 3301SOL     OW11861   0.402   6.337   7.184
 3301SOL    HW111862   0.470   6.392   7.137
 3301SOL    HW211863   0.442   6.249   7.211
 3302SOL     OW11864   1.587   6.365   7.256
 3302SOL    HW111865   1.495   6.403   7.251
 3302SOL    HW211866   1.647   6.412   7.191
 3303SOL     OW11867   1.013   5.691   7.356
 3303SOL    HW111868   1.019   5.776   7.304
 3303SOL    HW211869   1.045   5.615   7.299
 3304SOL     OW11870   0.504   5.636   7.326
 3304SOL    HW111871   0.462   5.579   7.256
 3304SOL    HW211872   0.438   5.705   7.358
 3305SOL     OW11873   0.573   6.456   6.615
 3305SOL    HW111874   0.617   6.545   6.606
 3305SOL    HW211875   0.510   6.456   6.692
 3306SOL     OW11876   1.360   6.448   6.631
 3306SOL    HW111877   1.285   6.448   6.565
 3306SOL    HW211878   1.397   6.356   6.640
 3307SOL     OW11879   1.209   6.111   5.861
 3307SOL    HW111880   1.222   6.027   5.915
 3307SOL    HW211881   1.180   6.185   5.921
 3308SOL     OW11882   0.732   6.220   6.650
 3308SOL    HW111883   0.791   6.194   6.574
 3308SOL    HW211884   0.704   6.316   6.639
 3309SOL     OW11885   1.728   6.521   7.440
 3309SOL    HW111886   1.682   6.514   7.351
 3309SOL    HW211887   1.666   6.565   7.506
 3310SOL     OW11888   0.307   5.649   6.204
 3310SOL    HW111889   0.296   5.743   6.237
 3310SOL    HW211890   0.302   5.586   6.281
 3311SOL     OW11891   1.622   5.953   5.960
 3311SOL    HW111892   1.624   5.877   6.024
 3311SOL    HW211893   1.574   6.030   6.000
 3312SOL     OW11894   1.023   6.352   6.552
 3312SOL    HW111895   1.038   6.373   6.648
 3312SOL    HW211896   0.993   6.257   6.543
 3313SOL     OW11897   0.980   7.159   7.286
 3313SOL    HW111898   0.960   7.203   7.198
 3313SOL    HW211899   1.019   7.068   7.270
 3314SOL     OW11900   1.859   7.104   7.191
 3314SOL    HW111901   1.873   7.131   7.096
 3314SOL    HW211902   1.942   7.126   7.244
 3315SOL     OW11903   0.350   6.484   7.390
 3315SOL    HW111904   0.426   6.528   7.438
 3315SOL    HW211905   0.385   6.437   7.308
 3316SOL     OW11906   1.540   5.860   5.711
 3316SOL    HW111907   1.479   5.785   5.734
 3316SOL    HW211908   1.562   5.912   5.794
 3317SOL     OW11909   1.303   6.424   5.628
 3317SOL    HW111910   1.337   6.331   5.643
 3317SOL    HW211911   1.321   6.451   5.533
 3318SOL     OW11912   1.068   6.919   6.435
 3318SOL    HW111913   1.075   6.835   6.380
 3318SOL    HW211914   1.130   6.988   6.399
 3319SOL     OW11915   0.319   6.396   6.535
 3319SOL    HW111916   0.412   6.432   6.540
 3319SOL    HW211917   0.313   6.311   6.587
 3320SOL     OW11918   1.138   5.966   7.264
 3320SOL    HW111919   1.093   6.029   7.328
 3320SOL    HW211920   1.231   5.997   7.247
 3321SOL     OW11921   1.160   5.793   7.063
 3321SOL    HW111922   1.160   5.857   7.140
 3321SOL    HW211923   1.188   5.841   6.980
 3322SOL     OW11924   0.504   7.154   6.496
 3322SOL    HW111925   0.570   7.228   6.505
 3322SOL    HW211926   0.548   7.075   6.454
 3323SOL     OW11927   1.002   6.382   6.824
 3323SOL    HW111928   1.043   6.350   6.910
 3323SOL    HW211929   0.906   6.355   6.821
 3324SOL     OW11930   1.369   6.536   7.246
 3324SOL    HW111931   1.408   6.625   7.266
 3324SOL    HW211932   1.379   6.516   7.149
 3325SOL     OW11933   0.815   6.158   5.911
 3325SOL    HW111934   0.822   6.069   5.865
 3325SOL    HW211935   0.721   6.192   5.903
 3326SOL     OW11936   1.657   6.190   6.792
 3326SOL    HW111937   1.619   6.121   6.854
 3326SOL    HW211938   1.739   6.154   6.748
 3327SOL     OW11939   0.671   6.050   6.855
 3327SOL    HW111940   0.637   5.961   6.825
 3327SOL    HW211941   0.697   6.104   6.775
 3328SOL     OW11942   0.930   7.264   7.051
 3328SOL    HW111943   0.906   7.246   6.956
 3328SOL    HW211944   0.960   7.358   7.061
 3329SOL     OW11945   0.473   6.086   5.777
 3329SOL    HW111946   0.534   6.166   5.781
 3329SOL    HW211947   0.378   6.117   5.784
 3330SOL     OW11948   1.347   6.645   6.820
 3330SOL    HW111949   1.371   6.582   6.746
 3330SOL    HW211950   1.257   6.685   6.802
 3331SOL     OW11951   1.302   6.441   5.895
 3331SOL    HW111952   1.216   6.410   5.937
 3331SOL    HW211953   1.298   6.427   5.796
 3332SOL     OW11954   1.759   7.333   6.740
 3332SOL    HW111955   1.820   7.363   6.667
 3332SOL    HW211956   1.721   7.244   6.718
 3333SOL     OW11957   1.252   7.317   6.714
 3333SOL    HW111958   1.336   7.322   6.660
 3333SOL    HW211959   1.229   7.221   6.732
 3334SOL     OW11960   0.688   7.248   7.302
 3334SOL    HW111961   0.632   7.329   7.311
 3334SOL    HW211962   0.740   7.252   7.216
 3335SOL     OW11963   0.903   5.672   5.719
 3335SOL    HW111964   0.954   5.673   5.633
 3335SOL    HW211965   0.959   5.630   5.790
 3336SOL     OW11966   1.726   5.721   6.109
 3336SOL    HW111967   1.799   5.704   6.042
 3336SOL    HW211968   1.695   5.634   6.147
 3337SOL     OW11969   1.388   7.159   6.063
 3337SOL    HW111970   1.455   7.171   5.989
 3337SOL    HW211971   1.348   7.248   6.086
 3338SOL     OW11972   0.130   7.380   7.437
 3338SOL    HW111973   0.089   7.306   7.490
 3338SOL    HW211974   0.194   7.431   7.495
 3339SOL     OW11975   1.280   6.513   6.258
 3339SOL    HW111976   1.340   6.432   6.260
 3339SOL    HW211977   1.320   6.582   6.198
 3340SOL     OW11978   0.830   6.859   7.008
 3340SOL    HW111979   0.825   6.892   7.103
 3340SOL    HW211980   0.744   6.878   6.962
 3341SOL     OW11981   0.672   7.202   5.740
 3341SOL    HW111982   0.681   7.212   5.641
 3341SOL    HW211983   0.632   7.113   5.761
 3342SOL     OW11984   1.650   7.306   6.980
 3342SOL    HW111985   1.703   7.316   6.896
 3342SOL    HW211986   1.623   7.396   7.014
 3343SOL     OW11987   1.841   5.761   6.549
 3343SOL    HW111988   1.880   5.676   6.513
 3343SOL    HW211989   1.743   5.763   6.530
 3344SOL     OW11990   0.263   5.912   6.306
 3344SOL    HW111991   0.184   5.963   6.272
 3344SOL    HW211992   0.254   5.897   6.404
 3345SOL     OW11993   1.194   7.198   5.617
 3345SOL    HW111994   1.200   7.105   5.654
 3345SOL    HW211995   1.135   7.198   5.537
 3346SOL     OW11996   0.822   6.588   6.958
 3346SOL    HW111997   0.862   6.587   6.866
 3346SOL    HW211998   0.832   6.680   6.998
 3347SOL     OW11999   0.916   6.496   5.877
 3347SOL    HW112000   0.979   6.534   5.809
 3347SOL    HW212001   0.956   6.413   5.916
 3348SOL     OW12002   1.504   7.193   5.630
 3348SOL    HW112003   1.412   7.230   5.637
 3348SOL    HW212004   1.542   7.213   5.540
 3349SOL     OW12005   0.372   6.874   7.076
 3349SOL    HW112006   0.359   6.967   7.042
 3349SOL    HW212007   0.288   6.822   7.063
 3350SOL     OW12008   1.614   6.878   6.875
 3350SOL    HW112009   1.674   6.881   6.955
 3350SOL    HW212010   1.539   6.942   6.888
 3351SOL     OW12011   1.039   6.684   6.282
 3351SOL    HW112012   0.969   6.637   6.336
 3351SOL    HW212013   1.098   6.616   6.239
 3352SOL     OW12014   1.014   5.822   6.557
 3352SOL    HW112015   1.006   5.786   6.464
 3352SOL    HW212016   1.012   5.746   6.622
 3353SOL     OW12017   0.590   7.073   6.077
 3353SOL    HW112018   0.632   7.015   6.007
 3353SOL    HW212019   0.546   7.152   6.033
 3354SOL     OW12020   1.709   5.971   6.967
 3354SOL    HW112021   1.782   6.040   6.971
 3354SOL    HW212022   1.737   5.896   6.908
 3355SOL     OW12023   0.255   6.934   5.876
 3355SOL    HW112024   0.159   6.935   5.849
 3355SOL    HW212025   0.267   6.987   5.960
 3356SOL     OW12026   0.672   5.789   7.075
 3356SOL    HW112027   0.762   5.773   7.035
 3356SOL    HW212028   0.680   5.794   7.174
 3357SOL     OW12029   1.440   6.442   6.984
 3357SOL    HW112030   1.383   6.494   6.921
 3357SOL    HW212031   1.536   6.454   6.960
 3358SOL     OW12032   1.183   6.921   5.705
 3358SOL    HW112033   1.084   6.910   5.707
 3358SOL    HW212034   1.217   6.936   5.798
 3359SOL     OW12035   0.613   6.428   7.017
 3359SOL    HW112036   0.669   6.509   7.000
 3359SOL    HW212037   0.672   6.348   7.020
 3360SOL     OW12038   1.493   7.353   6.545
 3360SOL    HW112039   1.526   7.417   6.476
 3360SOL    HW212040   1.559   7.347   6.620
 3361SOL     OW12041   0.716   6.151   7.294
 3361SOL    HW112042   0.735   6.216   7.368
 3361SOL    HW212043   0.776   6.071   7.303
 3362SOL     OW12044   1.450   6.806   7.219
 3362SOL    HW112045   1.441   6.796   7.318
 3362SOL    HW212046   1.546   6.799   7.193
 3363SOL     OW12047   0.390   7.327   7.146
 3363SOL    HW112048   0.299   7.368   7.144
 3363SOL    HW212049   0.383   7.233   7.178
 3364SOL     OW12050   1.674   6.469   6.840
 3364SOL    HW112051   1.647   6.380   6.803
 3364SOL    HW212052   1.675   6.537   6.767
 3365SOL     OW12053   1.225   5.911   6.035
 3365SOL    HW112054   1.290   5.837   6.024
 3365SOL    HW212055   1.245   5.961   6.119
 3366SOL     OW12056   0.594   6.331   6.238
 3366SOL    HW112057   0.644   6.416   6.219
 3366SOL    HW212058   0.506   6.333   6.190
 3367SOL     OW12059   1.777   5.928   7.228
 3367SOL    HW112060   1.760   5.959   7.134
 3367SOL    HW212061   1.693   5.891   7.266
 3368SOL     OW12062   1.730   6.520   7.103
 3368SOL    HW112063   1.768   6.611   7.118
 3368SOL    HW212064   1.722   6.503   7.004
 3369SOL     OW12065   0.859   6.960   5.602
 3369SOL    HW112066   0.813   6.975   5.690
 3369SOL    HW212067   0.903   7.045   5.572
 3370SOL     OW12068   0.661   7.376   6.539
 3370SOL    HW112069   0.615   7.464   6.526
 3370SOL    HW212070   0.760   7.388   6.532
 3371SOL     OW12071   1.408   7.437   7.306
 3371SOL    HW112072   1.312   7.426   7.279
 3371SOL    HW212073   1.464   7.370   7.258
 3372SOL     OW12074   0.859   6.542   6.447
 3372SOL    HW112075   0.913   6.473   6.495
 3372SOL    HW212076   0.827   6.611   6.513
 3373SOL     OW12077   1.083   6.570   5.673
 3373SOL    HW112078   1.060   6.623   5.591
 3373SOL    HW212079   1.164   6.514   5.654
 3374SOL     OW12080   1.861   7.155   6.437
 3374SOL    HW112081   1.790   7.143   6.367
 3374SOL    HW212082   1.862   7.076   6.497
 3375SOL     OW12083   0.672   6.977   7.210
 3375SOL    HW112084   0.594   6.927   7.248
 3375SOL    HW212085   0.669   7.072   7.241
 3376SOL     OW12086   1.824   5.778   6.813
 3376SOL    HW112087   1.820   5.688   6.857
 3376SOL    HW212088   1.827   5.767   6.714
 3377SOL     OW12089   0.428   6.010   6.106
 3377SOL    HW112090   0.458   5.938   6.044
 3377SOL    HW212091   0.389   5.970   6.189
 3378SOL     OW12092   1.705   7.073   6.690
 3378SOL    HW112093   1.612   7.048   6.663
 3378SOL    HW212094   1.731   7.023   6.772
 3379SOL     OW12095   0.812   7.172   6.273
 3379SOL    HW112096   0.844   7.182   6.179
 3379SOL    HW212097   0.733   7.110   6.275
 3380SOL     OW12098   1.424   5.800   6.698
 3380SOL    HW112099   1.476   5.735   6.753
 3380SOL    HW212100   1.375   5.863   6.759
 3381SOL     OW12101   1.001   5.620   6.740
 3381SOL    HW112102   0.938   5.548   6.709
 3381SOL    HW212103   1.094   5.584   6.740
 3382SOL     OW12104   0.770   6.916   5.887
 3382SOL    HW112105   0.724   6.829   5.904
 3382SOL    HW212106   0.861   6.913   5.928
 3383SOL     OW12107   0.618   7.153   6.870
 3383SOL    HW112108   0.613   7.235   6.927
 3383SOL    HW212109   0.707   7.150   6.825
 3384SOL     OW12110   1.352   5.638   5.754
 3384SOL    HW112111   1.387   5.597   5.670
 3384SOL    HW212112   1.262   5.600   5.774
 3385SOL     OW12113   1.300   6.039   6.277
 3385SOL    HW112114   1.241   6.119   6.281
 3385SOL    HW212115   1.315   6.004   6.370
 3386SOL     OW12116   1.593   5.807   6.468
 3386SOL    HW112117   1.509   5.806   6.522
 3386SOL    HW212118   1.595   5.890   6.412
 3387SOL     OW12119   0.875   7.232   5.923
 3387SOL    HW112120   0.798   7.197   5.869
 3387SOL    HW212121   0.843   7.303   5.985
 3388SOL     OW12122   0.019   5.954   8.095
 3388SOL    HW112123  -0.063   5.997   8.134
 3388SOL    HW212124  -0.009   5.881   8.032
 3389SOL     OW12125   0.569   6.861   8.613
 3389SOL    HW112126   0.476   6.854   8.576
 3389SOL    HW212127   0.580   6.950   8.657
 3390SOL     OW12128   1.555   7.097   8.151
 3390SOL    HW112129   1.498   7.081   8.232
 3390SOL    HW212130   1.496   7.107   8.071
 3391SOL     OW12131   1.743   6.204   8.304
 3391SOL    HW112132   1.776   6.298   8.304
 3391SOL    HW212133   1.794   6.150   8.370
 3392SOL     OW12134   1.135   6.289   8.165
 3392SOL    HW112135   1.192   6.367   8.140
 3392SOL    HW212136   1.075   6.315   8.241
 3393SOL     OW12137   1.755   6.193   7.679
 3393SOL    HW112138   1.743   6.180   7.580
 3393SOL    HW212139   1.725   6.112   7.728
 3394SOL     OW12140   0.768   6.730   8.471
 3394SOL    HW112141   0.690   6.747   8.531
 3394SOL    HW212142   0.802   6.817   8.435
 3395SOL     OW12143   0.685   6.598   8.113
 3395SOL    HW112144   0.754   6.582   8.183
 3395SOL    HW212145   0.612   6.655   8.151
 3396SOL     OW12146   0.335   7.021   8.509
 3396SOL    HW112147   0.257   6.990   8.456
 3396SOL    HW212148   0.393   7.079   8.452
 3397SOL     OW12149   1.460   7.091   8.787
 3397SOL    HW112150   1.484   7.185   8.813
 3397SOL    HW212151   1.444   7.037   8.869
 3398SOL     OW12152   0.438   5.978   8.947
 3398SOL    HW112153   0.520   5.922   8.956
 3398SOL    HW212154   0.357   5.920   8.951
 3399SOL     OW12155   1.603   6.033   8.185
 3399SOL    HW112156   1.529   6.079   8.135
 3399SOL    HW212157   1.654   6.101   8.238
 3400SOL     OW12158   0.620   7.372   8.887
 3400SOL    HW112159   0.528   7.355   8.922
 3400SOL    HW212160   0.648   7.464   8.913
 3401SOL     OW12161   0.606   6.550   7.571
 3401SOL    HW112162   0.613   6.634   7.517
 3401SOL    HW212163   0.652   6.563   7.659
 3402SOL     OW12164   1.594   5.700   8.928
 3402SOL    HW112165   1.576   5.767   8.856
 3402SOL    HW212166   1.591   5.746   9.017
 3403SOL     OW12167   1.842   7.353   7.807
 3403SOL    HW112168   1.896   7.324   7.887
 3403SOL    HW212169   1.872   7.443   7.778
 3404SOL     OW12170   1.689   6.508   8.060
 3404SOL    HW112171   1.784   6.479   8.068
 3404SOL    HW212172   1.681   6.573   7.985
 3405SOL     OW12173   1.641   6.694   7.880
 3405SOL    HW112174   1.727   6.696   7.828
 3405SOL    HW212175   1.655   6.741   7.968
 3406SOL     OW12176   0.613   6.951   8.174
 3406SOL    HW112177   0.564   6.864   8.183
 3406SOL    HW212178   0.590   6.994   8.087
 3407SOL     OW12179   0.809   5.590   7.950
 3407SOL    HW112180   0.849   5.681   7.941
 3407SOL    HW212181   0.709   5.598   7.956
 3408SOL     OW12182   1.525   6.585   7.638
 3408SOL    HW112183   1.462   6.509   7.651
 3408SOL    HW212184   1.573   6.603   7.724
 3409SOL     OW12185   1.466   7.003   8.401
 3409SOL    HW112186   1.407   7.009   8.481
 3409SOL    HW212187   1.451   6.915   8.355
 3410SOL     OW12188   1.667   7.300   8.020
 3410SOL    HW112189   1.626   7.277   7.932
 3410SOL    HW212190   1.649   7.226   8.085
 3411SOL     OW12191   0.598   6.315   7.718
 3411SOL    HW112192   0.622   6.384   7.650
 3411SOL    HW212193   0.520   6.348   7.772
 3412SOL     OW12194   1.281   5.931   8.392
 3412SOL    HW112195   1.195   5.881   8.379
 3412SOL    HW212196   1.343   5.877   8.448
 3413SOL     OW12197   1.576   7.248   7.755
 3413SOL    HW112198   1.665   7.294   7.758
 3413SOL    HW212199   1.555   7.224   7.660
 3414SOL     OW12200   0.807   6.191   8.913
 3414SOL    HW112201   0.760   6.188   9.002
 3414SOL    HW212202   0.756   6.136   8.847
 3415SOL     OW12203   0.991   5.996   8.690
 3415SOL    HW112204   0.914   6.030   8.744
 3415SOL    HW212205   0.957   5.945   8.611
 3416SOL     OW12206   1.041   6.287   7.877
 3416SOL    HW112207   1.067   6.283   7.973
 3416SOL    HW212208   0.956   6.236   7.863
 3417SOL     OW12209   0.865   5.934   7.643
 3417SOL    HW112210   0.924   5.997   7.594
 3417SOL    HW212211   0.884   5.840   7.614
 3418SOL     OW12212   1.362   6.730   7.993
 3418SOL    HW112213   1.445   6.701   7.945
 3418SOL    HW212214   1.313   6.797   7.937
 3419SOL     OW12215   0.550   5.782   8.333
 3419SOL    HW112216   0.545   5.777   8.433
 3419SOL    HW212217   0.552   5.878   8.304
 3420SOL     OW12218   1.008   7.042   7.925
 3420SOL    HW112219   0.962   7.114   7.873
 3420SOL    HW212220   1.004   7.062   8.023
 3421SOL     OW12221   0.351   7.387   8.301
 3421SOL    HW112222   0.401   7.301   8.307
 3421SOL    HW212223   0.416   7.464   8.298
 3422SOL     OW12224   1.795   6.652   8.321
 3422SOL    HW112225   1.733   6.637   8.245
 3422SOL    HW212226   1.743   6.663   8.406
 3423SOL     OW12227   0.321   6.529   7.690
 3423SOL    HW112228   0.403   6.568   7.648
 3423SOL    HW212229   0.294   6.447   7.641
 3424SOL     OW12230   1.458   6.321   8.176
 3424SOL    HW112231   1.453   6.256   8.251
 3424SOL    HW212232   1.538   6.380   8.189
 3425SOL     OW12233   1.111   7.362   7.685
 3425SOL    HW112234   1.051   7.300   7.735
 3425SOL    HW212235   1.142   7.318   7.600
 3426SOL     OW12236   1.632   6.963   7.529
 3426SOL    HW112237   1.600   7.057   7.519
 3426SOL    HW212238   1.556   6.900   7.517
 3427SOL     OW12239   0.464   7.329   7.771
 3427SOL    HW112240   0.497   7.368   7.857
 3427SOL    HW212241   0.540   7.322   7.706
 3428SOL     OW12242   1.400   5.693   7.874
 3428SOL    HW112243   1.376   5.656   7.784
 3428SOL    HW212244   1.499   5.709   7.878
 3429SOL     OW12245   0.940   7.284   8.352
 3429SOL    HW112246   1.020   7.227   8.373
 3429SOL    HW212247   0.891   7.244   8.275
 3430SOL     OW12248   0.382   6.286   7.928
 3430SOL    HW112249   0.427   6.196   7.925
 3430SOL    HW212250   0.288   6.275   7.961
 3431SOL     OW12251   0.614   5.708   7.565
 3431SOL    HW112252   0.712   5.686   7.572
 3431SOL    HW212253   0.583   5.691   7.472
 3432SOL     OW12254   0.888   7.100   8.643
 3432SOL    HW112255   0.865   7.075   8.549
 3432SOL    HW212256   0.949   7.031   8.682
 3433SOL     OW12257   0.803   6.988   8.372
 3433SOL    HW112258   0.893   7.002   8.330
 3433SOL    HW212259   0.732   6.990   8.301
 3434SOL     OW12260   0.922   6.089   8.347
 3434SOL    HW112261   0.897   6.080   8.251
 3434SOL    HW212262   0.970   6.007   8.378
 3435SOL     OW12263   0.539   5.650   7.960
 3435SOL    HW112264   0.458   5.651   8.018
 3435SOL    HW212265   0.542   5.733   7.905
 3436SOL     OW12266   1.434   6.774   7.489
 3436SOL    HW112267   1.466   6.698   7.546
 3436SOL    HW212268   1.342   6.801   7.519
 3437SOL     OW12269   0.297   5.621   7.619
 3437SOL    HW112270   0.346   5.705   7.598
 3437SOL    HW212271   0.359   5.556   7.664
 3438SOL     OW12272   0.935   5.822   7.928
 3438SOL    HW112273   0.887   5.863   7.850
 3438SOL    HW212274   1.034   5.820   7.909
 3439SOL     OW12275   1.227   7.156   8.241
 3439SOL    HW112276   1.248   7.230   8.176
 3439SOL    HW212277   1.295   7.156   8.314
 3440SOL     OW12278   0.459   6.738   8.189
 3440SOL    HW112279   0.388   6.711   8.254
 3440SOL    HW212280   0.433   6.710   8.096
 3441SOL     OW12281   1.271   7.383   8.039
 3441SOL    HW112282   1.315   7.447   7.975
 3441SOL    HW212283   1.221   7.435   8.109
 3442SOL     OW12284   1.032   6.135   7.464
 3442SOL    HW112285   0.991   6.217   7.425
 3442SOL    HW212286   1.096   6.161   7.537
 3443SOL     OW12287   0.561   5.808   8.595
 3443SOL    HW112288   0.599   5.724   8.632
 3443SOL    HW212289   0.473   5.827   8.639
 3444SOL     OW12290   0.866   6.040   8.090
 3444SOL    HW112291   0.834   6.112   8.028
 3444SOL    HW212292   0.890   5.959   8.037
 3445SOL     OW12293   1.017   5.625   8.201
 3445SOL    HW112294   0.945   5.630   8.132
 3445SOL    HW212295   0.993   5.556   8.270
 3446SOL     OW12296   1.429   6.759   8.315
 3446SOL    HW112297   1.374   6.675   8.308
 3446SOL    HW212298   1.455   6.788   8.223
 3447SOL     OW12299   1.466   6.176   8.440
 3447SOL    HW112300   1.436   6.081   8.447
 3447SOL    HW212301   1.539   6.192   8.506
 3448SOL     OW12302   1.857   6.419   7.825
 3448SOL    HW112303   1.899   6.355   7.889
 3448SOL    HW212304   1.819   6.368   7.747
 3449SOL     OW12305   0.488   6.971   7.622
 3449SOL    HW112306   0.401   6.956   7.669
 3449SOL    HW212307   0.471   6.997   7.527
 3450SOL     OW12308   1.664   6.866   8.105
 3450SOL    HW112309   1.763   6.874   8.119
 3450SOL    HW212310   1.619   6.950   8.136
 3451SOL     OW12311   1.390   6.161   7.526
 3451SOL    HW112312   1.336   6.140   7.607
 3451SOL    HW212313   1.481   6.120   7.535
 3452SOL     OW12314   0.527   5.842   7.776
 3452SOL    HW112315   0.554   5.783   7.701
 3452SOL    HW212316   0.527   5.937   7.745
 3453SOL     OW12317   1.064   6.933   8.788
 3453SOL    HW112318   0.984   6.910   8.843
 3453SOL    HW212319   1.147   6.907   8.837
 3454SOL     OW12320   1.111   6.781   8.548
 3454SOL    HW112321   1.071   6.825   8.629
 3454SOL    HW212322   1.070   6.818   8.465
 3455SOL     OW12323   1.638   6.685   8.527
 3455SOL    HW112324   1.643   6.766   8.586
 3455SOL    HW212325   1.552   6.687   8.476
 3456SOL     OW12326   0.915   5.675   8.850
 3456SOL    HW112327   0.940   5.655   8.755
 3456SOL    HW212328   0.987   5.731   8.892
 3457SOL     OW12329   0.705   6.636   7.816
 3457SOL    HW112330   0.691   6.643   7.915
 3457SOL    HW212331   0.789   6.585   7.798
 3458SOL     OW12332   0.410   6.399   8.699
 3458SOL    HW112333   0.496   6.411   8.749
 3458SOL    HW212334   0.368   6.312   8.726
 3459SOL     OW12335   1.274   5.972   8.710
 3459SOL    HW112336   1.295   6.046   8.774
 3459SOL    HW212337   1.185   5.989   8.667
 3460SOL     OW12338   0.367   6.686   7.949
 3460SOL    HW112339   0.360   6.769   7.893
 3460SOL    HW212340   0.371   6.606   7.889
 3461SOL     OW12341   0.566   6.123   8.313
 3461SOL    HW112342   0.578   6.189   8.239
 3461SOL    HW212343   0.612   6.157   8.396
 3462SOL     OW12344   1.252   6.934   7.836
 3462SOL    HW112345   1.302   7.011   7.876
 3462SOL    HW212346   1.157   6.936   7.868
 3463SOL     OW12347   1.272   7.031   8.590
 3463SOL    HW112348   1.319   7.044   8.677
 3463SOL    HW212349   1.206   6.957   8.599
 3464SOL     OW12350   1.582   6.225   7.920
 3464SOL    HW112351   1.551   6.286   7.993
 3464SOL    HW212352   1.632   6.277   7.851
 3465SOL     OW12353   0.354   7.096   8.777
 3465SOL    HW112354   0.333   7.052   8.690
 3465SOL    HW212355   0.451   7.122   8.780
 3466SOL     OW12356   0.402   6.337   0.046
 3466SOL    HW112357   0.470   6.392  -0.001
 3466SOL    HW212358   0.442   6.249   0.073
 3467SOL     OW12359   1.587   6.365   0.118
 3467SOL    HW112360   1.495   6.403   0.113
 3467SOL    HW212361   1.647   6.412   0.053
 3468SOL     OW12362   0.573   6.456   8.477
 3468SOL    HW112363   0.617   6.545   8.468
 3468SOL    HW212364   0.510   6.456   8.554
 3469SOL     OW12365   1.360   6.448   8.493
 3469SOL    HW112366   1.285   6.448   8.427
 3469SOL    HW212367   1.397   6.356   8.502
 3470SOL     OW12368   1.209   6.111   7.723
 3470SOL    HW112369   1.222   6.027   7.777
 3470SOL    HW212370   1.180   6.185   7.783
 3471SOL     OW12371   0.732   6.220   8.512
 3471SOL    HW112372   0.791   6.194   8.436
 3471SOL    HW212373   0.704   6.316   8.501
 3472SOL     OW12374   0.307   5.649   8.066
 3472SOL    HW112375   0.296   5.743   8.099
 3472SOL    HW212376   0.302   5.586   8.143
 3473SOL     OW12377   1.622   5.953   7.822
 3473SOL    HW112378   1.624   5.877   7.886
 3473SOL    HW212379   1.574   6.030   7.862
 3474SOL     OW12380   1.023   6.352   8.414
 3474SOL    HW112381   1.038   6.373   8.510
 3474SOL    HW212382   0.993   6.257   8.405
 3475SOL     OW12383   0.980   7.159   0.148
 3475SOL    HW112384   0.960   7.203   0.060
 3475SOL    HW212385   1.019   7.068   0.132
 3476SOL     OW12386   1.859   7.104   0.053
 3476SOL    HW112387   1.873   7.131  -0.042
 3476SOL    HW212388   1.942   7.126   0.106
 3477SOL     OW12389   1.540   5.860   7.573
 3477SOL    HW112390   1.479   5.785   7.596
 3477SOL    HW212391   1.562   5.912   7.656
 3478SOL     OW12392   1.303   6.424   7.490
 3478SOL    HW112393   1.337   6.331   7.505
 3478SOL    HW212394   1.321   6.451   7.395
 3479SOL     OW12395   1.068   6.919   8.297
 3479SOL    HW112396   1.075   6.835   8.242
 3479SOL    HW212397   1.130   6.988   8.261
 3480SOL     OW12398   0.319   6.396   8.397
 3480SOL    HW112399   0.412   6.432   8.402
 3480SOL    HW212400   0.313   6.311   8.449
 3481SOL     OW12401   1.138   5.966   0.126
 3481SOL    HW112402   1.093   6.029   0.190
 3481SOL    HW212403   1.231   5.997   0.109
 3482SOL     OW12404   1.160   5.793   8.925
 3482SOL    HW112405   1.160   5.857   9.002
 3482SOL    HW212406   1.188   5.841   8.842
 3483SOL     OW12407   0.504   7.154   8.358
 3483SOL    HW112408   0.570   7.228   8.367
 3483SOL    HW212409   0.548   7.075   8.316
 3484SOL     OW12410   1.002   6.382   8.686
 3484SOL    HW112411   1.043   6.350   8.772
 3484SOL    HW212412   0.906   6.355   8.683
 3485SOL     OW12413   0.815   6.158   7.773
 3485SOL    HW112414   0.822   6.069   7.727
 3485SOL    HW212415   0.721   6.192   7.765
 3486SOL     OW12416   1.657   6.190   8.654
 3486SOL    HW112417   1.619   6.121   8.716
 3486SOL    HW212418   1.739   6.154   8.610
 3487SOL     OW12419   0.671   6.050   8.717
 3487SOL    HW112420   0.637   5.961   8.687
 3487SOL    HW212421   0.697   6.104   8.637
 3488SOL     OW12422   0.930   7.264   8.913
 3488SOL    HW112423   0.906   7.246   8.818
 3488SOL    HW212424   0.960   7.358   8.923
 3489SOL     OW12425   0.473   6.086   7.639
 3489SOL    HW112426   0.534   6.166   7.643
 3489SOL    HW212427   0.378   6.117   7.646
 3490SOL     OW12428   1.347   6.645   8.682
 3490SOL    HW112429   1.371   6.582   8.608
 3490SOL    HW212430   1.257   6.685   8.664
 3491SOL     OW12431   1.302   6.441   7.757
 3491SOL    HW112432   1.216   6.410   7.799
 3491SOL    HW212433   1.298   6.427   7.658
 3492SOL     OW12434   1.759   7.333   8.602
 3492SOL    HW112435   1.820   7.363   8.529
 3492SOL    HW212436   1.721   7.244   8.580
 3493SOL     OW12437   1.252   7.317   8.576
 3493SOL    HW112438   1.336   7.322   8.522
 3493SOL    HW212439   1.229   7.221   8.594
 3494SOL     OW12440   0.903   5.672   7.581
 3494SOL    HW112441   0.954   5.673   7.495
 3494SOL    HW212442   0.959   5.630   7.652
 3495SOL     OW12443   1.726   5.721   7.971
 3495SOL    HW112444   1.799   5.704   7.904
 3495SOL    HW212445   1.695   5.634   8.009
 3496SOL     OW12446   1.388   7.159   7.925
 3496SOL    HW112447   1.455   7.171   7.851
 3496SOL    HW212448   1.348   7.248   7.948
 3497SOL     OW12449   1.280   6.513   8.120
 3497SOL    HW112450   1.340   6.432   8.122
 3497SOL    HW212451   1.320   6.582   8.060
 3498SOL     OW12452   0.672   7.202   7.602
 3498SOL    HW112453   0.681   7.212   7.503
 3498SOL    HW212454   0.632   7.113   7.623
 3499SOL     OW12455   1.650   7.306   8.842
 3499SOL    HW112456   1.703   7.316   8.758
 3499SOL    HW212457   1.623   7.396   8.876
 3500SOL     OW12458   1.841   5.761   8.411
 3500SOL    HW112459   1.880   5.676   8.375
 3500SOL    HW212460   1.743   5.763   8.392
 3501SOL     OW12461   0.263   5.912   8.168
 3501SOL    HW112462   0.184   5.963   8.134
 3501SOL    HW212463   0.254   5.897   8.266
 3502SOL     OW12464   1.194   7.198   7.479
 3502SOL    HW112465   1.200   7.105   7.516
 3502SOL    HW212466   1.135   7.198   7.399
 3503SOL     OW12467   0.822   6.588   8.820
 3503SOL    HW112468   0.862   6.587   8.728
 3503SOL    HW212469   0.832   6.680   8.860
 3504SOL     OW12470   0.916   6.496   7.739
 3504SOL    HW112471   0.979   6.534   7.671
 3504SOL    HW212472   0.956   6.413   7.778
 3505SOL     OW12473   1.504   7.193   7.492
 3505SOL    HW112474   1.412   7.230   7.499
 3505SOL    HW212475   1.542   7.213   7.402
 3506SOL     OW12476   0.372   6.874   8.938
 3506SOL    HW112477   0.359   6.967   8.904
 3506SOL    HW212478   0.288   6.822   8.925
 3507SOL     OW12479   1.614   6.878   8.737
 3507SOL    HW112480   1.674   6.881   8.817
 3507SOL    HW212481   1.539   6.942   8.750
 3508SOL     OW12482   1.039   6.684   8.144
 3508SOL    HW112483   0.969   6.637   8.198
 3508SOL    HW212484   1.098   6.616   8.101
 3509SOL     OW12485   1.014   5.822   8.419
 3509SOL    HW112486   1.006   5.786   8.326
 3509SOL    HW212487   1.012   5.746   8.484
 3510SOL     OW12488   0.590   7.073   7.939
 3510SOL    HW112489   0.632   7.015   7.869
 3510SOL    HW212490   0.546   7.152   7.895
 3511SOL     OW12491   1.709   5.971   8.829
 3511SOL    HW112492   1.782   6.040   8.833
 3511SOL    HW212493   1.737   5.896   8.770
 3512SOL     OW12494   0.255   6.934   7.738
 3512SOL    HW112495   0.159   6.935   7.711
 3512SOL    HW212496   0.267   6.987   7.822
 3513SOL     OW12497   1.440   6.442   8.846
 3513SOL    HW112498   1.383   6.494   8.783
 3513SOL    HW212499   1.536   6.454   8.822
 3514SOL     OW12500   1.183   6.921   7.567
 3514SOL    HW112501   1.084   6.910   7.569
 3514SOL    HW212502   1.217   6.936   7.660
 3515SOL     OW12503   0.613   6.428   8.879
 3515SOL    HW112504   0.669   6.509   8.862
 3515SOL    HW212505   0.672   6.348   8.882
 3516SOL     OW12506   1.493   7.353   8.407
 3516SOL    HW112507   1.526   7.417   8.338
 3516SOL    HW212508   1.559   7.347   8.482
 3517SOL     OW12509   0.390   7.327   0.008
 3517SOL    HW112510   0.299   7.368   0.006
 3517SOL    HW212511   0.383   7.233   0.040
 3518SOL     OW12512   1.674   6.469   8.702
 3518SOL    HW112513   1.647   6.380   8.665
 3518SOL    HW212514   1.675   6.537   8.629
 3519SOL     OW12515   1.225   5.911   7.897
 3519SOL    HW112516   1.290   5.837   7.886
 3519SOL    HW212517   1.245   5.961   7.981
 3520SOL     OW12518   0.594   6.331   8.100
 3520SOL    HW112519   0.644   6.416   8.081
 3520SOL    HW212520   0.506   6.333   8.052
 3521SOL     OW12521   1.777   5.928   0.090
 3521SOL    HW112522   1.760   5.959  -0.004
 3521SOL    HW212523   1.693   5.891   0.128
 3522SOL     OW12524   1.730   6.520   8.965
 3522SOL    HW112525   1.768   6.611   8.980
 3522SOL    HW212526   1.722   6.503   8.866
 3523SOL     OW12527   0.859   6.960   7.464
 3523SOL    HW112528   0.813   6.975   7.552
 3523SOL    HW212529   0.903   7.045   7.434
 3524SOL     OW12530   0.661   7.376   8.401
 3524SOL    HW112531   0.615   7.464   8.388
 3524SOL    HW212532   0.760   7.388   8.394
 3525SOL     OW12533   1.408   7.437   0.168
 3525SOL    HW112534   1.312   7.426   0.141
 3525SOL    HW212535   1.464   7.370   0.120
 3526SOL     OW12536   0.859   6.542   8.309
 3526SOL    HW112537   0.913   6.473   8.357
 3526SOL    HW212538   0.827   6.611   8.375
 3527SOL     OW12539   1.083   6.570   7.535
 3527SOL    HW112540   1.060   6.623   7.453
 3527SOL    HW212541   1.164   6.514   7.516
 3528SOL     OW12542   1.861   7.155   8.299
 3528SOL    HW112543   1.790   7.143   8.229
 3528SOL    HW212544   1.862   7.076   8.359
 3529SOL     OW12545   1.824   5.778   8.675
 3529SOL    HW112546   1.820   5.688   8.719
 3529SOL    HW212547   1.827   5.767   8.576
 3530SOL     OW12548   0.428   6.010   7.968
 3530SOL    HW112549   0.458   5.938   7.906
 3530SOL    HW212550   0.389   5.970   8.051
 3531SOL     OW12551   1.705   7.073   8.552
 3531SOL    HW112552   1.612   7.048   8.525
 3531SOL    HW212553   1.731   7.023   8.634
 3532SOL     OW12554   0.812   7.172   8.135
 3532SOL    HW112555   0.844   7.182   8.041
 3532SOL    HW212556   0.733   7.110   8.137
 3533SOL     OW12557   1.424   5.800   8.560
 3533SOL    HW112558   1.476   5.735   8.615
 3533SOL    HW212559   1.375   5.863   8.621
 3534SOL     OW12560   1.001   5.620   8.602
 3534SOL    HW112561   0.938   5.548   8.571
 3534SOL    HW212562   1.094   5.584   8.602
 3535SOL     OW12563   0.770   6.916   7.749
 3535SOL    HW112564   0.724   6.829   7.766
 3535SOL    HW212565   0.861   6.913   7.790
 3536SOL     OW12566   0.618   7.153   8.732
 3536SOL    HW112567   0.613   7.235   8.789
 3536SOL    HW212568   0.707   7.150   8.687
 3537SOL     OW12569   1.352   5.638   7.616
 3537SOL    HW112570   1.387   5.597   7.532
 3537SOL    HW212571   1.262   5.600   7.636
 3538SOL     OW12572   1.300   6.039   8.139
 3538SOL    HW112573   1.241   6.119   8.143
 3538SOL    HW212574   1.315   6.004   8.232
 3539SOL     OW12575   1.593   5.807   8.330
 3539SOL    HW112576   1.509   5.806   8.384
 3539SOL    HW212577   1.595   5.890   8.274
 3540SOL     OW12578   0.875   7.232   7.785
 3540SOL    HW112579   0.798   7.197   7.731
 3540SOL    HW212580   0.843   7.303   7.847
 3541SOL     OW12581   0.019   7.816   0.647
 3541SOL    HW112582  -0.063   7.859   0.686
 3541SOL    HW212583  -0.009   7.743   0.584
 3542SOL     OW12584   0.569   8.723   1.165
 3542SOL    HW112585   0.476   8.716   1.128
 3542SOL    HW212586   0.580   8.812   1.209
 3543SOL     OW12587   1.555   8.959   0.703
 3543SOL    HW112588   1.498   8.943   0.784
 3543SOL    HW212589   1.496   8.969   0.623
 3544SOL     OW12590   1.743   8.066   0.856
 3544SOL    HW112591   1.776   8.160   0.856
 3544SOL    HW212592   1.794   8.012   0.922
 3545SOL     OW12593   1.135   8.151   0.717
 3545SOL    HW112594   1.192   8.229   0.692
 3545SOL    HW212595   1.075   8.177   0.793
 3546SOL     OW12596   1.755   8.055   0.231
 3546SOL    HW112597   1.743   8.042   0.132
 3546SOL    HW212598   1.725   7.974   0.280
 3547SOL     OW12599   0.768   8.592   1.023
 3547SOL    HW112600   0.690   8.609   1.083
 3547SOL    HW212601   0.802   8.679   0.987
 3548SOL     OW12602   0.850   8.246   1.823
 3548SOL    HW112603   0.846   8.322   1.888
 3548SOL    HW212604   0.872   8.282   1.732
 3549SOL     OW12605   0.685   8.460   0.665
 3549SOL    HW112606   0.754   8.444   0.735
 3549SOL    HW212607   0.612   8.517   0.703
 3550SOL     OW12608   0.686   8.609   1.803
 3550SOL    HW112609   0.746   8.688   1.817
 3550SOL    HW212610   0.600   8.640   1.762
 3551SOL     OW12611   0.335   8.883   1.061
 3551SOL    HW112612   0.257   8.852   1.008
 3551SOL    HW212613   0.393   8.941   1.004
 3552SOL     OW12614   1.460   8.953   1.339
 3552SOL    HW112615   1.484   9.047   1.365
 3552SOL    HW212616   1.444   8.899   1.421
 3553SOL     OW12617   0.438   7.840   1.499
 3553SOL    HW112618   0.520   7.784   1.508
 3553SOL    HW212619   0.357   7.782   1.503
 3554SOL     OW12620   1.603   7.895   0.737
 3554SOL    HW112621   1.529   7.941   0.687
 3554SOL    HW212622   1.654   7.963   0.790
 3555SOL     OW12623   1.127   8.789   1.690
 3555SOL    HW112624   1.174   8.789   1.778
 3555SOL    HW212625   1.079   8.702   1.679
 3556SOL     OW12626   0.606   8.412   0.123
 3556SOL    HW112627   0.613   8.496   0.069
 3556SOL    HW212628   0.652   8.425   0.211
 3557SOL     OW12629   1.594   7.562   1.480
 3557SOL    HW112630   1.576   7.629   1.408
 3557SOL    HW212631   1.591   7.608   1.569
 3558SOL     OW12632   1.689   8.370   0.612
 3558SOL    HW112633   1.784   8.341   0.620
 3558SOL    HW212634   1.681   8.435   0.537
 3559SOL     OW12635   1.641   8.556   0.432
 3559SOL    HW112636   1.727   8.558   0.380
 3559SOL    HW212637   1.655   8.603   0.520
 3560SOL     OW12638   0.613   8.813   0.726
 3560SOL    HW112639   0.564   8.726   0.735
 3560SOL    HW212640   0.590   8.856   0.639
 3561SOL     OW12641   1.293   8.676   1.423
 3561SOL    HW112642   1.330   8.603   1.365
 3561SOL    HW212643   1.345   8.681   1.508
 3562SOL     OW12644   0.809   7.452   0.502
 3562SOL    HW112645   0.849   7.543   0.493
 3562SOL    HW212646   0.709   7.460   0.508
 3563SOL     OW12647   1.525   8.447   0.190
 3563SOL    HW112648   1.462   8.371   0.203
 3563SOL    HW212649   1.573   8.465   0.276
 3564SOL     OW12650   0.317   7.699   1.801
 3564SOL    HW112651   0.388   7.770   1.807
 3564SOL    HW212652   0.229   7.738   1.829
 3565SOL     OW12653   1.466   8.865   0.953
 3565SOL    HW112654   1.407   8.871   1.033
 3565SOL    HW212655   1.451   8.777   0.907
 3566SOL     OW12656   0.598   8.177   0.270
 3566SOL    HW112657   0.622   8.246   0.202
 3566SOL    HW212658   0.520   8.210   0.324
 3567SOL     OW12659   1.281   7.793   0.944
 3567SOL    HW112660   1.195   7.743   0.931
 3567SOL    HW212661   1.343   7.739   1.000
 3568SOL     OW12662   0.807   8.053   1.465
 3568SOL    HW112663   0.760   8.050   1.554
 3568SOL    HW212664   0.756   7.998   1.399
 3569SOL     OW12665   1.394   7.917   1.674
 3569SOL    HW112666   1.374   7.960   1.762
 3569SOL    HW212667   1.472   7.855   1.683
 3570SOL     OW12668   0.973   8.338   1.572
 3570SOL    HW112669   1.019   8.254   1.543
 3570SOL    HW212670   0.917   8.372   1.497
 3571SOL     OW12671   0.991   7.858   1.242
 3571SOL    HW112672   0.914   7.892   1.296
 3571SOL    HW212673   0.957   7.807   1.163
 3572SOL     OW12674   1.041   8.149   0.429
 3572SOL    HW112675   1.067   8.145   0.525
 3572SOL    HW212676   0.956   8.098   0.415
 3573SOL     OW12677   0.865   7.796   0.195
 3573SOL    HW112678   0.924   7.859   0.146
 3573SOL    HW212679   0.884   7.702   0.166
 3574SOL     OW12680   1.719   8.033   1.831
 3574SOL    HW112681   1.693   8.122   1.795
 3574SOL    HW212682   1.717   7.965   1.758
 3575SOL     OW12683   1.362   8.592   0.545
 3575SOL    HW112684   1.445   8.563   0.497
 3575SOL    HW212685   1.313   8.659   0.489
 3576SOL     OW12686   0.550   7.644   0.885
 3576SOL    HW112687   0.545   7.639   0.985
 3576SOL    HW212688   0.552   7.740   0.856
 3577SOL     OW12689   1.008   8.904   0.477
 3577SOL    HW112690   0.962   8.976   0.425
 3577SOL    HW212691   1.004   8.924   0.575
 3578SOL     OW12692   1.795   8.514   0.873
 3578SOL    HW112693   1.733   8.499   0.797
 3578SOL    HW212694   1.743   8.525   0.958
 3579SOL     OW12695   1.227   8.998   1.506
 3579SOL    HW112696   1.233   8.921   1.570
 3579SOL    HW212697   1.175   8.972   1.426
 3580SOL     OW12698   0.321   8.391   0.242
 3580SOL    HW112699   0.403   8.430   0.200
 3580SOL    HW212700   0.294   8.309   0.193
 3581SOL     OW12701   1.458   8.183   0.728
 3581SOL    HW112702   1.453   8.118   0.803
 3581SOL    HW212703   1.538   8.242   0.741
 3582SOL     OW12704   0.461   8.714   1.727
 3582SOL    HW112705   0.411   8.715   1.641
 3582SOL    HW212706   0.398   8.696   1.803
 3583SOL     OW12707   1.111   0.224   0.237
 3583SOL    HW112708   1.051   0.162   0.287
 3583SOL    HW212709   1.142   0.180   0.152
 3584SOL     OW12710   1.632   8.825   0.081
 3584SOL    HW112711   1.600   8.919   0.071
 3584SOL    HW212712   1.556   8.762   0.069
 3585SOL     OW12713   1.400   7.555   0.426
 3585SOL    HW112714   1.376   7.518   0.336
 3585SOL    HW212715   1.499   7.571   0.430
 3586SOL     OW12716   0.382   8.148   0.480
 3586SOL    HW112717   0.427   8.058   0.477
 3586SOL    HW212718   0.288   8.137   0.513
 3587SOL     OW12719   1.547   7.670   1.729
 3587SOL    HW112720   1.542   7.707   1.821
 3587SOL    HW212721   1.475   7.601   1.717
 3588SOL     OW12722   0.614   7.570   0.117
 3588SOL    HW112723   0.712   7.548   0.124
 3588SOL    HW212724   0.583   7.553   0.024
 3589SOL     OW12725   0.781   7.712   1.749
 3589SOL    HW112726   0.848   7.651   1.792
 3589SOL    HW212727   0.708   7.731   1.814
 3590SOL     OW12728   1.351   8.038   1.433
 3590SOL    HW112729   1.379   7.995   1.518
 3590SOL    HW212730   1.376   8.134   1.434
 3591SOL     OW12731   0.803   8.850   0.924
 3591SOL    HW112732   0.893   8.864   0.882
 3591SOL    HW212733   0.732   8.852   0.853
 3592SOL     OW12734   0.922   7.951   0.899
 3592SOL    HW112735   0.897   7.942   0.803
 3592SOL    HW212736   0.970   7.869   0.930
 3593SOL     OW12737   0.539   7.512   0.512
 3593SOL    HW112738   0.458   7.513   0.570
 3593SOL    HW212739   0.542   7.595   0.457
 3594SOL     OW12740   1.434   8.636   0.041
 3594SOL    HW112741   1.466   8.560   0.098
 3594SOL    HW212742   1.342   8.663   0.071
 3595SOL     OW12743   0.297   7.483   0.171
 3595SOL    HW112744   0.346   7.567   0.150
 3595SOL    HW212745   0.359   7.418   0.216
 3596SOL     OW12746   0.935   7.684   0.480
 3596SOL    HW112747   0.887   7.725   0.402
 3596SOL    HW212748   1.034   7.682   0.461
 3597SOL     OW12749   1.076   8.131   1.464
 3597SOL    HW112750   0.996   8.070   1.467
 3597SOL    HW212751   1.157   8.078   1.440
 3598SOL     OW12752   1.227   0.018   0.793
 3598SOL    HW112753   1.248   0.092   0.728
 3598SOL    HW212754   1.295   0.018   0.866
 3599SOL     OW12755   0.459   8.600   0.741
 3599SOL    HW112756   0.388   8.573   0.806
 3599SOL    HW212757   0.433   8.572   0.648
 3600SOL     OW12758   1.032   7.997   0.016
 3600SOL    HW112759   0.991   8.079  -0.023
 3600SOL    HW212760   1.096   8.023   0.089
 3601SOL     OW12761   0.561   7.670   1.147
 3601SOL    HW112762   0.599   7.586   1.184
 3601SOL    HW212763   0.473   7.689   1.191
 3602SOL     OW12764   0.866   7.902   0.642
 3602SOL    HW112765   0.834   7.974   0.580
 3602SOL    HW212766   0.890   7.821   0.589
 3603SOL     OW12767   1.017   7.487   0.753
 3603SOL    HW112768   0.945   7.492   0.684
 3603SOL    HW212769   0.993   7.418   0.822
 3604SOL     OW12770   1.429   8.621   0.867
 3604SOL    HW112771   1.374   8.537   0.860
 3604SOL    HW212772   1.455   8.650   0.775
 3605SOL     OW12773   1.466   8.038   0.992
 3605SOL    HW112774   1.436   7.943   0.999
 3605SOL    HW212775   1.539   8.054   1.058
 3606SOL     OW12776   1.857   8.281   0.377
 3606SOL    HW112777   1.899   8.217   0.441
 3606SOL    HW212778   1.819   8.230   0.299
 3607SOL     OW12779   0.488   8.833   0.174
 3607SOL    HW112780   0.401   8.818   0.221
 3607SOL    HW212781   0.471   8.859   0.079
 3608SOL     OW12782   1.664   8.728   0.657
 3608SOL    HW112783   1.763   8.736   0.671
 3608SOL    HW212784   1.619   8.812   0.688
 3609SOL     OW12785   1.390   8.023   0.078
 3609SOL    HW112786   1.336   8.002   0.159
 3609SOL    HW212787   1.481   7.982   0.087
 3610SOL     OW12788   0.527   7.704   0.328
 3610SOL    HW112789   0.554   7.645   0.253
 3610SOL    HW212790   0.527   7.799   0.297
 3611SOL     OW12791   1.754   8.671   1.588
 3611SOL    HW112792   1.845   8.632   1.575
 3611SOL    HW212793   1.762   8.767   1.612
 3612SOL     OW12794   1.064   8.795   1.340
 3612SOL    HW112795   0.984   8.772   1.395
 3612SOL    HW212796   1.147   8.769   1.389
 3613SOL     OW12797   1.111   8.643   1.100
 3613SOL    HW112798   1.071   8.687   1.181
 3613SOL    HW212799   1.070   8.680   1.017
 3614SOL     OW12800   1.638   8.547   1.079
 3614SOL    HW112801   1.643   8.628   1.138
 3614SOL    HW212802   1.552   8.549   1.028
 3615SOL     OW12803   0.915   7.537   1.402
 3615SOL    HW112804   0.940   7.517   1.307
 3615SOL    HW212805   0.987   7.593   1.444
 3616SOL     OW12806   0.980   8.564   1.719
 3616SOL    HW112807   0.881   8.570   1.729
 3616SOL    HW212808   1.003   8.484   1.663
 3617SOL     OW12809   0.705   8.498   0.368
 3617SOL    HW112810   0.691   8.505   0.467
 3617SOL    HW212811   0.789   8.447   0.350
 3618SOL     OW12812   0.410   8.261   1.251
 3618SOL    HW112813   0.496   8.273   1.301
 3618SOL    HW212814   0.368   8.174   1.278
 3619SOL     OW12815   1.274   7.834   1.262
 3619SOL    HW112816   1.295   7.908   1.326
 3619SOL    HW212817   1.185   7.851   1.219
 3620SOL     OW12818   0.367   8.548   0.501
 3620SOL    HW112819   0.360   8.631   0.445
 3620SOL    HW212820   0.371   8.468   0.441
 3621SOL     OW12821   0.566   7.985   0.865
 3621SOL    HW112822   0.578   8.051   0.791
 3621SOL    HW212823   0.612   8.019   0.948
 3622SOL     OW12824   1.252   8.796   0.388
 3622SOL    HW112825   1.302   8.873   0.428
 3622SOL    HW212826   1.157   8.798   0.420
 3623SOL     OW12827   1.272   8.893   1.142
 3623SOL    HW112828   1.319   8.906   1.229
 3623SOL    HW212829   1.206   8.819   1.151
 3624SOL     OW12830   1.582   8.087   0.472
 3624SOL    HW112831   1.551   8.148   0.545
 3624SOL    HW212832   1.632   8.139   0.403
 3625SOL     OW12833   0.354   8.958   1.329
 3625SOL    HW112834   0.333   8.914   1.242
 3625SOL    HW212835   0.451   8.984   1.332
 3626SOL     OW12836   0.402   8.199   1.598
 3626SOL    HW112837   0.470   8.254   1.551
 3626SOL    HW212838   0.442   8.111   1.625
 3627SOL     OW12839   1.587   8.227   1.670
 3627SOL    HW112840   1.495   8.265   1.665
 3627SOL    HW212841   1.647   8.274   1.605
 3628SOL     OW12842   1.013   7.553   1.770
 3628SOL    HW112843   1.019   7.638   1.718
 3628SOL    HW212844   1.045   7.477   1.713
 3629SOL     OW12845   0.504   7.498   1.740
 3629SOL    HW112846   0.462   7.441   1.670
 3629SOL    HW212847   0.438   7.567   1.772
 3630SOL     OW12848   0.573   8.318   1.029
 3630SOL    HW112849   0.617   8.407   1.020
 3630SOL    HW212850   0.510   8.318   1.106
 3631SOL     OW12851   1.360   8.310   1.045
 3631SOL    HW112852   1.285   8.310   0.979
 3631SOL    HW212853   1.397   8.218   1.054
 3632SOL     OW12854   1.209   7.973   0.275
 3632SOL    HW112855   1.222   7.889   0.329
 3632SOL    HW212856   1.180   8.047   0.335
 3633SOL     OW12857   0.732   8.082   1.064
 3633SOL    HW112858   0.791   8.056   0.988
 3633SOL    HW212859   0.704   8.178   1.053
 3634SOL     OW12860   1.728   8.383   1.854
 3634SOL    HW112861   1.682   8.376   1.765
 3634SOL    HW212862   1.666   8.427   1.920
 3635SOL     OW12863   0.307   7.511   0.618
 3635SOL    HW112864   0.296   7.605   0.651
 3635SOL    HW212865   0.302   7.448   0.695
 3636SOL     OW12866   1.622   7.815   0.374
 3636SOL    HW112867   1.624   7.739   0.438
 3636SOL    HW212868   1.574   7.892   0.414
 3637SOL     OW12869   1.023   8.214   0.966
 3637SOL    HW112870   1.038   8.235   1.062
 3637SOL    HW212871   0.993   8.119   0.957
 3638SOL     OW12872   1.859   8.966   1.605
 3638SOL    HW112873   1.873   8.993   1.510
 3638SOL    HW212874   1.942   8.988   1.658
 3639SOL     OW12875   0.350   8.346   1.804
 3639SOL    HW112876   0.426   8.390   1.852
 3639SOL    HW212877   0.385   8.299   1.722
 3640SOL     OW12878   1.540   7.722   0.125
 3640SOL    HW112879   1.479   7.647   0.148
 3640SOL    HW212880   1.562   7.774   0.208
 3641SOL     OW12881   1.303   8.286   0.042
 3641SOL    HW112882   1.337   8.193   0.057
 3641SOL    HW212883   1.321   8.313  -0.053
 3642SOL     OW12884   1.068   8.781   0.849
 3642SOL    HW112885   1.075   8.697   0.794
 3642SOL    HW212886   1.130   8.850   0.813
 3643SOL     OW12887   0.319   8.258   0.949
 3643SOL    HW112888   0.412   8.294   0.954
 3643SOL    HW212889   0.313   8.173   1.001
 3644SOL     OW12890   1.138   7.828   1.678
 3644SOL    HW112891   1.093   7.891   1.742
 3644SOL    HW212892   1.231   7.859   1.661
 3645SOL     OW12893   1.160   7.655   1.477
 3645SOL    HW112894   1.160   7.719   1.554
 3645SOL    HW212895   1.188   7.703   1.394
 3646SOL     OW12896   1.002   8.244   1.238
 3646SOL    HW112897   1.043   8.212   1.324
 3646SOL    HW212898   0.906   8.217   1.235
 3647SOL     OW12899   1.369   8.398   1.660
 3647SOL    HW112900   1.408   8.487   1.680
 3647SOL    HW212901   1.379   8.378   1.563
 3648SOL     OW12902   0.815   8.020   0.325
 3648SOL    HW112903   0.822   7.931   0.279
 3648SOL    HW212904   0.721   8.054   0.317
 3649SOL     OW12905   1.657   8.052   1.206
 3649SOL    HW112906   1.619   7.983   1.268
 3649SOL    HW212907   1.739   8.016   1.162
 3650SOL     OW12908   0.252   0.012   1.744
 3650SOL    HW112909   0.222   0.069   1.820
 3650SOL    HW212910   0.245  -0.085   1.770
 3651SOL     OW12911   0.671   7.912   1.269
 3651SOL    HW112912   0.637   7.823   1.239
 3651SOL    HW212913   0.697   7.966   1.189
 3652SOL     OW12914   0.473   7.948   0.191
 3652SOL    HW112915   0.534   8.028   0.195
 3652SOL    HW212916   0.378   7.979   0.198
 3653SOL     OW12917   1.347   8.507   1.234
 3653SOL    HW112918   1.371   8.444   1.160
 3653SOL    HW212919   1.257   8.547   1.216
 3654SOL     OW12920   1.302   8.303   0.309
 3654SOL    HW112921   1.216   8.272   0.351
 3654SOL    HW212922   1.298   8.289   0.210
 3655SOL     OW12923   0.903   7.534   0.133
 3655SOL    HW112924   0.954   7.535   0.047
 3655SOL    HW212925   0.959   7.492   0.204
 3656SOL     OW12926   1.726   7.583   0.523
 3656SOL    HW112927   1.799   7.566   0.456
 3656SOL    HW212928   1.695   7.496   0.561
 3657SOL     OW12929   1.280   8.375   0.672
 3657SOL    HW112930   1.340   8.294   0.674
 3657SOL    HW212931   1.320   8.444   0.612
 3658SOL     OW12932   0.830   8.721   1.422
 3658SOL    HW112933   0.825   8.754   1.517
 3658SOL    HW212934   0.744   8.740   1.376
 3659SOL     OW12935   1.841   7.623   0.963
 3659SOL    HW112936   1.880   7.538   0.927
 3659SOL    HW212937   1.743   7.625   0.944
 3660SOL     OW12938   0.263   7.774   0.720
 3660SOL    HW112939   0.184   7.825   0.686
 3660SOL    HW212940   0.254   7.759   0.818
 3661SOL     OW12941   0.822   8.450   1.372
 3661SOL    HW112942   0.862   8.449   1.280
 3661SOL    HW212943   0.832   8.542   1.412
 3662SOL     OW12944   0.916   8.358   0.291
 3662SOL    HW112945   0.979   8.396   0.223
 3662SOL    HW212946   0.956   8.275   0.330
 3663SOL     OW12947   0.372   8.736   1.490
 3663SOL    HW112948   0.359   8.829   1.456
 3663SOL    HW212949   0.288   8.684   1.477
 3664SOL     OW12950   1.614   8.740   1.289
 3664SOL    HW112951   1.674   8.743   1.369
 3664SOL    HW212952   1.539   8.804   1.302
 3665SOL     OW12953   1.039   8.546   0.696
 3665SOL    HW112954   0.969   8.499   0.750
 3665SOL    HW212955   1.098   8.478   0.653
 3666SOL     OW12956   1.014   7.684   0.971
 3666SOL    HW112957   1.006   7.648   0.878
 3666SOL    HW212958   1.012   7.608   1.036
 3667SOL     OW12959   1.709   7.833   1.381
 3667SOL    HW112960   1.782   7.902   1.385
 3667SOL    HW212961   1.737   7.758   1.322
 3668SOL     OW12962   0.255   8.796   0.290
 3668SOL    HW112963   0.159   8.797   0.263
 3668SOL    HW212964   0.267   8.849   0.374
 3669SOL     OW12965   0.672   7.651   1.489
 3669SOL    HW112966   0.762   7.635   1.449
 3669SOL    HW212967   0.680   7.656   1.588
 3670SOL     OW12968   1.440   8.304   1.398
 3670SOL    HW112969   1.383   8.356   1.335
 3670SOL    HW212970   1.536   8.316   1.374
 3671SOL     OW12971   1.183   8.783   0.119
 3671SOL    HW112972   1.084   8.772   0.121
 3671SOL    HW212973   1.217   8.798   0.212
 3672SOL     OW12974   0.613   8.290   1.431
 3672SOL    HW112975   0.669   8.371   1.414
 3672SOL    HW212976   0.672   8.210   1.434
 3673SOL     OW12977   0.716   8.013   1.708
 3673SOL    HW112978   0.735   8.078   1.782
 3673SOL    HW212979   0.776   7.933   1.717
 3674SOL     OW12980   1.450   8.668   1.633
 3674SOL    HW112981   1.441   8.658   1.732
 3674SOL    HW212982   1.546   8.661   1.607
 3675SOL     OW12983   1.674   8.331   1.254
 3675SOL    HW112984   1.647   8.242   1.217
 3675SOL    HW212985   1.675   8.399   1.181
 3676SOL     OW12986   1.225   7.773   0.449
 3676SOL    HW112987   1.290   7.699   0.438
 3676SOL    HW212988   1.245   7.823   0.533
 3677SOL     OW12989   0.594   8.193   0.652
 3677SOL    HW112990   0.644   8.278   0.633
 3677SOL    HW212991   0.506   8.195   0.604
 3678SOL     OW12992   1.777   7.790   1.642
 3678SOL    HW112993   1.760   7.821   1.548
 3678SOL    HW212994   1.693   7.753   1.680
 3679SOL     OW12995   1.730   8.382   1.517
 3679SOL    HW112996   1.768   8.473   1.532
 3679SOL    HW212997   1.722   8.365   1.418
 3680SOL     OW12998   0.859   8.822   0.016
 3680SOL    HW112999   0.813   8.837   0.104
 3680SOL    HW213000   0.903   8.907  -0.014
 3681SOL     OW13001   0.859   8.404   0.861
 3681SOL    HW113002   0.913   8.335   0.909
 3681SOL    HW213003   0.827   8.473   0.927
 3682SOL     OW13004   1.083   8.432   0.087
 3682SOL    HW113005   1.060   8.485   0.005
 3682SOL    HW213006   1.164   8.376   0.068
 3683SOL     OW13007   0.672   8.839   1.624
 3683SOL    HW113008   0.594   8.789   1.662
 3683SOL    HW213009   0.669   8.934   1.655
 3684SOL     OW13010   1.824   7.640   1.227
 3684SOL    HW113011   1.820   7.550   1.271
 3684SOL    HW213012   1.827   7.629   1.128
 3685SOL     OW13013   0.428   7.872   0.520
 3685SOL    HW113014   0.458   7.800   0.458
 3685SOL    HW213015   0.389   7.832   0.603
 3686SOL     OW13016   1.705   8.935   1.104
 3686SOL    HW113017   1.612   8.910   1.077
 3686SOL    HW213018   1.731   8.885   1.186
 3687SOL     OW13019   1.424   7.662   1.112
 3687SOL    HW113020   1.476   7.597   1.167
 3687SOL    HW213021   1.375   7.725   1.173
 3688SOL     OW13022   1.001   7.482   1.154
 3688SOL    HW113023   0.938   7.410   1.123
 3688SOL    HW213024   1.094   7.446   1.154
 3689SOL     OW13025   0.770   8.778   0.301
 3689SOL    HW113026   0.724   8.691   0.318
 3689SOL    HW213027   0.861   8.775   0.342
 3690SOL     OW13028   0.618   0.015   1.284
 3690SOL    HW113029   0.613   0.097   1.341
 3690SOL    HW213030   0.707   0.012   1.239
 3691SOL     OW13031   1.300   7.901   0.691
 3691SOL    HW113032   1.241   7.981   0.695
 3691SOL    HW213033   1.315   7.866   0.784
 3692SOL     OW13034   1.593   7.669   0.882
 3692SOL    HW113035   1.509   7.668   0.936
 3692SOL    HW213036   1.595   7.752   0.826
 3693SOL     OW13037   0.019   7.816   2.509
 3693SOL    HW113038  -0.063   7.859   2.548
 3693SOL    HW213039  -0.009   7.743   2.446
 3694SOL     OW13040   0.569   8.723   3.027
 3694SOL    HW113041   0.476   8.716   2.990
 3694SOL    HW213042   0.580   8.812   3.071
 3695SOL     OW13043   1.555   8.959   2.565
 3695SOL    HW113044   1.498   8.943   2.646
 3695SOL    HW213045   1.496   8.969   2.485
 3696SOL     OW13046   1.743   8.066   2.718
 3696SOL    HW113047   1.776   8.160   2.718
 3696SOL    HW213048   1.794   8.012   2.784
 3697SOL     OW13049   1.135   8.151   2.579
 3697SOL    HW113050   1.192   8.229   2.554
 3697SOL    HW213051   1.075   8.177   2.655
 3698SOL     OW13052   1.755   8.055   2.093
 3698SOL    HW113053   1.743   8.042   1.994
 3698SOL    HW213054   1.725   7.974   2.142
 3699SOL     OW13055   0.768   8.592   2.885
 3699SOL    HW113056   0.690   8.609   2.945
 3699SOL    HW213057   0.802   8.679   2.849
 3700SOL     OW13058   0.850   8.246   3.685
 3700SOL    HW113059   0.846   8.322   3.750
 3700SOL    HW213060   0.872   8.282   3.594
 3701SOL     OW13061   0.685   8.460   2.527
 3701SOL    HW113062   0.754   8.444   2.597
 3701SOL    HW213063   0.612   8.517   2.565
 3702SOL     OW13064   0.686   8.609   3.665
 3702SOL    HW113065   0.746   8.688   3.679
 3702SOL    HW213066   0.600   8.640   3.624
 3703SOL     OW13067   0.335   8.883   2.923
 3703SOL    HW113068   0.257   8.852   2.870
 3703SOL    HW213069   0.393   8.941   2.866
 3704SOL     OW13070   1.460   8.953   3.201
 3704SOL    HW113071   1.484   9.047   3.227
 3704SOL    HW213072   1.444   8.899   3.283
 3705SOL     OW13073   0.438   7.840   3.361
 3705SOL    HW113074   0.520   7.784   3.370
 3705SOL    HW213075   0.357   7.782   3.365
 3706SOL     OW13076   1.603   7.895   2.599
 3706SOL    HW113077   1.529   7.941   2.549
 3706SOL    HW213078   1.654   7.963   2.652
 3707SOL     OW13079   1.127   8.789   3.552
 3707SOL    HW113080   1.174   8.789   3.640
 3707SOL    HW213081   1.079   8.702   3.541
 3708SOL     OW13082   0.606   8.412   1.985
 3708SOL    HW113083   0.613   8.496   1.931
 3708SOL    HW213084   0.652   8.425   2.073
 3709SOL     OW13085   1.594   7.562   3.342
 3709SOL    HW113086   1.576   7.629   3.270
 3709SOL    HW213087   1.591   7.608   3.431
 3710SOL     OW13088   1.689   8.370   2.474
 3710SOL    HW113089   1.784   8.341   2.482
 3710SOL    HW213090   1.681   8.435   2.399
 3711SOL     OW13091   1.641   8.556   2.294
 3711SOL    HW113092   1.727   8.558   2.242
 3711SOL    HW213093   1.655   8.603   2.382
 3712SOL     OW13094   0.613   8.813   2.588
 3712SOL    HW113095   0.564   8.726   2.597
 3712SOL    HW213096   0.590   8.856   2.501
 3713SOL     OW13097   1.293   8.676   3.285
 3713SOL    HW113098   1.330   8.603   3.227
 3713SOL    HW213099   1.345   8.681   3.370
 3714SOL     OW13100   0.809   7.452   2.364
 3714SOL    HW113101   0.849   7.543   2.355
 3714SOL    HW213102   0.709   7.460   2.370
 3715SOL     OW13103   1.525   8.447   2.052
 3715SOL    HW113104   1.462   8.371   2.065
 3715SOL    HW213105   1.573   8.465   2.138
 3716SOL     OW13106   0.317   7.699   3.663
 3716SOL    HW113107   0.388   7.770   3.669
 3716SOL    HW213108   0.229   7.738   3.691
 3717SOL     OW13109   1.466   8.865   2.815
 3717SOL    HW113110   1.407   8.871   2.895
 3717SOL    HW213111   1.451   8.777   2.769
 3718SOL     OW13112   0.598   8.177   2.132
 3718SOL    HW113113   0.622   8.246   2.064
 3718SOL    HW213114   0.520   8.210   2.186
 3719SOL     OW13115   1.281   7.793   2.806
 3719SOL    HW113116   1.195   7.743   2.793
 3719SOL    HW213117   1.343   7.739   2.862
 3720SOL     OW13118   0.807   8.053   3.327
 3720SOL    HW113119   0.760   8.050   3.416
 3720SOL    HW213120   0.756   7.998   3.261
 3721SOL     OW13121   1.394   7.917   3.536
 3721SOL    HW113122   1.374   7.960   3.624
 3721SOL    HW213123   1.472   7.855   3.545
 3722SOL     OW13124   0.973   8.338   3.434
 3722SOL    HW113125   1.019   8.254   3.405
 3722SOL    HW213126   0.917   8.372   3.359
 3723SOL     OW13127   0.991   7.858   3.104
 3723SOL    HW113128   0.914   7.892   3.158
 3723SOL    HW213129   0.957   7.807   3.025
 3724SOL     OW13130   1.041   8.149   2.291
 3724SOL    HW113131   1.067   8.145   2.387
 3724SOL    HW213132   0.956   8.098   2.277
 3725SOL     OW13133   0.865   7.796   2.057
 3725SOL    HW113134   0.924   7.859   2.008
 3725SOL    HW213135   0.884   7.702   2.028
 3726SOL     OW13136   1.719   8.033   3.693
 3726SOL    HW113137   1.693   8.122   3.657
 3726SOL    HW213138   1.717   7.965   3.620
 3727SOL     OW13139   1.362   8.592   2.407
 3727SOL    HW113140   1.445   8.563   2.359
 3727SOL    HW213141   1.313   8.659   2.351
 3728SOL     OW13142   0.550   7.644   2.747
 3728SOL    HW113143   0.545   7.639   2.847
 3728SOL    HW213144   0.552   7.740   2.718
 3729SOL     OW13145   1.008   8.904   2.339
 3729SOL    HW113146   0.962   8.976   2.287
 3729SOL    HW213147   1.004   8.924   2.437
 3730SOL     OW13148   1.795   8.514   2.735
 3730SOL    HW113149   1.733   8.499   2.659
 3730SOL    HW213150   1.743   8.525   2.820
 3731SOL     OW13151   1.227   8.998   3.368
 3731SOL    HW113152   1.233   8.921   3.432
 3731SOL    HW213153   1.175   8.972   3.288
 3732SOL     OW13154   0.321   8.391   2.104
 3732SOL    HW113155   0.403   8.430   2.062
 3732SOL    HW213156   0.294   8.309   2.055
 3733SOL     OW13157   1.458   8.183   2.590
 3733SOL    HW113158   1.453   8.118   2.665
 3733SOL    HW213159   1.538   8.242   2.603
 3734SOL     OW13160   0.461   8.714   3.589
 3734SOL    HW113161   0.411   8.715   3.503
 3734SOL    HW213162   0.398   8.696   3.665
 3735SOL     OW13163   1.111   0.224   2.099
 3735SOL    HW113164   1.051   0.162   2.149
 3735SOL    HW213165   1.142   0.180   2.014
 3736SOL     OW13166   1.632   8.825   1.943
 3736SOL    HW113167   1.600   8.919   1.933
 3736SOL    HW213168   1.556   8.762   1.931
 3737SOL     OW13169   1.400   7.555   2.288
 3737SOL    HW113170   1.376   7.518   2.198
 3737SOL    HW213171   1.499   7.571   2.292
 3738SOL     OW13172   0.382   8.148   2.342
 3738SOL    HW113173   0.427   8.058   2.339
 3738SOL    HW213174   0.288   8.137   2.375
 3739SOL     OW13175   1.547   7.670   3.591
 3739SOL    HW113176   1.542   7.707   3.683
 3739SOL    HW213177   1.475   7.601   3.579
 3740SOL     OW13178   0.614   7.570   1.979
 3740SOL    HW113179   0.712   7.548   1.986
 3740SOL    HW213180   0.583   7.553   1.886
 3741SOL     OW13181   0.781   7.712   3.611
 3741SOL    HW113182   0.848   7.651   3.654
 3741SOL    HW213183   0.708   7.731   3.676
 3742SOL     OW13184   1.351   8.038   3.295
 3742SOL    HW113185   1.379   7.995   3.380
 3742SOL    HW213186   1.376   8.134   3.296
 3743SOL     OW13187   0.803   8.850   2.786
 3743SOL    HW113188   0.893   8.864   2.744
 3743SOL    HW213189   0.732   8.852   2.715
 3744SOL     OW13190   0.922   7.951   2.761
 3744SOL    HW113191   0.897   7.942   2.665
 3744SOL    HW213192   0.970   7.869   2.792
 3745SOL     OW13193   0.539   7.512   2.374
 3745SOL    HW113194   0.458   7.513   2.432
 3745SOL    HW213195   0.542   7.595   2.319
 3746SOL     OW13196   1.434   8.636   1.903
 3746SOL    HW113197   1.466   8.560   1.960
 3746SOL    HW213198   1.342   8.663   1.933
 3747SOL     OW13199   0.297   7.483   2.033
 3747SOL    HW113200   0.346   7.567   2.012
 3747SOL    HW213201   0.359   7.418   2.078
 3748SOL     OW13202   0.935   7.684   2.342
 3748SOL    HW113203   0.887   7.725   2.264
 3748SOL    HW213204   1.034   7.682   2.323
 3749SOL     OW13205   1.076   8.131   3.326
 3749SOL    HW113206   0.996   8.070   3.329
 3749SOL    HW213207   1.157   8.078   3.302
 3750SOL     OW13208   1.227   0.018   2.655
 3750SOL    HW113209   1.248   0.092   2.590
 3750SOL    HW213210   1.295   0.018   2.728
 3751SOL     OW13211   0.459   8.600   2.603
 3751SOL    HW113212   0.388   8.573   2.668
 3751SOL    HW213213   0.433   8.572   2.510
 3752SOL     OW13214   1.032   7.997   1.878
 3752SOL    HW113215   0.991   8.079   1.839
 3752SOL    HW213216   1.096   8.023   1.951
 3753SOL     OW13217   0.561   7.670   3.009
 3753SOL    HW113218   0.599   7.586   3.046
 3753SOL    HW213219   0.473   7.689   3.053
 3754SOL     OW13220   0.866   7.902   2.504
 3754SOL    HW113221   0.834   7.974   2.442
 3754SOL    HW213222   0.890   7.821   2.451
 3755SOL     OW13223   1.017   7.487   2.615
 3755SOL    HW113224   0.945   7.492   2.546
 3755SOL    HW213225   0.993   7.418   2.684
 3756SOL     OW13226   1.429   8.621   2.729
 3756SOL    HW113227   1.374   8.537   2.722
 3756SOL    HW213228   1.455   8.650   2.637
 3757SOL     OW13229   1.466   8.038   2.854
 3757SOL    HW113230   1.436   7.943   2.861
 3757SOL    HW213231   1.539   8.054   2.920
 3758SOL     OW13232   1.857   8.281   2.239
 3758SOL    HW113233   1.899   8.217   2.303
 3758SOL    HW213234   1.819   8.230   2.161
 3759SOL     OW13235   0.488   8.833   2.036
 3759SOL    HW113236   0.401   8.818   2.083
 3759SOL    HW213237   0.471   8.859   1.941
 3760SOL     OW13238   1.664   8.728   2.519
 3760SOL    HW113239   1.763   8.736   2.533
 3760SOL    HW213240   1.619   8.812   2.550
 3761SOL     OW13241   1.390   8.023   1.940
 3761SOL    HW113242   1.336   8.002   2.021
 3761SOL    HW213243   1.481   7.982   1.949
 3762SOL     OW13244   0.527   7.704   2.190
 3762SOL    HW113245   0.554   7.645   2.115
 3762SOL    HW213246   0.527   7.799   2.159
 3763SOL     OW13247   1.754   8.671   3.450
 3763SOL    HW113248   1.845   8.632   3.437
 3763SOL    HW213249   1.762   8.767   3.474
 3764SOL     OW13250   1.064   8.795   3.202
 3764SOL    HW113251   0.984   8.772   3.257
 3764SOL    HW213252   1.147   8.769   3.251
 3765SOL     OW13253   1.111   8.643   2.962
 3765SOL    HW113254   1.071   8.687   3.043
 3765SOL    HW213255   1.070   8.680   2.879
 3766SOL     OW13256   1.638   8.547   2.941
 3766SOL    HW113257   1.643   8.628   3.000
 3766SOL    HW213258   1.552   8.549   2.890
 3767SOL     OW13259   0.915   7.537   3.264
 3767SOL    HW113260   0.940   7.517   3.169
 3767SOL    HW213261   0.987   7.593   3.306
 3768SOL     OW13262   0.980   8.564   3.581
 3768SOL    HW113263   0.881   8.570   3.591
 3768SOL    HW213264   1.003   8.484   3.525
 3769SOL     OW13265   0.705   8.498   2.230
 3769SOL    HW113266   0.691   8.505   2.329
 3769SOL    HW213267   0.789   8.447   2.212
 3770SOL     OW13268   0.410   8.261   3.113
 3770SOL    HW113269   0.496   8.273   3.163
 3770SOL    HW213270   0.368   8.174   3.140
 3771SOL     OW13271   1.274   7.834   3.124
 3771SOL    HW113272   1.295   7.908   3.188
 3771SOL    HW213273   1.185   7.851   3.081
 3772SOL     OW13274   0.367   8.548   2.363
 3772SOL    HW113275   0.360   8.631   2.307
 3772SOL    HW213276   0.371   8.468   2.303
 3773SOL     OW13277   0.566   7.985   2.727
 3773SOL    HW113278   0.578   8.051   2.653
 3773SOL    HW213279   0.612   8.019   2.810
 3774SOL     OW13280   1.252   8.796   2.250
 3774SOL    HW113281   1.302   8.873   2.290
 3774SOL    HW213282   1.157   8.798   2.282
 3775SOL     OW13283   1.272   8.893   3.004
 3775SOL    HW113284   1.319   8.906   3.091
 3775SOL    HW213285   1.206   8.819   3.013
 3776SOL     OW13286   1.582   8.087   2.334
 3776SOL    HW113287   1.551   8.148   2.407
 3776SOL    HW213288   1.632   8.139   2.265
 3777SOL     OW13289   0.354   8.958   3.191
 3777SOL    HW113290   0.333   8.914   3.104
 3777SOL    HW213291   0.451   8.984   3.194
 3778SOL     OW13292   0.402   8.199   3.460
 3778SOL    HW113293   0.470   8.254   3.413
 3778SOL    HW213294   0.442   8.111   3.487
 3779SOL     OW13295   1.587   8.227   3.532
 3779SOL    HW113296   1.495   8.265   3.527
 3779SOL    HW213297   1.647   8.274   3.467
 3780SOL     OW13298   1.013   7.553   3.632
 3780SOL    HW113299   1.019   7.638   3.580
 3780SOL    HW213300   1.045   7.477   3.575
 3781SOL     OW13301   0.504   7.498   3.602
 3781SOL    HW113302   0.462   7.441   3.532
 3781SOL    HW213303   0.438   7.567   3.634
 3782SOL     OW13304   0.573   8.318   2.891
 3782SOL    HW113305   0.617   8.407   2.882
 3782SOL    HW213306   0.510   8.318   2.968
 3783SOL     OW13307   1.360   8.310   2.907
 3783SOL    HW113308   1.285   8.310   2.841
 3783SOL    HW213309   1.397   8.218   2.916
 3784SOL     OW13310   1.209   7.973   2.137
 3784SOL    HW113311   1.222   7.889   2.191
 3784SOL    HW213312   1.180   8.047   2.197
 3785SOL     OW13313   0.732   8.082   2.926
 3785SOL    HW113314   0.791   8.056   2.850
 3785SOL    HW213315   0.704   8.178   2.915
 3786SOL     OW13316   1.728   8.383   3.716
 3786SOL    HW113317   1.682   8.376   3.627
 3786SOL    HW213318   1.666   8.427   3.782
 3787SOL     OW13319   0.307   7.511   2.480
 3787SOL    HW113320   0.296   7.605   2.513
 3787SOL    HW213321   0.302   7.448   2.557
 3788SOL     OW13322   1.622   7.815   2.236
 3788SOL    HW113323   1.624   7.739   2.300
 3788SOL    HW213324   1.574   7.892   2.276
 3789SOL     OW13325   1.023   8.214   2.828
 3789SOL    HW113326   1.038   8.235   2.924
 3789SOL    HW213327   0.993   8.119   2.819
 3790SOL     OW13328   1.859   8.966   3.467
 3790SOL    HW113329   1.873   8.993   3.372
 3790SOL    HW213330   1.942   8.988   3.520
 3791SOL     OW13331   0.350   8.346   3.666
 3791SOL    HW113332   0.426   8.390   3.714
 3791SOL    HW213333   0.385   8.299   3.584
 3792SOL     OW13334   1.540   7.722   1.987
 3792SOL    HW113335   1.479   7.647   2.010
 3792SOL    HW213336   1.562   7.774   2.070
 3793SOL     OW13337   1.303   8.286   1.904
 3793SOL    HW113338   1.337   8.193   1.919
 3793SOL    HW213339   1.321   8.313   1.809
 3794SOL     OW13340   1.068   8.781   2.711
 3794SOL    HW113341   1.075   8.697   2.656
 3794SOL    HW213342   1.130   8.850   2.675
 3795SOL     OW13343   0.319   8.258   2.811
 3795SOL    HW113344   0.412   8.294   2.816
 3795SOL    HW213345   0.313   8.173   2.863
 3796SOL     OW13346   1.138   7.828   3.540
 3796SOL    HW113347   1.093   7.891   3.604
 3796SOL    HW213348   1.231   7.859   3.523
 3797SOL     OW13349   1.160   7.655   3.339
 3797SOL    HW113350   1.160   7.719   3.416
 3797SOL    HW213351   1.188   7.703   3.256
 3798SOL     OW13352   1.002   8.244   3.100
 3798SOL    HW113353   1.043   8.212   3.186
 3798SOL    HW213354   0.906   8.217   3.097
 3799SOL     OW13355   1.369   8.398   3.522
 3799SOL    HW113356   1.408   8.487   3.542
 3799SOL    HW213357   1.379   8.378   3.425
 3800SOL     OW13358   0.815   8.020   2.187
 3800SOL    HW113359   0.822   7.931   2.141
 3800SOL    HW213360   0.721   8.054   2.179
 3801SOL     OW13361   1.657   8.052   3.068
 3801SOL    HW113362   1.619   7.983   3.130
 3801SOL    HW213363   1.739   8.016   3.024
 3802SOL     OW13364   0.252   0.012   3.606
 3802SOL    HW113365   0.222   0.069   3.682
 3802SOL    HW213366   0.245  -0.085   3.632
 3803SOL     OW13367   0.671   7.912   3.131
 3803SOL    HW113368   0.637   7.823   3.101
 3803SOL    HW213369   0.697   7.966   3.051
 3804SOL     OW13370   0.473   7.948   2.053
 3804SOL    HW113371   0.534   8.028   2.057
 3804SOL    HW213372   0.378   7.979   2.060
 3805SOL     OW13373   1.347   8.507   3.096
 3805SOL    HW113374   1.371   8.444   3.022
 3805SOL    HW213375   1.257   8.547   3.078
 3806SOL     OW13376   1.302   8.303   2.171
 3806SOL    HW113377   1.216   8.272   2.213
 3806SOL    HW213378   1.298   8.289   2.072
 3807SOL     OW13379   0.903   7.534   1.995
 3807SOL    HW113380   0.954   7.535   1.909
 3807SOL    HW213381   0.959   7.492   2.066
 3808SOL     OW13382   1.726   7.583   2.385
 3808SOL    HW113383   1.799   7.566   2.318
 3808SOL    HW213384   1.695   7.496   2.423
 3809SOL     OW13385   1.280   8.375   2.534
 3809SOL    HW113386   1.340   8.294   2.536
 3809SOL    HW213387   1.320   8.444   2.474
 3810SOL     OW13388   0.830   8.721   3.284
 3810SOL    HW113389   0.825   8.754   3.379
 3810SOL    HW213390   0.744   8.740   3.238
 3811SOL     OW13391   1.841   7.623   2.825
 3811SOL    HW113392   1.880   7.538   2.789
 3811SOL    HW213393   1.743   7.625   2.806
 3812SOL     OW13394   0.263   7.774   2.582
 3812SOL    HW113395   0.184   7.825   2.548
 3812SOL    HW213396   0.254   7.759   2.680
 3813SOL     OW13397   0.822   8.450   3.234
 3813SOL    HW113398   0.862   8.449   3.142
 3813SOL    HW213399   0.832   8.542   3.274
 3814SOL     OW13400   0.916   8.358   2.153
 3814SOL    HW113401   0.979   8.396   2.085
 3814SOL    HW213402   0.956   8.275   2.192
 3815SOL     OW13403   0.372   8.736   3.352
 3815SOL    HW113404   0.359   8.829   3.318
 3815SOL    HW213405   0.288   8.684   3.339
 3816SOL     OW13406   1.614   8.740   3.151
 3816SOL    HW113407   1.674   8.743   3.231
 3816SOL    HW213408   1.539   8.804   3.164
 3817SOL     OW13409   1.039   8.546   2.558
 3817SOL    HW113410   0.969   8.499   2.612
 3817SOL    HW213411   1.098   8.478   2.515
 3818SOL     OW13412   1.014   7.684   2.833
 3818SOL    HW113413   1.006   7.648   2.740
 3818SOL    HW213414   1.012   7.608   2.898
 3819SOL     OW13415   1.709   7.833   3.243
 3819SOL    HW113416   1.782   7.902   3.247
 3819SOL    HW213417   1.737   7.758   3.184
 3820SOL     OW13418   0.255   8.796   2.152
 3820SOL    HW113419   0.159   8.797   2.125
 3820SOL    HW213420   0.267   8.849   2.236
 3821SOL     OW13421   0.672   7.651   3.351
 3821SOL    HW113422   0.762   7.635   3.311
 3821SOL    HW213423   0.680   7.656   3.450
 3822SOL     OW13424   1.440   8.304   3.260
 3822SOL    HW113425   1.383   8.356   3.197
 3822SOL    HW213426   1.536   8.316   3.236
 3823SOL     OW13427   1.183   8.783   1.981
 3823SOL    HW113428   1.084   8.772   1.983
 3823SOL    HW213429   1.217   8.798   2.074
 3824SOL     OW13430   0.613   8.290   3.293
 3824SOL    HW113431   0.669   8.371   3.276
 3824SOL    HW213432   0.672   8.210   3.296
 3825SOL     OW13433   0.716   8.013   3.570
 3825SOL    HW113434   0.735   8.078   3.644
 3825SOL    HW213435   0.776   7.933   3.579
 3826SOL     OW13436   1.450   8.668   3.495
 3826SOL    HW113437   1.441   8.658   3.594
 3826SOL    HW213438   1.546   8.661   3.469
 3827SOL     OW13439   1.674   8.331   3.116
 3827SOL    HW113440   1.647   8.242   3.079
 3827SOL    HW213441   1.675   8.399   3.043
 3828SOL     OW13442   1.225   7.773   2.311
 3828SOL    HW113443   1.290   7.699   2.300
 3828SOL    HW213444   1.245   7.823   2.395
 3829SOL     OW13445   0.594   8.193   2.514
 3829SOL    HW113446   0.644   8.278   2.495
 3829SOL    HW213447   0.506   8.195   2.466
 3830SOL     OW13448   1.777   7.790   3.504
 3830SOL    HW113449   1.760   7.821   3.410
 3830SOL    HW213450   1.693   7.753   3.542
 3831SOL     OW13451   1.730   8.382   3.379
 3831SOL    HW113452   1.768   8.473   3.394
 3831SOL    HW213453   1.722   8.365   3.280
 3832SOL     OW13454   0.859   8.822   1.878
 3832SOL    HW113455   0.813   8.837   1.966
 3832SOL    HW213456   0.903   8.907   1.848
 3833SOL     OW13457   0.859   8.404   2.723
 3833SOL    HW113458   0.913   8.335   2.771
 3833SOL    HW213459   0.827   8.473   2.789
 3834SOL     OW13460   1.083   8.432   1.949
 3834SOL    HW113461   1.060   8.485   1.867
 3834SOL    HW213462   1.164   8.376   1.930
 3835SOL     OW13463   0.672   8.839   3.486
 3835SOL    HW113464   0.594   8.789   3.524
 3835SOL    HW213465   0.669   8.934   3.517
 3836SOL     OW13466   1.824   7.640   3.089
 3836SOL    HW113467   1.820   7.550   3.133
 3836SOL    HW213468   1.827   7.629   2.990
 3837SOL     OW13469   0.428   7.872   2.382
 3837SOL    HW113470   0.458   7.800   2.320
 3837SOL    HW213471   0.389   7.832   2.465
 3838SOL     OW13472   1.705   8.935   2.966
 3838SOL    HW113473   1.612   8.910   2.939
 3838SOL    HW213474   1.731   8.885   3.048
 3839SOL     OW13475   1.424   7.662   2.974
 3839SOL    HW113476   1.476   7.597   3.029
 3839SOL    HW213477   1.375   7.725   3.035
 3840SOL     OW13478   1.001   7.482   3.016
 3840SOL    HW113479   0.938   7.410   2.985
 3840SOL    HW213480   1.094   7.446   3.016
 3841SOL     OW13481   0.770   8.778   2.163
 3841SOL    HW113482   0.724   8.691   2.180
 3841SOL    HW213483   0.861   8.775   2.204
 3842SOL     OW13484   0.618   0.015   3.146
 3842SOL    HW113485   0.613   0.097   3.203
 3842SOL    HW213486   0.707   0.012   3.101
 3843SOL     OW13487   1.352   7.500   2.030
 3843SOL    HW113488   1.387   7.459   1.946
 3843SOL    HW213489   1.262   7.462   2.050
 3844SOL     OW13490   1.300   7.901   2.553
 3844SOL    HW113491   1.241   7.981   2.557
 3844SOL    HW213492   1.315   7.866   2.646
 3845SOL     OW13493   1.593   7.669   2.744
 3845SOL    HW113494   1.509   7.668   2.798
 3845SOL    HW213495   1.595   7.752   2.688
 3846SOL     OW13496   0.019   7.816   4.371
 3846SOL    HW113497  -0.063   7.859   4.410
 3846SOL    HW213498  -0.009   7.743   4.308
 3847SOL     OW13499   0.569   8.723   4.889
 3847SOL    HW113500   0.476   8.716   4.852
 3847SOL    HW213501   0.580   8.812   4.933
 3848SOL     OW13502   1.555   8.959   4.427
 3848SOL    HW113503   1.498   8.943   4.508
 3848SOL    HW213504   1.496   8.969   4.347
 3849SOL     OW13505   1.743   8.066   4.580
 3849SOL    HW113506   1.776   8.160   4.580
 3849SOL    HW213507   1.794   8.012   4.646
 3850SOL     OW13508   1.135   8.151   4.441
 3850SOL    HW113509   1.192   8.229   4.416
 3850SOL    HW213510   1.075   8.177   4.517
 3851SOL     OW13511   1.755   8.055   3.955
 3851SOL    HW113512   1.743   8.042   3.856
 3851SOL    HW213513   1.725   7.974   4.004
 3852SOL     OW13514   0.768   8.592   4.747
 3852SOL    HW113515   0.690   8.609   4.807
 3852SOL    HW213516   0.802   8.679   4.711
 3853SOL     OW13517   0.850   8.246   5.547
 3853SOL    HW113518   0.846   8.322   5.612
 3853SOL    HW213519   0.872   8.282   5.456
 3854SOL     OW13520   0.685   8.460   4.389
 3854SOL    HW113521   0.754   8.444   4.459
 3854SOL    HW213522   0.612   8.517   4.427
 3855SOL     OW13523   0.686   8.609   5.527
 3855SOL    HW113524   0.746   8.688   5.541
 3855SOL    HW213525   0.600   8.640   5.486
 3856SOL     OW13526   0.335   8.883   4.785
 3856SOL    HW113527   0.257   8.852   4.732
 3856SOL    HW213528   0.393   8.941   4.728
 3857SOL     OW13529   1.460   8.953   5.063
 3857SOL    HW113530   1.484   9.047   5.089
 3857SOL    HW213531   1.444   8.899   5.145
 3858SOL     OW13532   0.438   7.840   5.223
 3858SOL    HW113533   0.520   7.784   5.232
 3858SOL    HW213534   0.357   7.782   5.227
 3859SOL     OW13535   1.603   7.895   4.461
 3859SOL    HW113536   1.529   7.941   4.411
 3859SOL    HW213537   1.654   7.963   4.514
 3860SOL     OW13538   1.127   8.789   5.414
 3860SOL    HW113539   1.174   8.789   5.502
 3860SOL    HW213540   1.079   8.702   5.403
 3861SOL     OW13541   0.606   8.412   3.847
 3861SOL    HW113542   0.613   8.496   3.793
 3861SOL    HW213543   0.652   8.425   3.935
 3862SOL     OW13544   1.594   7.562   5.204
 3862SOL    HW113545   1.576   7.629   5.132
 3862SOL    HW213546   1.591   7.608   5.293
 3863SOL     OW13547   1.689   8.370   4.336
 3863SOL    HW113548   1.784   8.341   4.344
 3863SOL    HW213549   1.681   8.435   4.261
 3864SOL     OW13550   1.641   8.556   4.156
 3864SOL    HW113551   1.727   8.558   4.104
 3864SOL    HW213552   1.655   8.603   4.244
 3865SOL     OW13553   0.613   8.813   4.450
 3865SOL    HW113554   0.564   8.726   4.459
 3865SOL    HW213555   0.590   8.856   4.363
 3866SOL     OW13556   1.293   8.676   5.147
 3866SOL    HW113557   1.330   8.603   5.089
 3866SOL    HW213558   1.345   8.681   5.232
 3867SOL     OW13559   0.809   7.452   4.226
 3867SOL    HW113560   0.849   7.543   4.217
 3867SOL    HW213561   0.709   7.460   4.232
 3868SOL     OW13562   1.525   8.447   3.914
 3868SOL    HW113563   1.462   8.371   3.927
 3868SOL    HW213564   1.573   8.465   4.000
 3869SOL     OW13565   0.317   7.699   5.525
 3869SOL    HW113566   0.388   7.770   5.531
 3869SOL    HW213567   0.229   7.738   5.553
 3870SOL     OW13568   1.466   8.865   4.677
 3870SOL    HW113569   1.407   8.871   4.757
 3870SOL    HW213570   1.451   8.777   4.631
 3871SOL     OW13571   0.598   8.177   3.994
 3871SOL    HW113572   0.622   8.246   3.926
 3871SOL    HW213573   0.520   8.210   4.048
 3872SOL     OW13574   1.281   7.793   4.668
 3872SOL    HW113575   1.195   7.743   4.655
 3872SOL    HW213576   1.343   7.739   4.724
 3873SOL     OW13577   0.807   8.053   5.189
 3873SOL    HW113578   0.760   8.050   5.278
 3873SOL    HW213579   0.756   7.998   5.123
 3874SOL     OW13580   1.394   7.917   5.398
 3874SOL    HW113581   1.374   7.960   5.486
 3874SOL    HW213582   1.472   7.855   5.407
 3875SOL     OW13583   0.973   8.338   5.296
 3875SOL    HW113584   1.019   8.254   5.267
 3875SOL    HW213585   0.917   8.372   5.221
 3876SOL     OW13586   0.991   7.858   4.966
 3876SOL    HW113587   0.914   7.892   5.020
 3876SOL    HW213588   0.957   7.807   4.887
 3877SOL     OW13589   1.041   8.149   4.153
 3877SOL    HW113590   1.067   8.145   4.249
 3877SOL    HW213591   0.956   8.098   4.139
 3878SOL     OW13592   0.865   7.796   3.919
 3878SOL    HW113593   0.924   7.859   3.870
 3878SOL    HW213594   0.884   7.702   3.890
 3879SOL     OW13595   1.719   8.033   5.555
 3879SOL    HW113596   1.693   8.122   5.519
 3879SOL    HW213597   1.717   7.965   5.482
 3880SOL     OW13598   1.362   8.592   4.269
 3880SOL    HW113599   1.445   8.563   4.221
 3880SOL    HW213600   1.313   8.659   4.213
 3881SOL     OW13601   0.550   7.644   4.609
 3881SOL    HW113602   0.545   7.639   4.709
 3881SOL    HW213603   0.552   7.740   4.580
 3882SOL     OW13604   1.008   8.904   4.201
 3882SOL    HW113605   0.962   8.976   4.149
 3882SOL    HW213606   1.004   8.924   4.299
 3883SOL     OW13607   1.795   8.514   4.597
 3883SOL    HW113608   1.733   8.499   4.521
 3883SOL    HW213609   1.743   8.525   4.682
 3884SOL     OW13610   1.227   8.998   5.230
 3884SOL    HW113611   1.233   8.921   5.294
 3884SOL    HW213612   1.175   8.972   5.150
 3885SOL     OW13613   0.321   8.391   3.966
 3885SOL    HW113614   0.403   8.430   3.924
 3885SOL    HW213615   0.294   8.309   3.917
 3886SOL     OW13616   1.458   8.183   4.452
 3886SOL    HW113617   1.453   8.118   4.527
 3886SOL    HW213618   1.538   8.242   4.465
 3887SOL     OW13619   0.461   8.714   5.451
 3887SOL    HW113620   0.411   8.715   5.365
 3887SOL    HW213621   0.398   8.696   5.527
 3888SOL     OW13622   1.111   0.224   3.961
 3888SOL    HW113623   1.051   0.162   4.011
 3888SOL    HW213624   1.142   0.180   3.876
 3889SOL     OW13625   1.632   8.825   3.805
 3889SOL    HW113626   1.600   8.919   3.795
 3889SOL    HW213627   1.556   8.762   3.793
 3890SOL     OW13628   1.400   7.555   4.150
 3890SOL    HW113629   1.376   7.518   4.060
 3890SOL    HW213630   1.499   7.571   4.154
 3891SOL     OW13631   0.382   8.148   4.204
 3891SOL    HW113632   0.427   8.058   4.201
 3891SOL    HW213633   0.288   8.137   4.237
 3892SOL     OW13634   1.547   7.670   5.453
 3892SOL    HW113635   1.542   7.707   5.545
 3892SOL    HW213636   1.475   7.601   5.441
 3893SOL     OW13637   0.614   7.570   3.841
 3893SOL    HW113638   0.712   7.548   3.848
 3893SOL    HW213639   0.583   7.553   3.748
 3894SOL     OW13640   0.781   7.712   5.473
 3894SOL    HW113641   0.848   7.651   5.516
 3894SOL    HW213642   0.708   7.731   5.538
 3895SOL     OW13643   1.351   8.038   5.157
 3895SOL    HW113644   1.379   7.995   5.242
 3895SOL    HW213645   1.376   8.134   5.158
 3896SOL     OW13646   0.803   8.850   4.648
 3896SOL    HW113647   0.893   8.864   4.606
 3896SOL    HW213648   0.732   8.852   4.577
 3897SOL     OW13649   0.922   7.951   4.623
 3897SOL    HW113650   0.897   7.942   4.527
 3897SOL    HW213651   0.970   7.869   4.654
 3898SOL     OW13652   0.539   7.512   4.236
 3898SOL    HW113653   0.458   7.513   4.294
 3898SOL    HW213654   0.542   7.595   4.181
 3899SOL     OW13655   1.434   8.636   3.765
 3899SOL    HW113656   1.466   8.560   3.822
 3899SOL    HW213657   1.342   8.663   3.795
 3900SOL     OW13658   0.297   7.483   3.895
 3900SOL    HW113659   0.346   7.567   3.874
 3900SOL    HW213660   0.359   7.418   3.940
 3901SOL     OW13661   0.935   7.684   4.204
 3901SOL    HW113662   0.887   7.725   4.126
 3901SOL    HW213663   1.034   7.682   4.185
 3902SOL     OW13664   1.076   8.131   5.188
 3902SOL    HW113665   0.996   8.070   5.191
 3902SOL    HW213666   1.157   8.078   5.164
 3903SOL     OW13667   1.227   0.018   4.517
 3903SOL    HW113668   1.248   0.092   4.452
 3903SOL    HW213669   1.295   0.018   4.590
 3904SOL     OW13670   0.459   8.600   4.465
 3904SOL    HW113671   0.388   8.573   4.530
 3904SOL    HW213672   0.433   8.572   4.372
 3905SOL     OW13673   1.032   7.997   3.740
 3905SOL    HW113674   0.991   8.079   3.701
 3905SOL    HW213675   1.096   8.023   3.813
 3906SOL     OW13676   0.561   7.670   4.871
 3906SOL    HW113677   0.599   7.586   4.908
 3906SOL    HW213678   0.473   7.689   4.915
 3907SOL     OW13679   0.866   7.902   4.366
 3907SOL    HW113680   0.834   7.974   4.304
 3907SOL    HW213681   0.890   7.821   4.313
 3908SOL     OW13682   1.017   7.487   4.477
 3908SOL    HW113683   0.945   7.492   4.408
 3908SOL    HW213684   0.993   7.418   4.546
 3909SOL     OW13685   1.429   8.621   4.591
 3909SOL    HW113686   1.374   8.537   4.584
 3909SOL    HW213687   1.455   8.650   4.499
 3910SOL     OW13688   1.466   8.038   4.716
 3910SOL    HW113689   1.436   7.943   4.723
 3910SOL    HW213690   1.539   8.054   4.782
 3911SOL     OW13691   1.857   8.281   4.101
 3911SOL    HW113692   1.899   8.217   4.165
 3911SOL    HW213693   1.819   8.230   4.023
 3912SOL     OW13694   0.488   8.833   3.898
 3912SOL    HW113695   0.401   8.818   3.945
 3912SOL    HW213696   0.471   8.859   3.803
 3913SOL     OW13697   1.664   8.728   4.381
 3913SOL    HW113698   1.763   8.736   4.395
 3913SOL    HW213699   1.619   8.812   4.412
 3914SOL     OW13700   1.390   8.023   3.802
 3914SOL    HW113701   1.336   8.002   3.883
 3914SOL    HW213702   1.481   7.982   3.811
 3915SOL     OW13703   0.527   7.704   4.052
 3915SOL    HW113704   0.554   7.645   3.977
 3915SOL    HW213705   0.527   7.799   4.021
 3916SOL     OW13706   1.754   8.671   5.312
 3916SOL    HW113707   1.845   8.632   5.299
 3916SOL    HW213708   1.762   8.767   5.336
 3917SOL     OW13709   1.064   8.795   5.064
 3917SOL    HW113710   0.984   8.772   5.119
 3917SOL    HW213711   1.147   8.769   5.113
 3918SOL     OW13712   1.111   8.643   4.824
 3918SOL    HW113713   1.071   8.687   4.905
 3918SOL    HW213714   1.070   8.680   4.741
 3919SOL     OW13715   1.638   8.547   4.803
 3919SOL    HW113716   1.643   8.628   4.862
 3919SOL    HW213717   1.552   8.549   4.752
 3920SOL     OW13718   0.915   7.537   5.126
 3920SOL    HW113719   0.940   7.517   5.031
 3920SOL    HW213720   0.987   7.593   5.168
 3921SOL     OW13721   0.980   8.564   5.443
 3921SOL    HW113722   0.881   8.570   5.453
 3921SOL    HW213723   1.003   8.484   5.387
 3922SOL     OW13724   0.705   8.498   4.092
 3922SOL    HW113725   0.691   8.505   4.191
 3922SOL    HW213726   0.789   8.447   4.074
 3923SOL     OW13727   0.410   8.261   4.975
 3923SOL    HW113728   0.496   8.273   5.025
 3923SOL    HW213729   0.368   8.174   5.002
 3924SOL     OW13730   1.274   7.834   4.986
 3924SOL    HW113731   1.295   7.908   5.050
 3924SOL    HW213732   1.185   7.851   4.943
 3925SOL     OW13733   0.367   8.548   4.225
 3925SOL    HW113734   0.360   8.631   4.169
 3925SOL    HW213735   0.371   8.468   4.165
 3926SOL     OW13736   0.566   7.985   4.589
 3926SOL    HW113737   0.578   8.051   4.515
 3926SOL    HW213738   0.612   8.019   4.672
 3927SOL     OW13739   1.252   8.796   4.112
 3927SOL    HW113740   1.302   8.873   4.152
 3927SOL    HW213741   1.157   8.798   4.144
 3928SOL     OW13742   1.272   8.893   4.866
 3928SOL    HW113743   1.319   8.906   4.953
 3928SOL    HW213744   1.206   8.819   4.875
 3929SOL     OW13745   1.582   8.087   4.196
 3929SOL    HW113746   1.551   8.148   4.269
 3929SOL    HW213747   1.632   8.139   4.127
 3930SOL     OW13748   0.354   8.958   5.053
 3930SOL    HW113749   0.333   8.914   4.966
 3930SOL    HW213750   0.451   8.984   5.056
 3931SOL     OW13751   0.402   8.199   5.322
 3931SOL    HW113752   0.470   8.254   5.275
 3931SOL    HW213753   0.442   8.111   5.349
 3932SOL     OW13754   1.587   8.227   5.394
 3932SOL    HW113755   1.495   8.265   5.389
 3932SOL    HW213756   1.647   8.274   5.329
 3933SOL     OW13757   1.013   7.553   5.494
 3933SOL    HW113758   1.019   7.638   5.442
 3933SOL    HW213759   1.045   7.477   5.437
 3934SOL     OW13760   0.504   7.498   5.464
 3934SOL    HW113761   0.462   7.441   5.394
 3934SOL    HW213762   0.438   7.567   5.496
 3935SOL     OW13763   0.573   8.318   4.753
 3935SOL    HW113764   0.617   8.407   4.744
 3935SOL    HW213765   0.510   8.318   4.830
 3936SOL     OW13766   1.360   8.310   4.769
 3936SOL    HW113767   1.285   8.310   4.703
 3936SOL    HW213768   1.397   8.218   4.778
 3937SOL     OW13769   1.209   7.973   3.999
 3937SOL    HW113770   1.222   7.889   4.053
 3937SOL    HW213771   1.180   8.047   4.059
 3938SOL     OW13772   0.732   8.082   4.788
 3938SOL    HW113773   0.791   8.056   4.712
 3938SOL    HW213774   0.704   8.178   4.777
 3939SOL     OW13775   1.728   8.383   5.578
 3939SOL    HW113776   1.682   8.376   5.489
 3939SOL    HW213777   1.666   8.427   5.644
 3940SOL     OW13778   0.307   7.511   4.342
 3940SOL    HW113779   0.296   7.605   4.375
 3940SOL    HW213780   0.302   7.448   4.419
 3941SOL     OW13781   1.622   7.815   4.098
 3941SOL    HW113782   1.624   7.739   4.162
 3941SOL    HW213783   1.574   7.892   4.138
 3942SOL     OW13784   1.023   8.214   4.690
 3942SOL    HW113785   1.038   8.235   4.786
 3942SOL    HW213786   0.993   8.119   4.681
 3943SOL     OW13787   1.859   8.966   5.329
 3943SOL    HW113788   1.873   8.993   5.234
 3943SOL    HW213789   1.942   8.988   5.382
 3944SOL     OW13790   0.350   8.346   5.528
 3944SOL    HW113791   0.426   8.390   5.576
 3944SOL    HW213792   0.385   8.299   5.446
 3945SOL     OW13793   1.540   7.722   3.849
 3945SOL    HW113794   1.479   7.647   3.872
 3945SOL    HW213795   1.562   7.774   3.932
 3946SOL     OW13796   1.303   8.286   3.766
 3946SOL    HW113797   1.337   8.193   3.781
 3946SOL    HW213798   1.321   8.313   3.671
 3947SOL     OW13799   1.068   8.781   4.573
 3947SOL    HW113800   1.075   8.697   4.518
 3947SOL    HW213801   1.130   8.850   4.537
 3948SOL     OW13802   0.319   8.258   4.673
 3948SOL    HW113803   0.412   8.294   4.678
 3948SOL    HW213804   0.313   8.173   4.725
 3949SOL     OW13805   1.138   7.828   5.402
 3949SOL    HW113806   1.093   7.891   5.466
 3949SOL    HW213807   1.231   7.859   5.385
 3950SOL     OW13808   1.160   7.655   5.201
 3950SOL    HW113809   1.160   7.719   5.278
 3950SOL    HW213810   1.188   7.703   5.118
 3951SOL     OW13811   1.002   8.244   4.962
 3951SOL    HW113812   1.043   8.212   5.048
 3951SOL    HW213813   0.906   8.217   4.959
 3952SOL     OW13814   1.369   8.398   5.384
 3952SOL    HW113815   1.408   8.487   5.404
 3952SOL    HW213816   1.379   8.378   5.287
 3953SOL     OW13817   0.815   8.020   4.049
 3953SOL    HW113818   0.822   7.931   4.003
 3953SOL    HW213819   0.721   8.054   4.041
 3954SOL     OW13820   1.657   8.052   4.930
 3954SOL    HW113821   1.619   7.983   4.992
 3954SOL    HW213822   1.739   8.016   4.886
 3955SOL     OW13823   0.252   0.012   5.468
 3955SOL    HW113824   0.222   0.069   5.544
 3955SOL    HW213825   0.245  -0.085   5.494
 3956SOL     OW13826   0.671   7.912   4.993
 3956SOL    HW113827   0.637   7.823   4.963
 3956SOL    HW213828   0.697   7.966   4.913
 3957SOL     OW13829   0.473   7.948   3.915
 3957SOL    HW113830   0.534   8.028   3.919
 3957SOL    HW213831   0.378   7.979   3.922
 3958SOL     OW13832   1.347   8.507   4.958
 3958SOL    HW113833   1.371   8.444   4.884
 3958SOL    HW213834   1.257   8.547   4.940
 3959SOL     OW13835   1.302   8.303   4.033
 3959SOL    HW113836   1.216   8.272   4.075
 3959SOL    HW213837   1.298   8.289   3.934
 3960SOL     OW13838   0.903   7.534   3.857
 3960SOL    HW113839   0.954   7.535   3.771
 3960SOL    HW213840   0.959   7.492   3.928
 3961SOL     OW13841   1.726   7.583   4.247
 3961SOL    HW113842   1.799   7.566   4.180
 3961SOL    HW213843   1.695   7.496   4.285
 3962SOL     OW13844   1.280   8.375   4.396
 3962SOL    HW113845   1.340   8.294   4.398
 3962SOL    HW213846   1.320   8.444   4.336
 3963SOL     OW13847   0.830   8.721   5.146
 3963SOL    HW113848   0.825   8.754   5.241
 3963SOL    HW213849   0.744   8.740   5.100
 3964SOL     OW13850   1.841   7.623   4.687
 3964SOL    HW113851   1.880   7.538   4.651
 3964SOL    HW213852   1.743   7.625   4.668
 3965SOL     OW13853   0.263   7.774   4.444
 3965SOL    HW113854   0.184   7.825   4.410
 3965SOL    HW213855   0.254   7.759   4.542
 3966SOL     OW13856   0.822   8.450   5.096
 3966SOL    HW113857   0.862   8.449   5.004
 3966SOL    HW213858   0.832   8.542   5.136
 3967SOL     OW13859   0.916   8.358   4.015
 3967SOL    HW113860   0.979   8.396   3.947
 3967SOL    HW213861   0.956   8.275   4.054
 3968SOL     OW13862   0.372   8.736   5.214
 3968SOL    HW113863   0.359   8.829   5.180
 3968SOL    HW213864   0.288   8.684   5.201
 3969SOL     OW13865   1.614   8.740   5.013
 3969SOL    HW113866   1.674   8.743   5.093
 3969SOL    HW213867   1.539   8.804   5.026
 3970SOL     OW13868   1.039   8.546   4.420
 3970SOL    HW113869   0.969   8.499   4.474
 3970SOL    HW213870   1.098   8.478   4.377
 3971SOL     OW13871   1.014   7.684   4.695
 3971SOL    HW113872   1.006   7.648   4.602
 3971SOL    HW213873   1.012   7.608   4.760
 3972SOL     OW13874   1.709   7.833   5.105
 3972SOL    HW113875   1.782   7.902   5.109
 3972SOL    HW213876   1.737   7.758   5.046
 3973SOL     OW13877   0.255   8.796   4.014
 3973SOL    HW113878   0.159   8.797   3.987
 3973SOL    HW213879   0.267   8.849   4.098
 3974SOL     OW13880   0.672   7.651   5.213
 3974SOL    HW113881   0.762   7.635   5.173
 3974SOL    HW213882   0.680   7.656   5.312
 3975SOL     OW13883   1.440   8.304   5.122
 3975SOL    HW113884   1.383   8.356   5.059
 3975SOL    HW213885   1.536   8.316   5.098
 3976SOL     OW13886   1.183   8.783   3.843
 3976SOL    HW113887   1.084   8.772   3.845
 3976SOL    HW213888   1.217   8.798   3.936
 3977SOL     OW13889   0.613   8.290   5.155
 3977SOL    HW113890   0.669   8.371   5.138
 3977SOL    HW213891   0.672   8.210   5.158
 3978SOL     OW13892   0.716   8.013   5.432
 3978SOL    HW113893   0.735   8.078   5.506
 3978SOL    HW213894   0.776   7.933   5.441
 3979SOL     OW13895   1.450   8.668   5.357
 3979SOL    HW113896   1.441   8.658   5.456
 3979SOL    HW213897   1.546   8.661   5.331
 3980SOL     OW13898   1.674   8.331   4.978
 3980SOL    HW113899   1.647   8.242   4.941
 3980SOL    HW213900   1.675   8.399   4.905
 3981SOL     OW13901   1.225   7.773   4.173
 3981SOL    HW113902   1.290   7.699   4.162
 3981SOL    HW213903   1.245   7.823   4.257
 3982SOL     OW13904   0.594   8.193   4.376
 3982SOL    HW113905   0.644   8.278   4.357
 3982SOL    HW213906   0.506   8.195   4.328
 3983SOL     OW13907   1.777   7.790   5.366
 3983SOL    HW113908   1.760   7.821   5.272
 3983SOL    HW213909   1.693   7.753   5.404
 3984SOL     OW13910   1.730   8.382   5.241
 3984SOL    HW113911   1.768   8.473   5.256
 3984SOL    HW213912   1.722   8.365   5.142
 3985SOL     OW13913   0.859   8.822   3.740
 3985SOL    HW113914   0.813   8.837   3.828
 3985SOL    HW213915   0.903   8.907   3.710
 3986SOL     OW13916   0.859   8.404   4.585
 3986SOL    HW113917   0.913   8.335   4.633
 3986SOL    HW213918   0.827   8.473   4.651
 3987SOL     OW13919   1.083   8.432   3.811
 3987SOL    HW113920   1.060   8.485   3.729
 3987SOL    HW213921   1.164   8.376   3.792
 3988SOL     OW13922   0.672   8.839   5.348
 3988SOL    HW113923   0.594   8.789   5.386
 3988SOL    HW213924   0.669   8.934   5.379
 3989SOL     OW13925   1.824   7.640   4.951
 3989SOL    HW113926   1.820   7.550   4.995
 3989SOL    HW213927   1.827   7.629   4.852
 3990SOL     OW13928   0.428   7.872   4.244
 3990SOL    HW113929   0.458   7.800   4.182
 3990SOL    HW213930   0.389   7.832   4.327
 3991SOL     OW13931   1.705   8.935   4.828
 3991SOL    HW113932   1.612   8.910   4.801
 3991SOL    HW213933   1.731   8.885   4.910
 3992SOL     OW13934   1.424   7.662   4.836
 3992SOL    HW113935   1.476   7.597   4.891
 3992SOL    HW213936   1.375   7.725   4.897
 3993SOL     OW13937   1.001   7.482   4.878
 3993SOL    HW113938   0.938   7.410   4.847
 3993SOL    HW213939   1.094   7.446   4.878
 3994SOL     OW13940   0.770   8.778   4.025
 3994SOL    HW113941   0.724   8.691   4.042
 3994SOL    HW213942   0.861   8.775   4.066
 3995SOL     OW13943   0.618   0.015   5.008
 3995SOL    HW113944   0.613   0.097   5.065
 3995SOL    HW213945   0.707   0.012   4.963
 3996SOL     OW13946   1.352   7.500   3.892
 3996SOL    HW113947   1.387   7.459   3.808
 3996SOL    HW213948   1.262   7.462   3.912
 3997SOL     OW13949   1.300   7.901   4.415
 3997SOL    HW113950   1.241   7.981   4.419
 3997SOL    HW213951   1.315   7.866   4.508
 3998SOL     OW13952   1.593   7.669   4.606
 3998SOL    HW113953   1.509   7.668   4.660
 3998SOL    HW213954   1.595   7.752   4.550
 3999SOL     OW13955   0.019   7.816   6.233
 3999SOL    HW113956  -0.063   7.859   6.272
 3999SOL    HW213957  -0.009   7.743   6.170
 4000SOL     OW13958   0.569   8.723   6.751
 4000SOL    HW113959   0.476   8.716   6.714
 4000SOL    HW213960   0.580   8.812   6.795
 4001SOL     OW13961   1.555   8.959   6.289
 4001SOL    HW113962   1.498   8.943   6.370
 4001SOL    HW213963   1.496   8.969   6.209
 4002SOL     OW13964   1.743   8.066   6.442
 4002SOL    HW113965   1.776   8.160   6.442
 4002SOL    HW213966   1.794   8.012   6.508
 4003SOL     OW13967   1.135   8.151   6.303
 4003SOL    HW113968   1.192   8.229   6.278
 4003SOL    HW213969   1.075   8.177   6.379
 4004SOL     OW13970   1.755   8.055   5.817
 4004SOL    HW113971   1.743   8.042   5.718
 4004SOL    HW213972   1.725   7.974   5.866
 4005SOL     OW13973   0.768   8.592   6.609
 4005SOL    HW113974   0.690   8.609   6.669
 4005SOL    HW213975   0.802   8.679   6.573
 4006SOL     OW13976   0.850   8.246   7.409
 4006SOL    HW113977   0.846   8.322   7.474
 4006SOL    HW213978   0.872   8.282   7.318
 4007SOL     OW13979   0.685   8.460   6.251
 4007SOL    HW113980   0.754   8.444   6.321
 4007SOL    HW213981   0.612   8.517   6.289
 4008SOL     OW13982   0.686   8.609   7.389
 4008SOL    HW113983   0.746   8.688   7.403
 4008SOL    HW213984   0.600   8.640   7.348
 4009SOL     OW13985   0.335   8.883   6.647
 4009SOL    HW113986   0.257   8.852   6.594
 4009SOL    HW213987   0.393   8.941   6.590
 4010SOL     OW13988   1.460   8.953   6.925
 4010SOL    HW113989   1.484   9.047   6.951
 4010SOL    HW213990   1.444   8.899   7.007
 4011SOL     OW13991   0.438   7.840   7.085
 4011SOL    HW113992   0.520   7.784   7.094
 4011SOL    HW213993   0.357   7.782   7.089
 4012SOL     OW13994   1.603   7.895   6.323
 4012SOL    HW113995   1.529   7.941   6.273
 4012SOL    HW213996   1.654   7.963   6.376
 4013SOL     OW13997   1.127   8.789   7.276
 4013SOL    HW113998   1.174   8.789   7.364
 4013SOL    HW213999   1.079   8.702   7.265
 4014SOL     OW14000   0.606   8.412   5.709
 4014SOL    HW114001   0.613   8.496   5.655
 4014SOL    HW214002   0.652   8.425   5.797
 4015SOL     OW14003   1.594   7.562   7.066
 4015SOL    HW114004   1.576   7.629   6.994
 4015SOL    HW214005   1.591   7.608   7.155
 4016SOL     OW14006   1.689   8.370   6.198
 4016SOL    HW114007   1.784   8.341   6.206
 4016SOL    HW214008   1.681   8.435   6.123
 4017SOL     OW14009   1.641   8.556   6.018
 4017SOL    HW114010   1.727   8.558   5.966
 4017SOL    HW214011   1.655   8.603   6.106
 4018SOL     OW14012   0.613   8.813   6.312
 4018SOL    HW114013   0.564   8.726   6.321
 4018SOL    HW214014   0.590   8.856   6.225
 4019SOL     OW14015   1.293   8.676   7.009
 4019SOL    HW114016   1.330   8.603   6.951
 4019SOL    HW214017   1.345   8.681   7.094
 4020SOL     OW14018   1.525   8.447   5.776
 4020SOL    HW114019   1.462   8.371   5.789
 4020SOL    HW214020   1.573   8.465   5.862
 4021SOL     OW14021   0.317   7.699   7.387
 4021SOL    HW114022   0.388   7.770   7.393
 4021SOL    HW214023   0.229   7.738   7.415
 4022SOL     OW14024   1.466   8.865   6.539
 4022SOL    HW114025   1.407   8.871   6.619
 4022SOL    HW214026   1.451   8.777   6.493
 4023SOL     OW14027   0.598   8.177   5.856
 4023SOL    HW114028   0.622   8.246   5.788
 4023SOL    HW214029   0.520   8.210   5.910
 4024SOL     OW14030   1.281   7.793   6.530
 4024SOL    HW114031   1.195   7.743   6.517
 4024SOL    HW214032   1.343   7.739   6.586
 4025SOL     OW14033   0.807   8.053   7.051
 4025SOL    HW114034   0.760   8.050   7.140
 4025SOL    HW214035   0.756   7.998   6.985
 4026SOL     OW14036   1.394   7.917   7.260
 4026SOL    HW114037   1.374   7.960   7.348
 4026SOL    HW214038   1.472   7.855   7.269
 4027SOL     OW14039   0.973   8.338   7.158
 4027SOL    HW114040   1.019   8.254   7.129
 4027SOL    HW214041   0.917   8.372   7.083
 4028SOL     OW14042   0.991   7.858   6.828
 4028SOL    HW114043   0.914   7.892   6.882
 4028SOL    HW214044   0.957   7.807   6.749
 4029SOL     OW14045   1.041   8.149   6.015
 4029SOL    HW114046   1.067   8.145   6.111
 4029SOL    HW214047   0.956   8.098   6.001
 4030SOL     OW14048   0.865   7.796   5.781
 4030SOL    HW114049   0.924   7.859   5.732
 4030SOL    HW214050   0.884   7.702   5.752
 4031SOL     OW14051   1.719   8.033   7.417
 4031SOL    HW114052   1.693   8.122   7.381
 4031SOL    HW214053   1.717   7.965   7.344
 4032SOL     OW14054   1.362   8.592   6.131
 4032SOL    HW114055   1.445   8.563   6.083
 4032SOL    HW214056   1.313   8.659   6.075
 4033SOL     OW14057   1.008   8.904   6.063
 4033SOL    HW114058   0.962   8.976   6.011
 4033SOL    HW214059   1.004   8.924   6.161
 4034SOL     OW14060   1.795   8.514   6.459
 4034SOL    HW114061   1.733   8.499   6.383
 4034SOL    HW214062   1.743   8.525   6.544
 4035SOL     OW14063   1.227   8.998   7.092
 4035SOL    HW114064   1.233   8.921   7.156
 4035SOL    HW214065   1.175   8.972   7.012
 4036SOL     OW14066   0.321   8.391   5.828
 4036SOL    HW114067   0.403   8.430   5.786
 4036SOL    HW214068   0.294   8.309   5.779
 4037SOL     OW14069   1.458   8.183   6.314
 4037SOL    HW114070   1.453   8.118   6.389
 4037SOL    HW214071   1.538   8.242   6.327
 4038SOL     OW14072   0.461   8.714   7.313
 4038SOL    HW114073   0.411   8.715   7.227
 4038SOL    HW214074   0.398   8.696   7.389
 4039SOL     OW14075   1.111   0.224   5.823
 4039SOL    HW114076   1.051   0.162   5.873
 4039SOL    HW214077   1.142   0.180   5.738
 4040SOL     OW14078   1.632   8.825   5.667
 4040SOL    HW114079   1.600   8.919   5.657
 4040SOL    HW214080   1.556   8.762   5.655
 4041SOL     OW14081   1.400   7.555   6.012
 4041SOL    HW114082   1.376   7.518   5.922
 4041SOL    HW214083   1.499   7.571   6.016
 4042SOL     OW14084   0.382   8.148   6.066
 4042SOL    HW114085   0.427   8.058   6.063
 4042SOL    HW214086   0.288   8.137   6.099
 4043SOL     OW14087   1.547   7.670   7.315
 4043SOL    HW114088   1.542   7.707   7.407
 4043SOL    HW214089   1.475   7.601   7.303
 4044SOL     OW14090   0.614   7.570   5.703
 4044SOL    HW114091   0.712   7.548   5.710
 4044SOL    HW214092   0.583   7.553   5.610
 4045SOL     OW14093   0.781   7.712   7.335
 4045SOL    HW114094   0.848   7.651   7.378
 4045SOL    HW214095   0.708   7.731   7.400
 4046SOL     OW14096   1.351   8.038   7.019
 4046SOL    HW114097   1.379   7.995   7.104
 4046SOL    HW214098   1.376   8.134   7.020
 4047SOL     OW14099   0.803   8.850   6.510
 4047SOL    HW114100   0.893   8.864   6.468
 4047SOL    HW214101   0.732   8.852   6.439
 4048SOL     OW14102   0.922   7.951   6.485
 4048SOL    HW114103   0.897   7.942   6.389
 4048SOL    HW214104   0.970   7.869   6.516
 4049SOL     OW14105   0.539   7.512   6.098
 4049SOL    HW114106   0.458   7.513   6.156
 4049SOL    HW214107   0.542   7.595   6.043
 4050SOL     OW14108   1.434   8.636   5.627
 4050SOL    HW114109   1.466   8.560   5.684
 4050SOL    HW214110   1.342   8.663   5.657
 4051SOL     OW14111   0.297   7.483   5.757
 4051SOL    HW114112   0.346   7.567   5.736
 4051SOL    HW214113   0.359   7.418   5.802
 4052SOL     OW14114   1.076   8.131   7.050
 4052SOL    HW114115   0.996   8.070   7.053
 4052SOL    HW214116   1.157   8.078   7.026
 4053SOL     OW14117   1.227   0.018   6.379
 4053SOL    HW114118   1.248   0.092   6.314
 4053SOL    HW214119   1.295   0.018   6.452
 4054SOL     OW14120   0.459   8.600   6.327
 4054SOL    HW114121   0.388   8.573   6.392
 4054SOL    HW214122   0.433   8.572   6.234
 4055SOL     OW14123   1.032   7.997   5.602
 4055SOL    HW114124   0.991   8.079   5.563
 4055SOL    HW214125   1.096   8.023   5.675
 4056SOL     OW14126   0.561   7.670   6.733
 4056SOL    HW114127   0.599   7.586   6.770
 4056SOL    HW214128   0.473   7.689   6.777
 4057SOL     OW14129   1.429   8.621   6.453
 4057SOL    HW114130   1.374   8.537   6.446
 4057SOL    HW214131   1.455   8.650   6.361
 4058SOL     OW14132   1.466   8.038   6.578
 4058SOL    HW114133   1.436   7.943   6.585
 4058SOL    HW214134   1.539   8.054   6.644
 4059SOL     OW14135   1.857   8.281   5.963
 4059SOL    HW114136   1.899   8.217   6.027
 4059SOL    HW214137   1.819   8.230   5.885
 4060SOL     OW14138   0.488   8.833   5.760
 4060SOL    HW114139   0.401   8.818   5.807
 4060SOL    HW214140   0.471   8.859   5.665
 4061SOL     OW14141   1.664   8.728   6.243
 4061SOL    HW114142   1.763   8.736   6.257
 4061SOL    HW214143   1.619   8.812   6.274
 4062SOL     OW14144   1.390   8.023   5.664
 4062SOL    HW114145   1.336   8.002   5.745
 4062SOL    HW214146   1.481   7.982   5.673
 4063SOL     OW14147   1.754   8.671   7.174
 4063SOL    HW114148   1.845   8.632   7.161
 4063SOL    HW214149   1.762   8.767   7.198
 4064SOL     OW14150   1.064   8.795   6.926
 4064SOL    HW114151   0.984   8.772   6.981
 4064SOL    HW214152   1.147   8.769   6.975
 4065SOL     OW14153   1.111   8.643   6.686
 4065SOL    HW114154   1.071   8.687   6.767
 4065SOL    HW214155   1.070   8.680   6.603
 4066SOL     OW14156   1.638   8.547   6.665
 4066SOL    HW114157   1.643   8.628   6.724
 4066SOL    HW214158   1.552   8.549   6.614
 4067SOL     OW14159   0.915   7.537   6.988
 4067SOL    HW114160   0.940   7.517   6.893
 4067SOL    HW214161   0.987   7.593   7.030
 4068SOL     OW14162   0.980   8.564   7.305
 4068SOL    HW114163   0.881   8.570   7.315
 4068SOL    HW214164   1.003   8.484   7.249
 4069SOL     OW14165   0.705   8.498   5.954
 4069SOL    HW114166   0.691   8.505   6.053
 4069SOL    HW214167   0.789   8.447   5.936
 4070SOL     OW14168   0.410   8.261   6.837
 4070SOL    HW114169   0.496   8.273   6.887
 4070SOL    HW214170   0.368   8.174   6.864
 4071SOL     OW14171   1.274   7.834   6.848
 4071SOL    HW114172   1.295   7.908   6.912
 4071SOL    HW214173   1.185   7.851   6.805
 4072SOL     OW14174   0.367   8.548   6.087
 4072SOL    HW114175   0.360   8.631   6.031
 4072SOL    HW214176   0.371   8.468   6.027
 4073SOL     OW14177   1.252   8.796   5.974
 4073SOL    HW114178   1.302   8.873   6.014
 4073SOL    HW214179   1.157   8.798   6.006
 4074SOL     OW14180   1.272   8.893   6.728
 4074SOL    HW114181   1.319   8.906   6.815
 4074SOL    HW214182   1.206   8.819   6.737
 4075SOL     OW14183   1.582   8.087   6.058
 4075SOL    HW114184   1.551   8.148   6.131
 4075SOL    HW214185   1.632   8.139   5.989
 4076SOL     OW14186   0.354   8.958   6.915
 4076SOL    HW114187   0.333   8.914   6.828
 4076SOL    HW214188   0.451   8.984   6.918
 4077SOL     OW14189   0.402   8.199   7.184
 4077SOL    HW114190   0.470   8.254   7.137
 4077SOL    HW214191   0.442   8.111   7.211
 4078SOL     OW14192   1.587   8.227   7.256
 4078SOL    HW114193   1.495   8.265   7.251
 4078SOL    HW214194   1.647   8.274   7.191
 4079SOL     OW14195   1.013   7.553   7.356
 4079SOL    HW114196   1.019   7.638   7.304
 4079SOL    HW214197   1.045   7.477   7.299
 4080SOL     OW14198   0.504   7.498   7.326
 4080SOL    HW114199   0.462   7.441   7.256
 4080SOL    HW214200   0.438   7.567   7.358
 4081SOL     OW14201   0.573   8.318   6.615
 4081SOL    HW114202   0.617   8.407   6.606
 4081SOL    HW214203   0.510   8.318   6.692
 4082SOL     OW14204   1.360   8.310   6.631
 4082SOL    HW114205   1.285   8.310   6.565
 4082SOL    HW214206   1.397   8.218   6.640
 4083SOL     OW14207   1.209   7.973   5.861
 4083SOL    HW114208   1.222   7.889   5.915
 4083SOL    HW214209   1.180   8.047   5.921
 4084SOL     OW14210   0.732   8.082   6.650
 4084SOL    HW114211   0.791   8.056   6.574
 4084SOL    HW214212   0.704   8.178   6.639
 4085SOL     OW14213   1.728   8.383   7.440
 4085SOL    HW114214   1.682   8.376   7.351
 4085SOL    HW214215   1.666   8.427   7.506
 4086SOL     OW14216   0.307   7.511   6.204
 4086SOL    HW114217   0.296   7.605   6.237
 4086SOL    HW214218   0.302   7.448   6.281
 4087SOL     OW14219   1.622   7.815   5.960
 4087SOL    HW114220   1.624   7.739   6.024
 4087SOL    HW214221   1.574   7.892   6.000
 4088SOL     OW14222   1.023   8.214   6.552
 4088SOL    HW114223   1.038   8.235   6.648
 4088SOL    HW214224   0.993   8.119   6.543
 4089SOL     OW14225   1.859   8.966   7.191
 4089SOL    HW114226   1.873   8.993   7.096
 4089SOL    HW214227   1.942   8.988   7.244
 4090SOL     OW14228   0.350   8.346   7.390
 4090SOL    HW114229   0.426   8.390   7.438
 4090SOL    HW214230   0.385   8.299   7.308
 4091SOL     OW14231   1.540   7.722   5.711
 4091SOL    HW114232   1.479   7.647   5.734
 4091SOL    HW214233   1.562   7.774   5.794
 4092SOL     OW14234   1.303   8.286   5.628
 4092SOL    HW114235   1.337   8.193   5.643
 4092SOL    HW214236   1.321   8.313   5.533
 4093SOL     OW14237   1.068   8.781   6.435
 4093SOL    HW114238   1.075   8.697   6.380
 4093SOL    HW214239   1.130   8.850   6.399
 4094SOL     OW14240   0.319   8.258   6.535
 4094SOL    HW114241   0.412   8.294   6.540
 4094SOL    HW214242   0.313   8.173   6.587
 4095SOL     OW14243   1.138   7.828   7.264
 4095SOL    HW114244   1.093   7.891   7.328
 4095SOL    HW214245   1.231   7.859   7.247
 4096SOL     OW14246   1.160   7.655   7.063
 4096SOL    HW114247   1.160   7.719   7.140
 4096SOL    HW214248   1.188   7.703   6.980
 4097SOL     OW14249   1.002   8.244   6.824
 4097SOL    HW114250   1.043   8.212   6.910
 4097SOL    HW214251   0.906   8.217   6.821
 4098SOL     OW14252   1.369   8.398   7.246
 4098SOL    HW114253   1.408   8.487   7.266
 4098SOL    HW214254   1.379   8.378   7.149
 4099SOL     OW14255   0.815   8.020   5.911
 4099SOL    HW114256   0.822   7.931   5.865
 4099SOL    HW214257   0.721   8.054   5.903
 4100SOL     OW14258   1.657   8.052   6.792
 4100SOL    HW114259   1.619   7.983   6.854
 4100SOL    HW214260   1.739   8.016   6.748
 4101SOL     OW14261   0.252   0.012   7.330
 4101SOL    HW114262   0.222   0.069   7.406
 4101SOL    HW214263   0.245  -0.085   7.356
 4102SOL     OW14264   0.671   7.912   6.855
 4102SOL    HW114265   0.637   7.823   6.825
 4102SOL    HW214266   0.697   7.966   6.775
 4103SOL     OW14267   0.473   7.948   5.777
 4103SOL    HW114268   0.534   8.028   5.781
 4103SOL    HW214269   0.378   7.979   5.784
 4104SOL     OW14270   1.347   8.507   6.820
 4104SOL    HW114271   1.371   8.444   6.746
 4104SOL    HW214272   1.257   8.547   6.802
 4105SOL     OW14273   1.302   8.303   5.895
 4105SOL    HW114274   1.216   8.272   5.937
 4105SOL    HW214275   1.298   8.289   5.796
 4106SOL     OW14276   0.903   7.534   5.719
 4106SOL    HW114277   0.954   7.535   5.633
 4106SOL    HW214278   0.959   7.492   5.790
 4107SOL     OW14279   1.726   7.583   6.109
 4107SOL    HW114280   1.799   7.566   6.042
 4107SOL    HW214281   1.695   7.496   6.147
 4108SOL     OW14282   1.280   8.375   6.258
 4108SOL    HW114283   1.340   8.294   6.260
 4108SOL    HW214284   1.320   8.444   6.198
 4109SOL     OW14285   0.830   8.721   7.008
 4109SOL    HW114286   0.825   8.754   7.103
 4109SOL    HW214287   0.744   8.740   6.962
 4110SOL     OW14288   1.841   7.623   6.549
 4110SOL    HW114289   1.880   7.538   6.513
 4110SOL    HW214290   1.743   7.625   6.530
 4111SOL     OW14291   0.263   7.774   6.306
 4111SOL    HW114292   0.184   7.825   6.272
 4111SOL    HW214293   0.254   7.759   6.404
 4112SOL     OW14294   0.822   8.450   6.958
 4112SOL    HW114295   0.862   8.449   6.866
 4112SOL    HW214296   0.832   8.542   6.998
 4113SOL     OW14297   0.916   8.358   5.877
 4113SOL    HW114298   0.979   8.396   5.809
 4113SOL    HW214299   0.956   8.275   5.916
 4114SOL     OW14300   0.372   8.736   7.076
 4114SOL    HW114301   0.359   8.829   7.042
 4114SOL    HW214302   0.288   8.684   7.063
 4115SOL     OW14303   1.614   8.740   6.875
 4115SOL    HW114304   1.674   8.743   6.955
 4115SOL    HW214305   1.539   8.804   6.888
 4116SOL     OW14306   1.039   8.546   6.282
 4116SOL    HW114307   0.969   8.499   6.336
 4116SOL    HW214308   1.098   8.478   6.239
 4117SOL     OW14309   1.709   7.833   6.967
 4117SOL    HW114310   1.782   7.902   6.971
 4117SOL    HW214311   1.737   7.758   6.908
 4118SOL     OW14312   0.255   8.796   5.876
 4118SOL    HW114313   0.159   8.797   5.849
 4118SOL    HW214314   0.267   8.849   5.960
 4119SOL     OW14315   0.672   7.651   7.075
 4119SOL    HW114316   0.762   7.635   7.035
 4119SOL    HW214317   0.680   7.656   7.174
 4120SOL     OW14318   1.440   8.304   6.984
 4120SOL    HW114319   1.383   8.356   6.921
 4120SOL    HW214320   1.536   8.316   6.960
 4121SOL     OW14321   1.183   8.783   5.705
 4121SOL    HW114322   1.084   8.772   5.707
 4121SOL    HW214323   1.217   8.798   5.798
 4122SOL     OW14324   0.613   8.290   7.017
 4122SOL    HW114325   0.669   8.371   7.000
 4122SOL    HW214326   0.672   8.210   7.020
 4123SOL     OW14327   0.716   8.013   7.294
 4123SOL    HW114328   0.735   8.078   7.368
 4123SOL    HW214329   0.776   7.933   7.303
 4124SOL     OW14330   1.450   8.668   7.219
 4124SOL    HW114331   1.441   8.658   7.318
 4124SOL    HW214332   1.546   8.661   7.193
 4125SOL     OW14333   1.674   8.331   6.840
 4125SOL    HW114334   1.647   8.242   6.803
 4125SOL    HW214335   1.675   8.399   6.767
 4126SOL     OW14336   1.225   7.773   6.035
 4126SOL    HW114337   1.290   7.699   6.024
 4126SOL    HW214338   1.245   7.823   6.119
 4127SOL     OW14339   0.594   8.193   6.238
 4127SOL    HW114340   0.644   8.278   6.219
 4127SOL    HW214341   0.506   8.195   6.190
 4128SOL     OW14342   1.777   7.790   7.228
 4128SOL    HW114343   1.760   7.821   7.134
 4128SOL    HW214344   1.693   7.753   7.266
 4129SOL     OW14345   1.730   8.382   7.103
 4129SOL    HW114346   1.768   8.473   7.118
 4129SOL    HW214347   1.722   8.365   7.004
 4130SOL     OW14348   0.859   8.822   5.602
 4130SOL    HW114349   0.813   8.837   5.690
 4130SOL    HW214350   0.903   8.907   5.572
 4131SOL     OW14351   0.859   8.404   6.447
 4131SOL    HW114352   0.913   8.335   6.495
 4131SOL    HW214353   0.827   8.473   6.513
 4132SOL     OW14354   1.083   8.432   5.673
 4132SOL    HW114355   1.060   8.485   5.591
 4132SOL    HW214356   1.164   8.376   5.654
 4133SOL     OW14357   0.672   8.839   7.210
 4133SOL    HW114358   0.594   8.789   7.248
 4133SOL    HW214359   0.669   8.934   7.241
 4134SOL     OW14360   1.824   7.640   6.813
 4134SOL    HW114361   1.820   7.550   6.857
 4134SOL    HW214362   1.827   7.629   6.714
 4135SOL     OW14363   1.705   8.935   6.690
 4135SOL    HW114364   1.612   8.910   6.663
 4135SOL    HW214365   1.731   8.885   6.772
 4136SOL     OW14366   1.424   7.662   6.698
 4136SOL    HW114367   1.476   7.597   6.753
 4136SOL    HW214368   1.375   7.725   6.759
 4137SOL     OW14369   1.001   7.482   6.740
 4137SOL    HW114370   0.938   7.410   6.709
 4137SOL    HW214371   1.094   7.446   6.740
 4138SOL     OW14372   0.770   8.778   5.887
 4138SOL    HW114373   0.724   8.691   5.904
 4138SOL    HW214374   0.861   8.775   5.928
 4139SOL     OW14375   0.618   0.015   6.870
 4139SOL    HW114376   0.613   0.097   6.927
 4139SOL    HW214377   0.707   0.012   6.825
 4140SOL     OW14378   1.352   7.500   5.754
 4140SOL    HW114379   1.387   7.459   5.670
 4140SOL    HW214380   1.262   7.462   5.774
 4141SOL     OW14381   1.300   7.901   6.277
 4141SOL    HW114382   1.241   7.981   6.281
 4141SOL    HW214383   1.315   7.866   6.370
 4142SOL     OW14384   1.593   7.669   6.468
 4142SOL    HW114385   1.509   7.668   6.522
 4142SOL    HW214386   1.595   7.752   6.412
 4143SOL     OW14387   0.019   7.816   8.095
 4143SOL    HW114388  -0.063   7.859   8.134
 4143SOL    HW214389  -0.009   7.743   8.032
 4144SOL     OW14390   0.569   8.723   8.613
 4144SOL    HW114391   0.476   8.716   8.576
 4144SOL    HW214392   0.580   8.812   8.657
 4145SOL     OW14393   1.555   8.959   8.151
 4145SOL    HW114394   1.498   8.943   8.232
 4145SOL    HW214395   1.496   8.969   8.071
 4146SOL     OW14396   1.743   8.066   8.304
 4146SOL    HW114397   1.776   8.160   8.304
 4146SOL    HW214398   1.794   8.012   8.370
 4147SOL     OW14399   1.135   8.151   8.165
 4147SOL    HW114400   1.192   8.229   8.140
 4147SOL    HW214401   1.075   8.177   8.241
 4148SOL     OW14402   1.755   8.055   7.679
 4148SOL    HW114403   1.743   8.042   7.580
 4148SOL    HW214404   1.725   7.974   7.728
 4149SOL     OW14405   0.768   8.592   8.471
 4149SOL    HW114406   0.690   8.609   8.531
 4149SOL    HW214407   0.802   8.679   8.435
 4150SOL     OW14408   0.685   8.460   8.113
 4150SOL    HW114409   0.754   8.444   8.183
 4150SOL    HW214410   0.612   8.517   8.151
 4151SOL     OW14411   0.335   8.883   8.509
 4151SOL    HW114412   0.257   8.852   8.456
 4151SOL    HW214413   0.393   8.941   8.452
 4152SOL     OW14414   1.460   8.953   8.787
 4152SOL    HW114415   1.484   9.047   8.813
 4152SOL    HW214416   1.444   8.899   8.869
 4153SOL     OW14417   0.438   7.840   8.947
 4153SOL    HW114418   0.520   7.784   8.956
 4153SOL    HW214419   0.357   7.782   8.951
 4154SOL     OW14420   1.603   7.895   8.185
 4154SOL    HW114421   1.529   7.941   8.135
 4154SOL    HW214422   1.654   7.963   8.238
 4155SOL     OW14423   0.606   8.412   7.571
 4155SOL    HW114424   0.613   8.496   7.517
 4155SOL    HW214425   0.652   8.425   7.659
 4156SOL     OW14426   1.594   7.562   8.928
 4156SOL    HW114427   1.576   7.629   8.856
 4156SOL    HW214428   1.591   7.608   9.017
 4157SOL     OW14429   1.689   8.370   8.060
 4157SOL    HW114430   1.784   8.341   8.068
 4157SOL    HW214431   1.681   8.435   7.985
 4158SOL     OW14432   1.641   8.556   7.880
 4158SOL    HW114433   1.727   8.558   7.828
 4158SOL    HW214434   1.655   8.603   7.968
 4159SOL     OW14435   0.613   8.813   8.174
 4159SOL    HW114436   0.564   8.726   8.183
 4159SOL    HW214437   0.590   8.856   8.087
 4160SOL     OW14438   0.809   7.452   7.950
 4160SOL    HW114439   0.849   7.543   7.941
 4160SOL    HW214440   0.709   7.460   7.956
 4161SOL     OW14441   1.525   8.447   7.638
 4161SOL    HW114442   1.462   8.371   7.651
 4161SOL    HW214443   1.573   8.465   7.724
 4162SOL     OW14444   1.466   8.865   8.401
 4162SOL    HW114445   1.407   8.871   8.481
 4162SOL    HW214446   1.451   8.777   8.355
 4163SOL     OW14447   0.598   8.177   7.718
 4163SOL    HW114448   0.622   8.246   7.650
 4163SOL    HW214449   0.520   8.210   7.772
 4164SOL     OW14450   1.281   7.793   8.392
 4164SOL    HW114451   1.195   7.743   8.379
 4164SOL    HW214452   1.343   7.739   8.448
 4165SOL     OW14453   0.807   8.053   8.913
 4165SOL    HW114454   0.760   8.050   9.002
 4165SOL    HW214455   0.756   7.998   8.847
 4166SOL     OW14456   0.991   7.858   8.690
 4166SOL    HW114457   0.914   7.892   8.744
 4166SOL    HW214458   0.957   7.807   8.611
 4167SOL     OW14459   1.041   8.149   7.877
 4167SOL    HW114460   1.067   8.145   7.973
 4167SOL    HW214461   0.956   8.098   7.863
 4168SOL     OW14462   0.865   7.796   7.643
 4168SOL    HW114463   0.924   7.859   7.594
 4168SOL    HW214464   0.884   7.702   7.614
 4169SOL     OW14465   1.362   8.592   7.993
 4169SOL    HW114466   1.445   8.563   7.945
 4169SOL    HW214467   1.313   8.659   7.937
 4170SOL     OW14468   0.550   7.644   8.333
 4170SOL    HW114469   0.545   7.639   8.433
 4170SOL    HW214470   0.552   7.740   8.304
 4171SOL     OW14471   1.008   8.904   7.925
 4171SOL    HW114472   0.962   8.976   7.873
 4171SOL    HW214473   1.004   8.924   8.023
 4172SOL     OW14474   1.795   8.514   8.321
 4172SOL    HW114475   1.733   8.499   8.245
 4172SOL    HW214476   1.743   8.525   8.406
 4173SOL     OW14477   1.227   8.998   8.954
 4173SOL    HW114478   1.233   8.921   9.018
 4173SOL    HW214479   1.175   8.972   8.874
 4174SOL     OW14480   0.321   8.391   7.690
 4174SOL    HW114481   0.403   8.430   7.648
 4174SOL    HW214482   0.294   8.309   7.641
 4175SOL     OW14483   1.458   8.183   8.176
 4175SOL    HW114484   1.453   8.118   8.251
 4175SOL    HW214485   1.538   8.242   8.189
 4176SOL     OW14486   1.111   0.224   7.685
 4176SOL    HW114487   1.051   0.162   7.735
 4176SOL    HW214488   1.142   0.180   7.600
 4177SOL     OW14489   1.632   8.825   7.529
 4177SOL    HW114490   1.600   8.919   7.519
 4177SOL    HW214491   1.556   8.762   7.517
 4178SOL     OW14492   1.400   7.555   7.874
 4178SOL    HW114493   1.376   7.518   7.784
 4178SOL    HW214494   1.499   7.571   7.878
 4179SOL     OW14495   0.382   8.148   7.928
 4179SOL    HW114496   0.427   8.058   7.925
 4179SOL    HW214497   0.288   8.137   7.961
 4180SOL     OW14498   0.614   7.570   7.565
 4180SOL    HW114499   0.712   7.548   7.572
 4180SOL    HW214500   0.583   7.553   7.472
 4181SOL     OW14501   0.803   8.850   8.372
 4181SOL    HW114502   0.893   8.864   8.330
 4181SOL    HW214503   0.732   8.852   8.301
 4182SOL     OW14504   0.922   7.951   8.347
 4182SOL    HW114505   0.897   7.942   8.251
 4182SOL    HW214506   0.970   7.869   8.378
 4183SOL     OW14507   0.539   7.512   7.960
 4183SOL    HW114508   0.458   7.513   8.018
 4183SOL    HW214509   0.542   7.595   7.905
 4184SOL     OW14510   1.434   8.636   7.489
 4184SOL    HW114511   1.466   8.560   7.546
 4184SOL    HW214512   1.342   8.663   7.519
 4185SOL     OW14513   0.297   7.483   7.619
 4185SOL    HW114514   0.346   7.567   7.598
 4185SOL    HW214515   0.359   7.418   7.664
 4186SOL     OW14516   0.935   7.684   7.928
 4186SOL    HW114517   0.887   7.725   7.850
 4186SOL    HW214518   1.034   7.682   7.909
 4187SOL     OW14519   1.227   0.018   8.241
 4187SOL    HW114520   1.248   0.092   8.176
 4187SOL    HW214521   1.295   0.018   8.314
 4188SOL     OW14522   0.459   8.600   8.189
 4188SOL    HW114523   0.388   8.573   8.254
 4188SOL    HW214524   0.433   8.572   8.096
 4189SOL     OW14525   1.032   7.997   7.464
 4189SOL    HW114526   0.991   8.079   7.425
 4189SOL    HW214527   1.096   8.023   7.537
 4190SOL     OW14528   0.561   7.670   8.595
 4190SOL    HW114529   0.599   7.586   8.632
 4190SOL    HW214530   0.473   7.689   8.639
 4191SOL     OW14531   0.866   7.902   8.090
 4191SOL    HW114532   0.834   7.974   8.028
 4191SOL    HW214533   0.890   7.821   8.037
 4192SOL     OW14534   1.017   7.487   8.201
 4192SOL    HW114535   0.945   7.492   8.132
 4192SOL    HW214536   0.993   7.418   8.270
 4193SOL     OW14537   1.429   8.621   8.315
 4193SOL    HW114538   1.374   8.537   8.308
 4193SOL    HW214539   1.455   8.650   8.223
 4194SOL     OW14540   1.466   8.038   8.440
 4194SOL    HW114541   1.436   7.943   8.447
 4194SOL    HW214542   1.539   8.054   8.506
 4195SOL     OW14543   1.857   8.281   7.825
 4195SOL    HW114544   1.899   8.217   7.889
 4195SOL    HW214545   1.819   8.230   7.747
 4196SOL     OW14546   0.488   8.833   7.622
 4196SOL    HW114547   0.401   8.818   7.669
 4196SOL    HW214548   0.471   8.859   7.527
 4197SOL     OW14549   1.664   8.728   8.105
 4197SOL    HW114550   1.763   8.736   8.119
 4197SOL    HW214551   1.619   8.812   8.136
 4198SOL     OW14552   1.390   8.023   7.526
 4198SOL    HW114553   1.336   8.002   7.607
 4198SOL    HW214554   1.481   7.982   7.535
 4199SOL     OW14555   0.527   7.704   7.776
 4199SOL    HW114556   0.554   7.645   7.701
 4199SOL    HW214557   0.527   7.799   7.745
 4200SOL     OW14558   1.064   8.795   8.788
 4200SOL    HW114559   0.984   8.772   8.843
 4200SOL    HW214560   1.147   8.769   8.837
 4201SOL     OW14561   1.111   8.643   8.548
 4201SOL    HW114562   1.071   8.687   8.629
 4201SOL    HW214563   1.070   8.680   8.465
 4202SOL     OW14564   1.638   8.547   8.527
 4202SOL    HW114565   1.643   8.628   8.586
 4202SOL    HW214566   1.552   8.549   8.476
 4203SOL     OW14567   0.915   7.537   8.850
 4203SOL    HW114568   0.940   7.517   8.755
 4203SOL    HW214569   0.987   7.593   8.892
 4204SOL     OW14570   0.705   8.498   7.816
 4204SOL    HW114571   0.691   8.505   7.915
 4204SOL    HW214572   0.789   8.447   7.798
 4205SOL     OW14573   0.410   8.261   8.699
 4205SOL    HW114574   0.496   8.273   8.749
 4205SOL    HW214575   0.368   8.174   8.726
 4206SOL     OW14576   1.274   7.834   8.710
 4206SOL    HW114577   1.295   7.908   8.774
 4206SOL    HW214578   1.185   7.851   8.667
 4207SOL     OW14579   0.367   8.548   7.949
 4207SOL    HW114580   0.360   8.631   7.893
 4207SOL    HW214581   0.371   8.468   7.889
 4208SOL     OW14582   0.566   7.985   8.313
 4208SOL    HW114583   0.578   8.051   8.239
 4208SOL    HW214584   0.612   8.019   8.396
 4209SOL     OW14585   1.252   8.796   7.836
 4209SOL    HW114586   1.302   8.873   7.876
 4209SOL    HW214587   1.157   8.798   7.868
 4210SOL     OW14588   1.272   8.893   8.590
 4210SOL    HW114589   1.319   8.906   8.677
 4210SOL    HW214590   1.206   8.819   8.599
 4211SOL     OW14591   1.582   8.087   7.920
 4211SOL    HW114592   1.551   8.148   7.993
 4211SOL    HW214593   1.632   8.139   7.851
 4212SOL     OW14594   0.354   8.958   8.777
 4212SOL    HW114595   0.333   8.914   8.690
 4212SOL    HW214596   0.451   8.984   8.780
 4213SOL     OW14597   0.402   8.199   0.046
 4213SOL    HW114598   0.470   8.254  -0.001
 4213SOL    HW214599   0.442   8.111   0.073
 4214SOL     OW14600   1.587   8.227   0.118
 4214SOL    HW114601   1.495   8.265   0.113
 4214SOL    HW214602   1.647   8.274   0.053
 4215SOL     OW14603   0.573   8.318   8.477
 4215SOL    HW114604   0.617   8.407   8.468
 4215SOL    HW214605   0.510   8.318   8.554
 4216SOL     OW14606   1.360   8.310   8.493
 4216SOL    HW114607   1.285   8.310   8.427
 4216SOL    HW214608   1.397   8.218   8.502
 4217SOL     OW14609   1.209   7.973   7.723
 4217SOL    HW114610   1.222   7.889   7.777
 4217SOL    HW214611   1.180   8.047   7.783
 4218SOL     OW14612   0.732   8.082   8.512
 4218SOL    HW114613   0.791   8.056   8.436
 4218SOL    HW214614   0.704   8.178   8.501
 4219SOL     OW14615   0.307   7.511   8.066
 4219SOL    HW114616   0.296   7.605   8.099
 4219SOL    HW214617   0.302   7.448   8.143
 4220SOL     OW14618   1.622   7.815   7.822
 4220SOL    HW114619   1.624   7.739   7.886
 4220SOL    HW214620   1.574   7.892   7.862
 4221SOL     OW14621   1.023   8.214   8.414
 4221SOL    HW114622   1.038   8.235   8.510
 4221SOL    HW214623   0.993   8.119   8.405
 4222SOL     OW14624   1.859   8.966   0.053
 4222SOL    HW114625   1.873   8.993  -0.042
 4222SOL    HW214626   1.942   8.988   0.106
 4223SOL     OW14627   1.540   7.722   7.573
 4223SOL    HW114628   1.479   7.647   7.596
 4223SOL    HW214629   1.562   7.774   7.656
 4224SOL     OW14630   1.303   8.286   7.490
 4224SOL    HW114631   1.337   8.193   7.505
 4224SOL    HW214632   1.321   8.313   7.395
 4225SOL     OW14633   1.068   8.781   8.297
 4225SOL    HW114634   1.075   8.697   8.242
 4225SOL    HW214635   1.130   8.850   8.261
 4226SOL     OW14636   0.319   8.258   8.397
 4226SOL    HW114637   0.412   8.294   8.402
 4226SOL    HW214638   0.313   8.173   8.449
 4227SOL     OW14639   1.138   7.828   0.126
 4227SOL    HW114640   1.093   7.891   0.190
 4227SOL    HW214641   1.231   7.859   0.109
 4228SOL     OW14642   1.160   7.655   8.925
 4228SOL    HW114643   1.160   7.719   9.002
 4228SOL    HW214644   1.188   7.703   8.842
 4229SOL     OW14645   1.002   8.244   8.686
 4229SOL    HW114646   1.043   8.212   8.772
 4229SOL    HW214647   0.906   8.217   8.683
 4230SOL     OW14648   0.815   8.020   7.773
 4230SOL    HW114649   0.822   7.931   7.727
 4230SOL    HW214650   0.721   8.054   7.765
 4231SOL     OW14651   1.657   8.052   8.654
 4231SOL    HW114652   1.619   7.983   8.716
 4231SOL    HW214653   1.739   8.016   8.610
 4232SOL     OW14654   0.671   7.912   8.717
 4232SOL    HW114655   0.637   7.823   8.687
 4232SOL    HW214656   0.697   7.966   8.637
 4233SOL     OW14657   0.473   7.948   7.639
 4233SOL    HW114658   0.534   8.028   7.643
 4233SOL    HW214659   0.378   7.979   7.646
 4234SOL     OW14660   1.347   8.507   8.682
 4234SOL    HW114661   1.371   8.444   8.608
 4234SOL    HW214662   1.257   8.547   8.664
 4235SOL     OW14663   1.302   8.303   7.757
 4235SOL    HW114664   1.216   8.272   7.799
 4235SOL    HW214665   1.298   8.289   7.658
 4236SOL     OW14666   0.903   7.534   7.581
 4236SOL    HW114667   0.954   7.535   7.495
 4236SOL    HW214668   0.959   7.492   7.652
 4237SOL     OW14669   1.726   7.583   7.971
 4237SOL    HW114670   1.799   7.566   7.904
 4237SOL    HW214671   1.695   7.496   8.009
 4238SOL     OW14672   1.280   8.375   8.120
 4238SOL    HW114673   1.340   8.294   8.122
 4238SOL    HW214674   1.320   8.444   8.060
 4239SOL     OW14675   1.841   7.623   8.411
 4239SOL    HW114676   1.880   7.538   8.375
 4239SOL    HW214677   1.743   7.625   8.392
 4240SOL     OW14678   0.263   7.774   8.168
 4240SOL    HW114679   0.184   7.825   8.134
 4240SOL    HW214680   0.254   7.759   8.266
 4241SOL     OW14681   0.822   8.450   8.820
 4241SOL    HW114682   0.862   8.449   8.728
 4241SOL    HW214683   0.832   8.542   8.860
 4242SOL     OW14684   0.916   8.358   7.739
 4242SOL    HW114685   0.979   8.396   7.671
 4242SOL    HW214686   0.956   8.275   7.778
 4243SOL     OW14687   0.372   8.736   8.938
 4243SOL    HW114688   0.359   8.829   8.904
 4243SOL    HW214689   0.288   8.684   8.925
 4244SOL     OW14690   1.614   8.740   8.737
 4244SOL    HW114691   1.674   8.743   8.817
 4244SOL    HW214692   1.539   8.804   8.750
 4245SOL     OW14693   1.039   8.546   8.144
 4245SOL    HW114694   0.969   8.499   8.198
 4245SOL    HW214695   1.098   8.478   8.101
 4246SOL     OW14696   1.014   7.684   8.419
 4246SOL    HW114697   1.006   7.648   8.326
 4246SOL    HW214698   1.012   7.608   8.484
 4247SOL     OW14699   1.709   7.833   8.829
 4247SOL    HW114700   1.782   7.902   8.833
 4247SOL    HW214701   1.737   7.758   8.770
 4248SOL     OW14702   0.255   8.796   7.738
 4248SOL    HW114703   0.159   8.797   7.711
 4248SOL    HW214704   0.267   8.849   7.822
 4249SOL     OW14705   1.440   8.304   8.846
 4249SOL    HW114706   1.383   8.356   8.783
 4249SOL    HW214707   1.536   8.316   8.822
 4250SOL     OW14708   1.183   8.783   7.567
 4250SOL    HW114709   1.084   8.772   7.569
 4250SOL    HW214710   1.217   8.798   7.660
 4251SOL     OW14711   0.613   8.290   8.879
 4251SOL    HW114712   0.669   8.371   8.862
 4251SOL    HW214713   0.672   8.210   8.882
 4252SOL     OW14714   1.674   8.331   8.702
 4252SOL    HW114715   1.647   8.242   8.665
 4252SOL    HW214716   1.675   8.399   8.629
 4253SOL     OW14717   1.225   7.773   7.897
 4253SOL    HW114718   1.290   7.699   7.886
 4253SOL    HW214719   1.245   7.823   7.981
 4254SOL     OW14720   0.594   8.193   8.100
 4254SOL    HW114721   0.644   8.278   8.081
 4254SOL    HW214722   0.506   8.195   8.052
 4255SOL     OW14723   1.777   7.790   0.090
 4255SOL    HW114724   1.760   7.821  -0.004
 4255SOL    HW214725   1.693   7.753   0.128
 4256SOL     OW14726   1.730   8.382   8.965
 4256SOL    HW114727   1.768   8.473   8.980
 4256SOL    HW214728   1.722   8.365   8.866
 4257SOL     OW14729   0.859   8.822   7.464
 4257SOL    HW114730   0.813   8.837   7.552
 4257SOL    HW214731   0.903   8.907   7.434
 4258SOL     OW14732   0.859   8.404   8.309
 4258SOL    HW114733   0.913   8.335   8.357
 4258SOL    HW214734   0.827   8.473   8.375
 4259SOL     OW14735   1.083   8.432   7.535
 4259SOL    HW114736   1.060   8.485   7.453
 4259SOL    HW214737   1.164   8.376   7.516
 4260SOL     OW14738   1.824   7.640   8.675
 4260SOL    HW114739   1.820   7.550   8.719
 4260SOL    HW214740   1.827   7.629   8.576
 4261SOL     OW14741   0.428   7.872   7.968
 4261SOL    HW114742   0.458   7.800   7.906
 4261SOL    HW214743   0.389   7.832   8.051
 4262SOL     OW14744   1.705   8.935   8.552
 4262SOL    HW114745   1.612   8.910   8.525
 4262SOL    HW214746   1.731   8.885   8.634
 4263SOL     OW14747   1.424   7.662   8.560
 4263SOL    HW114748   1.476   7.597   8.615
 4263SOL    HW214749   1.375   7.725   8.621
 4264SOL     OW14750   1.001   7.482   8.602
 4264SOL    HW114751   0.938   7.410   8.571
 4264SOL    HW214752   1.094   7.446   8.602
 4265SOL     OW14753   0.770   8.778   7.749
 4265SOL    HW114754   0.724   8.691   7.766
 4265SOL    HW214755   0.861   8.775   7.790
 4266SOL     OW14756   0.618   0.015   8.732
 4266SOL    HW114757   0.613   0.097   8.789
 4266SOL    HW214758   0.707   0.012   8.687
 4267SOL     OW14759   1.352   7.500   7.616
 4267SOL    HW114760   1.387   7.459   7.532
 4267SOL    HW214761   1.262   7.462   7.636
 4268SOL     OW14762   1.300   7.901   8.139
 4268SOL    HW114763   1.241   7.981   8.143
 4268SOL    HW214764   1.315   7.866   8.232
 4269SOL     OW14765   1.593   7.669   8.330
 4269SOL    HW114766   1.509   7.668   8.384
 4269SOL    HW214767   1.595   7.752   8.274
 4270SOL     OW14768   2.092   0.628   0.113
 4270SOL    HW114769   1.999   0.626   0.150
 4270SOL    HW214770   2.093   0.589   0.021
 4271SOL     OW14771   2.087   0.275   0.996
 4271SOL    HW114772   2.122   0.258   1.088
 4271SOL    HW214773   1.999   0.230   0.984
 4272SOL     OW14774   1.881   0.368   0.647
 4272SOL    HW114775   1.799   0.411   0.686
 4272SOL    HW214776   1.853   0.295   0.584
 4273SOL     OW14777   2.431   1.275   1.165
 4273SOL    HW114778   2.338   1.268   1.128
 4273SOL    HW214779   2.442   1.364   1.209
 4274SOL     OW14780   3.417   1.511   0.703
 4274SOL    HW114781   3.360   1.495   0.784
 4274SOL    HW214782   3.358   1.521   0.623
 4275SOL     OW14783   3.605   0.618   0.856
 4275SOL    HW114784   3.638   0.712   0.856
 4275SOL    HW214785   3.656   0.564   0.922
 4276SOL     OW14786   2.997   0.703   0.717
 4276SOL    HW114787   3.054   0.781   0.692
 4276SOL    HW214788   2.937   0.729   0.793
 4277SOL     OW14789   3.617   0.607   0.231
 4277SOL    HW114790   3.605   0.594   0.132
 4277SOL    HW214791   3.587   0.526   0.280
 4278SOL     OW14792   2.630   1.144   1.023
 4278SOL    HW114793   2.552   1.161   1.083
 4278SOL    HW214794   2.664   1.231   0.987
 4279SOL     OW14795   2.712   0.798   1.823
 4279SOL    HW114796   2.708   0.874   1.888
 4279SOL    HW214797   2.734   0.834   1.732
 4280SOL     OW14798   2.547   1.012   0.665
 4280SOL    HW114799   2.616   0.996   0.735
 4280SOL    HW214800   2.474   1.069   0.703
 4281SOL     OW14801   2.548   1.161   1.803
 4281SOL    HW114802   2.608   1.240   1.817
 4281SOL    HW214803   2.462   1.192   1.762
 4282SOL     OW14804   2.197   1.435   1.061
 4282SOL    HW114805   2.119   1.404   1.008
 4282SOL    HW214806   2.255   1.493   1.004
 4283SOL     OW14807   3.322   1.505   1.339
 4283SOL    HW114808   3.346   1.599   1.365
 4283SOL    HW214809   3.306   1.451   1.421
 4284SOL     OW14810   2.300   0.392   1.499
 4284SOL    HW114811   2.382   0.336   1.508
 4284SOL    HW214812   2.219   0.334   1.503
 4285SOL     OW14813   3.465   0.447   0.737
 4285SOL    HW114814   3.391   0.493   0.687
 4285SOL    HW214815   3.516   0.515   0.790
 4286SOL     OW14816   2.093   1.713   0.483
 4286SOL    HW114817   2.127   1.790   0.537
 4286SOL    HW214818   2.137   1.713   0.393
 4287SOL     OW14819   2.989   1.341   1.690
 4287SOL    HW114820   3.036   1.341   1.778
 4287SOL    HW214821   2.941   1.254   1.679
 4288SOL     OW14822   2.092   1.434   0.538
 4288SOL    HW114823   2.066   1.530   0.538
 4288SOL    HW214824   2.021   1.380   0.583
 4289SOL     OW14825   2.102   1.091   0.886
 4289SOL    HW114826   2.116   1.007   0.938
 4289SOL    HW214827   2.047   1.155   0.941
 4290SOL     OW14828   2.482   1.786   1.439
 4290SOL    HW114829   2.390   1.769   1.474
 4290SOL    HW214830   2.510   1.878   1.465
 4291SOL     OW14831   2.468   0.964   0.123
 4291SOL    HW114832   2.475   1.048   0.069
 4291SOL    HW214833   2.514   0.977   0.211
 4292SOL     OW14834   3.456   0.114   1.480
 4292SOL    HW114835   3.438   0.181   1.408
 4292SOL    HW214836   3.453   0.160   1.569
 4293SOL     OW14837   1.984   0.643   0.563
 4293SOL    HW114838   1.939   0.555   0.580
 4293SOL    HW214839   1.983   0.697   0.647
 4294SOL     OW14840   3.704   1.767   0.359
 4294SOL    HW114841   3.758   1.738   0.439
 4294SOL    HW214842   3.734   1.857   0.330
 4295SOL     OW14843   3.551   0.922   0.612
 4295SOL    HW114844   3.646   0.893   0.620
 4295SOL    HW214845   3.543   0.987   0.537
 4296SOL     OW14846   3.503   1.108   0.432
 4296SOL    HW114847   3.589   1.110   0.380
 4296SOL    HW214848   3.517   1.155   0.520
 4297SOL     OW14849   1.975   0.737   1.597
 4297SOL    HW114850   2.063   0.724   1.642
 4297SOL    HW214851   1.962   0.834   1.575
 4298SOL     OW14852   2.475   1.365   0.726
 4298SOL    HW114853   2.426   1.278   0.735
 4298SOL    HW214854   2.452   1.408   0.639
 4299SOL     OW14855   3.155   1.228   1.423
 4299SOL    HW114856   3.192   1.155   1.365
 4299SOL    HW214857   3.207   1.233   1.508
 4300SOL     OW14858   2.671   0.004   0.502
 4300SOL    HW114859   2.711   0.095   0.493
 4300SOL    HW214860   2.571   0.012   0.508
 4301SOL     OW14861   2.059   0.976   1.264
 4301SOL    HW114862   2.148   0.931   1.250
 4301SOL    HW214863   1.986   0.911   1.245
 4302SOL     OW14864   3.387   0.999   0.190
 4302SOL    HW114865   3.324   0.923   0.203
 4302SOL    HW214866   3.435   1.017   0.276
 4303SOL     OW14867   3.049   1.792   1.616
 4303SOL    HW114868   3.073   1.852   1.540
 4303SOL    HW214869   3.056   1.697   1.586
 4304SOL     OW14870   2.179   0.251   1.801
 4304SOL    HW114871   2.250   0.322   1.807
 4304SOL    HW214872   2.091   0.290   1.829
 4305SOL     OW14873   3.328   1.417   0.953
 4305SOL    HW114874   3.269   1.423   1.033
 4305SOL    HW214875   3.313   1.329   0.907
 4306SOL     OW14876   3.529   1.714   0.572
 4306SOL    HW114877   3.488   1.691   0.484
 4306SOL    HW214878   3.511   1.640   0.637
 4307SOL     OW14879   2.460   0.729   0.270
 4307SOL    HW114880   2.484   0.798   0.202
 4307SOL    HW214881   2.382   0.762   0.324
 4308SOL     OW14882   3.143   0.345   0.944
 4308SOL    HW114883   3.057   0.295   0.931
 4308SOL    HW214884   3.205   0.291   1.000
 4309SOL     OW14885   3.438   1.662   0.307
 4309SOL    HW114886   3.527   1.708   0.310
 4309SOL    HW214887   3.417   1.638   0.212
 4310SOL     OW14888   2.669   0.605   1.465
 4310SOL    HW114889   2.622   0.602   1.554
 4310SOL    HW214890   2.618   0.550   1.399
 4311SOL     OW14891   3.256   0.469   1.674
 4311SOL    HW114892   3.236   0.512   1.762
 4311SOL    HW214893   3.334   0.407   1.683
 4312SOL     OW14894   2.835   0.890   1.572
 4312SOL    HW114895   2.881   0.806   1.543
 4312SOL    HW214896   2.779   0.924   1.497
 4313SOL     OW14897   2.853   0.410   1.242
 4313SOL    HW114898   2.776   0.444   1.296
 4313SOL    HW214899   2.819   0.359   1.163
 4314SOL     OW14900   2.903   0.701   0.429
 4314SOL    HW114901   2.929   0.697   0.525
 4314SOL    HW214902   2.818   0.650   0.415
 4315SOL     OW14903   1.938   0.811   0.789
 4315SOL    HW114904   2.037   0.799   0.798
 4315SOL    HW214905   1.914   0.906   0.810
 4316SOL     OW14906   1.992   1.821   1.571
 4316SOL    HW114907   1.982   1.806   1.670
 4316SOL    HW214908   1.906   1.857   1.535
 4317SOL     OW14909   2.727   0.348   0.195
 4317SOL    HW114910   2.786   0.411   0.146
 4317SOL    HW214911   2.746   0.254   0.166
 4318SOL     OW14912   3.581   0.585   1.831
 4318SOL    HW114913   3.555   0.674   1.795
 4318SOL    HW214914   3.579   0.517   1.758
 4319SOL     OW14915   3.224   1.144   0.545
 4319SOL    HW114916   3.307   1.115   0.497
 4319SOL    HW214917   3.175   1.211   0.489
 4320SOL     OW14918   2.412   0.196   0.885
 4320SOL    HW114919   2.407   0.191   0.985
 4320SOL    HW214920   2.414   0.292   0.856
 4321SOL     OW14921   2.870   1.456   0.477
 4321SOL    HW114922   2.824   1.528   0.425
 4321SOL    HW214923   2.866   1.476   0.575
 4322SOL     OW14924   2.213   1.801   0.853
 4322SOL    HW114925   2.263   1.715   0.859
 4322SOL    HW214926   2.278   1.878   0.850
 4323SOL     OW14927   3.657   1.066   0.873
 4323SOL    HW114928   3.595   1.051   0.797
 4323SOL    HW214929   3.605   1.077   0.958
 4324SOL     OW14930   3.089   1.550   1.506
 4324SOL    HW114931   3.095   1.473   1.570
 4324SOL    HW214932   3.037   1.524   1.426
 4325SOL     OW14933   2.183   0.943   0.242
 4325SOL    HW114934   2.265   0.982   0.200
 4325SOL    HW214935   2.156   0.861   0.193
 4326SOL     OW14936   3.320   0.735   0.728
 4326SOL    HW114937   3.315   0.670   0.803
 4326SOL    HW214938   3.400   0.794   0.741
 4327SOL     OW14939   2.323   1.266   1.727
 4327SOL    HW114940   2.273   1.267   1.641
 4327SOL    HW214941   2.260   1.248   1.803
 4328SOL     OW14942   2.973   1.776   0.237
 4328SOL    HW114943   2.913   1.714   0.287
 4328SOL    HW214944   3.004   1.732   0.152
 4329SOL     OW14945   2.064   0.285   1.498
 4329SOL    HW114946   1.984   0.345   1.485
 4329SOL    HW214947   2.054   0.236   1.584
 4330SOL     OW14948   3.494   1.377   0.081
 4330SOL    HW114949   3.462   1.471   0.071
 4330SOL    HW214950   3.418   1.314   0.069
 4331SOL     OW14951   2.326   1.743   0.323
 4331SOL    HW114952   2.359   1.782   0.409
 4331SOL    HW214953   2.402   1.736   0.258
 4332SOL     OW14954   3.262   0.107   0.426
 4332SOL    HW114955   3.238   0.070   0.336
 4332SOL    HW214956   3.361   0.123   0.430
 4333SOL     OW14957   2.111   1.785   1.241
 4333SOL    HW114958   2.168   1.720   1.291
 4333SOL    HW214959   2.095   1.752   1.148
 4334SOL     OW14960   2.802   1.698   0.904
 4334SOL    HW114961   2.882   1.641   0.925
 4334SOL    HW214962   2.753   1.658   0.827
 4335SOL     OW14963   2.244   0.700   0.480
 4335SOL    HW114964   2.289   0.610   0.477
 4335SOL    HW214965   2.150   0.689   0.513
 4336SOL     OW14966   3.409   0.222   1.729
 4336SOL    HW114967   3.404   0.259   1.821
 4336SOL    HW214968   3.337   0.153   1.717
 4337SOL     OW14969   2.476   0.122   0.117
 4337SOL    HW114970   2.574   0.100   0.124
 4337SOL    HW214971   2.445   0.105   0.024
 4338SOL     OW14972   2.643   0.264   1.749
 4338SOL    HW114973   2.710   0.203   1.792
 4338SOL    HW214974   2.570   0.283   1.814
 4339SOL     OW14975   2.750   1.514   1.195
 4339SOL    HW114976   2.727   1.489   1.101
 4339SOL    HW214977   2.811   1.445   1.234
 4340SOL     OW14978   3.213   0.590   1.433
 4340SOL    HW114979   3.241   0.547   1.518
 4340SOL    HW214980   3.238   0.686   1.434
 4341SOL     OW14981   2.665   1.402   0.924
 4341SOL    HW114982   2.755   1.416   0.882
 4341SOL    HW214983   2.594   1.404   0.853
 4342SOL     OW14984   2.784   0.503   0.899
 4342SOL    HW114985   2.759   0.494   0.803
 4342SOL    HW214986   2.832   0.421   0.930
 4343SOL     OW14987   2.401   0.064   0.512
 4343SOL    HW114988   2.320   0.065   0.570
 4343SOL    HW214989   2.404   0.147   0.457
 4344SOL     OW14990   3.296   1.188   0.041
 4344SOL    HW114991   3.328   1.112   0.098
 4344SOL    HW214992   3.204   1.215   0.071
 4345SOL     OW14993   2.159   0.035   0.171
 4345SOL    HW114994   2.208   0.119   0.150
 4345SOL    HW214995   2.221  -0.030   0.216
 4346SOL     OW14996   2.797   0.236   0.480
 4346SOL    HW114997   2.749   0.277   0.402
 4346SOL    HW214998   2.896   0.234   0.461
 4347SOL     OW14999   2.938   0.683   1.464
 4347SOL    HW115000   2.858   0.622   1.467
 4347SOL    HW215001   3.019   0.630   1.440
 4348SOL     OW15002   3.089   1.570   0.793
 4348SOL    HW115003   3.110   1.644   0.728
 4348SOL    HW215004   3.157   1.570   0.866
 4349SOL     OW15005   2.321   1.152   0.741
 4349SOL    HW115006   2.250   1.125   0.806
 4349SOL    HW215007   2.295   1.124   0.648
 4350SOL     OW15008   3.133   1.797   0.591
 4350SOL    HW115009   3.177   1.861   0.527
 4350SOL    HW215010   3.083   1.849   0.661
 4351SOL     OW15011   2.894   0.549   0.016
 4351SOL    HW115012   2.853   0.631  -0.023
 4351SOL    HW215013   2.958   0.575   0.089
 4352SOL     OW15014   1.940   0.556   1.386
 4352SOL    HW115015   2.032   0.555   1.345
 4352SOL    HW215016   1.934   0.630   1.453
 4353SOL     OW15017   2.423   0.222   1.147
 4353SOL    HW115018   2.461   0.138   1.184
 4353SOL    HW215019   2.335   0.241   1.191
 4354SOL     OW15020   2.728   0.454   0.642
 4354SOL    HW115021   2.696   0.526   0.580
 4354SOL    HW215022   2.752   0.373   0.589
 4355SOL     OW15023   2.879   0.039   0.753
 4355SOL    HW115024   2.807   0.044   0.684
 4355SOL    HW215025   2.855  -0.030   0.822
 4356SOL     OW15026   3.291   1.173   0.867
 4356SOL    HW115027   3.236   1.089   0.860
 4356SOL    HW215028   3.317   1.202   0.775
 4357SOL     OW15029   3.328   0.590   0.992
 4357SOL    HW115030   3.298   0.495   0.999
 4357SOL    HW215031   3.401   0.606   1.058
 4358SOL     OW15032   3.719   0.833   0.377
 4358SOL    HW115033   3.761   0.769   0.441
 4358SOL    HW215034   3.681   0.782   0.299
 4359SOL     OW15035   2.350   1.385   0.174
 4359SOL    HW115036   2.263   1.370   0.221
 4359SOL    HW215037   2.333   1.411   0.079
 4360SOL     OW15038   3.526   1.280   0.657
 4360SOL    HW115039   3.625   1.288   0.671
 4360SOL    HW215040   3.481   1.364   0.688
 4361SOL     OW15041   3.252   0.575   0.078
 4361SOL    HW115042   3.198   0.554   0.159
 4361SOL    HW215043   3.343   0.534   0.087
 4362SOL     OW15044   2.389   0.256   0.328
 4362SOL    HW115045   2.416   0.197   0.253
 4362SOL    HW215046   2.389   0.351   0.297
 4363SOL     OW15047   3.616   1.223   1.588
 4363SOL    HW115048   3.707   1.184   1.575
 4363SOL    HW215049   3.624   1.319   1.612
 4364SOL     OW15050   2.926   1.347   1.340
 4364SOL    HW115051   2.846   1.324   1.395
 4364SOL    HW215052   3.009   1.321   1.389
 4365SOL     OW15053   3.454   1.629   1.625
 4365SOL    HW115054   3.481   1.663   1.535
 4365SOL    HW215055   3.533   1.591   1.671
 4366SOL     OW15056   2.973   1.195   1.100
 4366SOL    HW115057   2.933   1.239   1.181
 4366SOL    HW215058   2.932   1.232   1.017
 4367SOL     OW15059   3.500   1.099   1.079
 4367SOL    HW115060   3.505   1.180   1.138
 4367SOL    HW215061   3.414   1.101   1.028
 4368SOL     OW15062   2.777   0.089   1.402
 4368SOL    HW115063   2.802   0.069   1.307
 4368SOL    HW215064   2.849   0.145   1.444
 4369SOL     OW15065   2.842   1.116   1.719
 4369SOL    HW115066   2.743   1.122   1.729
 4369SOL    HW215067   2.865   1.036   1.663
 4370SOL     OW15068   2.567   1.050   0.368
 4370SOL    HW115069   2.553   1.057   0.467
 4370SOL    HW215070   2.651   0.999   0.350
 4371SOL     OW15071   2.272   0.813   1.251
 4371SOL    HW115072   2.358   0.825   1.301
 4371SOL    HW215073   2.230   0.726   1.278
 4372SOL     OW15074   3.136   0.386   1.262
 4372SOL    HW115075   3.157   0.460   1.326
 4372SOL    HW215076   3.047   0.403   1.219
 4373SOL     OW15077   1.926   1.564   1.331
 4373SOL    HW115078   1.880   1.646   1.297
 4373SOL    HW215079   2.024   1.583   1.340
 4374SOL     OW15080   2.229   1.100   0.501
 4374SOL    HW115081   2.222   1.183   0.445
 4374SOL    HW215082   2.233   1.020   0.441
 4375SOL     OW15083   2.428   0.537   0.865
 4375SOL    HW115084   2.440   0.603   0.791
 4375SOL    HW215085   2.474   0.571   0.948
 4376SOL     OW15086   3.114   1.348   0.388
 4376SOL    HW115087   3.164   1.425   0.428
 4376SOL    HW215088   3.019   1.350   0.420
 4377SOL     OW15089   3.134   1.445   1.142
 4377SOL    HW115090   3.181   1.458   1.229
 4377SOL    HW215091   3.068   1.371   1.151
 4378SOL     OW15092   3.444   0.639   0.472
 4378SOL    HW115093   3.413   0.700   0.545
 4378SOL    HW215094   3.494   0.691   0.403
 4379SOL     OW15095   2.216   1.510   1.329
 4379SOL    HW115096   2.195   1.466   1.242
 4379SOL    HW215097   2.313   1.536   1.332
 4380SOL     OW15098   2.264   0.751   1.598
 4380SOL    HW115099   2.332   0.806   1.551
 4380SOL    HW215100   2.304   0.663   1.625
 4381SOL     OW15101   3.449   0.779   1.670
 4381SOL    HW115102   3.357   0.817   1.665
 4381SOL    HW215103   3.509   0.826   1.605
 4382SOL     OW15104   2.875   0.105   1.770
 4382SOL    HW115105   2.881   0.190   1.718
 4382SOL    HW215106   2.907   0.029   1.713
 4383SOL     OW15107   2.366   0.050   1.740
 4383SOL    HW115108   2.324  -0.007   1.670
 4383SOL    HW215109   2.300   0.119   1.772
 4384SOL     OW15110   2.435   0.870   1.029
 4384SOL    HW115111   2.479   0.959   1.020
 4384SOL    HW215112   2.372   0.870   1.106
 4385SOL     OW15113   3.222   0.862   1.045
 4385SOL    HW115114   3.147   0.862   0.979
 4385SOL    HW215115   3.259   0.770   1.054
 4386SOL     OW15116   3.071   0.525   0.275
 4386SOL    HW115117   3.084   0.441   0.329
 4386SOL    HW215118   3.042   0.599   0.335
 4387SOL     OW15119   2.169   0.213   1.231
 4387SOL    HW115120   2.146   0.250   1.321
 4387SOL    HW215121   2.139   0.118   1.225
 4388SOL     OW15122   1.899   1.310   1.282
 4388SOL    HW115123   1.952   1.261   1.350
 4388SOL    HW215124   1.921   1.408   1.287
 4389SOL     OW15125   2.594   0.634   1.064
 4389SOL    HW115126   2.653   0.608   0.988
 4389SOL    HW215127   2.566   0.730   1.053
 4390SOL     OW15128   3.590   0.935   1.854
 4390SOL    HW115129   3.544   0.928   1.765
 4390SOL    HW215130   3.528   0.979   1.920
 4391SOL     OW15131   2.169   0.063   0.618
 4391SOL    HW115132   2.158   0.157   0.651
 4391SOL    HW215133   2.164   0.000   0.695
 4392SOL     OW15134   3.484   0.367   0.374
 4392SOL    HW115135   3.486   0.291   0.438
 4392SOL    HW215136   3.436   0.444   0.414
 4393SOL     OW15137   2.885   0.766   0.966
 4393SOL    HW115138   2.900   0.787   1.062
 4393SOL    HW215139   2.855   0.671   0.957
 4394SOL     OW15140   2.842   1.573   1.700
 4394SOL    HW115141   2.822   1.617   1.612
 4394SOL    HW215142   2.881   1.482   1.684
 4395SOL     OW15143   3.721   1.518   1.605
 4395SOL    HW115144   3.735   1.545   1.510
 4395SOL    HW215145   3.804   1.540   1.658
 4396SOL     OW15146   2.212   0.898   1.804
 4396SOL    HW115147   2.288   0.942   1.852
 4396SOL    HW215148   2.247   0.851   1.722
 4397SOL     OW15149   3.402   0.274   0.125
 4397SOL    HW115150   3.341   0.199   0.148
 4397SOL    HW215151   3.424   0.326   0.208
 4398SOL     OW15152   3.165   0.838   0.042
 4398SOL    HW115153   3.199   0.745   0.057
 4398SOL    HW215154   3.183   0.865  -0.053
 4399SOL     OW15155   2.930   1.333   0.849
 4399SOL    HW115156   2.937   1.249   0.794
 4399SOL    HW215157   2.992   1.402   0.813
 4400SOL     OW15158   2.181   0.810   0.949
 4400SOL    HW115159   2.274   0.846   0.954
 4400SOL    HW215160   2.175   0.725   1.001
 4401SOL     OW15161   2.201   0.509   1.006
 4401SOL    HW115162   2.149   0.426   0.989
 4401SOL    HW215163   2.278   0.514   0.942
 4402SOL     OW15164   3.000   0.380   1.678
 4402SOL    HW115165   2.955   0.443   1.742
 4402SOL    HW215166   3.093   0.411   1.661
 4403SOL     OW15167   3.022   0.207   1.477
 4403SOL    HW115168   3.022   0.271   1.554
 4403SOL    HW215169   3.050   0.255   1.394
 4404SOL     OW15170   1.870   1.326   0.200
 4404SOL    HW115171   1.777   1.347   0.169
 4404SOL    HW215172   1.880   1.227   0.213
 4405SOL     OW15173   1.950   1.801   0.927
 4405SOL    HW115174   1.908   1.715   0.900
 4405SOL    HW215175   2.044   1.804   0.893
 4406SOL     OW15176   2.366   1.568   0.910
 4406SOL    HW115177   2.432   1.642   0.919
 4406SOL    HW215178   2.410   1.489   0.868
 4407SOL     OW15179   2.864   0.796   1.238
 4407SOL    HW115180   2.905   0.764   1.324
 4407SOL    HW215181   2.768   0.769   1.235
 4408SOL     OW15182   1.902   0.544   1.114
 4408SOL    HW115183   1.987   0.511   1.073
 4408SOL    HW215184   1.915   0.559   1.212
 4409SOL     OW15185   2.051   0.520   1.722
 4409SOL    HW115186   2.110   0.480   1.652
 4409SOL    HW215187   1.993   0.591   1.681
 4410SOL     OW15188   3.231   0.950   1.660
 4410SOL    HW115189   3.270   1.039   1.680
 4410SOL    HW215190   3.241   0.930   1.563
 4411SOL     OW15191   2.677   0.572   0.325
 4411SOL    HW115192   2.684   0.483   0.279
 4411SOL    HW215193   2.583   0.606   0.317
 4412SOL     OW15194   3.519   0.604   1.206
 4412SOL    HW115195   3.481   0.535   1.268
 4412SOL    HW215196   3.601   0.568   1.162
 4413SOL     OW15197   2.114   1.564   1.744
 4413SOL    HW115198   2.084   1.621   1.820
 4413SOL    HW215199   2.107   1.467   1.770
 4414SOL     OW15200   2.533   0.464   1.269
 4414SOL    HW115201   2.499   0.375   1.239
 4414SOL    HW215202   2.559   0.518   1.189
 4415SOL     OW15203   2.792   1.678   1.465
 4415SOL    HW115204   2.768   1.660   1.370
 4415SOL    HW215205   2.822   1.772   1.475
 4416SOL     OW15206   2.335   0.500   0.191
 4416SOL    HW115207   2.396   0.580   0.195
 4416SOL    HW215208   2.240   0.531   0.198
 4417SOL     OW15209   2.021   1.137   1.466
 4417SOL    HW115210   2.043   1.076   1.542
 4417SOL    HW215211   2.031   1.088   1.380
 4418SOL     OW15212   3.209   1.059   1.234
 4418SOL    HW115213   3.233   0.996   1.160
 4418SOL    HW215214   3.119   1.099   1.216
 4419SOL     OW15215   3.164   0.855   0.309
 4419SOL    HW115216   3.078   0.824   0.351
 4419SOL    HW215217   3.160   0.841   0.210
 4420SOL     OW15218   3.621   1.747   1.154
 4420SOL    HW115219   3.682   1.777   1.081
 4420SOL    HW215220   3.583   1.658   1.132
 4421SOL     OW15221   3.114   1.731   1.128
 4421SOL    HW115222   3.198   1.736   1.074
 4421SOL    HW215223   3.091   1.635   1.146
 4422SOL     OW15224   1.945   1.258   1.022
 4422SOL    HW115225   1.940   1.257   1.122
 4422SOL    HW215226   1.862   1.217   0.984
 4423SOL     OW15227   2.550   1.662   1.716
 4423SOL    HW115228   2.494   1.743   1.725
 4423SOL    HW215229   2.602   1.666   1.630
 4424SOL     OW15230   2.765   0.086   0.133
 4424SOL    HW115231   2.816   0.087   0.047
 4424SOL    HW215232   2.821   0.044   0.204
 4425SOL     OW15233   3.588   0.135   0.523
 4425SOL    HW115234   3.661   0.118   0.456
 4425SOL    HW215235   3.557   0.048   0.561
 4426SOL     OW15236   3.250   1.573   0.477
 4426SOL    HW115237   3.317   1.585   0.403
 4426SOL    HW215238   3.210   1.662   0.500
 4427SOL     OW15239   1.992   1.794   1.851
 4427SOL    HW115240   1.951   1.720   1.904
 4427SOL    HW215241   2.056   1.845   1.909
 4428SOL     OW15242   3.142   0.927   0.672
 4428SOL    HW115243   3.202   0.846   0.674
 4428SOL    HW215244   3.182   0.996   0.612
 4429SOL     OW15245   2.692   1.273   1.422
 4429SOL    HW115246   2.687   1.306   1.517
 4429SOL    HW215247   2.606   1.292   1.376
 4430SOL     OW15248   2.534   1.616   0.154
 4430SOL    HW115249   2.543   1.626   0.055
 4430SOL    HW215250   2.494   1.527   0.175
 4431SOL     OW15251   3.512   1.720   1.394
 4431SOL    HW115252   3.565   1.730   1.310
 4431SOL    HW215253   3.485   1.810   1.428
 4432SOL     OW15254   3.703   0.175   0.963
 4432SOL    HW115255   3.742   0.090   0.927
 4432SOL    HW215256   3.605   0.177   0.944
 4433SOL     OW15257   2.125   0.326   0.720
 4433SOL    HW115258   2.046   0.377   0.686
 4433SOL    HW215259   2.116   0.311   0.818
 4434SOL     OW15260   3.056   1.612   0.031
 4434SOL    HW115261   3.062   1.519   0.068
 4434SOL    HW215262   2.997   1.612  -0.049
 4435SOL     OW15263   2.684   1.002   1.372
 4435SOL    HW115264   2.724   1.001   1.280
 4435SOL    HW215265   2.694   1.094   1.412
 4436SOL     OW15266   2.778   0.910   0.291
 4436SOL    HW115267   2.841   0.948   0.223
 4436SOL    HW215268   2.818   0.827   0.330
 4437SOL     OW15269   3.366   1.607   0.044
 4437SOL    HW115270   3.274   1.644   0.051
 4437SOL    HW215271   3.404   1.627  -0.046
 4438SOL     OW15272   2.234   1.288   1.490
 4438SOL    HW115273   2.221   1.381   1.456
 4438SOL    HW215274   2.150   1.236   1.477
 4439SOL     OW15275   3.476   1.292   1.289
 4439SOL    HW115276   3.536   1.295   1.369
 4439SOL    HW215277   3.401   1.356   1.302
 4440SOL     OW15278   2.901   1.098   0.696
 4440SOL    HW115279   2.831   1.051   0.750
 4440SOL    HW215280   2.960   1.030   0.653
 4441SOL     OW15281   2.876   0.236   0.971
 4441SOL    HW115282   2.868   0.200   0.878
 4441SOL    HW215283   2.874   0.160   1.036
 4442SOL     OW15284   2.452   1.487   0.491
 4442SOL    HW115285   2.494   1.429   0.421
 4442SOL    HW215286   2.408   1.566   0.447
 4443SOL     OW15287   3.571   0.385   1.381
 4443SOL    HW115288   3.644   0.454   1.385
 4443SOL    HW215289   3.599   0.310   1.322
 4444SOL     OW15290   2.117   1.348   0.290
 4444SOL    HW115291   2.021   1.349   0.263
 4444SOL    HW215292   2.129   1.401   0.374
 4445SOL     OW15293   1.967   1.013   1.726
 4445SOL    HW115294   1.890   0.980   1.780
 4445SOL    HW215295   2.052   0.983   1.768
 4446SOL     OW15296   2.534   0.203   1.489
 4446SOL    HW115297   2.624   0.187   1.449
 4446SOL    HW215298   2.542   0.208   1.588
 4447SOL     OW15299   3.302   0.856   1.398
 4447SOL    HW115300   3.245   0.908   1.335
 4447SOL    HW215301   3.398   0.868   1.374
 4448SOL     OW15302   1.934   0.166   0.318
 4448SOL    HW115303   1.917   0.249   0.264
 4448SOL    HW215304   2.024   0.129   0.296
 4449SOL     OW15305   3.045   1.335   0.119
 4449SOL    HW115306   2.946   1.324   0.121
 4449SOL    HW215307   3.079   1.350   0.212
 4450SOL     OW15308   2.475   0.842   1.431
 4450SOL    HW115309   2.531   0.923   1.414
 4450SOL    HW215310   2.534   0.762   1.434
 4451SOL     OW15311   3.355   1.767   0.959
 4451SOL    HW115312   3.388   1.831   0.890
 4451SOL    HW215313   3.421   1.761   1.034
 4452SOL     OW15314   2.578   0.565   1.708
 4452SOL    HW115315   2.597   0.630   1.782
 4452SOL    HW215316   2.638   0.485   1.717
 4453SOL     OW15317   3.312   1.220   1.633
 4453SOL    HW115318   3.303   1.210   1.732
 4453SOL    HW215319   3.408   1.213   1.607
 4454SOL     OW15320   2.252   1.741   1.560
 4454SOL    HW115321   2.161   1.782   1.558
 4454SOL    HW215322   2.245   1.647   1.592
 4455SOL     OW15323   3.536   0.883   1.254
 4455SOL    HW115324   3.509   0.794   1.217
 4455SOL    HW215325   3.537   0.951   1.181
 4456SOL     OW15326   3.087   0.325   0.449
 4456SOL    HW115327   3.152   0.251   0.438
 4456SOL    HW215328   3.107   0.375   0.533
 4457SOL     OW15329   2.456   0.745   0.652
 4457SOL    HW115330   2.506   0.830   0.633
 4457SOL    HW215331   2.368   0.747   0.604
 4458SOL     OW15332   3.639   0.342   1.642
 4458SOL    HW115333   3.622   0.373   1.548
 4458SOL    HW215334   3.555   0.305   1.680
 4459SOL     OW15335   3.592   0.934   1.517
 4459SOL    HW115336   3.630   1.025   1.532
 4459SOL    HW215337   3.584   0.917   1.418
 4460SOL     OW15338   2.721   1.374   0.016
 4460SOL    HW115339   2.675   1.389   0.104
 4460SOL    HW215340   2.765   1.459  -0.014
 4461SOL     OW15341   2.523   1.790   0.953
 4461SOL    HW115342   2.477   1.878   0.940
 4461SOL    HW215343   2.622   1.802   0.946
 4462SOL     OW15344   3.270   1.851   1.720
 4462SOL    HW115345   3.174   1.840   1.693
 4462SOL    HW215346   3.326   1.784   1.672
 4463SOL     OW15347   2.721   0.956   0.861
 4463SOL    HW115348   2.775   0.887   0.909
 4463SOL    HW215349   2.689   1.025   0.927
 4464SOL     OW15350   2.945   0.984   0.087
 4464SOL    HW115351   2.922   1.037   0.005
 4464SOL    HW215352   3.026   0.928   0.068
 4465SOL     OW15353   3.723   1.569   0.851
 4465SOL    HW115354   3.652   1.557   0.781
 4465SOL    HW215355   3.724   1.490   0.911
 4466SOL     OW15356   2.083   1.314   1.844
 4466SOL    HW115357   2.018   1.241   1.823
 4466SOL    HW215358   2.087   1.328   1.942
 4467SOL     OW15359   1.941   1.240   0.653
 4467SOL    HW115360   1.940   1.193   0.741
 4467SOL    HW215361   2.023   1.212   0.602
 4468SOL     OW15362   2.534   1.391   1.624
 4468SOL    HW115363   2.456   1.341   1.662
 4468SOL    HW215364   2.531   1.486   1.655
 4469SOL     OW15365   3.686   0.192   1.227
 4469SOL    HW115366   3.682   0.102   1.271
 4469SOL    HW215367   3.689   0.181   1.128
 4470SOL     OW15368   2.290   0.424   0.520
 4470SOL    HW115369   2.320   0.352   0.458
 4470SOL    HW215370   2.251   0.384   0.603
 4471SOL     OW15371   3.567   1.487   1.104
 4471SOL    HW115372   3.474   1.462   1.077
 4471SOL    HW215373   3.593   1.437   1.186
 4472SOL     OW15374   2.179   0.547   1.280
 4472SOL    HW115375   2.217   0.488   1.352
 4472SOL    HW215376   2.219   0.521   1.192
 4473SOL     OW15377   2.674   1.586   0.687
 4473SOL    HW115378   2.706   1.596   0.593
 4473SOL    HW215379   2.595   1.524   0.689
 4474SOL     OW15380   3.286   0.214   1.112
 4474SOL    HW115381   3.338   0.149   1.167
 4474SOL    HW215382   3.237   0.277   1.173
 4475SOL     OW15383   2.863   0.034   1.154
 4475SOL    HW115384   2.800  -0.038   1.123
 4475SOL    HW215385   2.956  -0.002   1.154
 4476SOL     OW15386   2.632   1.330   0.301
 4476SOL    HW115387   2.586   1.243   0.318
 4476SOL    HW215388   2.723   1.327   0.342
 4477SOL     OW15389   2.480   1.567   1.284
 4477SOL    HW115390   2.475   1.649   1.341
 4477SOL    HW215391   2.569   1.564   1.239
 4478SOL     OW15392   3.214   0.052   0.168
 4478SOL    HW115393   3.249   0.011   0.084
 4478SOL    HW215394   3.124   0.014   0.188
 4479SOL     OW15395   3.162   0.453   0.691
 4479SOL    HW115396   3.103   0.533   0.695
 4479SOL    HW215397   3.177   0.418   0.784
 4480SOL     OW15398   3.455   0.221   0.882
 4480SOL    HW115399   3.371   0.220   0.936
 4480SOL    HW215400   3.457   0.304   0.826
 4481SOL     OW15401   1.901   1.077   0.300
 4481SOL    HW115402   2.000   1.066   0.291
 4481SOL    HW215403   1.861   0.991   0.332
 4482SOL     OW15404   2.737   1.646   0.337
 4482SOL    HW115405   2.660   1.611   0.283
 4482SOL    HW215406   2.705   1.717   0.399
 4483SOL     OW15407   2.092   0.628   1.975
 4483SOL    HW115408   1.999   0.626   2.012
 4483SOL    HW215409   2.093   0.589   1.883
 4484SOL     OW15410   2.087   0.275   2.858
 4484SOL    HW115411   2.122   0.258   2.950
 4484SOL    HW215412   1.999   0.230   2.846
 4485SOL     OW15413   1.881   0.368   2.509
 4485SOL    HW115414   1.799   0.411   2.548
 4485SOL    HW215415   1.853   0.295   2.446
 4486SOL     OW15416   2.431   1.275   3.027
 4486SOL    HW115417   2.338   1.268   2.990
 4486SOL    HW215418   2.442   1.364   3.071
 4487SOL     OW15419   3.417   1.511   2.565
 4487SOL    HW115420   3.360   1.495   2.646
 4487SOL    HW215421   3.358   1.521   2.485
 4488SOL     OW15422   3.605   0.618   2.718
 4488SOL    HW115423   3.638   0.712   2.718
 4488SOL    HW215424   3.656   0.564   2.784
 4489SOL     OW15425   2.997   0.703   2.579
 4489SOL    HW115426   3.054   0.781   2.554
 4489SOL    HW215427   2.937   0.729   2.655
 4490SOL     OW15428   3.617   0.607   2.093
 4490SOL    HW115429   3.605   0.594   1.994
 4490SOL    HW215430   3.587   0.526   2.142
 4491SOL     OW15431   2.630   1.144   2.885
 4491SOL    HW115432   2.552   1.161   2.945
 4491SOL    HW215433   2.664   1.231   2.849
 4492SOL     OW15434   2.712   0.798   3.685
 4492SOL    HW115435   2.708   0.874   3.750
 4492SOL    HW215436   2.734   0.834   3.594
 4493SOL     OW15437   2.547   1.012   2.527
 4493SOL    HW115438   2.616   0.996   2.597
 4493SOL    HW215439   2.474   1.069   2.565
 4494SOL     OW15440   2.548   1.161   3.665
 4494SOL    HW115441   2.608   1.240   3.679
 4494SOL    HW215442   2.462   1.192   3.624
 4495SOL     OW15443   2.197   1.435   2.923
 4495SOL    HW115444   2.119   1.404   2.870
 4495SOL    HW215445   2.255   1.493   2.866
 4496SOL     OW15446   3.322   1.505   3.201
 4496SOL    HW115447   3.346   1.599   3.227
 4496SOL    HW215448   3.306   1.451   3.283
 4497SOL     OW15449   2.300   0.392   3.361
 4497SOL    HW115450   2.382   0.336   3.370
 4497SOL    HW215451   2.219   0.334   3.365
 4498SOL     OW15452   3.465   0.447   2.599
 4498SOL    HW115453   3.391   0.493   2.549
 4498SOL    HW215454   3.516   0.515   2.652
 4499SOL     OW15455   2.093   1.713   2.345
 4499SOL    HW115456   2.127   1.790   2.399
 4499SOL    HW215457   2.137   1.713   2.255
 4500SOL     OW15458   2.989   1.341   3.552
 4500SOL    HW115459   3.036   1.341   3.640
 4500SOL    HW215460   2.941   1.254   3.541
 4501SOL     OW15461   2.092   1.434   2.400
 4501SOL    HW115462   2.066   1.530   2.400
 4501SOL    HW215463   2.021   1.380   2.445
 4502SOL     OW15464   2.102   1.091   2.748
 4502SOL    HW115465   2.116   1.007   2.800
 4502SOL    HW215466   2.047   1.155   2.803
 4503SOL     OW15467   2.482   1.786   3.301
 4503SOL    HW115468   2.390   1.769   3.336
 4503SOL    HW215469   2.510   1.878   3.327
 4504SOL     OW15470   2.468   0.964   1.985
 4504SOL    HW115471   2.475   1.048   1.931
 4504SOL    HW215472   2.514   0.977   2.073
 4505SOL     OW15473   3.456   0.114   3.342
 4505SOL    HW115474   3.438   0.181   3.270
 4505SOL    HW215475   3.453   0.160   3.431
 4506SOL     OW15476   1.984   0.643   2.425
 4506SOL    HW115477   1.939   0.555   2.442
 4506SOL    HW215478   1.983   0.697   2.509
 4507SOL     OW15479   3.704   1.767   2.221
 4507SOL    HW115480   3.758   1.738   2.301
 4507SOL    HW215481   3.734   1.857   2.192
 4508SOL     OW15482   1.889   1.596   1.979
 4508SOL    HW115483   1.870   1.500   2.000
 4508SOL    HW215484   1.856   1.654   2.054
 4509SOL     OW15485   3.551   0.922   2.474
 4509SOL    HW115486   3.646   0.893   2.482
 4509SOL    HW215487   3.543   0.987   2.399
 4510SOL     OW15488   3.503   1.108   2.294
 4510SOL    HW115489   3.589   1.110   2.242
 4510SOL    HW215490   3.517   1.155   2.382
 4511SOL     OW15491   1.975   0.737   3.459
 4511SOL    HW115492   2.063   0.724   3.504
 4511SOL    HW215493   1.962   0.834   3.437
 4512SOL     OW15494   2.475   1.365   2.588
 4512SOL    HW115495   2.426   1.278   2.597
 4512SOL    HW215496   2.452   1.408   2.501
 4513SOL     OW15497   3.155   1.228   3.285
 4513SOL    HW115498   3.192   1.155   3.227
 4513SOL    HW215499   3.207   1.233   3.370
 4514SOL     OW15500   2.671   0.004   2.364
 4514SOL    HW115501   2.711   0.095   2.355
 4514SOL    HW215502   2.571   0.012   2.370
 4515SOL     OW15503   2.059   0.976   3.126
 4515SOL    HW115504   2.148   0.931   3.112
 4515SOL    HW215505   1.986   0.911   3.107
 4516SOL     OW15506   3.387   0.999   2.052
 4516SOL    HW115507   3.324   0.923   2.065
 4516SOL    HW215508   3.435   1.017   2.138
 4517SOL     OW15509   3.049   1.792   3.478
 4517SOL    HW115510   3.073   1.852   3.402
 4517SOL    HW215511   3.056   1.697   3.448
 4518SOL     OW15512   2.179   0.251   3.663
 4518SOL    HW115513   2.250   0.322   3.669
 4518SOL    HW215514   2.091   0.290   3.691
 4519SOL     OW15515   3.328   1.417   2.815
 4519SOL    HW115516   3.269   1.423   2.895
 4519SOL    HW215517   3.313   1.329   2.769
 4520SOL     OW15518   3.529   1.714   2.434
 4520SOL    HW115519   3.488   1.691   2.346
 4520SOL    HW215520   3.511   1.640   2.499
 4521SOL     OW15521   2.460   0.729   2.132
 4521SOL    HW115522   2.484   0.798   2.064
 4521SOL    HW215523   2.382   0.762   2.186
 4522SOL     OW15524   3.143   0.345   2.806
 4522SOL    HW115525   3.057   0.295   2.793
 4522SOL    HW215526   3.205   0.291   2.862
 4523SOL     OW15527   3.438   1.662   2.169
 4523SOL    HW115528   3.527   1.708   2.172
 4523SOL    HW215529   3.417   1.638   2.074
 4524SOL     OW15530   2.669   0.605   3.327
 4524SOL    HW115531   2.622   0.602   3.416
 4524SOL    HW215532   2.618   0.550   3.261
 4525SOL     OW15533   3.256   0.469   3.536
 4525SOL    HW115534   3.236   0.512   3.624
 4525SOL    HW215535   3.334   0.407   3.545
 4526SOL     OW15536   2.835   0.890   3.434
 4526SOL    HW115537   2.881   0.806   3.405
 4526SOL    HW215538   2.779   0.924   3.359
 4527SOL     OW15539   2.853   0.410   3.104
 4527SOL    HW115540   2.776   0.444   3.158
 4527SOL    HW215541   2.819   0.359   3.025
 4528SOL     OW15542   2.903   0.701   2.291
 4528SOL    HW115543   2.929   0.697   2.387
 4528SOL    HW215544   2.818   0.650   2.277
 4529SOL     OW15545   1.938   0.811   2.651
 4529SOL    HW115546   2.037   0.799   2.660
 4529SOL    HW215547   1.914   0.906   2.672
 4530SOL     OW15548   1.992   1.821   3.433
 4530SOL    HW115549   1.982   1.806   3.532
 4530SOL    HW215550   1.906   1.857   3.397
 4531SOL     OW15551   2.727   0.348   2.057
 4531SOL    HW115552   2.786   0.411   2.008
 4531SOL    HW215553   2.746   0.254   2.028
 4532SOL     OW15554   3.581   0.585   3.693
 4532SOL    HW115555   3.555   0.674   3.657
 4532SOL    HW215556   3.579   0.517   3.620
 4533SOL     OW15557   3.224   1.144   2.407
 4533SOL    HW115558   3.307   1.115   2.359
 4533SOL    HW215559   3.175   1.211   2.351
 4534SOL     OW15560   2.412   0.196   2.747
 4534SOL    HW115561   2.407   0.191   2.847
 4534SOL    HW215562   2.414   0.292   2.718
 4535SOL     OW15563   2.870   1.456   2.339
 4535SOL    HW115564   2.824   1.528   2.287
 4535SOL    HW215565   2.866   1.476   2.437
 4536SOL     OW15566   2.213   1.801   2.715
 4536SOL    HW115567   2.263   1.715   2.721
 4536SOL    HW215568   2.278   1.878   2.712
 4537SOL     OW15569   3.657   1.066   2.735
 4537SOL    HW115570   3.595   1.051   2.659
 4537SOL    HW215571   3.605   1.077   2.820
 4538SOL     OW15572   3.089   1.550   3.368
 4538SOL    HW115573   3.095   1.473   3.432
 4538SOL    HW215574   3.037   1.524   3.288
 4539SOL     OW15575   2.183   0.943   2.104
 4539SOL    HW115576   2.265   0.982   2.062
 4539SOL    HW215577   2.156   0.861   2.055
 4540SOL     OW15578   3.320   0.735   2.590
 4540SOL    HW115579   3.315   0.670   2.665
 4540SOL    HW215580   3.400   0.794   2.603
 4541SOL     OW15581   2.323   1.266   3.589
 4541SOL    HW115582   2.273   1.267   3.503
 4541SOL    HW215583   2.260   1.248   3.665
 4542SOL     OW15584   2.973   1.776   2.099
 4542SOL    HW115585   2.913   1.714   2.149
 4542SOL    HW215586   3.004   1.732   2.014
 4543SOL     OW15587   2.064   0.285   3.360
 4543SOL    HW115588   1.984   0.345   3.347
 4543SOL    HW215589   2.054   0.236   3.446
 4544SOL     OW15590   3.494   1.377   1.943
 4544SOL    HW115591   3.462   1.471   1.933
 4544SOL    HW215592   3.418   1.314   1.931
 4545SOL     OW15593   2.326   1.743   2.185
 4545SOL    HW115594   2.359   1.782   2.271
 4545SOL    HW215595   2.402   1.736   2.120
 4546SOL     OW15596   3.262   0.107   2.288
 4546SOL    HW115597   3.238   0.070   2.198
 4546SOL    HW215598   3.361   0.123   2.292
 4547SOL     OW15599   2.111   1.785   3.103
 4547SOL    HW115600   2.168   1.720   3.153
 4547SOL    HW215601   2.095   1.752   3.010
 4548SOL     OW15602   2.802   1.698   2.766
 4548SOL    HW115603   2.882   1.641   2.787
 4548SOL    HW215604   2.753   1.658   2.689
 4549SOL     OW15605   2.244   0.700   2.342
 4549SOL    HW115606   2.289   0.610   2.339
 4549SOL    HW215607   2.150   0.689   2.375
 4550SOL     OW15608   3.409   0.222   3.591
 4550SOL    HW115609   3.404   0.259   3.683
 4550SOL    HW215610   3.337   0.153   3.579
 4551SOL     OW15611   2.476   0.122   1.979
 4551SOL    HW115612   2.574   0.100   1.986
 4551SOL    HW215613   2.445   0.105   1.886
 4552SOL     OW15614   2.643   0.264   3.611
 4552SOL    HW115615   2.710   0.203   3.654
 4552SOL    HW215616   2.570   0.283   3.676
 4553SOL     OW15617   2.750   1.514   3.057
 4553SOL    HW115618   2.727   1.489   2.963
 4553SOL    HW215619   2.811   1.445   3.096
 4554SOL     OW15620   3.213   0.590   3.295
 4554SOL    HW115621   3.241   0.547   3.380
 4554SOL    HW215622   3.238   0.686   3.296
 4555SOL     OW15623   2.665   1.402   2.786
 4555SOL    HW115624   2.755   1.416   2.744
 4555SOL    HW215625   2.594   1.404   2.715
 4556SOL     OW15626   2.784   0.503   2.761
 4556SOL    HW115627   2.759   0.494   2.665
 4556SOL    HW215628   2.832   0.421   2.792
 4557SOL     OW15629   2.401   0.064   2.374
 4557SOL    HW115630   2.320   0.065   2.432
 4557SOL    HW215631   2.404   0.147   2.319
 4558SOL     OW15632   3.296   1.188   1.903
 4558SOL    HW115633   3.328   1.112   1.960
 4558SOL    HW215634   3.204   1.215   1.933
 4559SOL     OW15635   2.159   0.035   2.033
 4559SOL    HW115636   2.208   0.119   2.012
 4559SOL    HW215637   2.221  -0.030   2.078
 4560SOL     OW15638   2.797   0.236   2.342
 4560SOL    HW115639   2.749   0.277   2.264
 4560SOL    HW215640   2.896   0.234   2.323
 4561SOL     OW15641   2.938   0.683   3.326
 4561SOL    HW115642   2.858   0.622   3.329
 4561SOL    HW215643   3.019   0.630   3.302
 4562SOL     OW15644   3.089   1.570   2.655
 4562SOL    HW115645   3.110   1.644   2.590
 4562SOL    HW215646   3.157   1.570   2.728
 4563SOL     OW15647   2.321   1.152   2.603
 4563SOL    HW115648   2.250   1.125   2.668
 4563SOL    HW215649   2.295   1.124   2.510
 4564SOL     OW15650   3.133   1.797   2.453
 4564SOL    HW115651   3.177   1.861   2.389
 4564SOL    HW215652   3.083   1.849   2.523
 4565SOL     OW15653   2.894   0.549   1.878
 4565SOL    HW115654   2.853   0.631   1.839
 4565SOL    HW215655   2.958   0.575   1.951
 4566SOL     OW15656   1.940   0.556   3.248
 4566SOL    HW115657   2.032   0.555   3.207
 4566SOL    HW215658   1.934   0.630   3.315
 4567SOL     OW15659   2.423   0.222   3.009
 4567SOL    HW115660   2.461   0.138   3.046
 4567SOL    HW215661   2.335   0.241   3.053
 4568SOL     OW15662   2.728   0.454   2.504
 4568SOL    HW115663   2.696   0.526   2.442
 4568SOL    HW215664   2.752   0.373   2.451
 4569SOL     OW15665   2.879   0.039   2.615
 4569SOL    HW115666   2.807   0.044   2.546
 4569SOL    HW215667   2.855  -0.030   2.684
 4570SOL     OW15668   3.291   1.173   2.729
 4570SOL    HW115669   3.236   1.089   2.722
 4570SOL    HW215670   3.317   1.202   2.637
 4571SOL     OW15671   3.328   0.590   2.854
 4571SOL    HW115672   3.298   0.495   2.861
 4571SOL    HW215673   3.401   0.606   2.920
 4572SOL     OW15674   3.719   0.833   2.239
 4572SOL    HW115675   3.761   0.769   2.303
 4572SOL    HW215676   3.681   0.782   2.161
 4573SOL     OW15677   2.350   1.385   2.036
 4573SOL    HW115678   2.263   1.370   2.083
 4573SOL    HW215679   2.333   1.411   1.941
 4574SOL     OW15680   3.526   1.280   2.519
 4574SOL    HW115681   3.625   1.288   2.533
 4574SOL    HW215682   3.481   1.364   2.550
 4575SOL     OW15683   3.252   0.575   1.940
 4575SOL    HW115684   3.198   0.554   2.021
 4575SOL    HW215685   3.343   0.534   1.949
 4576SOL     OW15686   2.389   0.256   2.190
 4576SOL    HW115687   2.416   0.197   2.115
 4576SOL    HW215688   2.389   0.351   2.159
 4577SOL     OW15689   3.616   1.223   3.450
 4577SOL    HW115690   3.707   1.184   3.437
 4577SOL    HW215691   3.624   1.319   3.474
 4578SOL     OW15692   2.926   1.347   3.202
 4578SOL    HW115693   2.846   1.324   3.257
 4578SOL    HW215694   3.009   1.321   3.251
 4579SOL     OW15695   3.454   1.629   3.487
 4579SOL    HW115696   3.481   1.663   3.397
 4579SOL    HW215697   3.533   1.591   3.533
 4580SOL     OW15698   2.973   1.195   2.962
 4580SOL    HW115699   2.933   1.239   3.043
 4580SOL    HW215700   2.932   1.232   2.879
 4581SOL     OW15701   3.500   1.099   2.941
 4581SOL    HW115702   3.505   1.180   3.000
 4581SOL    HW215703   3.414   1.101   2.890
 4582SOL     OW15704   2.777   0.089   3.264
 4582SOL    HW115705   2.802   0.069   3.169
 4582SOL    HW215706   2.849   0.145   3.306
 4583SOL     OW15707   2.842   1.116   3.581
 4583SOL    HW115708   2.743   1.122   3.591
 4583SOL    HW215709   2.865   1.036   3.525
 4584SOL     OW15710   2.567   1.050   2.230
 4584SOL    HW115711   2.553   1.057   2.329
 4584SOL    HW215712   2.651   0.999   2.212
 4585SOL     OW15713   2.272   0.813   3.113
 4585SOL    HW115714   2.358   0.825   3.163
 4585SOL    HW215715   2.230   0.726   3.140
 4586SOL     OW15716   3.136   0.386   3.124
 4586SOL    HW115717   3.157   0.460   3.188
 4586SOL    HW215718   3.047   0.403   3.081
 4587SOL     OW15719   1.926   1.564   3.193
 4587SOL    HW115720   1.880   1.646   3.159
 4587SOL    HW215721   2.024   1.583   3.202
 4588SOL     OW15722   2.229   1.100   2.363
 4588SOL    HW115723   2.222   1.183   2.307
 4588SOL    HW215724   2.233   1.020   2.303
 4589SOL     OW15725   2.428   0.537   2.727
 4589SOL    HW115726   2.440   0.603   2.653
 4589SOL    HW215727   2.474   0.571   2.810
 4590SOL     OW15728   3.114   1.348   2.250
 4590SOL    HW115729   3.164   1.425   2.290
 4590SOL    HW215730   3.019   1.350   2.282
 4591SOL     OW15731   3.134   1.445   3.004
 4591SOL    HW115732   3.181   1.458   3.091
 4591SOL    HW215733   3.068   1.371   3.013
 4592SOL     OW15734   3.444   0.639   2.334
 4592SOL    HW115735   3.413   0.700   2.407
 4592SOL    HW215736   3.494   0.691   2.265
 4593SOL     OW15737   2.216   1.510   3.191
 4593SOL    HW115738   2.195   1.466   3.104
 4593SOL    HW215739   2.313   1.536   3.194
 4594SOL     OW15740   2.264   0.751   3.460
 4594SOL    HW115741   2.332   0.806   3.413
 4594SOL    HW215742   2.304   0.663   3.487
 4595SOL     OW15743   3.449   0.779   3.532
 4595SOL    HW115744   3.357   0.817   3.527
 4595SOL    HW215745   3.509   0.826   3.467
 4596SOL     OW15746   2.875   0.105   3.632
 4596SOL    HW115747   2.881   0.190   3.580
 4596SOL    HW215748   2.907   0.029   3.575
 4597SOL     OW15749   2.366   0.050   3.602
 4597SOL    HW115750   2.324  -0.007   3.532
 4597SOL    HW215751   2.300   0.119   3.634
 4598SOL     OW15752   2.435   0.870   2.891
 4598SOL    HW115753   2.479   0.959   2.882
 4598SOL    HW215754   2.372   0.870   2.968
 4599SOL     OW15755   3.222   0.862   2.907
 4599SOL    HW115756   3.147   0.862   2.841
 4599SOL    HW215757   3.259   0.770   2.916
 4600SOL     OW15758   3.071   0.525   2.137
 4600SOL    HW115759   3.084   0.441   2.191
 4600SOL    HW215760   3.042   0.599   2.197
 4601SOL     OW15761   2.169   0.213   3.093
 4601SOL    HW115762   2.146   0.250   3.183
 4601SOL    HW215763   2.139   0.118   3.087
 4602SOL     OW15764   1.899   1.310   3.144
 4602SOL    HW115765   1.952   1.261   3.212
 4602SOL    HW215766   1.921   1.408   3.149
 4603SOL     OW15767   2.594   0.634   2.926
 4603SOL    HW115768   2.653   0.608   2.850
 4603SOL    HW215769   2.566   0.730   2.915
 4604SOL     OW15770   3.590   0.935   3.716
 4604SOL    HW115771   3.544   0.928   3.627
 4604SOL    HW215772   3.528   0.979   3.782
 4605SOL     OW15773   2.169   0.063   2.480
 4605SOL    HW115774   2.158   0.157   2.513
 4605SOL    HW215775   2.164   0.000   2.557
 4606SOL     OW15776   3.484   0.367   2.236
 4606SOL    HW115777   3.486   0.291   2.300
 4606SOL    HW215778   3.436   0.444   2.276
 4607SOL     OW15779   2.885   0.766   2.828
 4607SOL    HW115780   2.900   0.787   2.924
 4607SOL    HW215781   2.855   0.671   2.819
 4608SOL     OW15782   2.842   1.573   3.562
 4608SOL    HW115783   2.822   1.617   3.474
 4608SOL    HW215784   2.881   1.482   3.546
 4609SOL     OW15785   3.721   1.518   3.467
 4609SOL    HW115786   3.735   1.545   3.372
 4609SOL    HW215787   3.804   1.540   3.520
 4610SOL     OW15788   2.212   0.898   3.666
 4610SOL    HW115789   2.288   0.942   3.714
 4610SOL    HW215790   2.247   0.851   3.584
 4611SOL     OW15791   3.402   0.274   1.987
 4611SOL    HW115792   3.341   0.199   2.010
 4611SOL    HW215793   3.424   0.326   2.070
 4612SOL     OW15794   3.165   0.838   1.904
 4612SOL    HW115795   3.199   0.745   1.919
 4612SOL    HW215796   3.183   0.865   1.809
 4613SOL     OW15797   2.930   1.333   2.711
 4613SOL    HW115798   2.937   1.249   2.656
 4613SOL    HW215799   2.992   1.402   2.675
 4614SOL     OW15800   2.181   0.810   2.811
 4614SOL    HW115801   2.274   0.846   2.816
 4614SOL    HW215802   2.175   0.725   2.863
 4615SOL     OW15803   2.201   0.509   2.868
 4615SOL    HW115804   2.149   0.426   2.851
 4615SOL    HW215805   2.278   0.514   2.804
 4616SOL     OW15806   3.000   0.380   3.540
 4616SOL    HW115807   2.955   0.443   3.604
 4616SOL    HW215808   3.093   0.411   3.523
 4617SOL     OW15809   3.022   0.207   3.339
 4617SOL    HW115810   3.022   0.271   3.416
 4617SOL    HW215811   3.050   0.255   3.256
 4618SOL     OW15812   1.870   1.326   2.062
 4618SOL    HW115813   1.777   1.347   2.031
 4618SOL    HW215814   1.880   1.227   2.075
 4619SOL     OW15815   1.950   1.801   2.789
 4619SOL    HW115816   1.908   1.715   2.762
 4619SOL    HW215817   2.044   1.804   2.755
 4620SOL     OW15818   2.366   1.568   2.772
 4620SOL    HW115819   2.432   1.642   2.781
 4620SOL    HW215820   2.410   1.489   2.730
 4621SOL     OW15821   2.864   0.796   3.100
 4621SOL    HW115822   2.905   0.764   3.186
 4621SOL    HW215823   2.768   0.769   3.097
 4622SOL     OW15824   1.902   0.544   2.976
 4622SOL    HW115825   1.987   0.511   2.935
 4622SOL    HW215826   1.915   0.559   3.074
 4623SOL     OW15827   2.051   0.520   3.584
 4623SOL    HW115828   2.110   0.480   3.514
 4623SOL    HW215829   1.993   0.591   3.543
 4624SOL     OW15830   3.231   0.950   3.522
 4624SOL    HW115831   3.270   1.039   3.542
 4624SOL    HW215832   3.241   0.930   3.425
 4625SOL     OW15833   2.677   0.572   2.187
 4625SOL    HW115834   2.684   0.483   2.141
 4625SOL    HW215835   2.583   0.606   2.179
 4626SOL     OW15836   3.519   0.604   3.068
 4626SOL    HW115837   3.481   0.535   3.130
 4626SOL    HW215838   3.601   0.568   3.024
 4627SOL     OW15839   2.114   1.564   3.606
 4627SOL    HW115840   2.084   1.621   3.682
 4627SOL    HW215841   2.107   1.467   3.632
 4628SOL     OW15842   2.533   0.464   3.131
 4628SOL    HW115843   2.499   0.375   3.101
 4628SOL    HW215844   2.559   0.518   3.051
 4629SOL     OW15845   2.792   1.678   3.327
 4629SOL    HW115846   2.768   1.660   3.232
 4629SOL    HW215847   2.822   1.772   3.337
 4630SOL     OW15848   2.335   0.500   2.053
 4630SOL    HW115849   2.396   0.580   2.057
 4630SOL    HW215850   2.240   0.531   2.060
 4631SOL     OW15851   2.021   1.137   3.328
 4631SOL    HW115852   2.043   1.076   3.404
 4631SOL    HW215853   2.031   1.088   3.242
 4632SOL     OW15854   3.209   1.059   3.096
 4632SOL    HW115855   3.233   0.996   3.022
 4632SOL    HW215856   3.119   1.099   3.078
 4633SOL     OW15857   3.164   0.855   2.171
 4633SOL    HW115858   3.078   0.824   2.213
 4633SOL    HW215859   3.160   0.841   2.072
 4634SOL     OW15860   3.621   1.747   3.016
 4634SOL    HW115861   3.682   1.777   2.943
 4634SOL    HW215862   3.583   1.658   2.994
 4635SOL     OW15863   3.114   1.731   2.990
 4635SOL    HW115864   3.198   1.736   2.936
 4635SOL    HW215865   3.091   1.635   3.008
 4636SOL     OW15866   1.945   1.258   2.884
 4636SOL    HW115867   1.940   1.257   2.984
 4636SOL    HW215868   1.862   1.217   2.846
 4637SOL     OW15869   2.550   1.662   3.578
 4637SOL    HW115870   2.494   1.743   3.587
 4637SOL    HW215871   2.602   1.666   3.492
 4638SOL     OW15872   3.588   0.135   2.385
 4638SOL    HW115873   3.661   0.118   2.318
 4638SOL    HW215874   3.557   0.048   2.423
 4639SOL     OW15875   3.250   1.573   2.339
 4639SOL    HW115876   3.317   1.585   2.265
 4639SOL    HW215877   3.210   1.662   2.362
 4640SOL     OW15878   1.992   1.794   3.713
 4640SOL    HW115879   1.951   1.720   3.766
 4640SOL    HW215880   2.056   1.845   3.771
 4641SOL     OW15881   3.142   0.927   2.534
 4641SOL    HW115882   3.202   0.846   2.536
 4641SOL    HW215883   3.182   0.996   2.474
 4642SOL     OW15884   2.692   1.273   3.284
 4642SOL    HW115885   2.687   1.306   3.379
 4642SOL    HW215886   2.606   1.292   3.238
 4643SOL     OW15887   2.534   1.616   2.016
 4643SOL    HW115888   2.543   1.626   1.917
 4643SOL    HW215889   2.494   1.527   2.037
 4644SOL     OW15890   3.512   1.720   3.256
 4644SOL    HW115891   3.565   1.730   3.172
 4644SOL    HW215892   3.485   1.810   3.290
 4645SOL     OW15893   3.703   0.175   2.825
 4645SOL    HW115894   3.742   0.090   2.789
 4645SOL    HW215895   3.605   0.177   2.806
 4646SOL     OW15896   2.125   0.326   2.582
 4646SOL    HW115897   2.046   0.377   2.548
 4646SOL    HW215898   2.116   0.311   2.680
 4647SOL     OW15899   3.056   1.612   1.893
 4647SOL    HW115900   3.062   1.519   1.930
 4647SOL    HW215901   2.997   1.612   1.813
 4648SOL     OW15902   2.684   1.002   3.234
 4648SOL    HW115903   2.724   1.001   3.142
 4648SOL    HW215904   2.694   1.094   3.274
 4649SOL     OW15905   2.778   0.910   2.153
 4649SOL    HW115906   2.841   0.948   2.085
 4649SOL    HW215907   2.818   0.827   2.192
 4650SOL     OW15908   3.366   1.607   1.906
 4650SOL    HW115909   3.274   1.644   1.913
 4650SOL    HW215910   3.404   1.627   1.816
 4651SOL     OW15911   2.234   1.288   3.352
 4651SOL    HW115912   2.221   1.381   3.318
 4651SOL    HW215913   2.150   1.236   3.339
 4652SOL     OW15914   3.476   1.292   3.151
 4652SOL    HW115915   3.536   1.295   3.231
 4652SOL    HW215916   3.401   1.356   3.164
 4653SOL     OW15917   2.901   1.098   2.558
 4653SOL    HW115918   2.831   1.051   2.612
 4653SOL    HW215919   2.960   1.030   2.515
 4654SOL     OW15920   2.876   0.236   2.833
 4654SOL    HW115921   2.868   0.200   2.740
 4654SOL    HW215922   2.874   0.160   2.898
 4655SOL     OW15923   2.452   1.487   2.353
 4655SOL    HW115924   2.494   1.429   2.283
 4655SOL    HW215925   2.408   1.566   2.309
 4656SOL     OW15926   3.571   0.385   3.243
 4656SOL    HW115927   3.644   0.454   3.247
 4656SOL    HW215928   3.599   0.310   3.184
 4657SOL     OW15929   2.117   1.348   2.152
 4657SOL    HW115930   2.021   1.349   2.125
 4657SOL    HW215931   2.129   1.401   2.236
 4658SOL     OW15932   1.967   1.013   3.588
 4658SOL    HW115933   1.890   0.980   3.642
 4658SOL    HW215934   2.052   0.983   3.630
 4659SOL     OW15935   2.534   0.203   3.351
 4659SOL    HW115936   2.624   0.187   3.311
 4659SOL    HW215937   2.542   0.208   3.450
 4660SOL     OW15938   1.937   0.345   1.895
 4660SOL    HW115939   1.845   0.317   1.866
 4660SOL    HW215940   1.968   0.422   1.839
 4661SOL     OW15941   3.302   0.856   3.260
 4661SOL    HW115942   3.245   0.908   3.197
 4661SOL    HW215943   3.398   0.868   3.236
 4662SOL     OW15944   1.934   0.166   2.180
 4662SOL    HW115945   1.917   0.249   2.126
 4662SOL    HW215946   2.024   0.129   2.158
 4663SOL     OW15947   3.045   1.335   1.981
 4663SOL    HW115948   2.946   1.324   1.983
 4663SOL    HW215949   3.079   1.350   2.074
 4664SOL     OW15950   2.475   0.842   3.293
 4664SOL    HW115951   2.531   0.923   3.276
 4664SOL    HW215952   2.534   0.762   3.296
 4665SOL     OW15953   3.355   1.767   2.821
 4665SOL    HW115954   3.388   1.831   2.752
 4665SOL    HW215955   3.421   1.761   2.896
 4666SOL     OW15956   2.578   0.565   3.570
 4666SOL    HW115957   2.597   0.630   3.644
 4666SOL    HW215958   2.638   0.485   3.579
 4667SOL     OW15959   3.312   1.220   3.495
 4667SOL    HW115960   3.303   1.210   3.594
 4667SOL    HW215961   3.408   1.213   3.469
 4668SOL     OW15962   2.252   1.741   3.422
 4668SOL    HW115963   2.161   1.782   3.420
 4668SOL    HW215964   2.245   1.647   3.454
 4669SOL     OW15965   3.536   0.883   3.116
 4669SOL    HW115966   3.509   0.794   3.079
 4669SOL    HW215967   3.537   0.951   3.043
 4670SOL     OW15968   3.087   0.325   2.311
 4670SOL    HW115969   3.152   0.251   2.300
 4670SOL    HW215970   3.107   0.375   2.395
 4671SOL     OW15971   2.456   0.745   2.514
 4671SOL    HW115972   2.506   0.830   2.495
 4671SOL    HW215973   2.368   0.747   2.466
 4672SOL     OW15974   3.639   0.342   3.504
 4672SOL    HW115975   3.622   0.373   3.410
 4672SOL    HW215976   3.555   0.305   3.542
 4673SOL     OW15977   3.592   0.934   3.379
 4673SOL    HW115978   3.630   1.025   3.394
 4673SOL    HW215979   3.584   0.917   3.280
 4674SOL     OW15980   2.721   1.374   1.878
 4674SOL    HW115981   2.675   1.389   1.966
 4674SOL    HW215982   2.765   1.459   1.848
 4675SOL     OW15983   2.523   1.790   2.815
 4675SOL    HW115984   2.477   1.878   2.802
 4675SOL    HW215985   2.622   1.802   2.808
 4676SOL     OW15986   3.270   1.851   3.582
 4676SOL    HW115987   3.174   1.840   3.555
 4676SOL    HW215988   3.326   1.784   3.534
 4677SOL     OW15989   2.721   0.956   2.723
 4677SOL    HW115990   2.775   0.887   2.771
 4677SOL    HW215991   2.689   1.025   2.789
 4678SOL     OW15992   2.945   0.984   1.949
 4678SOL    HW115993   2.922   1.037   1.867
 4678SOL    HW215994   3.026   0.928   1.930
 4679SOL     OW15995   3.723   1.569   2.713
 4679SOL    HW115996   3.652   1.557   2.643
 4679SOL    HW215997   3.724   1.490   2.773
 4680SOL     OW15998   2.083   1.314   3.706
 4680SOL    HW115999   2.018   1.241   3.685
 4680SOL    HW216000   2.087   1.328   3.804
 4681SOL     OW16001   1.941   1.240   2.515
 4681SOL    HW116002   1.940   1.193   2.603
 4681SOL    HW216003   2.023   1.212   2.464
 4682SOL     OW16004   2.534   1.391   3.486
 4682SOL    HW116005   2.456   1.341   3.524
 4682SOL    HW216006   2.531   1.486   3.517
 4683SOL     OW16007   3.686   0.192   3.089
 4683SOL    HW116008   3.682   0.102   3.133
 4683SOL    HW216009   3.689   0.181   2.990
 4684SOL     OW16010   2.290   0.424   2.382
 4684SOL    HW116011   2.320   0.352   2.320
 4684SOL    HW216012   2.251   0.384   2.465
 4685SOL     OW16013   3.567   1.487   2.966
 4685SOL    HW116014   3.474   1.462   2.939
 4685SOL    HW216015   3.593   1.437   3.048
 4686SOL     OW16016   2.179   0.547   3.142
 4686SOL    HW116017   2.217   0.488   3.214
 4686SOL    HW216018   2.219   0.521   3.054
 4687SOL     OW16019   2.674   1.586   2.549
 4687SOL    HW116020   2.706   1.596   2.455
 4687SOL    HW216021   2.595   1.524   2.551
 4688SOL     OW16022   3.286   0.214   2.974
 4688SOL    HW116023   3.338   0.149   3.029
 4688SOL    HW216024   3.237   0.277   3.035
 4689SOL     OW16025   2.863   0.034   3.016
 4689SOL    HW116026   2.800  -0.038   2.985
 4689SOL    HW216027   2.956  -0.002   3.016
 4690SOL     OW16028   2.632   1.330   2.163
 4690SOL    HW116029   2.586   1.243   2.180
 4690SOL    HW216030   2.723   1.327   2.204
 4691SOL     OW16031   2.480   1.567   3.146
 4691SOL    HW116032   2.475   1.649   3.203
 4691SOL    HW216033   2.569   1.564   3.101
 4692SOL     OW16034   3.214   0.052   2.030
 4692SOL    HW116035   3.249   0.011   1.946
 4692SOL    HW216036   3.124   0.014   2.050
 4693SOL     OW16037   3.162   0.453   2.553
 4693SOL    HW116038   3.103   0.533   2.557
 4693SOL    HW216039   3.177   0.418   2.646
 4694SOL     OW16040   3.455   0.221   2.744
 4694SOL    HW116041   3.371   0.220   2.798
 4694SOL    HW216042   3.457   0.304   2.688
 4695SOL     OW16043   1.901   1.077   2.162
 4695SOL    HW116044   2.000   1.066   2.153
 4695SOL    HW216045   1.861   0.991   2.194
 4696SOL     OW16046   2.737   1.646   2.199
 4696SOL    HW116047   2.660   1.611   2.145
 4696SOL    HW216048   2.705   1.717   2.261
 4697SOL     OW16049   2.092   0.628   3.837
 4697SOL    HW116050   1.999   0.626   3.874
 4697SOL    HW216051   2.093   0.589   3.745
 4698SOL     OW16052   2.087   0.275   4.720
 4698SOL    HW116053   2.122   0.258   4.812
 4698SOL    HW216054   1.999   0.230   4.708
 4699SOL     OW16055   1.881   0.368   4.371
 4699SOL    HW116056   1.799   0.411   4.410
 4699SOL    HW216057   1.853   0.295   4.308
 4700SOL     OW16058   2.431   1.275   4.889
 4700SOL    HW116059   2.338   1.268   4.852
 4700SOL    HW216060   2.442   1.364   4.933
 4701SOL     OW16061   3.417   1.511   4.427
 4701SOL    HW116062   3.360   1.495   4.508
 4701SOL    HW216063   3.358   1.521   4.347
 4702SOL     OW16064   3.605   0.618   4.580
 4702SOL    HW116065   3.638   0.712   4.580
 4702SOL    HW216066   3.656   0.564   4.646
 4703SOL     OW16067   2.997   0.703   4.441
 4703SOL    HW116068   3.054   0.781   4.416
 4703SOL    HW216069   2.937   0.729   4.517
 4704SOL     OW16070   3.617   0.607   3.955
 4704SOL    HW116071   3.605   0.594   3.856
 4704SOL    HW216072   3.587   0.526   4.004
 4705SOL     OW16073   2.630   1.144   4.747
 4705SOL    HW116074   2.552   1.161   4.807
 4705SOL    HW216075   2.664   1.231   4.711
 4706SOL     OW16076   2.712   0.798   5.547
 4706SOL    HW116077   2.708   0.874   5.612
 4706SOL    HW216078   2.734   0.834   5.456
 4707SOL     OW16079   2.547   1.012   4.389
 4707SOL    HW116080   2.616   0.996   4.459
 4707SOL    HW216081   2.474   1.069   4.427
 4708SOL     OW16082   2.548   1.161   5.527
 4708SOL    HW116083   2.608   1.240   5.541
 4708SOL    HW216084   2.462   1.192   5.486
 4709SOL     OW16085   2.197   1.435   4.785
 4709SOL    HW116086   2.119   1.404   4.732
 4709SOL    HW216087   2.255   1.493   4.728
 4710SOL     OW16088   3.322   1.505   5.063
 4710SOL    HW116089   3.346   1.599   5.089
 4710SOL    HW216090   3.306   1.451   5.145
 4711SOL     OW16091   2.300   0.392   5.223
 4711SOL    HW116092   2.382   0.336   5.232
 4711SOL    HW216093   2.219   0.334   5.227
 4712SOL     OW16094   3.465   0.447   4.461
 4712SOL    HW116095   3.391   0.493   4.411
 4712SOL    HW216096   3.516   0.515   4.514
 4713SOL     OW16097   2.093   1.713   4.207
 4713SOL    HW116098   2.127   1.790   4.261
 4713SOL    HW216099   2.137   1.713   4.117
 4714SOL     OW16100   2.989   1.341   5.414
 4714SOL    HW116101   3.036   1.341   5.502
 4714SOL    HW216102   2.941   1.254   5.403
 4715SOL     OW16103   2.092   1.434   4.262
 4715SOL    HW116104   2.066   1.530   4.262
 4715SOL    HW216105   2.021   1.380   4.307
 4716SOL     OW16106   2.102   1.091   4.610
 4716SOL    HW116107   2.116   1.007   4.662
 4716SOL    HW216108   2.047   1.155   4.665
 4717SOL     OW16109   2.482   1.786   5.163
 4717SOL    HW116110   2.390   1.769   5.198
 4717SOL    HW216111   2.510   1.878   5.189
 4718SOL     OW16112   2.468   0.964   3.847
 4718SOL    HW116113   2.475   1.048   3.793
 4718SOL    HW216114   2.514   0.977   3.935
 4719SOL     OW16115   3.456   0.114   5.204
 4719SOL    HW116116   3.438   0.181   5.132
 4719SOL    HW216117   3.453   0.160   5.293
 4720SOL     OW16118   1.984   0.643   4.287
 4720SOL    HW116119   1.939   0.555   4.304
 4720SOL    HW216120   1.983   0.697   4.371
 4721SOL     OW16121   3.704   1.767   4.083
 4721SOL    HW116122   3.758   1.738   4.163
 4721SOL    HW216123   3.734   1.857   4.054
 4722SOL     OW16124   1.889   1.596   3.841
 4722SOL    HW116125   1.870   1.500   3.862
 4722SOL    HW216126   1.856   1.654   3.916
 4723SOL     OW16127   3.551   0.922   4.336
 4723SOL    HW116128   3.646   0.893   4.344
 4723SOL    HW216129   3.543   0.987   4.261
 4724SOL     OW16130   3.503   1.108   4.156
 4724SOL    HW116131   3.589   1.110   4.104
 4724SOL    HW216132   3.517   1.155   4.244
 4725SOL     OW16133   1.975   0.737   5.321
 4725SOL    HW116134   2.063   0.724   5.366
 4725SOL    HW216135   1.962   0.834   5.299
 4726SOL     OW16136   2.475   1.365   4.450
 4726SOL    HW116137   2.426   1.278   4.459
 4726SOL    HW216138   2.452   1.408   4.363
 4727SOL     OW16139   3.155   1.228   5.147
 4727SOL    HW116140   3.192   1.155   5.089
 4727SOL    HW216141   3.207   1.233   5.232
 4728SOL     OW16142   2.671   0.004   4.226
 4728SOL    HW116143   2.711   0.095   4.217
 4728SOL    HW216144   2.571   0.012   4.232
 4729SOL     OW16145   2.059   0.976   4.988
 4729SOL    HW116146   2.148   0.931   4.974
 4729SOL    HW216147   1.986   0.911   4.969
 4730SOL     OW16148   3.387   0.999   3.914
 4730SOL    HW116149   3.324   0.923   3.927
 4730SOL    HW216150   3.435   1.017   4.000
 4731SOL     OW16151   3.049   1.792   5.340
 4731SOL    HW116152   3.073   1.852   5.264
 4731SOL    HW216153   3.056   1.697   5.310
 4732SOL     OW16154   2.179   0.251   5.525
 4732SOL    HW116155   2.250   0.322   5.531
 4732SOL    HW216156   2.091   0.290   5.553
 4733SOL     OW16157   3.328   1.417   4.677
 4733SOL    HW116158   3.269   1.423   4.757
 4733SOL    HW216159   3.313   1.329   4.631
 4734SOL     OW16160   3.529   1.714   4.296
 4734SOL    HW116161   3.488   1.691   4.208
 4734SOL    HW216162   3.511   1.640   4.361
 4735SOL     OW16163   2.460   0.729   3.994
 4735SOL    HW116164   2.484   0.798   3.926
 4735SOL    HW216165   2.382   0.762   4.048
 4736SOL     OW16166   3.143   0.345   4.668
 4736SOL    HW116167   3.057   0.295   4.655
 4736SOL    HW216168   3.205   0.291   4.724
 4737SOL     OW16169   3.438   1.662   4.031
 4737SOL    HW116170   3.527   1.708   4.034
 4737SOL    HW216171   3.417   1.638   3.936
 4738SOL     OW16172   2.669   0.605   5.189
 4738SOL    HW116173   2.622   0.602   5.278
 4738SOL    HW216174   2.618   0.550   5.123
 4739SOL     OW16175   3.256   0.469   5.398
 4739SOL    HW116176   3.236   0.512   5.486
 4739SOL    HW216177   3.334   0.407   5.407
 4740SOL     OW16178   2.835   0.890   5.296
 4740SOL    HW116179   2.881   0.806   5.267
 4740SOL    HW216180   2.779   0.924   5.221
 4741SOL     OW16181   2.853   0.410   4.966
 4741SOL    HW116182   2.776   0.444   5.020
 4741SOL    HW216183   2.819   0.359   4.887
 4742SOL     OW16184   2.903   0.701   4.153
 4742SOL    HW116185   2.929   0.697   4.249
 4742SOL    HW216186   2.818   0.650   4.139
 4743SOL     OW16187   1.938   0.811   4.513
 4743SOL    HW116188   2.037   0.799   4.522
 4743SOL    HW216189   1.914   0.906   4.534
 4744SOL     OW16190   1.992   1.821   5.295
 4744SOL    HW116191   1.982   1.806   5.394
 4744SOL    HW216192   1.906   1.857   5.259
 4745SOL     OW16193   2.727   0.348   3.919
 4745SOL    HW116194   2.786   0.411   3.870
 4745SOL    HW216195   2.746   0.254   3.890
 4746SOL     OW16196   3.581   0.585   5.555
 4746SOL    HW116197   3.555   0.674   5.519
 4746SOL    HW216198   3.579   0.517   5.482
 4747SOL     OW16199   3.224   1.144   4.269
 4747SOL    HW116200   3.307   1.115   4.221
 4747SOL    HW216201   3.175   1.211   4.213
 4748SOL     OW16202   2.412   0.196   4.609
 4748SOL    HW116203   2.407   0.191   4.709
 4748SOL    HW216204   2.414   0.292   4.580
 4749SOL     OW16205   2.870   1.456   4.201
 4749SOL    HW116206   2.824   1.528   4.149
 4749SOL    HW216207   2.866   1.476   4.299
 4750SOL     OW16208   2.213   1.801   4.577
 4750SOL    HW116209   2.263   1.715   4.583
 4750SOL    HW216210   2.278   1.878   4.574
 4751SOL     OW16211   3.657   1.066   4.597
 4751SOL    HW116212   3.595   1.051   4.521
 4751SOL    HW216213   3.605   1.077   4.682
 4752SOL     OW16214   3.089   1.550   5.230
 4752SOL    HW116215   3.095   1.473   5.294
 4752SOL    HW216216   3.037   1.524   5.150
 4753SOL     OW16217   2.183   0.943   3.966
 4753SOL    HW116218   2.265   0.982   3.924
 4753SOL    HW216219   2.156   0.861   3.917
 4754SOL     OW16220   3.320   0.735   4.452
 4754SOL    HW116221   3.315   0.670   4.527
 4754SOL    HW216222   3.400   0.794   4.465
 4755SOL     OW16223   2.323   1.266   5.451
 4755SOL    HW116224   2.273   1.267   5.365
 4755SOL    HW216225   2.260   1.248   5.527
 4756SOL     OW16226   2.973   1.776   3.961
 4756SOL    HW116227   2.913   1.714   4.011
 4756SOL    HW216228   3.004   1.732   3.876
 4757SOL     OW16229   2.064   0.285   5.222
 4757SOL    HW116230   1.984   0.345   5.209
 4757SOL    HW216231   2.054   0.236   5.308
 4758SOL     OW16232   3.494   1.377   3.805
 4758SOL    HW116233   3.462   1.471   3.795
 4758SOL    HW216234   3.418   1.314   3.793
 4759SOL     OW16235   2.326   1.743   4.047
 4759SOL    HW116236   2.359   1.782   4.133
 4759SOL    HW216237   2.402   1.736   3.982
 4760SOL     OW16238   3.262   0.107   4.150
 4760SOL    HW116239   3.238   0.070   4.060
 4760SOL    HW216240   3.361   0.123   4.154
 4761SOL     OW16241   2.111   1.785   4.965
 4761SOL    HW116242   2.168   1.720   5.015
 4761SOL    HW216243   2.095   1.752   4.872
 4762SOL     OW16244   2.802   1.698   4.628
 4762SOL    HW116245   2.882   1.641   4.649
 4762SOL    HW216246   2.753   1.658   4.551
 4763SOL     OW16247   2.244   0.700   4.204
 4763SOL    HW116248   2.289   0.610   4.201
 4763SOL    HW216249   2.150   0.689   4.237
 4764SOL     OW16250   3.409   0.222   5.453
 4764SOL    HW116251   3.404   0.259   5.545
 4764SOL    HW216252   3.337   0.153   5.441
 4765SOL     OW16253   2.476   0.122   3.841
 4765SOL    HW116254   2.574   0.100   3.848
 4765SOL    HW216255   2.445   0.105   3.748
 4766SOL     OW16256   2.643   0.264   5.473
 4766SOL    HW116257   2.710   0.203   5.516
 4766SOL    HW216258   2.570   0.283   5.538
 4767SOL     OW16259   2.750   1.514   4.919
 4767SOL    HW116260   2.727   1.489   4.825
 4767SOL    HW216261   2.811   1.445   4.958
 4768SOL     OW16262   3.213   0.590   5.157
 4768SOL    HW116263   3.241   0.547   5.242
 4768SOL    HW216264   3.238   0.686   5.158
 4769SOL     OW16265   2.665   1.402   4.648
 4769SOL    HW116266   2.755   1.416   4.606
 4769SOL    HW216267   2.594   1.404   4.577
 4770SOL     OW16268   2.784   0.503   4.623
 4770SOL    HW116269   2.759   0.494   4.527
 4770SOL    HW216270   2.832   0.421   4.654
 4771SOL     OW16271   2.401   0.064   4.236
 4771SOL    HW116272   2.320   0.065   4.294
 4771SOL    HW216273   2.404   0.147   4.181
 4772SOL     OW16274   3.296   1.188   3.765
 4772SOL    HW116275   3.328   1.112   3.822
 4772SOL    HW216276   3.204   1.215   3.795
 4773SOL     OW16277   2.159   0.035   3.895
 4773SOL    HW116278   2.208   0.119   3.874
 4773SOL    HW216279   2.221  -0.030   3.940
 4774SOL     OW16280   2.797   0.236   4.204
 4774SOL    HW116281   2.749   0.277   4.126
 4774SOL    HW216282   2.896   0.234   4.185
 4775SOL     OW16283   2.938   0.683   5.188
 4775SOL    HW116284   2.858   0.622   5.191
 4775SOL    HW216285   3.019   0.630   5.164
 4776SOL     OW16286   3.089   1.570   4.517
 4776SOL    HW116287   3.110   1.644   4.452
 4776SOL    HW216288   3.157   1.570   4.590
 4777SOL     OW16289   2.321   1.152   4.465
 4777SOL    HW116290   2.250   1.125   4.530
 4777SOL    HW216291   2.295   1.124   4.372
 4778SOL     OW16292   3.133   1.797   4.315
 4778SOL    HW116293   3.177   1.861   4.251
 4778SOL    HW216294   3.083   1.849   4.385
 4779SOL     OW16295   2.894   0.549   3.740
 4779SOL    HW116296   2.853   0.631   3.701
 4779SOL    HW216297   2.958   0.575   3.813
 4780SOL     OW16298   1.940   0.556   5.110
 4780SOL    HW116299   2.032   0.555   5.069
 4780SOL    HW216300   1.934   0.630   5.177
 4781SOL     OW16301   2.423   0.222   4.871
 4781SOL    HW116302   2.461   0.138   4.908
 4781SOL    HW216303   2.335   0.241   4.915
 4782SOL     OW16304   2.728   0.454   4.366
 4782SOL    HW116305   2.696   0.526   4.304
 4782SOL    HW216306   2.752   0.373   4.313
 4783SOL     OW16307   2.879   0.039   4.477
 4783SOL    HW116308   2.807   0.044   4.408
 4783SOL    HW216309   2.855  -0.030   4.546
 4784SOL     OW16310   3.291   1.173   4.591
 4784SOL    HW116311   3.236   1.089   4.584
 4784SOL    HW216312   3.317   1.202   4.499
 4785SOL     OW16313   3.328   0.590   4.716
 4785SOL    HW116314   3.298   0.495   4.723
 4785SOL    HW216315   3.401   0.606   4.782
 4786SOL     OW16316   3.719   0.833   4.101
 4786SOL    HW116317   3.761   0.769   4.165
 4786SOL    HW216318   3.681   0.782   4.023
 4787SOL     OW16319   2.350   1.385   3.898
 4787SOL    HW116320   2.263   1.370   3.945
 4787SOL    HW216321   2.333   1.411   3.803
 4788SOL     OW16322   3.526   1.280   4.381
 4788SOL    HW116323   3.625   1.288   4.395
 4788SOL    HW216324   3.481   1.364   4.412
 4789SOL     OW16325   3.252   0.575   3.802
 4789SOL    HW116326   3.198   0.554   3.883
 4789SOL    HW216327   3.343   0.534   3.811
 4790SOL     OW16328   2.389   0.256   4.052
 4790SOL    HW116329   2.416   0.197   3.977
 4790SOL    HW216330   2.389   0.351   4.021
 4791SOL     OW16331   3.616   1.223   5.312
 4791SOL    HW116332   3.707   1.184   5.299
 4791SOL    HW216333   3.624   1.319   5.336
 4792SOL     OW16334   2.926   1.347   5.064
 4792SOL    HW116335   2.846   1.324   5.119
 4792SOL    HW216336   3.009   1.321   5.113
 4793SOL     OW16337   3.454   1.629   5.349
 4793SOL    HW116338   3.481   1.663   5.259
 4793SOL    HW216339   3.533   1.591   5.395
 4794SOL     OW16340   2.973   1.195   4.824
 4794SOL    HW116341   2.933   1.239   4.905
 4794SOL    HW216342   2.932   1.232   4.741
 4795SOL     OW16343   3.500   1.099   4.803
 4795SOL    HW116344   3.505   1.180   4.862
 4795SOL    HW216345   3.414   1.101   4.752
 4796SOL     OW16346   2.777   0.089   5.126
 4796SOL    HW116347   2.802   0.069   5.031
 4796SOL    HW216348   2.849   0.145   5.168
 4797SOL     OW16349   2.842   1.116   5.443
 4797SOL    HW116350   2.743   1.122   5.453
 4797SOL    HW216351   2.865   1.036   5.387
 4798SOL     OW16352   2.567   1.050   4.092
 4798SOL    HW116353   2.553   1.057   4.191
 4798SOL    HW216354   2.651   0.999   4.074
 4799SOL     OW16355   2.272   0.813   4.975
 4799SOL    HW116356   2.358   0.825   5.025
 4799SOL    HW216357   2.230   0.726   5.002
 4800SOL     OW16358   3.136   0.386   4.986
 4800SOL    HW116359   3.157   0.460   5.050
 4800SOL    HW216360   3.047   0.403   4.943
 4801SOL     OW16361   1.926   1.564   5.055
 4801SOL    HW116362   1.880   1.646   5.021
 4801SOL    HW216363   2.024   1.583   5.064
 4802SOL     OW16364   2.229   1.100   4.225
 4802SOL    HW116365   2.222   1.183   4.169
 4802SOL    HW216366   2.233   1.020   4.165
 4803SOL     OW16367   2.428   0.537   4.589
 4803SOL    HW116368   2.440   0.603   4.515
 4803SOL    HW216369   2.474   0.571   4.672
 4804SOL     OW16370   3.114   1.348   4.112
 4804SOL    HW116371   3.164   1.425   4.152
 4804SOL    HW216372   3.019   1.350   4.144
 4805SOL     OW16373   3.134   1.445   4.866
 4805SOL    HW116374   3.181   1.458   4.953
 4805SOL    HW216375   3.068   1.371   4.875
 4806SOL     OW16376   3.444   0.639   4.196
 4806SOL    HW116377   3.413   0.700   4.269
 4806SOL    HW216378   3.494   0.691   4.127
 4807SOL     OW16379   2.216   1.510   5.053
 4807SOL    HW116380   2.195   1.466   4.966
 4807SOL    HW216381   2.313   1.536   5.056
 4808SOL     OW16382   2.264   0.751   5.322
 4808SOL    HW116383   2.332   0.806   5.275
 4808SOL    HW216384   2.304   0.663   5.349
 4809SOL     OW16385   3.449   0.779   5.394
 4809SOL    HW116386   3.357   0.817   5.389
 4809SOL    HW216387   3.509   0.826   5.329
 4810SOL     OW16388   2.875   0.105   5.494
 4810SOL    HW116389   2.881   0.190   5.442
 4810SOL    HW216390   2.907   0.029   5.437
 4811SOL     OW16391   2.366   0.050   5.464
 4811SOL    HW116392   2.324  -0.007   5.394
 4811SOL    HW216393   2.300   0.119   5.496
 4812SOL     OW16394   2.435   0.870   4.753
 4812SOL    HW116395   2.479   0.959   4.744
 4812SOL    HW216396   2.372   0.870   4.830
 4813SOL     OW16397   3.222   0.862   4.769
 4813SOL    HW116398   3.147   0.862   4.703
 4813SOL    HW216399   3.259   0.770   4.778
 4814SOL     OW16400   3.071   0.525   3.999
 4814SOL    HW116401   3.084   0.441   4.053
 4814SOL    HW216402   3.042   0.599   4.059
 4815SOL     OW16403   2.169   0.213   4.955
 4815SOL    HW116404   2.146   0.250   5.045
 4815SOL    HW216405   2.139   0.118   4.949
 4816SOL     OW16406   1.899   1.310   5.006
 4816SOL    HW116407   1.952   1.261   5.074
 4816SOL    HW216408   1.921   1.408   5.011
 4817SOL     OW16409   2.594   0.634   4.788
 4817SOL    HW116410   2.653   0.608   4.712
 4817SOL    HW216411   2.566   0.730   4.777
 4818SOL     OW16412   3.590   0.935   5.578
 4818SOL    HW116413   3.544   0.928   5.489
 4818SOL    HW216414   3.528   0.979   5.644
 4819SOL     OW16415   2.169   0.063   4.342
 4819SOL    HW116416   2.158   0.157   4.375
 4819SOL    HW216417   2.164   0.000   4.419
 4820SOL     OW16418   3.484   0.367   4.098
 4820SOL    HW116419   3.486   0.291   4.162
 4820SOL    HW216420   3.436   0.444   4.138
 4821SOL     OW16421   2.885   0.766   4.690
 4821SOL    HW116422   2.900   0.787   4.786
 4821SOL    HW216423   2.855   0.671   4.681
 4822SOL     OW16424   2.842   1.573   5.424
 4822SOL    HW116425   2.822   1.617   5.336
 4822SOL    HW216426   2.881   1.482   5.408
 4823SOL     OW16427   3.721   1.518   5.329
 4823SOL    HW116428   3.735   1.545   5.234
 4823SOL    HW216429   3.804   1.540   5.382
 4824SOL     OW16430   2.212   0.898   5.528
 4824SOL    HW116431   2.288   0.942   5.576
 4824SOL    HW216432   2.247   0.851   5.446
 4825SOL     OW16433   3.402   0.274   3.849
 4825SOL    HW116434   3.341   0.199   3.872
 4825SOL    HW216435   3.424   0.326   3.932
 4826SOL     OW16436   3.165   0.838   3.766
 4826SOL    HW116437   3.199   0.745   3.781
 4826SOL    HW216438   3.183   0.865   3.671
 4827SOL     OW16439   2.930   1.333   4.573
 4827SOL    HW116440   2.937   1.249   4.518
 4827SOL    HW216441   2.992   1.402   4.537
 4828SOL     OW16442   2.181   0.810   4.673
 4828SOL    HW116443   2.274   0.846   4.678
 4828SOL    HW216444   2.175   0.725   4.725
 4829SOL     OW16445   2.201   0.509   4.730
 4829SOL    HW116446   2.149   0.426   4.713
 4829SOL    HW216447   2.278   0.514   4.666
 4830SOL     OW16448   3.000   0.380   5.402
 4830SOL    HW116449   2.955   0.443   5.466
 4830SOL    HW216450   3.093   0.411   5.385
 4831SOL     OW16451   3.022   0.207   5.201
 4831SOL    HW116452   3.022   0.271   5.278
 4831SOL    HW216453   3.050   0.255   5.118
 4832SOL     OW16454   1.870   1.326   3.924
 4832SOL    HW116455   1.777   1.347   3.893
 4832SOL    HW216456   1.880   1.227   3.937
 4833SOL     OW16457   1.950   1.801   4.651
 4833SOL    HW116458   1.908   1.715   4.624
 4833SOL    HW216459   2.044   1.804   4.617
 4834SOL     OW16460   2.366   1.568   4.634
 4834SOL    HW116461   2.432   1.642   4.643
 4834SOL    HW216462   2.410   1.489   4.592
 4835SOL     OW16463   2.864   0.796   4.962
 4835SOL    HW116464   2.905   0.764   5.048
 4835SOL    HW216465   2.768   0.769   4.959
 4836SOL     OW16466   1.902   0.544   4.838
 4836SOL    HW116467   1.987   0.511   4.797
 4836SOL    HW216468   1.915   0.559   4.936
 4837SOL     OW16469   2.051   0.520   5.446
 4837SOL    HW116470   2.110   0.480   5.376
 4837SOL    HW216471   1.993   0.591   5.405
 4838SOL     OW16472   3.231   0.950   5.384
 4838SOL    HW116473   3.270   1.039   5.404
 4838SOL    HW216474   3.241   0.930   5.287
 4839SOL     OW16475   2.677   0.572   4.049
 4839SOL    HW116476   2.684   0.483   4.003
 4839SOL    HW216477   2.583   0.606   4.041
 4840SOL     OW16478   3.519   0.604   4.930
 4840SOL    HW116479   3.481   0.535   4.992
 4840SOL    HW216480   3.601   0.568   4.886
 4841SOL     OW16481   2.114   1.564   5.468
 4841SOL    HW116482   2.084   1.621   5.544
 4841SOL    HW216483   2.107   1.467   5.494
 4842SOL     OW16484   2.533   0.464   4.993
 4842SOL    HW116485   2.499   0.375   4.963
 4842SOL    HW216486   2.559   0.518   4.913
 4843SOL     OW16487   2.792   1.678   5.189
 4843SOL    HW116488   2.768   1.660   5.094
 4843SOL    HW216489   2.822   1.772   5.199
 4844SOL     OW16490   2.335   0.500   3.915
 4844SOL    HW116491   2.396   0.580   3.919
 4844SOL    HW216492   2.240   0.531   3.922
 4845SOL     OW16493   2.021   1.137   5.190
 4845SOL    HW116494   2.043   1.076   5.266
 4845SOL    HW216495   2.031   1.088   5.104
 4846SOL     OW16496   3.209   1.059   4.958
 4846SOL    HW116497   3.233   0.996   4.884
 4846SOL    HW216498   3.119   1.099   4.940
 4847SOL     OW16499   3.164   0.855   4.033
 4847SOL    HW116500   3.078   0.824   4.075
 4847SOL    HW216501   3.160   0.841   3.934
 4848SOL     OW16502   3.621   1.747   4.878
 4848SOL    HW116503   3.682   1.777   4.805
 4848SOL    HW216504   3.583   1.658   4.856
 4849SOL     OW16505   3.114   1.731   4.852
 4849SOL    HW116506   3.198   1.736   4.798
 4849SOL    HW216507   3.091   1.635   4.870
 4850SOL     OW16508   1.945   1.258   4.746
 4850SOL    HW116509   1.940   1.257   4.846
 4850SOL    HW216510   1.862   1.217   4.708
 4851SOL     OW16511   2.550   1.662   5.440
 4851SOL    HW116512   2.494   1.743   5.449
 4851SOL    HW216513   2.602   1.666   5.354
 4852SOL     OW16514   3.588   0.135   4.247
 4852SOL    HW116515   3.661   0.118   4.180
 4852SOL    HW216516   3.557   0.048   4.285
 4853SOL     OW16517   3.250   1.573   4.201
 4853SOL    HW116518   3.317   1.585   4.127
 4853SOL    HW216519   3.210   1.662   4.224
 4854SOL     OW16520   1.992   1.794   5.575
 4854SOL    HW116521   1.951   1.720   5.628
 4854SOL    HW216522   2.056   1.845   5.633
 4855SOL     OW16523   3.142   0.927   4.396
 4855SOL    HW116524   3.202   0.846   4.398
 4855SOL    HW216525   3.182   0.996   4.336
 4856SOL     OW16526   2.692   1.273   5.146
 4856SOL    HW116527   2.687   1.306   5.241
 4856SOL    HW216528   2.606   1.292   5.100
 4857SOL     OW16529   2.534   1.616   3.878
 4857SOL    HW116530   2.543   1.626   3.779
 4857SOL    HW216531   2.494   1.527   3.899
 4858SOL     OW16532   3.512   1.720   5.118
 4858SOL    HW116533   3.565   1.730   5.034
 4858SOL    HW216534   3.485   1.810   5.152
 4859SOL     OW16535   3.703   0.175   4.687
 4859SOL    HW116536   3.742   0.090   4.651
 4859SOL    HW216537   3.605   0.177   4.668
 4860SOL     OW16538   2.125   0.326   4.444
 4860SOL    HW116539   2.046   0.377   4.410
 4860SOL    HW216540   2.116   0.311   4.542
 4861SOL     OW16541   3.056   1.612   3.755
 4861SOL    HW116542   3.062   1.519   3.792
 4861SOL    HW216543   2.997   1.612   3.675
 4862SOL     OW16544   2.684   1.002   5.096
 4862SOL    HW116545   2.724   1.001   5.004
 4862SOL    HW216546   2.694   1.094   5.136
 4863SOL     OW16547   2.778   0.910   4.015
 4863SOL    HW116548   2.841   0.948   3.947
 4863SOL    HW216549   2.818   0.827   4.054
 4864SOL     OW16550   3.366   1.607   3.768
 4864SOL    HW116551   3.274   1.644   3.775
 4864SOL    HW216552   3.404   1.627   3.678
 4865SOL     OW16553   2.234   1.288   5.214
 4865SOL    HW116554   2.221   1.381   5.180
 4865SOL    HW216555   2.150   1.236   5.201
 4866SOL     OW16556   3.476   1.292   5.013
 4866SOL    HW116557   3.536   1.295   5.093
 4866SOL    HW216558   3.401   1.356   5.026
 4867SOL     OW16559   2.901   1.098   4.420
 4867SOL    HW116560   2.831   1.051   4.474
 4867SOL    HW216561   2.960   1.030   4.377
 4868SOL     OW16562   2.876   0.236   4.695
 4868SOL    HW116563   2.868   0.200   4.602
 4868SOL    HW216564   2.874   0.160   4.760
 4869SOL     OW16565   2.452   1.487   4.215
 4869SOL    HW116566   2.494   1.429   4.145
 4869SOL    HW216567   2.408   1.566   4.171
 4870SOL     OW16568   3.571   0.385   5.105
 4870SOL    HW116569   3.644   0.454   5.109
 4870SOL    HW216570   3.599   0.310   5.046
 4871SOL     OW16571   2.117   1.348   4.014
 4871SOL    HW116572   2.021   1.349   3.987
 4871SOL    HW216573   2.129   1.401   4.098
 4872SOL     OW16574   1.967   1.013   5.450
 4872SOL    HW116575   1.890   0.980   5.504
 4872SOL    HW216576   2.052   0.983   5.492
 4873SOL     OW16577   2.534   0.203   5.213
 4873SOL    HW116578   2.624   0.187   5.173
 4873SOL    HW216579   2.542   0.208   5.312
 4874SOL     OW16580   1.937   0.345   3.757
 4874SOL    HW116581   1.845   0.317   3.728
 4874SOL    HW216582   1.968   0.422   3.701
 4875SOL     OW16583   3.302   0.856   5.122
 4875SOL    HW116584   3.245   0.908   5.059
 4875SOL    HW216585   3.398   0.868   5.098
 4876SOL     OW16586   1.934   0.166   4.042
 4876SOL    HW116587   1.917   0.249   3.988
 4876SOL    HW216588   2.024   0.129   4.020
 4877SOL     OW16589   3.045   1.335   3.843
 4877SOL    HW116590   2.946   1.324   3.845
 4877SOL    HW216591   3.079   1.350   3.936
 4878SOL     OW16592   2.475   0.842   5.155
 4878SOL    HW116593   2.531   0.923   5.138
 4878SOL    HW216594   2.534   0.762   5.158
 4879SOL     OW16595   3.355   1.767   4.683
 4879SOL    HW116596   3.388   1.831   4.614
 4879SOL    HW216597   3.421   1.761   4.758
 4880SOL     OW16598   2.578   0.565   5.432
 4880SOL    HW116599   2.597   0.630   5.506
 4880SOL    HW216600   2.638   0.485   5.441
 4881SOL     OW16601   3.312   1.220   5.357
 4881SOL    HW116602   3.303   1.210   5.456
 4881SOL    HW216603   3.408   1.213   5.331
 4882SOL     OW16604   2.252   1.741   5.284
 4882SOL    HW116605   2.161   1.782   5.282
 4882SOL    HW216606   2.245   1.647   5.316
 4883SOL     OW16607   3.536   0.883   4.978
 4883SOL    HW116608   3.509   0.794   4.941
 4883SOL    HW216609   3.537   0.951   4.905
 4884SOL     OW16610   3.087   0.325   4.173
 4884SOL    HW116611   3.152   0.251   4.162
 4884SOL    HW216612   3.107   0.375   4.257
 4885SOL     OW16613   2.456   0.745   4.376
 4885SOL    HW116614   2.506   0.830   4.357
 4885SOL    HW216615   2.368   0.747   4.328
 4886SOL     OW16616   3.639   0.342   5.366
 4886SOL    HW116617   3.622   0.373   5.272
 4886SOL    HW216618   3.555   0.305   5.404
 4887SOL     OW16619   3.592   0.934   5.241
 4887SOL    HW116620   3.630   1.025   5.256
 4887SOL    HW216621   3.584   0.917   5.142
 4888SOL     OW16622   2.721   1.374   3.740
 4888SOL    HW116623   2.675   1.389   3.828
 4888SOL    HW216624   2.765   1.459   3.710
 4889SOL     OW16625   2.523   1.790   4.677
 4889SOL    HW116626   2.477   1.878   4.664
 4889SOL    HW216627   2.622   1.802   4.670
 4890SOL     OW16628   3.270   1.851   5.444
 4890SOL    HW116629   3.174   1.840   5.417
 4890SOL    HW216630   3.326   1.784   5.396
 4891SOL     OW16631   2.721   0.956   4.585
 4891SOL    HW116632   2.775   0.887   4.633
 4891SOL    HW216633   2.689   1.025   4.651
 4892SOL     OW16634   2.945   0.984   3.811
 4892SOL    HW116635   2.922   1.037   3.729
 4892SOL    HW216636   3.026   0.928   3.792
 4893SOL     OW16637   3.723   1.569   4.575
 4893SOL    HW116638   3.652   1.557   4.505
 4893SOL    HW216639   3.724   1.490   4.635
 4894SOL     OW16640   2.083   1.314   5.568
 4894SOL    HW116641   2.018   1.241   5.547
 4894SOL    HW216642   2.087   1.328   5.666
 4895SOL     OW16643   1.941   1.240   4.377
 4895SOL    HW116644   1.940   1.193   4.465
 4895SOL    HW216645   2.023   1.212   4.326
 4896SOL     OW16646   2.534   1.391   5.348
 4896SOL    HW116647   2.456   1.341   5.386
 4896SOL    HW216648   2.531   1.486   5.379
 4897SOL     OW16649   3.686   0.192   4.951
 4897SOL    HW116650   3.682   0.102   4.995
 4897SOL    HW216651   3.689   0.181   4.852
 4898SOL     OW16652   2.290   0.424   4.244
 4898SOL    HW116653   2.320   0.352   4.182
 4898SOL    HW216654   2.251   0.384   4.327
 4899SOL     OW16655   3.567   1.487   4.828
 4899SOL    HW116656   3.474   1.462   4.801
 4899SOL    HW216657   3.593   1.437   4.910
 4900SOL     OW16658   2.179   0.547   5.004
 4900SOL    HW116659   2.217   0.488   5.076
 4900SOL    HW216660   2.219   0.521   4.916
 4901SOL     OW16661   2.674   1.586   4.411
 4901SOL    HW116662   2.706   1.596   4.317
 4901SOL    HW216663   2.595   1.524   4.413
 4902SOL     OW16664   3.286   0.214   4.836
 4902SOL    HW116665   3.338   0.149   4.891
 4902SOL    HW216666   3.237   0.277   4.897
 4903SOL     OW16667   2.863   0.034   4.878
 4903SOL    HW116668   2.800  -0.038   4.847
 4903SOL    HW216669   2.956  -0.002   4.878
 4904SOL     OW16670   2.632   1.330   4.025
 4904SOL    HW116671   2.586   1.243   4.042
 4904SOL    HW216672   2.723   1.327   4.066
 4905SOL     OW16673   2.480   1.567   5.008
 4905SOL    HW116674   2.475   1.649   5.065
 4905SOL    HW216675   2.569   1.564   4.963
 4906SOL     OW16676   3.214   0.052   3.892
 4906SOL    HW116677   3.249   0.011   3.808
 4906SOL    HW216678   3.124   0.014   3.912
 4907SOL     OW16679   3.162   0.453   4.415
 4907SOL    HW116680   3.103   0.533   4.419
 4907SOL    HW216681   3.177   0.418   4.508
 4908SOL     OW16682   3.455   0.221   4.606
 4908SOL    HW116683   3.371   0.220   4.660
 4908SOL    HW216684   3.457   0.304   4.550
 4909SOL     OW16685   1.901   1.077   4.024
 4909SOL    HW116686   2.000   1.066   4.015
 4909SOL    HW216687   1.861   0.991   4.056
 4910SOL     OW16688   2.737   1.646   4.061
 4910SOL    HW116689   2.660   1.611   4.007
 4910SOL    HW216690   2.705   1.717   4.123
 4911SOL     OW16691   2.092   0.628   5.699
 4911SOL    HW116692   1.999   0.626   5.736
 4911SOL    HW216693   2.093   0.589   5.607
 4912SOL     OW16694   2.087   0.275   6.582
 4912SOL    HW116695   2.122   0.258   6.674
 4912SOL    HW216696   1.999   0.230   6.570
 4913SOL     OW16697   1.881   0.368   6.233
 4913SOL    HW116698   1.799   0.411   6.272
 4913SOL    HW216699   1.853   0.295   6.170
 4914SOL     OW16700   2.431   1.275   6.751
 4914SOL    HW116701   2.338   1.268   6.714
 4914SOL    HW216702   2.442   1.364   6.795
 4915SOL     OW16703   3.417   1.511   6.289
 4915SOL    HW116704   3.360   1.495   6.370
 4915SOL    HW216705   3.358   1.521   6.209
 4916SOL     OW16706   3.605   0.618   6.442
 4916SOL    HW116707   3.638   0.712   6.442
 4916SOL    HW216708   3.656   0.564   6.508
 4917SOL     OW16709   2.997   0.703   6.303
 4917SOL    HW116710   3.054   0.781   6.278
 4917SOL    HW216711   2.937   0.729   6.379
 4918SOL     OW16712   3.617   0.607   5.817
 4918SOL    HW116713   3.605   0.594   5.718
 4918SOL    HW216714   3.587   0.526   5.866
 4919SOL     OW16715   2.630   1.144   6.609
 4919SOL    HW116716   2.552   1.161   6.669
 4919SOL    HW216717   2.664   1.231   6.573
 4920SOL     OW16718   2.712   0.798   7.409
 4920SOL    HW116719   2.708   0.874   7.474
 4920SOL    HW216720   2.734   0.834   7.318
 4921SOL     OW16721   2.547   1.012   6.251
 4921SOL    HW116722   2.616   0.996   6.321
 4921SOL    HW216723   2.474   1.069   6.289
 4922SOL     OW16724   2.548   1.161   7.389
 4922SOL    HW116725   2.608   1.240   7.403
 4922SOL    HW216726   2.462   1.192   7.348
 4923SOL     OW16727   2.197   1.435   6.647
 4923SOL    HW116728   2.119   1.404   6.594
 4923SOL    HW216729   2.255   1.493   6.590
 4924SOL     OW16730   3.322   1.505   6.925
 4924SOL    HW116731   3.346   1.599   6.951
 4924SOL    HW216732   3.306   1.451   7.007
 4925SOL     OW16733   2.300   0.392   7.085
 4925SOL    HW116734   2.382   0.336   7.094
 4925SOL    HW216735   2.219   0.334   7.089
 4926SOL     OW16736   3.465   0.447   6.323
 4926SOL    HW116737   3.391   0.493   6.273
 4926SOL    HW216738   3.516   0.515   6.376
 4927SOL     OW16739   2.093   1.713   6.069
 4927SOL    HW116740   2.127   1.790   6.123
 4927SOL    HW216741   2.137   1.713   5.979
 4928SOL     OW16742   2.989   1.341   7.276
 4928SOL    HW116743   3.036   1.341   7.364
 4928SOL    HW216744   2.941   1.254   7.265
 4929SOL     OW16745   2.092   1.434   6.124
 4929SOL    HW116746   2.066   1.530   6.124
 4929SOL    HW216747   2.021   1.380   6.169
 4930SOL     OW16748   2.102   1.091   6.472
 4930SOL    HW116749   2.116   1.007   6.524
 4930SOL    HW216750   2.047   1.155   6.527
 4931SOL     OW16751   2.482   1.786   7.025
 4931SOL    HW116752   2.390   1.769   7.060
 4931SOL    HW216753   2.510   1.878   7.051
 4932SOL     OW16754   2.468   0.964   5.709
 4932SOL    HW116755   2.475   1.048   5.655
 4932SOL    HW216756   2.514   0.977   5.797
 4933SOL     OW16757   3.456   0.114   7.066
 4933SOL    HW116758   3.438   0.181   6.994
 4933SOL    HW216759   3.453   0.160   7.155
 4934SOL     OW16760   1.984   0.643   6.149
 4934SOL    HW116761   1.939   0.555   6.166
 4934SOL    HW216762   1.983   0.697   6.233
 4935SOL     OW16763   3.704   1.767   5.945
 4935SOL    HW116764   3.758   1.738   6.025
 4935SOL    HW216765   3.734   1.857   5.916
 4936SOL     OW16766   1.889   1.596   5.703
 4936SOL    HW116767   1.870   1.500   5.724
 4936SOL    HW216768   1.856   1.654   5.778
 4937SOL     OW16769   3.551   0.922   6.198
 4937SOL    HW116770   3.646   0.893   6.206
 4937SOL    HW216771   3.543   0.987   6.123
 4938SOL     OW16772   3.503   1.108   6.018
 4938SOL    HW116773   3.589   1.110   5.966
 4938SOL    HW216774   3.517   1.155   6.106
 4939SOL     OW16775   1.975   0.737   7.183
 4939SOL    HW116776   2.063   0.724   7.228
 4939SOL    HW216777   1.962   0.834   7.161
 4940SOL     OW16778   2.475   1.365   6.312
 4940SOL    HW116779   2.426   1.278   6.321
 4940SOL    HW216780   2.452   1.408   6.225
 4941SOL     OW16781   3.155   1.228   7.009
 4941SOL    HW116782   3.192   1.155   6.951
 4941SOL    HW216783   3.207   1.233   7.094
 4942SOL     OW16784   2.671   0.004   6.088
 4942SOL    HW116785   2.711   0.095   6.079
 4942SOL    HW216786   2.571   0.012   6.094
 4943SOL     OW16787   2.059   0.976   6.850
 4943SOL    HW116788   2.148   0.931   6.836
 4943SOL    HW216789   1.986   0.911   6.831
 4944SOL     OW16790   3.387   0.999   5.776
 4944SOL    HW116791   3.324   0.923   5.789
 4944SOL    HW216792   3.435   1.017   5.862
 4945SOL     OW16793   3.049   1.792   7.202
 4945SOL    HW116794   3.073   1.852   7.126
 4945SOL    HW216795   3.056   1.697   7.172
 4946SOL     OW16796   2.179   0.251   7.387
 4946SOL    HW116797   2.250   0.322   7.393
 4946SOL    HW216798   2.091   0.290   7.415
 4947SOL     OW16799   3.328   1.417   6.539
 4947SOL    HW116800   3.269   1.423   6.619
 4947SOL    HW216801   3.313   1.329   6.493
 4948SOL     OW16802   3.529   1.714   6.158
 4948SOL    HW116803   3.488   1.691   6.070
 4948SOL    HW216804   3.511   1.640   6.223
 4949SOL     OW16805   2.460   0.729   5.856
 4949SOL    HW116806   2.484   0.798   5.788
 4949SOL    HW216807   2.382   0.762   5.910
 4950SOL     OW16808   3.143   0.345   6.530
 4950SOL    HW116809   3.057   0.295   6.517
 4950SOL    HW216810   3.205   0.291   6.586
 4951SOL     OW16811   3.438   1.662   5.893
 4951SOL    HW116812   3.527   1.708   5.896
 4951SOL    HW216813   3.417   1.638   5.798
 4952SOL     OW16814   2.669   0.605   7.051
 4952SOL    HW116815   2.622   0.602   7.140
 4952SOL    HW216816   2.618   0.550   6.985
 4953SOL     OW16817   3.256   0.469   7.260
 4953SOL    HW116818   3.236   0.512   7.348
 4953SOL    HW216819   3.334   0.407   7.269
 4954SOL     OW16820   2.835   0.890   7.158
 4954SOL    HW116821   2.881   0.806   7.129
 4954SOL    HW216822   2.779   0.924   7.083
 4955SOL     OW16823   2.853   0.410   6.828
 4955SOL    HW116824   2.776   0.444   6.882
 4955SOL    HW216825   2.819   0.359   6.749
 4956SOL     OW16826   2.903   0.701   6.015
 4956SOL    HW116827   2.929   0.697   6.111
 4956SOL    HW216828   2.818   0.650   6.001
 4957SOL     OW16829   1.938   0.811   6.375
 4957SOL    HW116830   2.037   0.799   6.384
 4957SOL    HW216831   1.914   0.906   6.396
 4958SOL     OW16832   1.992   1.821   7.157
 4958SOL    HW116833   1.982   1.806   7.256
 4958SOL    HW216834   1.906   1.857   7.121
 4959SOL     OW16835   2.727   0.348   5.781
 4959SOL    HW116836   2.786   0.411   5.732
 4959SOL    HW216837   2.746   0.254   5.752
 4960SOL     OW16838   3.581   0.585   7.417
 4960SOL    HW116839   3.555   0.674   7.381
 4960SOL    HW216840   3.579   0.517   7.344
 4961SOL     OW16841   3.224   1.144   6.131
 4961SOL    HW116842   3.307   1.115   6.083
 4961SOL    HW216843   3.175   1.211   6.075
 4962SOL     OW16844   2.412   0.196   6.471
 4962SOL    HW116845   2.407   0.191   6.571
 4962SOL    HW216846   2.414   0.292   6.442
 4963SOL     OW16847   2.870   1.456   6.063
 4963SOL    HW116848   2.824   1.528   6.011
 4963SOL    HW216849   2.866   1.476   6.161
 4964SOL     OW16850   2.213   1.801   6.439
 4964SOL    HW116851   2.263   1.715   6.445
 4964SOL    HW216852   2.278   1.878   6.436
 4965SOL     OW16853   3.657   1.066   6.459
 4965SOL    HW116854   3.595   1.051   6.383
 4965SOL    HW216855   3.605   1.077   6.544
 4966SOL     OW16856   3.089   1.550   7.092
 4966SOL    HW116857   3.095   1.473   7.156
 4966SOL    HW216858   3.037   1.524   7.012
 4967SOL     OW16859   2.183   0.943   5.828
 4967SOL    HW116860   2.265   0.982   5.786
 4967SOL    HW216861   2.156   0.861   5.779
 4968SOL     OW16862   3.320   0.735   6.314
 4968SOL    HW116863   3.315   0.670   6.389
 4968SOL    HW216864   3.400   0.794   6.327
 4969SOL     OW16865   2.323   1.266   7.313
 4969SOL    HW116866   2.273   1.267   7.227
 4969SOL    HW216867   2.260   1.248   7.389
 4970SOL     OW16868   2.973   1.776   5.823
 4970SOL    HW116869   2.913   1.714   5.873
 4970SOL    HW216870   3.004   1.732   5.738
 4971SOL     OW16871   2.064   0.285   7.084
 4971SOL    HW116872   1.984   0.345   7.071
 4971SOL    HW216873   2.054   0.236   7.170
 4972SOL     OW16874   3.494   1.377   5.667
 4972SOL    HW116875   3.462   1.471   5.657
 4972SOL    HW216876   3.418   1.314   5.655
 4973SOL     OW16877   2.326   1.743   5.909
 4973SOL    HW116878   2.359   1.782   5.995
 4973SOL    HW216879   2.402   1.736   5.844
 4974SOL     OW16880   3.262   0.107   6.012
 4974SOL    HW116881   3.238   0.070   5.922
 4974SOL    HW216882   3.361   0.123   6.016
 4975SOL     OW16883   2.111   1.785   6.827
 4975SOL    HW116884   2.168   1.720   6.877
 4975SOL    HW216885   2.095   1.752   6.734
 4976SOL     OW16886   2.802   1.698   6.490
 4976SOL    HW116887   2.882   1.641   6.511
 4976SOL    HW216888   2.753   1.658   6.413
 4977SOL     OW16889   2.244   0.700   6.066
 4977SOL    HW116890   2.289   0.610   6.063
 4977SOL    HW216891   2.150   0.689   6.099
 4978SOL     OW16892   3.409   0.222   7.315
 4978SOL    HW116893   3.404   0.259   7.407
 4978SOL    HW216894   3.337   0.153   7.303
 4979SOL     OW16895   2.476   0.122   5.703
 4979SOL    HW116896   2.574   0.100   5.710
 4979SOL    HW216897   2.445   0.105   5.610
 4980SOL     OW16898   2.643   0.264   7.335
 4980SOL    HW116899   2.710   0.203   7.378
 4980SOL    HW216900   2.570   0.283   7.400
 4981SOL     OW16901   2.750   1.514   6.781
 4981SOL    HW116902   2.727   1.489   6.687
 4981SOL    HW216903   2.811   1.445   6.820
 4982SOL     OW16904   3.213   0.590   7.019
 4982SOL    HW116905   3.241   0.547   7.104
 4982SOL    HW216906   3.238   0.686   7.020
 4983SOL     OW16907   2.665   1.402   6.510
 4983SOL    HW116908   2.755   1.416   6.468
 4983SOL    HW216909   2.594   1.404   6.439
 4984SOL     OW16910   2.784   0.503   6.485
 4984SOL    HW116911   2.759   0.494   6.389
 4984SOL    HW216912   2.832   0.421   6.516
 4985SOL     OW16913   2.401   0.064   6.098
 4985SOL    HW116914   2.320   0.065   6.156
 4985SOL    HW216915   2.404   0.147   6.043
 4986SOL     OW16916   3.296   1.188   5.627
 4986SOL    HW116917   3.328   1.112   5.684
 4986SOL    HW216918   3.204   1.215   5.657
 4987SOL     OW16919   2.159   0.035   5.757
 4987SOL    HW116920   2.208   0.119   5.736
 4987SOL    HW216921   2.221  -0.030   5.802
 4988SOL     OW16922   2.797   0.236   6.066
 4988SOL    HW116923   2.749   0.277   5.988
 4988SOL    HW216924   2.896   0.234   6.047
 4989SOL     OW16925   2.938   0.683   7.050
 4989SOL    HW116926   2.858   0.622   7.053
 4989SOL    HW216927   3.019   0.630   7.026
 4990SOL     OW16928   3.089   1.570   6.379
 4990SOL    HW116929   3.110   1.644   6.314
 4990SOL    HW216930   3.157   1.570   6.452
 4991SOL     OW16931   2.321   1.152   6.327
 4991SOL    HW116932   2.250   1.125   6.392
 4991SOL    HW216933   2.295   1.124   6.234
 4992SOL     OW16934   3.133   1.797   6.177
 4992SOL    HW116935   3.177   1.861   6.113
 4992SOL    HW216936   3.083   1.849   6.247
 4993SOL     OW16937   2.894   0.549   5.602
 4993SOL    HW116938   2.853   0.631   5.563
 4993SOL    HW216939   2.958   0.575   5.675
 4994SOL     OW16940   1.940   0.556   6.972
 4994SOL    HW116941   2.032   0.555   6.931
 4994SOL    HW216942   1.934   0.630   7.039
 4995SOL     OW16943   2.423   0.222   6.733
 4995SOL    HW116944   2.461   0.138   6.770
 4995SOL    HW216945   2.335   0.241   6.777
 4996SOL     OW16946   2.728   0.454   6.228
 4996SOL    HW116947   2.696   0.526   6.166
 4996SOL    HW216948   2.752   0.373   6.175
 4997SOL     OW16949   2.879   0.039   6.339
 4997SOL    HW116950   2.807   0.044   6.270
 4997SOL    HW216951   2.855  -0.030   6.408
 4998SOL     OW16952   3.291   1.173   6.453
 4998SOL    HW116953   3.236   1.089   6.446
 4998SOL    HW216954   3.317   1.202   6.361
 4999SOL     OW16955   3.328   0.590   6.578
 4999SOL    HW116956   3.298   0.495   6.585
 4999SOL    HW216957   3.401   0.606   6.644
 5000SOL     OW16958   3.719   0.833   5.963
 5000SOL    HW116959   3.761   0.769   6.027
 5000SOL    HW216960   3.681   0.782   5.885
 5001SOL     OW16961   2.350   1.385   5.760
 5001SOL    HW116962   2.263   1.370   5.807
 5001SOL    HW216963   2.333   1.411   5.665
 5002SOL     OW16964   3.526   1.280   6.243
 5002SOL    HW116965   3.625   1.288   6.257
 5002SOL    HW216966   3.481   1.364   6.274
 5003SOL     OW16967   3.252   0.575   5.664
 5003SOL    HW116968   3.198   0.554   5.745
 5003SOL    HW216969   3.343   0.534   5.673
 5004SOL     OW16970   2.389   0.256   5.914
 5004SOL    HW116971   2.416   0.197   5.839
 5004SOL    HW216972   2.389   0.351   5.883
 5005SOL     OW16973   3.616   1.223   7.174
 5005SOL    HW116974   3.707   1.184   7.161
 5005SOL    HW216975   3.624   1.319   7.198
 5006SOL     OW16976   2.926   1.347   6.926
 5006SOL    HW116977   2.846   1.324   6.981
 5006SOL    HW216978   3.009   1.321   6.975
 5007SOL     OW16979   3.454   1.629   7.211
 5007SOL    HW116980   3.481   1.663   7.121
 5007SOL    HW216981   3.533   1.591   7.257
 5008SOL     OW16982   2.973   1.195   6.686
 5008SOL    HW116983   2.933   1.239   6.767
 5008SOL    HW216984   2.932   1.232   6.603
 5009SOL     OW16985   3.500   1.099   6.665
 5009SOL    HW116986   3.505   1.180   6.724
 5009SOL    HW216987   3.414   1.101   6.614
 5010SOL     OW16988   2.777   0.089   6.988
 5010SOL    HW116989   2.802   0.069   6.893
 5010SOL    HW216990   2.849   0.145   7.030
 5011SOL     OW16991   2.842   1.116   7.305
 5011SOL    HW116992   2.743   1.122   7.315
 5011SOL    HW216993   2.865   1.036   7.249
 5012SOL     OW16994   2.567   1.050   5.954
 5012SOL    HW116995   2.553   1.057   6.053
 5012SOL    HW216996   2.651   0.999   5.936
 5013SOL     OW16997   2.272   0.813   6.837
 5013SOL    HW116998   2.358   0.825   6.887
 5013SOL    HW216999   2.230   0.726   6.864
 5014SOL     OW17000   3.136   0.386   6.848
 5014SOL    HW117001   3.157   0.460   6.912
 5014SOL    HW217002   3.047   0.403   6.805
 5015SOL     OW17003   1.926   1.564   6.917
 5015SOL    HW117004   1.880   1.646   6.883
 5015SOL    HW217005   2.024   1.583   6.926
 5016SOL     OW17006   2.229   1.100   6.087
 5016SOL    HW117007   2.222   1.183   6.031
 5016SOL    HW217008   2.233   1.020   6.027
 5017SOL     OW17009   2.428   0.537   6.451
 5017SOL    HW117010   2.440   0.603   6.377
 5017SOL    HW217011   2.474   0.571   6.534
 5018SOL     OW17012   3.114   1.348   5.974
 5018SOL    HW117013   3.164   1.425   6.014
 5018SOL    HW217014   3.019   1.350   6.006
 5019SOL     OW17015   3.134   1.445   6.728
 5019SOL    HW117016   3.181   1.458   6.815
 5019SOL    HW217017   3.068   1.371   6.737
 5020SOL     OW17018   3.444   0.639   6.058
 5020SOL    HW117019   3.413   0.700   6.131
 5020SOL    HW217020   3.494   0.691   5.989
 5021SOL     OW17021   2.216   1.510   6.915
 5021SOL    HW117022   2.195   1.466   6.828
 5021SOL    HW217023   2.313   1.536   6.918
 5022SOL     OW17024   2.264   0.751   7.184
 5022SOL    HW117025   2.332   0.806   7.137
 5022SOL    HW217026   2.304   0.663   7.211
 5023SOL     OW17027   3.449   0.779   7.256
 5023SOL    HW117028   3.357   0.817   7.251
 5023SOL    HW217029   3.509   0.826   7.191
 5024SOL     OW17030   2.875   0.105   7.356
 5024SOL    HW117031   2.881   0.190   7.304
 5024SOL    HW217032   2.907   0.029   7.299
 5025SOL     OW17033   2.366   0.050   7.326
 5025SOL    HW117034   2.324  -0.007   7.256
 5025SOL    HW217035   2.300   0.119   7.358
 5026SOL     OW17036   2.435   0.870   6.615
 5026SOL    HW117037   2.479   0.959   6.606
 5026SOL    HW217038   2.372   0.870   6.692
 5027SOL     OW17039   3.222   0.862   6.631
 5027SOL    HW117040   3.147   0.862   6.565
 5027SOL    HW217041   3.259   0.770   6.640
 5028SOL     OW17042   3.071   0.525   5.861
 5028SOL    HW117043   3.084   0.441   5.915
 5028SOL    HW217044   3.042   0.599   5.921
 5029SOL     OW17045   2.169   0.213   6.817
 5029SOL    HW117046   2.146   0.250   6.907
 5029SOL    HW217047   2.139   0.118   6.811
 5030SOL     OW17048   1.899   1.310   6.868
 5030SOL    HW117049   1.952   1.261   6.936
 5030SOL    HW217050   1.921   1.408   6.873
 5031SOL     OW17051   2.594   0.634   6.650
 5031SOL    HW117052   2.653   0.608   6.574
 5031SOL    HW217053   2.566   0.730   6.639
 5032SOL     OW17054   3.590   0.935   7.440
 5032SOL    HW117055   3.544   0.928   7.351
 5032SOL    HW217056   3.528   0.979   7.506
 5033SOL     OW17057   2.169   0.063   6.204
 5033SOL    HW117058   2.158   0.157   6.237
 5033SOL    HW217059   2.164   0.000   6.281
 5034SOL     OW17060   3.484   0.367   5.960
 5034SOL    HW117061   3.486   0.291   6.024
 5034SOL    HW217062   3.436   0.444   6.000
 5035SOL     OW17063   2.885   0.766   6.552
 5035SOL    HW117064   2.900   0.787   6.648
 5035SOL    HW217065   2.855   0.671   6.543
 5036SOL     OW17066   2.842   1.573   7.286
 5036SOL    HW117067   2.822   1.617   7.198
 5036SOL    HW217068   2.881   1.482   7.270
 5037SOL     OW17069   3.721   1.518   7.191
 5037SOL    HW117070   3.735   1.545   7.096
 5037SOL    HW217071   3.804   1.540   7.244
 5038SOL     OW17072   2.212   0.898   7.390
 5038SOL    HW117073   2.288   0.942   7.438
 5038SOL    HW217074   2.247   0.851   7.308
 5039SOL     OW17075   3.402   0.274   5.711
 5039SOL    HW117076   3.341   0.199   5.734
 5039SOL    HW217077   3.424   0.326   5.794
 5040SOL     OW17078   3.165   0.838   5.628
 5040SOL    HW117079   3.199   0.745   5.643
 5040SOL    HW217080   3.183   0.865   5.533
 5041SOL     OW17081   2.930   1.333   6.435
 5041SOL    HW117082   2.937   1.249   6.380
 5041SOL    HW217083   2.992   1.402   6.399
 5042SOL     OW17084   2.181   0.810   6.535
 5042SOL    HW117085   2.274   0.846   6.540
 5042SOL    HW217086   2.175   0.725   6.587
 5043SOL     OW17087   2.201   0.509   6.592
 5043SOL    HW117088   2.149   0.426   6.575
 5043SOL    HW217089   2.278   0.514   6.528
 5044SOL     OW17090   3.000   0.380   7.264
 5044SOL    HW117091   2.955   0.443   7.328
 5044SOL    HW217092   3.093   0.411   7.247
 5045SOL     OW17093   3.022   0.207   7.063
 5045SOL    HW117094   3.022   0.271   7.140
 5045SOL    HW217095   3.050   0.255   6.980
 5046SOL     OW17096   1.870   1.326   5.786
 5046SOL    HW117097   1.777   1.347   5.755
 5046SOL    HW217098   1.880   1.227   5.799
 5047SOL     OW17099   1.950   1.801   6.513
 5047SOL    HW117100   1.908   1.715   6.486
 5047SOL    HW217101   2.044   1.804   6.479
 5048SOL     OW17102   2.366   1.568   6.496
 5048SOL    HW117103   2.432   1.642   6.505
 5048SOL    HW217104   2.410   1.489   6.454
 5049SOL     OW17105   2.864   0.796   6.824
 5049SOL    HW117106   2.905   0.764   6.910
 5049SOL    HW217107   2.768   0.769   6.821
 5050SOL     OW17108   1.902   0.544   6.700
 5050SOL    HW117109   1.987   0.511   6.659
 5050SOL    HW217110   1.915   0.559   6.798
 5051SOL     OW17111   2.051   0.520   7.308
 5051SOL    HW117112   2.110   0.480   7.238
 5051SOL    HW217113   1.993   0.591   7.267
 5052SOL     OW17114   3.231   0.950   7.246
 5052SOL    HW117115   3.270   1.039   7.266
 5052SOL    HW217116   3.241   0.930   7.149
 5053SOL     OW17117   2.677   0.572   5.911
 5053SOL    HW117118   2.684   0.483   5.865
 5053SOL    HW217119   2.583   0.606   5.903
 5054SOL     OW17120   3.519   0.604   6.792
 5054SOL    HW117121   3.481   0.535   6.854
 5054SOL    HW217122   3.601   0.568   6.748
 5055SOL     OW17123   2.114   1.564   7.330
 5055SOL    HW117124   2.084   1.621   7.406
 5055SOL    HW217125   2.107   1.467   7.356
 5056SOL     OW17126   2.533   0.464   6.855
 5056SOL    HW117127   2.499   0.375   6.825
 5056SOL    HW217128   2.559   0.518   6.775
 5057SOL     OW17129   2.792   1.678   7.051
 5057SOL    HW117130   2.768   1.660   6.956
 5057SOL    HW217131   2.822   1.772   7.061
 5058SOL     OW17132   2.335   0.500   5.777
 5058SOL    HW117133   2.396   0.580   5.781
 5058SOL    HW217134   2.240   0.531   5.784
 5059SOL     OW17135   2.021   1.137   7.052
 5059SOL    HW117136   2.043   1.076   7.128
 5059SOL    HW217137   2.031   1.088   6.966
 5060SOL     OW17138   3.209   1.059   6.820
 5060SOL    HW117139   3.233   0.996   6.746
 5060SOL    HW217140   3.119   1.099   6.802
 5061SOL     OW17141   3.164   0.855   5.895
 5061SOL    HW117142   3.078   0.824   5.937
 5061SOL    HW217143   3.160   0.841   5.796
 5062SOL     OW17144   3.621   1.747   6.740
 5062SOL    HW117145   3.682   1.777   6.667
 5062SOL    HW217146   3.583   1.658   6.718
 5063SOL     OW17147   3.114   1.731   6.714
 5063SOL    HW117148   3.198   1.736   6.660
 5063SOL    HW217149   3.091   1.635   6.732
 5064SOL     OW17150   1.945   1.258   6.608
 5064SOL    HW117151   1.940   1.257   6.708
 5064SOL    HW217152   1.862   1.217   6.570
 5065SOL     OW17153   2.550   1.662   7.302
 5065SOL    HW117154   2.494   1.743   7.311
 5065SOL    HW217155   2.602   1.666   7.216
 5066SOL     OW17156   3.588   0.135   6.109
 5066SOL    HW117157   3.661   0.118   6.042
 5066SOL    HW217158   3.557   0.048   6.147
 5067SOL     OW17159   3.250   1.573   6.063
 5067SOL    HW117160   3.317   1.585   5.989
 5067SOL    HW217161   3.210   1.662   6.086
 5068SOL     OW17162   1.992   1.794   7.437
 5068SOL    HW117163   1.951   1.720   7.490
 5068SOL    HW217164   2.056   1.845   7.495
 5069SOL     OW17165   3.142   0.927   6.258
 5069SOL    HW117166   3.202   0.846   6.260
 5069SOL    HW217167   3.182   0.996   6.198
 5070SOL     OW17168   2.692   1.273   7.008
 5070SOL    HW117169   2.687   1.306   7.103
 5070SOL    HW217170   2.606   1.292   6.962
 5071SOL     OW17171   2.534   1.616   5.740
 5071SOL    HW117172   2.543   1.626   5.641
 5071SOL    HW217173   2.494   1.527   5.761
 5072SOL     OW17174   3.512   1.720   6.980
 5072SOL    HW117175   3.565   1.730   6.896
 5072SOL    HW217176   3.485   1.810   7.014
 5073SOL     OW17177   3.703   0.175   6.549
 5073SOL    HW117178   3.742   0.090   6.513
 5073SOL    HW217179   3.605   0.177   6.530
 5074SOL     OW17180   2.125   0.326   6.306
 5074SOL    HW117181   2.046   0.377   6.272
 5074SOL    HW217182   2.116   0.311   6.404
 5075SOL     OW17183   3.056   1.612   5.617
 5075SOL    HW117184   3.062   1.519   5.654
 5075SOL    HW217185   2.997   1.612   5.537
 5076SOL     OW17186   2.684   1.002   6.958
 5076SOL    HW117187   2.724   1.001   6.866
 5076SOL    HW217188   2.694   1.094   6.998
 5077SOL     OW17189   2.778   0.910   5.877
 5077SOL    HW117190   2.841   0.948   5.809
 5077SOL    HW217191   2.818   0.827   5.916
 5078SOL     OW17192   3.366   1.607   5.630
 5078SOL    HW117193   3.274   1.644   5.637
 5078SOL    HW217194   3.404   1.627   5.540
 5079SOL     OW17195   2.234   1.288   7.076
 5079SOL    HW117196   2.221   1.381   7.042
 5079SOL    HW217197   2.150   1.236   7.063
 5080SOL     OW17198   3.476   1.292   6.875
 5080SOL    HW117199   3.536   1.295   6.955
 5080SOL    HW217200   3.401   1.356   6.888
 5081SOL     OW17201   2.901   1.098   6.282
 5081SOL    HW117202   2.831   1.051   6.336
 5081SOL    HW217203   2.960   1.030   6.239
 5082SOL     OW17204   2.876   0.236   6.557
 5082SOL    HW117205   2.868   0.200   6.464
 5082SOL    HW217206   2.874   0.160   6.622
 5083SOL     OW17207   2.452   1.487   6.077
 5083SOL    HW117208   2.494   1.429   6.007
 5083SOL    HW217209   2.408   1.566   6.033
 5084SOL     OW17210   3.571   0.385   6.967
 5084SOL    HW117211   3.644   0.454   6.971
 5084SOL    HW217212   3.599   0.310   6.908
 5085SOL     OW17213   2.117   1.348   5.876
 5085SOL    HW117214   2.021   1.349   5.849
 5085SOL    HW217215   2.129   1.401   5.960
 5086SOL     OW17216   1.967   1.013   7.312
 5086SOL    HW117217   1.890   0.980   7.366
 5086SOL    HW217218   2.052   0.983   7.354
 5087SOL     OW17219   2.534   0.203   7.075
 5087SOL    HW117220   2.624   0.187   7.035
 5087SOL    HW217221   2.542   0.208   7.174
 5088SOL     OW17222   1.937   0.345   5.619
 5088SOL    HW117223   1.845   0.317   5.590
 5088SOL    HW217224   1.968   0.422   5.563
 5089SOL     OW17225   3.302   0.856   6.984
 5089SOL    HW117226   3.245   0.908   6.921
 5089SOL    HW217227   3.398   0.868   6.960
 5090SOL     OW17228   1.934   0.166   5.904
 5090SOL    HW117229   1.917   0.249   5.850
 5090SOL    HW217230   2.024   0.129   5.882
 5091SOL     OW17231   3.045   1.335   5.705
 5091SOL    HW117232   2.946   1.324   5.707
 5091SOL    HW217233   3.079   1.350   5.798
 5092SOL     OW17234   2.475   0.842   7.017
 5092SOL    HW117235   2.531   0.923   7.000
 5092SOL    HW217236   2.534   0.762   7.020
 5093SOL     OW17237   3.355   1.767   6.545
 5093SOL    HW117238   3.388   1.831   6.476
 5093SOL    HW217239   3.421   1.761   6.620
 5094SOL     OW17240   2.578   0.565   7.294
 5094SOL    HW117241   2.597   0.630   7.368
 5094SOL    HW217242   2.638   0.485   7.303
 5095SOL     OW17243   3.312   1.220   7.219
 5095SOL    HW117244   3.303   1.210   7.318
 5095SOL    HW217245   3.408   1.213   7.193
 5096SOL     OW17246   2.252   1.741   7.146
 5096SOL    HW117247   2.161   1.782   7.144
 5096SOL    HW217248   2.245   1.647   7.178
 5097SOL     OW17249   3.536   0.883   6.840
 5097SOL    HW117250   3.509   0.794   6.803
 5097SOL    HW217251   3.537   0.951   6.767
 5098SOL     OW17252   3.087   0.325   6.035
 5098SOL    HW117253   3.152   0.251   6.024
 5098SOL    HW217254   3.107   0.375   6.119
 5099SOL     OW17255   2.456   0.745   6.238
 5099SOL    HW117256   2.506   0.830   6.219
 5099SOL    HW217257   2.368   0.747   6.190
 5100SOL     OW17258   3.639   0.342   7.228
 5100SOL    HW117259   3.622   0.373   7.134
 5100SOL    HW217260   3.555   0.305   7.266
 5101SOL     OW17261   3.592   0.934   7.103
 5101SOL    HW117262   3.630   1.025   7.118
 5101SOL    HW217263   3.584   0.917   7.004
 5102SOL     OW17264   2.721   1.374   5.602
 5102SOL    HW117265   2.675   1.389   5.690
 5102SOL    HW217266   2.765   1.459   5.572
 5103SOL     OW17267   2.523   1.790   6.539
 5103SOL    HW117268   2.477   1.878   6.526
 5103SOL    HW217269   2.622   1.802   6.532
 5104SOL     OW17270   3.270   1.851   7.306
 5104SOL    HW117271   3.174   1.840   7.279
 5104SOL    HW217272   3.326   1.784   7.258
 5105SOL     OW17273   2.721   0.956   6.447
 5105SOL    HW117274   2.775   0.887   6.495
 5105SOL    HW217275   2.689   1.025   6.513
 5106SOL     OW17276   2.945   0.984   5.673
 5106SOL    HW117277   2.922   1.037   5.591
 5106SOL    HW217278   3.026   0.928   5.654
 5107SOL     OW17279   3.723   1.569   6.437
 5107SOL    HW117280   3.652   1.557   6.367
 5107SOL    HW217281   3.724   1.490   6.497
 5108SOL     OW17282   2.083   1.314   7.430
 5108SOL    HW117283   2.018   1.241   7.409
 5108SOL    HW217284   2.087   1.328   7.528
 5109SOL     OW17285   1.941   1.240   6.239
 5109SOL    HW117286   1.940   1.193   6.327
 5109SOL    HW217287   2.023   1.212   6.188
 5110SOL     OW17288   2.534   1.391   7.210
 5110SOL    HW117289   2.456   1.341   7.248
 5110SOL    HW217290   2.531   1.486   7.241
 5111SOL     OW17291   3.686   0.192   6.813
 5111SOL    HW117292   3.682   0.102   6.857
 5111SOL    HW217293   3.689   0.181   6.714
 5112SOL     OW17294   2.290   0.424   6.106
 5112SOL    HW117295   2.320   0.352   6.044
 5112SOL    HW217296   2.251   0.384   6.189
 5113SOL     OW17297   3.567   1.487   6.690
 5113SOL    HW117298   3.474   1.462   6.663
 5113SOL    HW217299   3.593   1.437   6.772
 5114SOL     OW17300   2.179   0.547   6.866
 5114SOL    HW117301   2.217   0.488   6.938
 5114SOL    HW217302   2.219   0.521   6.778
 5115SOL     OW17303   2.674   1.586   6.273
 5115SOL    HW117304   2.706   1.596   6.179
 5115SOL    HW217305   2.595   1.524   6.275
 5116SOL     OW17306   3.286   0.214   6.698
 5116SOL    HW117307   3.338   0.149   6.753
 5116SOL    HW217308   3.237   0.277   6.759
 5117SOL     OW17309   2.863   0.034   6.740
 5117SOL    HW117310   2.800  -0.038   6.709
 5117SOL    HW217311   2.956  -0.002   6.740
 5118SOL     OW17312   2.632   1.330   5.887
 5118SOL    HW117313   2.586   1.243   5.904
 5118SOL    HW217314   2.723   1.327   5.928
 5119SOL     OW17315   2.480   1.567   6.870
 5119SOL    HW117316   2.475   1.649   6.927
 5119SOL    HW217317   2.569   1.564   6.825
 5120SOL     OW17318   3.214   0.052   5.754
 5120SOL    HW117319   3.249   0.011   5.670
 5120SOL    HW217320   3.124   0.014   5.774
 5121SOL     OW17321   3.162   0.453   6.277
 5121SOL    HW117322   3.103   0.533   6.281
 5121SOL    HW217323   3.177   0.418   6.370
 5122SOL     OW17324   3.455   0.221   6.468
 5122SOL    HW117325   3.371   0.220   6.522
 5122SOL    HW217326   3.457   0.304   6.412
 5123SOL     OW17327   1.901   1.077   5.886
 5123SOL    HW117328   2.000   1.066   5.877
 5123SOL    HW217329   1.861   0.991   5.918
 5124SOL     OW17330   2.737   1.646   5.923
 5124SOL    HW117331   2.660   1.611   5.869
 5124SOL    HW217332   2.705   1.717   5.985
 5125SOL     OW17333   2.092   0.628   7.561
 5125SOL    HW117334   1.999   0.626   7.598
 5125SOL    HW217335   2.093   0.589   7.469
 5126SOL     OW17336   2.087   0.275   8.444
 5126SOL    HW117337   2.122   0.258   8.536
 5126SOL    HW217338   1.999   0.230   8.432
 5127SOL     OW17339   1.881   0.368   8.095
 5127SOL    HW117340   1.799   0.411   8.134
 5127SOL    HW217341   1.853   0.295   8.032
 5128SOL     OW17342   2.431   1.275   8.613
 5128SOL    HW117343   2.338   1.268   8.576
 5128SOL    HW217344   2.442   1.364   8.657
 5129SOL     OW17345   3.417   1.511   8.151
 5129SOL    HW117346   3.360   1.495   8.232
 5129SOL    HW217347   3.358   1.521   8.071
 5130SOL     OW17348   3.605   0.618   8.304
 5130SOL    HW117349   3.638   0.712   8.304
 5130SOL    HW217350   3.656   0.564   8.370
 5131SOL     OW17351   2.997   0.703   8.165
 5131SOL    HW117352   3.054   0.781   8.140
 5131SOL    HW217353   2.937   0.729   8.241
 5132SOL     OW17354   3.617   0.607   7.679
 5132SOL    HW117355   3.605   0.594   7.580
 5132SOL    HW217356   3.587   0.526   7.728
 5133SOL     OW17357   2.630   1.144   8.471
 5133SOL    HW117358   2.552   1.161   8.531
 5133SOL    HW217359   2.664   1.231   8.435
 5134SOL     OW17360   2.547   1.012   8.113
 5134SOL    HW117361   2.616   0.996   8.183
 5134SOL    HW217362   2.474   1.069   8.151
 5135SOL     OW17363   2.197   1.435   8.509
 5135SOL    HW117364   2.119   1.404   8.456
 5135SOL    HW217365   2.255   1.493   8.452
 5136SOL     OW17366   3.322   1.505   8.787
 5136SOL    HW117367   3.346   1.599   8.813
 5136SOL    HW217368   3.306   1.451   8.869
 5137SOL     OW17369   2.300   0.392   8.947
 5137SOL    HW117370   2.382   0.336   8.956
 5137SOL    HW217371   2.219   0.334   8.951
 5138SOL     OW17372   3.465   0.447   8.185
 5138SOL    HW117373   3.391   0.493   8.135
 5138SOL    HW217374   3.516   0.515   8.238
 5139SOL     OW17375   2.093   1.713   7.931
 5139SOL    HW117376   2.127   1.790   7.985
 5139SOL    HW217377   2.137   1.713   7.841
 5140SOL     OW17378   2.092   1.434   7.986
 5140SOL    HW117379   2.066   1.530   7.986
 5140SOL    HW217380   2.021   1.380   8.031
 5141SOL     OW17381   2.102   1.091   8.334
 5141SOL    HW117382   2.116   1.007   8.386
 5141SOL    HW217383   2.047   1.155   8.389
 5142SOL     OW17384   2.482   1.786   8.887
 5142SOL    HW117385   2.390   1.769   8.922
 5142SOL    HW217386   2.510   1.878   8.913
 5143SOL     OW17387   2.468   0.964   7.571
 5143SOL    HW117388   2.475   1.048   7.517
 5143SOL    HW217389   2.514   0.977   7.659
 5144SOL     OW17390   3.456   0.114   8.928
 5144SOL    HW117391   3.438   0.181   8.856
 5144SOL    HW217392   3.453   0.160   9.017
 5145SOL     OW17393   1.984   0.643   8.011
 5145SOL    HW117394   1.939   0.555   8.028
 5145SOL    HW217395   1.983   0.697   8.095
 5146SOL     OW17396   3.704   1.767   7.807
 5146SOL    HW117397   3.758   1.738   7.887
 5146SOL    HW217398   3.734   1.857   7.778
 5147SOL     OW17399   1.889   1.596   7.565
 5147SOL    HW117400   1.870   1.500   7.586
 5147SOL    HW217401   1.856   1.654   7.640
 5148SOL     OW17402   3.551   0.922   8.060
 5148SOL    HW117403   3.646   0.893   8.068
 5148SOL    HW217404   3.543   0.987   7.985
 5149SOL     OW17405   3.503   1.108   7.880
 5149SOL    HW117406   3.589   1.110   7.828
 5149SOL    HW217407   3.517   1.155   7.968
 5150SOL     OW17408   2.475   1.365   8.174
 5150SOL    HW117409   2.426   1.278   8.183
 5150SOL    HW217410   2.452   1.408   8.087
 5151SOL     OW17411   2.671   0.004   7.950
 5151SOL    HW117412   2.711   0.095   7.941
 5151SOL    HW217413   2.571   0.012   7.956
 5152SOL     OW17414   2.059   0.976   8.712
 5152SOL    HW117415   2.148   0.931   8.698
 5152SOL    HW217416   1.986   0.911   8.693
 5153SOL     OW17417   3.387   0.999   7.638
 5153SOL    HW117418   3.324   0.923   7.651
 5153SOL    HW217419   3.435   1.017   7.724
 5154SOL     OW17420   3.328   1.417   8.401
 5154SOL    HW117421   3.269   1.423   8.481
 5154SOL    HW217422   3.313   1.329   8.355
 5155SOL     OW17423   3.529   1.714   8.020
 5155SOL    HW117424   3.488   1.691   7.932
 5155SOL    HW217425   3.511   1.640   8.085
 5156SOL     OW17426   2.460   0.729   7.718
 5156SOL    HW117427   2.484   0.798   7.650
 5156SOL    HW217428   2.382   0.762   7.772
 5157SOL     OW17429   3.143   0.345   8.392
 5157SOL    HW117430   3.057   0.295   8.379
 5157SOL    HW217431   3.205   0.291   8.448
 5158SOL     OW17432   3.438   1.662   7.755
 5158SOL    HW117433   3.527   1.708   7.758
 5158SOL    HW217434   3.417   1.638   7.660
 5159SOL     OW17435   2.669   0.605   8.913
 5159SOL    HW117436   2.622   0.602   9.002
 5159SOL    HW217437   2.618   0.550   8.847
 5160SOL     OW17438   2.853   0.410   8.690
 5160SOL    HW117439   2.776   0.444   8.744
 5160SOL    HW217440   2.819   0.359   8.611
 5161SOL     OW17441   2.903   0.701   7.877
 5161SOL    HW117442   2.929   0.697   7.973
 5161SOL    HW217443   2.818   0.650   7.863
 5162SOL     OW17444   1.938   0.811   8.237
 5162SOL    HW117445   2.037   0.799   8.246
 5162SOL    HW217446   1.914   0.906   8.258
 5163SOL     OW17447   1.992   1.821   0.019
 5163SOL    HW117448   1.982   1.806   0.118
 5163SOL    HW217449   1.906   1.857  -0.017
 5164SOL     OW17450   2.727   0.348   7.643
 5164SOL    HW117451   2.786   0.411   7.594
 5164SOL    HW217452   2.746   0.254   7.614
 5165SOL     OW17453   3.224   1.144   7.993
 5165SOL    HW117454   3.307   1.115   7.945
 5165SOL    HW217455   3.175   1.211   7.937
 5166SOL     OW17456   2.412   0.196   8.333
 5166SOL    HW117457   2.407   0.191   8.433
 5166SOL    HW217458   2.414   0.292   8.304
 5167SOL     OW17459   2.870   1.456   7.925
 5167SOL    HW117460   2.824   1.528   7.873
 5167SOL    HW217461   2.866   1.476   8.023
 5168SOL     OW17462   2.213   1.801   8.301
 5168SOL    HW117463   2.263   1.715   8.307
 5168SOL    HW217464   2.278   1.878   8.298
 5169SOL     OW17465   3.657   1.066   8.321
 5169SOL    HW117466   3.595   1.051   8.245
 5169SOL    HW217467   3.605   1.077   8.406
 5170SOL     OW17468   2.183   0.943   7.690
 5170SOL    HW117469   2.265   0.982   7.648
 5170SOL    HW217470   2.156   0.861   7.641
 5171SOL     OW17471   3.320   0.735   8.176
 5171SOL    HW117472   3.315   0.670   8.251
 5171SOL    HW217473   3.400   0.794   8.189
 5172SOL     OW17474   2.973   1.776   7.685
 5172SOL    HW117475   2.913   1.714   7.735
 5172SOL    HW217476   3.004   1.732   7.600
 5173SOL     OW17477   2.064   0.285   8.946
 5173SOL    HW117478   1.984   0.345   8.933
 5173SOL    HW217479   2.054   0.236   9.032
 5174SOL     OW17480   3.494   1.377   7.529
 5174SOL    HW117481   3.462   1.471   7.519
 5174SOL    HW217482   3.418   1.314   7.517
 5175SOL     OW17483   2.326   1.743   7.771
 5175SOL    HW117484   2.359   1.782   7.857
 5175SOL    HW217485   2.402   1.736   7.706
 5176SOL     OW17486   3.262   0.107   7.874
 5176SOL    HW117487   3.238   0.070   7.784
 5176SOL    HW217488   3.361   0.123   7.878
 5177SOL     OW17489   2.111   1.785   8.689
 5177SOL    HW117490   2.168   1.720   8.739
 5177SOL    HW217491   2.095   1.752   8.596
 5178SOL     OW17492   2.802   1.698   8.352
 5178SOL    HW117493   2.882   1.641   8.373
 5178SOL    HW217494   2.753   1.658   8.275
 5179SOL     OW17495   2.244   0.700   7.928
 5179SOL    HW117496   2.289   0.610   7.925
 5179SOL    HW217497   2.150   0.689   7.961
 5180SOL     OW17498   2.476   0.122   7.565
 5180SOL    HW117499   2.574   0.100   7.572
 5180SOL    HW217500   2.445   0.105   7.472
 5181SOL     OW17501   2.750   1.514   8.643
 5181SOL    HW117502   2.727   1.489   8.549
 5181SOL    HW217503   2.811   1.445   8.682
 5182SOL     OW17504   2.665   1.402   8.372
 5182SOL    HW117505   2.755   1.416   8.330
 5182SOL    HW217506   2.594   1.404   8.301
 5183SOL     OW17507   2.784   0.503   8.347
 5183SOL    HW117508   2.759   0.494   8.251
 5183SOL    HW217509   2.832   0.421   8.378
 5184SOL     OW17510   2.401   0.064   7.960
 5184SOL    HW117511   2.320   0.065   8.018
 5184SOL    HW217512   2.404   0.147   7.905
 5185SOL     OW17513   3.296   1.188   7.489
 5185SOL    HW117514   3.328   1.112   7.546
 5185SOL    HW217515   3.204   1.215   7.519
 5186SOL     OW17516   2.159   0.035   7.619
 5186SOL    HW117517   2.208   0.119   7.598
 5186SOL    HW217518   2.221  -0.030   7.664
 5187SOL     OW17519   2.797   0.236   7.928
 5187SOL    HW117520   2.749   0.277   7.850
 5187SOL    HW217521   2.896   0.234   7.909
 5188SOL     OW17522   3.089   1.570   8.241
 5188SOL    HW117523   3.110   1.644   8.176
 5188SOL    HW217524   3.157   1.570   8.314
 5189SOL     OW17525   2.321   1.152   8.189
 5189SOL    HW117526   2.250   1.125   8.254
 5189SOL    HW217527   2.295   1.124   8.096
 5190SOL     OW17528   3.133   1.797   8.039
 5190SOL    HW117529   3.177   1.861   7.975
 5190SOL    HW217530   3.083   1.849   8.109
 5191SOL     OW17531   2.894   0.549   7.464
 5191SOL    HW117532   2.853   0.631   7.425
 5191SOL    HW217533   2.958   0.575   7.537
 5192SOL     OW17534   1.940   0.556   8.834
 5192SOL    HW117535   2.032   0.555   8.793
 5192SOL    HW217536   1.934   0.630   8.901
 5193SOL     OW17537   2.423   0.222   8.595
 5193SOL    HW117538   2.461   0.138   8.632
 5193SOL    HW217539   2.335   0.241   8.639
 5194SOL     OW17540   2.728   0.454   8.090
 5194SOL    HW117541   2.696   0.526   8.028
 5194SOL    HW217542   2.752   0.373   8.037
 5195SOL     OW17543   2.879   0.039   8.201
 5195SOL    HW117544   2.807   0.044   8.132
 5195SOL    HW217545   2.855  -0.030   8.270
 5196SOL     OW17546   3.291   1.173   8.315
 5196SOL    HW117547   3.236   1.089   8.308
 5196SOL    HW217548   3.317   1.202   8.223
 5197SOL     OW17549   3.328   0.590   8.440
 5197SOL    HW117550   3.298   0.495   8.447
 5197SOL    HW217551   3.401   0.606   8.506
 5198SOL     OW17552   3.719   0.833   7.825
 5198SOL    HW117553   3.761   0.769   7.889
 5198SOL    HW217554   3.681   0.782   7.747
 5199SOL     OW17555   2.350   1.385   7.622
 5199SOL    HW117556   2.263   1.370   7.669
 5199SOL    HW217557   2.333   1.411   7.527
 5200SOL     OW17558   3.526   1.280   8.105
 5200SOL    HW117559   3.625   1.288   8.119
 5200SOL    HW217560   3.481   1.364   8.136
 5201SOL     OW17561   3.252   0.575   7.526
 5201SOL    HW117562   3.198   0.554   7.607
 5201SOL    HW217563   3.343   0.534   7.535
 5202SOL     OW17564   2.389   0.256   7.776
 5202SOL    HW117565   2.416   0.197   7.701
 5202SOL    HW217566   2.389   0.351   7.745
 5203SOL     OW17567   2.926   1.347   8.788
 5203SOL    HW117568   2.846   1.324   8.843
 5203SOL    HW217569   3.009   1.321   8.837
 5204SOL     OW17570   2.973   1.195   8.548
 5204SOL    HW117571   2.933   1.239   8.629
 5204SOL    HW217572   2.932   1.232   8.465
 5205SOL     OW17573   3.500   1.099   8.527
 5205SOL    HW117574   3.505   1.180   8.586
 5205SOL    HW217575   3.414   1.101   8.476
 5206SOL     OW17576   2.777   0.089   8.850
 5206SOL    HW117577   2.802   0.069   8.755
 5206SOL    HW217578   2.849   0.145   8.892
 5207SOL     OW17579   2.567   1.050   7.816
 5207SOL    HW117580   2.553   1.057   7.915
 5207SOL    HW217581   2.651   0.999   7.798
 5208SOL     OW17582   2.272   0.813   8.699
 5208SOL    HW117583   2.358   0.825   8.749
 5208SOL    HW217584   2.230   0.726   8.726
 5209SOL     OW17585   3.136   0.386   8.710
 5209SOL    HW117586   3.157   0.460   8.774
 5209SOL    HW217587   3.047   0.403   8.667
 5210SOL     OW17588   1.926   1.564   8.779
 5210SOL    HW117589   1.880   1.646   8.745
 5210SOL    HW217590   2.024   1.583   8.788
 5211SOL     OW17591   2.229   1.100   7.949
 5211SOL    HW117592   2.222   1.183   7.893
 5211SOL    HW217593   2.233   1.020   7.889
 5212SOL     OW17594   2.428   0.537   8.313
 5212SOL    HW117595   2.440   0.603   8.239
 5212SOL    HW217596   2.474   0.571   8.396
 5213SOL     OW17597   3.114   1.348   7.836
 5213SOL    HW117598   3.164   1.425   7.876
 5213SOL    HW217599   3.019   1.350   7.868
 5214SOL     OW17600   3.134   1.445   8.590
 5214SOL    HW117601   3.181   1.458   8.677
 5214SOL    HW217602   3.068   1.371   8.599
 5215SOL     OW17603   3.444   0.639   7.920
 5215SOL    HW117604   3.413   0.700   7.993
 5215SOL    HW217605   3.494   0.691   7.851
 5216SOL     OW17606   2.216   1.510   8.777
 5216SOL    HW117607   2.195   1.466   8.690
 5216SOL    HW217608   2.313   1.536   8.780
 5217SOL     OW17609   2.264   0.751   0.046
 5217SOL    HW117610   2.332   0.806  -0.001
 5217SOL    HW217611   2.304   0.663   0.073
 5218SOL     OW17612   3.449   0.779   0.118
 5218SOL    HW117613   3.357   0.817   0.113
 5218SOL    HW217614   3.509   0.826   0.053
 5219SOL     OW17615   2.435   0.870   8.477
 5219SOL    HW117616   2.479   0.959   8.468
 5219SOL    HW217617   2.372   0.870   8.554
 5220SOL     OW17618   3.222   0.862   8.493
 5220SOL    HW117619   3.147   0.862   8.427
 5220SOL    HW217620   3.259   0.770   8.502
 5221SOL     OW17621   3.071   0.525   7.723
 5221SOL    HW117622   3.084   0.441   7.777
 5221SOL    HW217623   3.042   0.599   7.783
 5222SOL     OW17624   2.169   0.213   8.679
 5222SOL    HW117625   2.146   0.250   8.769
 5222SOL    HW217626   2.139   0.118   8.673
 5223SOL     OW17627   1.899   1.310   8.730
 5223SOL    HW117628   1.952   1.261   8.798
 5223SOL    HW217629   1.921   1.408   8.735
 5224SOL     OW17630   2.594   0.634   8.512
 5224SOL    HW117631   2.653   0.608   8.436
 5224SOL    HW217632   2.566   0.730   8.501
 5225SOL     OW17633   2.169   0.063   8.066
 5225SOL    HW117634   2.158   0.157   8.099
 5225SOL    HW217635   2.164   0.000   8.143
 5226SOL     OW17636   3.484   0.367   7.822
 5226SOL    HW117637   3.486   0.291   7.886
 5226SOL    HW217638   3.436   0.444   7.862
 5227SOL     OW17639   2.885   0.766   8.414
 5227SOL    HW117640   2.900   0.787   8.510
 5227SOL    HW217641   2.855   0.671   8.405
 5228SOL     OW17642   2.842   1.573   0.148
 5228SOL    HW117643   2.822   1.617   0.060
 5228SOL    HW217644   2.881   1.482   0.132
 5229SOL     OW17645   3.721   1.518   0.053
 5229SOL    HW117646   3.735   1.545  -0.042
 5229SOL    HW217647   3.804   1.540   0.106
 5230SOL     OW17648   3.402   0.274   7.573
 5230SOL    HW117649   3.341   0.199   7.596
 5230SOL    HW217650   3.424   0.326   7.656
 5231SOL     OW17651   3.165   0.838   7.490
 5231SOL    HW117652   3.199   0.745   7.505
 5231SOL    HW217653   3.183   0.865   7.395
 5232SOL     OW17654   2.930   1.333   8.297
 5232SOL    HW117655   2.937   1.249   8.242
 5232SOL    HW217656   2.992   1.402   8.261
 5233SOL     OW17657   2.181   0.810   8.397
 5233SOL    HW117658   2.274   0.846   8.402
 5233SOL    HW217659   2.175   0.725   8.449
 5234SOL     OW17660   2.201   0.509   8.454
 5234SOL    HW117661   2.149   0.426   8.437
 5234SOL    HW217662   2.278   0.514   8.390
 5235SOL     OW17663   3.000   0.380   0.126
 5235SOL    HW117664   2.955   0.443   0.190
 5235SOL    HW217665   3.093   0.411   0.109
 5236SOL     OW17666   3.022   0.207   8.925
 5236SOL    HW117667   3.022   0.271   9.002
 5236SOL    HW217668   3.050   0.255   8.842
 5237SOL     OW17669   1.870   1.326   7.648
 5237SOL    HW117670   1.777   1.347   7.617
 5237SOL    HW217671   1.880   1.227   7.661
 5238SOL     OW17672   1.950   1.801   8.375
 5238SOL    HW117673   1.908   1.715   8.348
 5238SOL    HW217674   2.044   1.804   8.341
 5239SOL     OW17675   2.366   1.568   8.358
 5239SOL    HW117676   2.432   1.642   8.367
 5239SOL    HW217677   2.410   1.489   8.316
 5240SOL     OW17678   2.864   0.796   8.686
 5240SOL    HW117679   2.905   0.764   8.772
 5240SOL    HW217680   2.768   0.769   8.683
 5241SOL     OW17681   1.902   0.544   8.562
 5241SOL    HW117682   1.987   0.511   8.521
 5241SOL    HW217683   1.915   0.559   8.660
 5242SOL     OW17684   2.677   0.572   7.773
 5242SOL    HW117685   2.684   0.483   7.727
 5242SOL    HW217686   2.583   0.606   7.765
 5243SOL     OW17687   3.519   0.604   8.654
 5243SOL    HW117688   3.481   0.535   8.716
 5243SOL    HW217689   3.601   0.568   8.610
 5244SOL     OW17690   2.533   0.464   8.717
 5244SOL    HW117691   2.499   0.375   8.687
 5244SOL    HW217692   2.559   0.518   8.637
 5245SOL     OW17693   2.792   1.678   8.913
 5245SOL    HW117694   2.768   1.660   8.818
 5245SOL    HW217695   2.822   1.772   8.923
 5246SOL     OW17696   2.335   0.500   7.639
 5246SOL    HW117697   2.396   0.580   7.643
 5246SOL    HW217698   2.240   0.531   7.646
 5247SOL     OW17699   2.021   1.137   8.914
 5247SOL    HW117700   2.043   1.076   8.990
 5247SOL    HW217701   2.031   1.088   8.828
 5248SOL     OW17702   3.209   1.059   8.682
 5248SOL    HW117703   3.233   0.996   8.608
 5248SOL    HW217704   3.119   1.099   8.664
 5249SOL     OW17705   3.164   0.855   7.757
 5249SOL    HW117706   3.078   0.824   7.799
 5249SOL    HW217707   3.160   0.841   7.658
 5250SOL     OW17708   3.621   1.747   8.602
 5250SOL    HW117709   3.682   1.777   8.529
 5250SOL    HW217710   3.583   1.658   8.580
 5251SOL     OW17711   3.114   1.731   8.576
 5251SOL    HW117712   3.198   1.736   8.522
 5251SOL    HW217713   3.091   1.635   8.594
 5252SOL     OW17714   1.945   1.258   8.470
 5252SOL    HW117715   1.940   1.257   8.570
 5252SOL    HW217716   1.862   1.217   8.432
 5253SOL     OW17717   3.588   0.135   7.971
 5253SOL    HW117718   3.661   0.118   7.904
 5253SOL    HW217719   3.557   0.048   8.009
 5254SOL     OW17720   3.250   1.573   7.925
 5254SOL    HW117721   3.317   1.585   7.851
 5254SOL    HW217722   3.210   1.662   7.948
 5255SOL     OW17723   3.142   0.927   8.120
 5255SOL    HW117724   3.202   0.846   8.122
 5255SOL    HW217725   3.182   0.996   8.060
 5256SOL     OW17726   2.534   1.616   7.602
 5256SOL    HW117727   2.543   1.626   7.503
 5256SOL    HW217728   2.494   1.527   7.623
 5257SOL     OW17729   3.512   1.720   8.842
 5257SOL    HW117730   3.565   1.730   8.758
 5257SOL    HW217731   3.485   1.810   8.876
 5258SOL     OW17732   3.703   0.175   8.411
 5258SOL    HW117733   3.742   0.090   8.375
 5258SOL    HW217734   3.605   0.177   8.392
 5259SOL     OW17735   2.125   0.326   8.168
 5259SOL    HW117736   2.046   0.377   8.134
 5259SOL    HW217737   2.116   0.311   8.266
 5260SOL     OW17738   3.056   1.612   7.479
 5260SOL    HW117739   3.062   1.519   7.516
 5260SOL    HW217740   2.997   1.612   7.399
 5261SOL     OW17741   2.684   1.002   8.820
 5261SOL    HW117742   2.724   1.001   8.728
 5261SOL    HW217743   2.694   1.094   8.860
 5262SOL     OW17744   2.778   0.910   7.739
 5262SOL    HW117745   2.841   0.948   7.671
 5262SOL    HW217746   2.818   0.827   7.778
 5263SOL     OW17747   3.366   1.607   7.492
 5263SOL    HW117748   3.274   1.644   7.499
 5263SOL    HW217749   3.404   1.627   7.402
 5264SOL     OW17750   2.234   1.288   8.938
 5264SOL    HW117751   2.221   1.381   8.904
 5264SOL    HW217752   2.150   1.236   8.925
 5265SOL     OW17753   3.476   1.292   8.737
 5265SOL    HW117754   3.536   1.295   8.817
 5265SOL    HW217755   3.401   1.356   8.750
 5266SOL     OW17756   2.901   1.098   8.144
 5266SOL    HW117757   2.831   1.051   8.198
 5266SOL    HW217758   2.960   1.030   8.101
 5267SOL     OW17759   2.876   0.236   8.419
 5267SOL    HW117760   2.868   0.200   8.326
 5267SOL    HW217761   2.874   0.160   8.484
 5268SOL     OW17762   2.452   1.487   7.939
 5268SOL    HW117763   2.494   1.429   7.869
 5268SOL    HW217764   2.408   1.566   7.895
 5269SOL     OW17765   3.571   0.385   8.829
 5269SOL    HW117766   3.644   0.454   8.833
 5269SOL    HW217767   3.599   0.310   8.770
 5270SOL     OW17768   2.117   1.348   7.738
 5270SOL    HW117769   2.021   1.349   7.711
 5270SOL    HW217770   2.129   1.401   7.822
 5271SOL     OW17771   1.937   0.345   7.481
 5271SOL    HW117772   1.845   0.317   7.452
 5271SOL    HW217773   1.968   0.422   7.425
 5272SOL     OW17774   3.302   0.856   8.846
 5272SOL    HW117775   3.245   0.908   8.783
 5272SOL    HW217776   3.398   0.868   8.822
 5273SOL     OW17777   1.934   0.166   7.766
 5273SOL    HW117778   1.917   0.249   7.712
 5273SOL    HW217779   2.024   0.129   7.744
 5274SOL     OW17780   3.045   1.335   7.567
 5274SOL    HW117781   2.946   1.324   7.569
 5274SOL    HW217782   3.079   1.350   7.660
 5275SOL     OW17783   2.475   0.842   8.879
 5275SOL    HW117784   2.531   0.923   8.862
 5275SOL    HW217785   2.534   0.762   8.882
 5276SOL     OW17786   3.355   1.767   8.407
 5276SOL    HW117787   3.388   1.831   8.338
 5276SOL    HW217788   3.421   1.761   8.482
 5277SOL     OW17789   2.252   1.741   0.008
 5277SOL    HW117790   2.161   1.782   0.006
 5277SOL    HW217791   2.245   1.647   0.040
 5278SOL     OW17792   3.536   0.883   8.702
 5278SOL    HW117793   3.509   0.794   8.665
 5278SOL    HW217794   3.537   0.951   8.629
 5279SOL     OW17795   3.087   0.325   7.897
 5279SOL    HW117796   3.152   0.251   7.886
 5279SOL    HW217797   3.107   0.375   7.981
 5280SOL     OW17798   2.456   0.745   8.100
 5280SOL    HW117799   2.506   0.830   8.081
 5280SOL    HW217800   2.368   0.747   8.052
 5281SOL     OW17801   3.639   0.342   0.090
 5281SOL    HW117802   3.622   0.373  -0.004
 5281SOL    HW217803   3.555   0.305   0.128
 5282SOL     OW17804   3.592   0.934   8.965
 5282SOL    HW117805   3.630   1.025   8.980
 5282SOL    HW217806   3.584   0.917   8.866
 5283SOL     OW17807   2.721   1.374   7.464
 5283SOL    HW117808   2.675   1.389   7.552
 5283SOL    HW217809   2.765   1.459   7.434
 5284SOL     OW17810   2.523   1.790   8.401
 5284SOL    HW117811   2.477   1.878   8.388
 5284SOL    HW217812   2.622   1.802   8.394
 5285SOL     OW17813   3.270   1.851   0.168
 5285SOL    HW117814   3.174   1.840   0.141
 5285SOL    HW217815   3.326   1.784   0.120
 5286SOL     OW17816   2.721   0.956   8.309
 5286SOL    HW117817   2.775   0.887   8.357
 5286SOL    HW217818   2.689   1.025   8.375
 5287SOL     OW17819   2.945   0.984   7.535
 5287SOL    HW117820   2.922   1.037   7.453
 5287SOL    HW217821   3.026   0.928   7.516
 5288SOL     OW17822   3.723   1.569   8.299
 5288SOL    HW117823   3.652   1.557   8.229
 5288SOL    HW217824   3.724   1.490   8.359
 5289SOL     OW17825   1.941   1.240   8.101
 5289SOL    HW117826   1.940   1.193   8.189
 5289SOL    HW217827   2.023   1.212   8.050
 5290SOL     OW17828   3.686   0.192   8.675
 5290SOL    HW117829   3.682   0.102   8.719
 5290SOL    HW217830   3.689   0.181   8.576
 5291SOL     OW17831   2.290   0.424   7.968
 5291SOL    HW117832   2.320   0.352   7.906
 5291SOL    HW217833   2.251   0.384   8.051
 5292SOL     OW17834   3.567   1.487   8.552
 5292SOL    HW117835   3.474   1.462   8.525
 5292SOL    HW217836   3.593   1.437   8.634
 5293SOL     OW17837   2.179   0.547   8.728
 5293SOL    HW117838   2.217   0.488   8.800
 5293SOL    HW217839   2.219   0.521   8.640
 5294SOL     OW17840   2.674   1.586   8.135
 5294SOL    HW117841   2.706   1.596   8.041
 5294SOL    HW217842   2.595   1.524   8.137
 5295SOL     OW17843   3.286   0.214   8.560
 5295SOL    HW117844   3.338   0.149   8.615
 5295SOL    HW217845   3.237   0.277   8.621
 5296SOL     OW17846   2.863   0.034   8.602
 5296SOL    HW117847   2.800  -0.038   8.571
 5296SOL    HW217848   2.956  -0.002   8.602
 5297SOL     OW17849   2.632   1.330   7.749
 5297SOL    HW117850   2.586   1.243   7.766
 5297SOL    HW217851   2.723   1.327   7.790
 5298SOL     OW17852   2.480   1.567   8.732
 5298SOL    HW117853   2.475   1.649   8.789
 5298SOL    HW217854   2.569   1.564   8.687
 5299SOL     OW17855   3.214   0.052   7.616
 5299SOL    HW117856   3.249   0.011   7.532
 5299SOL    HW217857   3.124   0.014   7.636
 5300SOL     OW17858   3.162   0.453   8.139
 5300SOL    HW117859   3.103   0.533   8.143
 5300SOL    HW217860   3.177   0.418   8.232
 5301SOL     OW17861   3.455   0.221   8.330
 5301SOL    HW117862   3.371   0.220   8.384
 5301SOL    HW217863   3.457   0.304   8.274
 5302SOL     OW17864   1.901   1.077   7.748
 5302SOL    HW117865   2.000   1.066   7.739
 5302SOL    HW217866   1.861   0.991   7.780
 5303SOL     OW17867   2.737   1.646   7.785
 5303SOL    HW117868   2.660   1.611   7.731
 5303SOL    HW217869   2.705   1.717   7.847
 5304SOL     OW17870   2.092   2.490   0.113
 5304SOL    HW117871   1.999   2.488   0.150
 5304SOL    HW217872   2.093   2.451   0.021
 5305SOL     OW17873   2.087   2.137   0.996
 5305SOL    HW117874   2.122   2.120   1.088
 5305SOL    HW217875   1.999   2.092   0.984
 5306SOL     OW17876   1.881   2.230   0.647
 5306SOL    HW117877   1.799   2.273   0.686
 5306SOL    HW217878   1.853   2.157   0.584
 5307SOL     OW17879   2.431   3.137   1.165
 5307SOL    HW117880   2.338   3.130   1.128
 5307SOL    HW217881   2.442   3.226   1.209
 5308SOL     OW17882   3.417   3.373   0.703
 5308SOL    HW117883   3.360   3.357   0.784
 5308SOL    HW217884   3.358   3.383   0.623
 5309SOL     OW17885   3.605   2.480   0.856
 5309SOL    HW117886   3.638   2.574   0.856
 5309SOL    HW217887   3.656   2.426   0.922
 5310SOL     OW17888   2.997   2.565   0.717
 5310SOL    HW117889   3.054   2.643   0.692
 5310SOL    HW217890   2.937   2.591   0.793
 5311SOL     OW17891   3.617   2.469   0.231
 5311SOL    HW117892   3.605   2.456   0.132
 5311SOL    HW217893   3.587   2.388   0.280
 5312SOL     OW17894   2.630   3.006   1.023
 5312SOL    HW117895   2.552   3.023   1.083
 5312SOL    HW217896   2.664   3.093   0.987
 5313SOL     OW17897   2.712   2.660   1.823
 5313SOL    HW117898   2.708   2.736   1.888
 5313SOL    HW217899   2.734   2.696   1.732
 5314SOL     OW17900   2.547   2.874   0.665
 5314SOL    HW117901   2.616   2.858   0.735
 5314SOL    HW217902   2.474   2.931   0.703
 5315SOL     OW17903   2.548   3.023   1.803
 5315SOL    HW117904   2.608   3.102   1.817
 5315SOL    HW217905   2.462   3.054   1.762
 5316SOL     OW17906   2.197   3.297   1.061
 5316SOL    HW117907   2.119   3.266   1.008
 5316SOL    HW217908   2.255   3.355   1.004
 5317SOL     OW17909   3.322   3.367   1.339
 5317SOL    HW117910   3.346   3.461   1.365
 5317SOL    HW217911   3.306   3.313   1.421
 5318SOL     OW17912   2.300   2.254   1.499
 5318SOL    HW117913   2.382   2.198   1.508
 5318SOL    HW217914   2.219   2.196   1.503
 5319SOL     OW17915   3.465   2.309   0.737
 5319SOL    HW117916   3.391   2.355   0.687
 5319SOL    HW217917   3.516   2.377   0.790
 5320SOL     OW17918   2.989   3.203   1.690
 5320SOL    HW117919   3.036   3.203   1.778
 5320SOL    HW217920   2.941   3.116   1.679
 5321SOL     OW17921   2.102   2.953   0.886
 5321SOL    HW117922   2.116   2.869   0.938
 5321SOL    HW217923   2.047   3.017   0.941
 5322SOL     OW17924   2.482   3.648   1.439
 5322SOL    HW117925   2.390   3.631   1.474
 5322SOL    HW217926   2.510   3.740   1.465
 5323SOL     OW17927   2.468   2.826   0.123
 5323SOL    HW117928   2.475   2.910   0.069
 5323SOL    HW217929   2.514   2.839   0.211
 5324SOL     OW17930   3.456   1.976   1.480
 5324SOL    HW117931   3.438   2.043   1.408
 5324SOL    HW217932   3.453   2.022   1.569
 5325SOL     OW17933   1.984   2.505   0.563
 5325SOL    HW117934   1.939   2.417   0.580
 5325SOL    HW217935   1.983   2.559   0.647
 5326SOL     OW17936   3.704   3.629   0.359
 5326SOL    HW117937   3.758   3.600   0.439
 5326SOL    HW217938   3.734   3.719   0.330
 5327SOL     OW17939   3.551   2.784   0.612
 5327SOL    HW117940   3.646   2.755   0.620
 5327SOL    HW217941   3.543   2.849   0.537
 5328SOL     OW17942   3.503   2.970   0.432
 5328SOL    HW117943   3.589   2.972   0.380
 5328SOL    HW217944   3.517   3.017   0.520
 5329SOL     OW17945   1.975   2.599   1.597
 5329SOL    HW117946   2.063   2.586   1.642
 5329SOL    HW217947   1.962   2.696   1.575
 5330SOL     OW17948   3.155   3.090   1.423
 5330SOL    HW117949   3.192   3.017   1.365
 5330SOL    HW217950   3.207   3.095   1.508
 5331SOL     OW17951   2.671   1.866   0.502
 5331SOL    HW117952   2.711   1.957   0.493
 5331SOL    HW217953   2.571   1.874   0.508
 5332SOL     OW17954   2.059   2.838   1.264
 5332SOL    HW117955   2.148   2.793   1.250
 5332SOL    HW217956   1.986   2.773   1.245
 5333SOL     OW17957   3.387   2.861   0.190
 5333SOL    HW117958   3.324   2.785   0.203
 5333SOL    HW217959   3.435   2.879   0.276
 5334SOL     OW17960   3.049   3.654   1.616
 5334SOL    HW117961   3.073   3.714   1.540
 5334SOL    HW217962   3.056   3.559   1.586
 5335SOL     OW17963   2.179   2.113   1.801
 5335SOL    HW117964   2.250   2.184   1.807
 5335SOL    HW217965   2.091   2.152   1.829
 5336SOL     OW17966   3.328   3.279   0.953
 5336SOL    HW117967   3.269   3.285   1.033
 5336SOL    HW217968   3.313   3.191   0.907
 5337SOL     OW17969   3.529   3.576   0.572
 5337SOL    HW117970   3.488   3.553   0.484
 5337SOL    HW217971   3.511   3.502   0.637
 5338SOL     OW17972   2.460   2.591   0.270
 5338SOL    HW117973   2.484   2.660   0.202
 5338SOL    HW217974   2.382   2.624   0.324
 5339SOL     OW17975   3.143   2.207   0.944
 5339SOL    HW117976   3.057   2.157   0.931
 5339SOL    HW217977   3.205   2.153   1.000
 5340SOL     OW17978   3.438   3.524   0.307
 5340SOL    HW117979   3.527   3.570   0.310
 5340SOL    HW217980   3.417   3.500   0.212
 5341SOL     OW17981   2.669   2.467   1.465
 5341SOL    HW117982   2.622   2.464   1.554
 5341SOL    HW217983   2.618   2.412   1.399
 5342SOL     OW17984   3.256   2.331   1.674
 5342SOL    HW117985   3.236   2.374   1.762
 5342SOL    HW217986   3.334   2.269   1.683
 5343SOL     OW17987   2.835   2.752   1.572
 5343SOL    HW117988   2.881   2.668   1.543
 5343SOL    HW217989   2.779   2.786   1.497
 5344SOL     OW17990   2.853   2.272   1.242
 5344SOL    HW117991   2.776   2.306   1.296
 5344SOL    HW217992   2.819   2.221   1.163
 5345SOL     OW17993   2.903   2.563   0.429
 5345SOL    HW117994   2.929   2.559   0.525
 5345SOL    HW217995   2.818   2.512   0.415
 5346SOL     OW17996   1.938   2.673   0.789
 5346SOL    HW117997   2.037   2.661   0.798
 5346SOL    HW217998   1.914   2.768   0.810
 5347SOL     OW17999   1.992   3.683   1.571
 5347SOL    HW118000   1.982   3.668   1.670
 5347SOL    HW218001   1.906   3.719   1.535
 5348SOL     OW18002   2.727   2.210   0.195
 5348SOL    HW118003   2.786   2.273   0.146
 5348SOL    HW218004   2.746   2.116   0.166
 5349SOL     OW18005   3.581   2.447   1.831
 5349SOL    HW118006   3.555   2.536   1.795
 5349SOL    HW218007   3.579   2.379   1.758
 5350SOL     OW18008   3.224   3.006   0.545
 5350SOL    HW118009   3.307   2.977   0.497
 5350SOL    HW218010   3.175   3.073   0.489
 5351SOL     OW18011   2.412   2.058   0.885
 5351SOL    HW118012   2.407   2.053   0.985
 5351SOL    HW218013   2.414   2.154   0.856
 5352SOL     OW18014   2.870   3.318   0.477
 5352SOL    HW118015   2.824   3.390   0.425
 5352SOL    HW218016   2.866   3.338   0.575
 5353SOL     OW18017   2.213   3.663   0.853
 5353SOL    HW118018   2.263   3.577   0.859
 5353SOL    HW218019   2.278   3.740   0.850
 5354SOL     OW18020   3.657   2.928   0.873
 5354SOL    HW118021   3.595   2.913   0.797
 5354SOL    HW218022   3.605   2.939   0.958
 5355SOL     OW18023   3.089   3.412   1.506
 5355SOL    HW118024   3.095   3.335   1.570
 5355SOL    HW218025   3.037   3.386   1.426
 5356SOL     OW18026   2.183   2.805   0.242
 5356SOL    HW118027   2.265   2.844   0.200
 5356SOL    HW218028   2.156   2.723   0.193
 5357SOL     OW18029   3.320   2.597   0.728
 5357SOL    HW118030   3.315   2.532   0.803
 5357SOL    HW218031   3.400   2.656   0.741
 5358SOL     OW18032   2.323   3.128   1.727
 5358SOL    HW118033   2.273   3.129   1.641
 5358SOL    HW218034   2.260   3.110   1.803
 5359SOL     OW18035   2.973   3.638   0.237
 5359SOL    HW118036   2.913   3.576   0.287
 5359SOL    HW218037   3.004   3.594   0.152
 5360SOL     OW18038   2.064   2.147   1.498
 5360SOL    HW118039   1.984   2.207   1.485
 5360SOL    HW218040   2.054   2.098   1.584
 5361SOL     OW18041   3.494   3.239   0.081
 5361SOL    HW118042   3.462   3.333   0.071
 5361SOL    HW218043   3.418   3.176   0.069
 5362SOL     OW18044   3.262   1.969   0.426
 5362SOL    HW118045   3.238   1.932   0.336
 5362SOL    HW218046   3.361   1.985   0.430
 5363SOL     OW18047   2.111   3.647   1.241
 5363SOL    HW118048   2.168   3.582   1.291
 5363SOL    HW218049   2.095   3.614   1.148
 5364SOL     OW18050   2.802   3.560   0.904
 5364SOL    HW118051   2.882   3.503   0.925
 5364SOL    HW218052   2.753   3.520   0.827
 5365SOL     OW18053   2.244   2.562   0.480
 5365SOL    HW118054   2.289   2.472   0.477
 5365SOL    HW218055   2.150   2.551   0.513
 5366SOL     OW18056   3.409   2.084   1.729
 5366SOL    HW118057   3.404   2.121   1.821
 5366SOL    HW218058   3.337   2.015   1.717
 5367SOL     OW18059   2.476   1.984   0.117
 5367SOL    HW118060   2.574   1.962   0.124
 5367SOL    HW218061   2.445   1.967   0.024
 5368SOL     OW18062   2.643   2.126   1.749
 5368SOL    HW118063   2.710   2.065   1.792
 5368SOL    HW218064   2.570   2.145   1.814
 5369SOL     OW18065   2.750   3.376   1.195
 5369SOL    HW118066   2.727   3.351   1.101
 5369SOL    HW218067   2.811   3.307   1.234
 5370SOL     OW18068   3.213   2.452   1.433
 5370SOL    HW118069   3.241   2.409   1.518
 5370SOL    HW218070   3.238   2.548   1.434
 5371SOL     OW18071   2.784   2.365   0.899
 5371SOL    HW118072   2.759   2.356   0.803
 5371SOL    HW218073   2.832   2.283   0.930
 5372SOL     OW18074   2.401   1.926   0.512
 5372SOL    HW118075   2.320   1.927   0.570
 5372SOL    HW218076   2.404   2.009   0.457
 5373SOL     OW18077   3.296   3.050   0.041
 5373SOL    HW118078   3.328   2.974   0.098
 5373SOL    HW218079   3.204   3.077   0.071
 5374SOL     OW18080   2.159   1.897   0.171
 5374SOL    HW118081   2.208   1.981   0.150
 5374SOL    HW218082   2.221   1.832   0.216
 5375SOL     OW18083   2.797   2.098   0.480
 5375SOL    HW118084   2.749   2.139   0.402
 5375SOL    HW218085   2.896   2.096   0.461
 5376SOL     OW18086   2.938   2.545   1.464
 5376SOL    HW118087   2.858   2.484   1.467
 5376SOL    HW218088   3.019   2.492   1.440
 5377SOL     OW18089   3.089   3.432   0.793
 5377SOL    HW118090   3.110   3.506   0.728
 5377SOL    HW218091   3.157   3.432   0.866
 5378SOL     OW18092   2.321   3.014   0.741
 5378SOL    HW118093   2.250   2.987   0.806
 5378SOL    HW218094   2.295   2.986   0.648
 5379SOL     OW18095   3.133   3.659   0.591
 5379SOL    HW118096   3.177   3.723   0.527
 5379SOL    HW218097   3.083   3.711   0.661
 5380SOL     OW18098   2.894   2.411   0.016
 5380SOL    HW118099   2.853   2.493  -0.023
 5380SOL    HW218100   2.958   2.437   0.089
 5381SOL     OW18101   1.940   2.418   1.386
 5381SOL    HW118102   2.032   2.417   1.345
 5381SOL    HW218103   1.934   2.492   1.453
 5382SOL     OW18104   2.423   2.084   1.147
 5382SOL    HW118105   2.461   2.000   1.184
 5382SOL    HW218106   2.335   2.103   1.191
 5383SOL     OW18107   2.728   2.316   0.642
 5383SOL    HW118108   2.696   2.388   0.580
 5383SOL    HW218109   2.752   2.235   0.589
 5384SOL     OW18110   2.879   1.901   0.753
 5384SOL    HW118111   2.807   1.906   0.684
 5384SOL    HW218112   2.855   1.832   0.822
 5385SOL     OW18113   3.291   3.035   0.867
 5385SOL    HW118114   3.236   2.951   0.860
 5385SOL    HW218115   3.317   3.064   0.775
 5386SOL     OW18116   3.328   2.452   0.992
 5386SOL    HW118117   3.298   2.357   0.999
 5386SOL    HW218118   3.401   2.468   1.058
 5387SOL     OW18119   3.719   2.695   0.377
 5387SOL    HW118120   3.761   2.631   0.441
 5387SOL    HW218121   3.681   2.644   0.299
 5388SOL     OW18122   3.526   3.142   0.657
 5388SOL    HW118123   3.625   3.150   0.671
 5388SOL    HW218124   3.481   3.226   0.688
 5389SOL     OW18125   3.252   2.437   0.078
 5389SOL    HW118126   3.198   2.416   0.159
 5389SOL    HW218127   3.343   2.396   0.087
 5390SOL     OW18128   2.389   2.118   0.328
 5390SOL    HW118129   2.416   2.059   0.253
 5390SOL    HW218130   2.389   2.213   0.297
 5391SOL     OW18131   3.616   3.085   1.588
 5391SOL    HW118132   3.707   3.046   1.575
 5391SOL    HW218133   3.624   3.181   1.612
 5392SOL     OW18134   2.926   3.209   1.340
 5392SOL    HW118135   2.846   3.186   1.395
 5392SOL    HW218136   3.009   3.183   1.389
 5393SOL     OW18137   3.454   3.491   1.625
 5393SOL    HW118138   3.481   3.525   1.535
 5393SOL    HW218139   3.533   3.453   1.671
 5394SOL     OW18140   2.973   3.057   1.100
 5394SOL    HW118141   2.933   3.101   1.181
 5394SOL    HW218142   2.932   3.094   1.017
 5395SOL     OW18143   3.500   2.961   1.079
 5395SOL    HW118144   3.505   3.042   1.138
 5395SOL    HW218145   3.414   2.963   1.028
 5396SOL     OW18146   2.777   1.951   1.402
 5396SOL    HW118147   2.802   1.931   1.307
 5396SOL    HW218148   2.849   2.007   1.444
 5397SOL     OW18149   2.842   2.978   1.719
 5397SOL    HW118150   2.743   2.984   1.729
 5397SOL    HW218151   2.865   2.898   1.663
 5398SOL     OW18152   2.567   2.912   0.368
 5398SOL    HW118153   2.553   2.919   0.467
 5398SOL    HW218154   2.651   2.861   0.350
 5399SOL     OW18155   2.272   2.675   1.251
 5399SOL    HW118156   2.358   2.687   1.301
 5399SOL    HW218157   2.230   2.588   1.278
 5400SOL     OW18158   3.136   2.248   1.262
 5400SOL    HW118159   3.157   2.322   1.326
 5400SOL    HW218160   3.047   2.265   1.219
 5401SOL     OW18161   1.926   3.426   1.331
 5401SOL    HW118162   1.880   3.508   1.297
 5401SOL    HW218163   2.024   3.445   1.340
 5402SOL     OW18164   2.229   2.962   0.501
 5402SOL    HW118165   2.222   3.045   0.445
 5402SOL    HW218166   2.233   2.882   0.441
 5403SOL     OW18167   2.428   2.399   0.865
 5403SOL    HW118168   2.440   2.465   0.791
 5403SOL    HW218169   2.474   2.433   0.948
 5404SOL     OW18170   3.114   3.210   0.388
 5404SOL    HW118171   3.164   3.287   0.428
 5404SOL    HW218172   3.019   3.212   0.420
 5405SOL     OW18173   3.444   2.501   0.472
 5405SOL    HW118174   3.413   2.562   0.545
 5405SOL    HW218175   3.494   2.553   0.403
 5406SOL     OW18176   2.216   3.372   1.329
 5406SOL    HW118177   2.195   3.328   1.242
 5406SOL    HW218178   2.313   3.398   1.332
 5407SOL     OW18179   2.264   2.613   1.598
 5407SOL    HW118180   2.332   2.668   1.551
 5407SOL    HW218181   2.304   2.525   1.625
 5408SOL     OW18182   3.449   2.641   1.670
 5408SOL    HW118183   3.357   2.679   1.665
 5408SOL    HW218184   3.509   2.688   1.605
 5409SOL     OW18185   2.875   1.967   1.770
 5409SOL    HW118186   2.881   2.052   1.718
 5409SOL    HW218187   2.907   1.891   1.713
 5410SOL     OW18188   2.366   1.912   1.740
 5410SOL    HW118189   2.324   1.855   1.670
 5410SOL    HW218190   2.300   1.981   1.772
 5411SOL     OW18191   2.435   2.732   1.029
 5411SOL    HW118192   2.479   2.821   1.020
 5411SOL    HW218193   2.372   2.732   1.106
 5412SOL     OW18194   3.222   2.724   1.045
 5412SOL    HW118195   3.147   2.724   0.979
 5412SOL    HW218196   3.259   2.632   1.054
 5413SOL     OW18197   3.071   2.387   0.275
 5413SOL    HW118198   3.084   2.303   0.329
 5413SOL    HW218199   3.042   2.461   0.335
 5414SOL     OW18200   2.169   2.075   1.231
 5414SOL    HW118201   2.146   2.112   1.321
 5414SOL    HW218202   2.139   1.980   1.225
 5415SOL     OW18203   1.899   3.172   1.282
 5415SOL    HW118204   1.952   3.123   1.350
 5415SOL    HW218205   1.921   3.270   1.287
 5416SOL     OW18206   2.594   2.496   1.064
 5416SOL    HW118207   2.653   2.470   0.988
 5416SOL    HW218208   2.566   2.592   1.053
 5417SOL     OW18209   3.590   2.797   1.854
 5417SOL    HW118210   3.544   2.790   1.765
 5417SOL    HW218211   3.528   2.841   1.920
 5418SOL     OW18212   2.169   1.925   0.618
 5418SOL    HW118213   2.158   2.019   0.651
 5418SOL    HW218214   2.164   1.862   0.695
 5419SOL     OW18215   3.484   2.229   0.374
 5419SOL    HW118216   3.486   2.153   0.438
 5419SOL    HW218217   3.436   2.306   0.414
 5420SOL     OW18218   2.885   2.628   0.966
 5420SOL    HW118219   2.900   2.649   1.062
 5420SOL    HW218220   2.855   2.533   0.957
 5421SOL     OW18221   2.842   3.435   1.700
 5421SOL    HW118222   2.822   3.479   1.612
 5421SOL    HW218223   2.881   3.344   1.684
 5422SOL     OW18224   3.721   3.380   1.605
 5422SOL    HW118225   3.735   3.407   1.510
 5422SOL    HW218226   3.804   3.402   1.658
 5423SOL     OW18227   2.212   2.760   1.804
 5423SOL    HW118228   2.288   2.804   1.852
 5423SOL    HW218229   2.247   2.713   1.722
 5424SOL     OW18230   3.402   2.136   0.125
 5424SOL    HW118231   3.341   2.061   0.148
 5424SOL    HW218232   3.424   2.188   0.208
 5425SOL     OW18233   3.165   2.700   0.042
 5425SOL    HW118234   3.199   2.607   0.057
 5425SOL    HW218235   3.183   2.727  -0.053
 5426SOL     OW18236   2.181   2.672   0.949
 5426SOL    HW118237   2.274   2.708   0.954
 5426SOL    HW218238   2.175   2.587   1.001
 5427SOL     OW18239   2.201   2.371   1.006
 5427SOL    HW118240   2.149   2.288   0.989
 5427SOL    HW218241   2.278   2.376   0.942
 5428SOL     OW18242   2.373   2.277   1.808
 5428SOL    HW118243   2.355   2.322   1.896
 5428SOL    HW218244   2.415   2.342   1.745
 5429SOL     OW18245   3.000   2.242   1.678
 5429SOL    HW118246   2.955   2.305   1.742
 5429SOL    HW218247   3.093   2.273   1.661
 5430SOL     OW18248   3.022   2.069   1.477
 5430SOL    HW118249   3.022   2.133   1.554
 5430SOL    HW218250   3.050   2.117   1.394
 5431SOL     OW18251   1.870   3.188   0.200
 5431SOL    HW118252   1.777   3.209   0.169
 5431SOL    HW218253   1.880   3.089   0.213
 5432SOL     OW18254   1.950   3.663   0.927
 5432SOL    HW118255   1.908   3.577   0.900
 5432SOL    HW218256   2.044   3.666   0.893
 5433SOL     OW18257   2.366   3.430   0.910
 5433SOL    HW118258   2.432   3.504   0.919
 5433SOL    HW218259   2.410   3.351   0.868
 5434SOL     OW18260   2.864   2.658   1.238
 5434SOL    HW118261   2.905   2.626   1.324
 5434SOL    HW218262   2.768   2.631   1.235
 5435SOL     OW18263   1.902   2.406   1.114
 5435SOL    HW118264   1.987   2.373   1.073
 5435SOL    HW218265   1.915   2.421   1.212
 5436SOL     OW18266   2.051   2.382   1.722
 5436SOL    HW118267   2.110   2.342   1.652
 5436SOL    HW218268   1.993   2.453   1.681
 5437SOL     OW18269   3.231   2.812   1.660
 5437SOL    HW118270   3.270   2.901   1.680
 5437SOL    HW218271   3.241   2.792   1.563
 5438SOL     OW18272   2.677   2.434   0.325
 5438SOL    HW118273   2.684   2.345   0.279
 5438SOL    HW218274   2.583   2.468   0.317
 5439SOL     OW18275   3.519   2.466   1.206
 5439SOL    HW118276   3.481   2.397   1.268
 5439SOL    HW218277   3.601   2.430   1.162
 5440SOL     OW18278   2.114   3.426   1.744
 5440SOL    HW118279   2.084   3.483   1.820
 5440SOL    HW218280   2.107   3.329   1.770
 5441SOL     OW18281   2.533   2.326   1.269
 5441SOL    HW118282   2.499   2.237   1.239
 5441SOL    HW218283   2.559   2.380   1.189
 5442SOL     OW18284   2.792   3.540   1.465
 5442SOL    HW118285   2.768   3.522   1.370
 5442SOL    HW218286   2.822   3.634   1.475
 5443SOL     OW18287   2.335   2.362   0.191
 5443SOL    HW118288   2.396   2.442   0.195
 5443SOL    HW218289   2.240   2.393   0.198
 5444SOL     OW18290   2.021   2.999   1.466
 5444SOL    HW118291   2.043   2.938   1.542
 5444SOL    HW218292   2.031   2.950   1.380
 5445SOL     OW18293   3.209   2.921   1.234
 5445SOL    HW118294   3.233   2.858   1.160
 5445SOL    HW218295   3.119   2.961   1.216
 5446SOL     OW18296   3.164   2.717   0.309
 5446SOL    HW118297   3.078   2.686   0.351
 5446SOL    HW218298   3.160   2.703   0.210
 5447SOL     OW18299   3.621   3.609   1.154
 5447SOL    HW118300   3.682   3.639   1.081
 5447SOL    HW218301   3.583   3.520   1.132
 5448SOL     OW18302   1.945   3.120   1.022
 5448SOL    HW118303   1.940   3.119   1.122
 5448SOL    HW218304   1.862   3.079   0.984
 5449SOL     OW18305   2.550   3.524   1.716
 5449SOL    HW118306   2.494   3.605   1.725
 5449SOL    HW218307   2.602   3.528   1.630
 5450SOL     OW18308   2.765   1.948   0.133
 5450SOL    HW118309   2.816   1.949   0.047
 5450SOL    HW218310   2.821   1.906   0.204
 5451SOL     OW18311   3.588   1.997   0.523
 5451SOL    HW118312   3.661   1.980   0.456
 5451SOL    HW218313   3.557   1.910   0.561
 5452SOL     OW18314   3.250   3.435   0.477
 5452SOL    HW118315   3.317   3.447   0.403
 5452SOL    HW218316   3.210   3.524   0.500
 5453SOL     OW18317   1.992   3.656   1.851
 5453SOL    HW118318   1.951   3.582   1.904
 5453SOL    HW218319   2.056   3.707   1.909
 5454SOL     OW18320   3.142   2.789   0.672
 5454SOL    HW118321   3.202   2.708   0.674
 5454SOL    HW218322   3.182   2.858   0.612
 5455SOL     OW18323   2.692   3.135   1.422
 5455SOL    HW118324   2.687   3.168   1.517
 5455SOL    HW218325   2.606   3.154   1.376
 5456SOL     OW18326   2.534   3.478   0.154
 5456SOL    HW118327   2.543   3.488   0.055
 5456SOL    HW218328   2.494   3.389   0.175
 5457SOL     OW18329   3.703   2.037   0.963
 5457SOL    HW118330   3.742   1.952   0.927
 5457SOL    HW218331   3.605   2.039   0.944
 5458SOL     OW18332   2.125   2.188   0.720
 5458SOL    HW118333   2.046   2.239   0.686
 5458SOL    HW218334   2.116   2.173   0.818
 5459SOL     OW18335   3.056   3.474   0.031
 5459SOL    HW118336   3.062   3.381   0.068
 5459SOL    HW218337   2.997   3.474  -0.049
 5460SOL     OW18338   2.684   2.864   1.372
 5460SOL    HW118339   2.724   2.863   1.280
 5460SOL    HW218340   2.694   2.956   1.412
 5461SOL     OW18341   2.778   2.772   0.291
 5461SOL    HW118342   2.841   2.810   0.223
 5461SOL    HW218343   2.818   2.689   0.330
 5462SOL     OW18344   3.366   3.469   0.044
 5462SOL    HW118345   3.274   3.506   0.051
 5462SOL    HW218346   3.404   3.489  -0.046
 5463SOL     OW18347   2.234   3.150   1.490
 5463SOL    HW118348   2.221   3.243   1.456
 5463SOL    HW218349   2.150   3.098   1.477
 5464SOL     OW18350   3.476   3.154   1.289
 5464SOL    HW118351   3.536   3.157   1.369
 5464SOL    HW218352   3.401   3.218   1.302
 5465SOL     OW18353   2.901   2.960   0.696
 5465SOL    HW118354   2.831   2.913   0.750
 5465SOL    HW218355   2.960   2.892   0.653
 5466SOL     OW18356   2.876   2.098   0.971
 5466SOL    HW118357   2.868   2.062   0.878
 5466SOL    HW218358   2.874   2.022   1.036
 5467SOL     OW18359   3.571   2.247   1.381
 5467SOL    HW118360   3.644   2.316   1.385
 5467SOL    HW218361   3.599   2.172   1.322
 5468SOL     OW18362   1.967   2.875   1.726
 5468SOL    HW118363   1.890   2.842   1.780
 5468SOL    HW218364   2.052   2.845   1.768
 5469SOL     OW18365   2.534   2.065   1.489
 5469SOL    HW118366   2.624   2.049   1.449
 5469SOL    HW218367   2.542   2.070   1.588
 5470SOL     OW18368   3.302   2.718   1.398
 5470SOL    HW118369   3.245   2.770   1.335
 5470SOL    HW218370   3.398   2.730   1.374
 5471SOL     OW18371   1.934   2.028   0.318
 5471SOL    HW118372   1.917   2.111   0.264
 5471SOL    HW218373   2.024   1.991   0.296
 5472SOL     OW18374   3.045   3.197   0.119
 5472SOL    HW118375   2.946   3.186   0.121
 5472SOL    HW218376   3.079   3.212   0.212
 5473SOL     OW18377   2.475   2.704   1.431
 5473SOL    HW118378   2.531   2.785   1.414
 5473SOL    HW218379   2.534   2.624   1.434
 5474SOL     OW18380   2.578   2.427   1.708
 5474SOL    HW118381   2.597   2.492   1.782
 5474SOL    HW218382   2.638   2.347   1.717
 5475SOL     OW18383   3.312   3.082   1.633
 5475SOL    HW118384   3.303   3.072   1.732
 5475SOL    HW218385   3.408   3.075   1.607
 5476SOL     OW18386   2.252   3.603   1.560
 5476SOL    HW118387   2.161   3.644   1.558
 5476SOL    HW218388   2.245   3.509   1.592
 5477SOL     OW18389   3.536   2.745   1.254
 5477SOL    HW118390   3.509   2.656   1.217
 5477SOL    HW218391   3.537   2.813   1.181
 5478SOL     OW18392   3.087   2.187   0.449
 5478SOL    HW118393   3.152   2.113   0.438
 5478SOL    HW218394   3.107   2.237   0.533
 5479SOL     OW18395   2.456   2.607   0.652
 5479SOL    HW118396   2.506   2.692   0.633
 5479SOL    HW218397   2.368   2.609   0.604
 5480SOL     OW18398   3.639   2.204   1.642
 5480SOL    HW118399   3.622   2.235   1.548
 5480SOL    HW218400   3.555   2.167   1.680
 5481SOL     OW18401   3.592   2.796   1.517
 5481SOL    HW118402   3.630   2.887   1.532
 5481SOL    HW218403   3.584   2.779   1.418
 5482SOL     OW18404   2.721   3.236   0.016
 5482SOL    HW118405   2.675   3.251   0.104
 5482SOL    HW218406   2.765   3.321  -0.014
 5483SOL     OW18407   3.270   3.713   1.720
 5483SOL    HW118408   3.174   3.702   1.693
 5483SOL    HW218409   3.326   3.646   1.672
 5484SOL     OW18410   2.721   2.818   0.861
 5484SOL    HW118411   2.775   2.749   0.909
 5484SOL    HW218412   2.689   2.887   0.927
 5485SOL     OW18413   2.945   2.846   0.087
 5485SOL    HW118414   2.922   2.899   0.005
 5485SOL    HW218415   3.026   2.790   0.068
 5486SOL     OW18416   3.723   3.431   0.851
 5486SOL    HW118417   3.652   3.419   0.781
 5486SOL    HW218418   3.724   3.352   0.911
 5487SOL     OW18419   2.083   3.176   1.844
 5487SOL    HW118420   2.018   3.103   1.823
 5487SOL    HW218421   2.087   3.190   1.942
 5488SOL     OW18422   1.941   3.102   0.653
 5488SOL    HW118423   1.940   3.055   0.741
 5488SOL    HW218424   2.023   3.074   0.602
 5489SOL     OW18425   2.534   3.253   1.624
 5489SOL    HW118426   2.456   3.203   1.662
 5489SOL    HW218427   2.531   3.348   1.655
 5490SOL     OW18428   3.686   2.054   1.227
 5490SOL    HW118429   3.682   1.964   1.271
 5490SOL    HW218430   3.689   2.043   1.128
 5491SOL     OW18431   2.290   2.286   0.520
 5491SOL    HW118432   2.320   2.214   0.458
 5491SOL    HW218433   2.251   2.246   0.603
 5492SOL     OW18434   3.567   3.349   1.104
 5492SOL    HW118435   3.474   3.324   1.077
 5492SOL    HW218436   3.593   3.299   1.186
 5493SOL     OW18437   2.179   2.409   1.280
 5493SOL    HW118438   2.217   2.350   1.352
 5493SOL    HW218439   2.219   2.383   1.192
 5494SOL     OW18440   3.286   2.076   1.112
 5494SOL    HW118441   3.338   2.011   1.167
 5494SOL    HW218442   3.237   2.139   1.173
 5495SOL     OW18443   2.863   1.896   1.154
 5495SOL    HW118444   2.800   1.824   1.123
 5495SOL    HW218445   2.956   1.860   1.154
 5496SOL     OW18446   2.480   3.429   1.284
 5496SOL    HW118447   2.475   3.511   1.341
 5496SOL    HW218448   2.569   3.426   1.239
 5497SOL     OW18449   3.162   2.315   0.691
 5497SOL    HW118450   3.103   2.395   0.695
 5497SOL    HW218451   3.177   2.280   0.784
 5498SOL     OW18452   3.455   2.083   0.882
 5498SOL    HW118453   3.371   2.082   0.936
 5498SOL    HW218454   3.457   2.166   0.826
 5499SOL     OW18455   1.901   2.939   0.300
 5499SOL    HW118456   2.000   2.928   0.291
 5499SOL    HW218457   1.861   2.853   0.332
 5500SOL     OW18458   2.092   2.490   1.975
 5500SOL    HW118459   1.999   2.488   2.012
 5500SOL    HW218460   2.093   2.451   1.883
 5501SOL     OW18461   2.087   2.137   2.858
 5501SOL    HW118462   2.122   2.120   2.950
 5501SOL    HW218463   1.999   2.092   2.846
 5502SOL     OW18464   1.881   2.230   2.509
 5502SOL    HW118465   1.799   2.273   2.548
 5502SOL    HW218466   1.853   2.157   2.446
 5503SOL     OW18467   2.431   3.137   3.027
 5503SOL    HW118468   2.338   3.130   2.990
 5503SOL    HW218469   2.442   3.226   3.071
 5504SOL     OW18470   3.417   3.373   2.565
 5504SOL    HW118471   3.360   3.357   2.646
 5504SOL    HW218472   3.358   3.383   2.485
 5505SOL     OW18473   3.605   2.480   2.718
 5505SOL    HW118474   3.638   2.574   2.718
 5505SOL    HW218475   3.656   2.426   2.784
 5506SOL     OW18476   2.997   2.565   2.579
 5506SOL    HW118477   3.054   2.643   2.554
 5506SOL    HW218478   2.937   2.591   2.655
 5507SOL     OW18479   3.617   2.469   2.093
 5507SOL    HW118480   3.605   2.456   1.994
 5507SOL    HW218481   3.587   2.388   2.142
 5508SOL     OW18482   2.630   3.006   2.885
 5508SOL    HW118483   2.552   3.023   2.945
 5508SOL    HW218484   2.664   3.093   2.849
 5509SOL     OW18485   2.712   2.660   3.685
 5509SOL    HW118486   2.708   2.736   3.750
 5509SOL    HW218487   2.734   2.696   3.594
 5510SOL     OW18488   2.547   2.874   2.527
 5510SOL    HW118489   2.616   2.858   2.597
 5510SOL    HW218490   2.474   2.931   2.565
 5511SOL     OW18491   2.548   3.023   3.665
 5511SOL    HW118492   2.608   3.102   3.679
 5511SOL    HW218493   2.462   3.054   3.624
 5512SOL     OW18494   2.197   3.297   2.923
 5512SOL    HW118495   2.119   3.266   2.870
 5512SOL    HW218496   2.255   3.355   2.866
 5513SOL     OW18497   3.322   3.367   3.201
 5513SOL    HW118498   3.346   3.461   3.227
 5513SOL    HW218499   3.306   3.313   3.283
 5514SOL     OW18500   2.300   2.254   3.361
 5514SOL    HW118501   2.382   2.198   3.370
 5514SOL    HW218502   2.219   2.196   3.365
 5515SOL     OW18503   3.465   2.309   2.599
 5515SOL    HW118504   3.391   2.355   2.549
 5515SOL    HW218505   3.516   2.377   2.652
 5516SOL     OW18506   2.093   3.575   2.345
 5516SOL    HW118507   2.127   3.652   2.399
 5516SOL    HW218508   2.137   3.575   2.255
 5517SOL     OW18509   2.989   3.203   3.552
 5517SOL    HW118510   3.036   3.203   3.640
 5517SOL    HW218511   2.941   3.116   3.541
 5518SOL     OW18512   2.092   3.296   2.400
 5518SOL    HW118513   2.066   3.392   2.400
 5518SOL    HW218514   2.021   3.242   2.445
 5519SOL     OW18515   2.102   2.953   2.748
 5519SOL    HW118516   2.116   2.869   2.800
 5519SOL    HW218517   2.047   3.017   2.803
 5520SOL     OW18518   2.482   3.648   3.301
 5520SOL    HW118519   2.390   3.631   3.336
 5520SOL    HW218520   2.510   3.740   3.327
 5521SOL     OW18521   2.468   2.826   1.985
 5521SOL    HW118522   2.475   2.910   1.931
 5521SOL    HW218523   2.514   2.839   2.073
 5522SOL     OW18524   3.456   1.976   3.342
 5522SOL    HW118525   3.438   2.043   3.270
 5522SOL    HW218526   3.453   2.022   3.431
 5523SOL     OW18527   1.984   2.505   2.425
 5523SOL    HW118528   1.939   2.417   2.442
 5523SOL    HW218529   1.983   2.559   2.509
 5524SOL     OW18530   3.704   3.629   2.221
 5524SOL    HW118531   3.758   3.600   2.301
 5524SOL    HW218532   3.734   3.719   2.192
 5525SOL     OW18533   1.889   3.458   1.979
 5525SOL    HW118534   1.870   3.362   2.000
 5525SOL    HW218535   1.856   3.516   2.054
 5526SOL     OW18536   3.551   2.784   2.474
 5526SOL    HW118537   3.646   2.755   2.482
 5526SOL    HW218538   3.543   2.849   2.399
 5527SOL     OW18539   3.503   2.970   2.294
 5527SOL    HW118540   3.589   2.972   2.242
 5527SOL    HW218541   3.517   3.017   2.382
 5528SOL     OW18542   1.975   2.599   3.459
 5528SOL    HW118543   2.063   2.586   3.504
 5528SOL    HW218544   1.962   2.696   3.437
 5529SOL     OW18545   2.475   3.227   2.588
 5529SOL    HW118546   2.426   3.140   2.597
 5529SOL    HW218547   2.452   3.270   2.501
 5530SOL     OW18548   3.155   3.090   3.285
 5530SOL    HW118549   3.192   3.017   3.227
 5530SOL    HW218550   3.207   3.095   3.370
 5531SOL     OW18551   2.671   1.866   2.364
 5531SOL    HW118552   2.711   1.957   2.355
 5531SOL    HW218553   2.571   1.874   2.370
 5532SOL     OW18554   2.059   2.838   3.126
 5532SOL    HW118555   2.148   2.793   3.112
 5532SOL    HW218556   1.986   2.773   3.107
 5533SOL     OW18557   3.387   2.861   2.052
 5533SOL    HW118558   3.324   2.785   2.065
 5533SOL    HW218559   3.435   2.879   2.138
 5534SOL     OW18560   3.049   3.654   3.478
 5534SOL    HW118561   3.073   3.714   3.402
 5534SOL    HW218562   3.056   3.559   3.448
 5535SOL     OW18563   2.179   2.113   3.663
 5535SOL    HW118564   2.250   2.184   3.669
 5535SOL    HW218565   2.091   2.152   3.691
 5536SOL     OW18566   3.328   3.279   2.815
 5536SOL    HW118567   3.269   3.285   2.895
 5536SOL    HW218568   3.313   3.191   2.769
 5537SOL     OW18569   3.529   3.576   2.434
 5537SOL    HW118570   3.488   3.553   2.346
 5537SOL    HW218571   3.511   3.502   2.499
 5538SOL     OW18572   2.460   2.591   2.132
 5538SOL    HW118573   2.484   2.660   2.064
 5538SOL    HW218574   2.382   2.624   2.186
 5539SOL     OW18575   3.143   2.207   2.806
 5539SOL    HW118576   3.057   2.157   2.793
 5539SOL    HW218577   3.205   2.153   2.862
 5540SOL     OW18578   3.438   3.524   2.169
 5540SOL    HW118579   3.527   3.570   2.172
 5540SOL    HW218580   3.417   3.500   2.074
 5541SOL     OW18581   2.669   2.467   3.327
 5541SOL    HW118582   2.622   2.464   3.416
 5541SOL    HW218583   2.618   2.412   3.261
 5542SOL     OW18584   3.256   2.331   3.536
 5542SOL    HW118585   3.236   2.374   3.624
 5542SOL    HW218586   3.334   2.269   3.545
 5543SOL     OW18587   2.835   2.752   3.434
 5543SOL    HW118588   2.881   2.668   3.405
 5543SOL    HW218589   2.779   2.786   3.359
 5544SOL     OW18590   2.853   2.272   3.104
 5544SOL    HW118591   2.776   2.306   3.158
 5544SOL    HW218592   2.819   2.221   3.025
 5545SOL     OW18593   2.903   2.563   2.291
 5545SOL    HW118594   2.929   2.559   2.387
 5545SOL    HW218595   2.818   2.512   2.277
 5546SOL     OW18596   1.938   2.673   2.651
 5546SOL    HW118597   2.037   2.661   2.660
 5546SOL    HW218598   1.914   2.768   2.672
 5547SOL     OW18599   1.992   3.683   3.433
 5547SOL    HW118600   1.982   3.668   3.532
 5547SOL    HW218601   1.906   3.719   3.397
 5548SOL     OW18602   2.727   2.210   2.057
 5548SOL    HW118603   2.786   2.273   2.008
 5548SOL    HW218604   2.746   2.116   2.028
 5549SOL     OW18605   3.581   2.447   3.693
 5549SOL    HW118606   3.555   2.536   3.657
 5549SOL    HW218607   3.579   2.379   3.620
 5550SOL     OW18608   3.224   3.006   2.407
 5550SOL    HW118609   3.307   2.977   2.359
 5550SOL    HW218610   3.175   3.073   2.351
 5551SOL     OW18611   2.412   2.058   2.747
 5551SOL    HW118612   2.407   2.053   2.847
 5551SOL    HW218613   2.414   2.154   2.718
 5552SOL     OW18614   2.870   3.318   2.339
 5552SOL    HW118615   2.824   3.390   2.287
 5552SOL    HW218616   2.866   3.338   2.437
 5553SOL     OW18617   2.213   3.663   2.715
 5553SOL    HW118618   2.263   3.577   2.721
 5553SOL    HW218619   2.278   3.740   2.712
 5554SOL     OW18620   3.657   2.928   2.735
 5554SOL    HW118621   3.595   2.913   2.659
 5554SOL    HW218622   3.605   2.939   2.820
 5555SOL     OW18623   3.089   3.412   3.368
 5555SOL    HW118624   3.095   3.335   3.432
 5555SOL    HW218625   3.037   3.386   3.288
 5556SOL     OW18626   2.183   2.805   2.104
 5556SOL    HW118627   2.265   2.844   2.062
 5556SOL    HW218628   2.156   2.723   2.055
 5557SOL     OW18629   3.320   2.597   2.590
 5557SOL    HW118630   3.315   2.532   2.665
 5557SOL    HW218631   3.400   2.656   2.603
 5558SOL     OW18632   2.323   3.128   3.589
 5558SOL    HW118633   2.273   3.129   3.503
 5558SOL    HW218634   2.260   3.110   3.665
 5559SOL     OW18635   2.973   3.638   2.099
 5559SOL    HW118636   2.913   3.576   2.149
 5559SOL    HW218637   3.004   3.594   2.014
 5560SOL     OW18638   2.064   2.147   3.360
 5560SOL    HW118639   1.984   2.207   3.347
 5560SOL    HW218640   2.054   2.098   3.446
 5561SOL     OW18641   3.494   3.239   1.943
 5561SOL    HW118642   3.462   3.333   1.933
 5561SOL    HW218643   3.418   3.176   1.931
 5562SOL     OW18644   2.326   3.605   2.185
 5562SOL    HW118645   2.359   3.644   2.271
 5562SOL    HW218646   2.402   3.598   2.120
 5563SOL     OW18647   3.262   1.969   2.288
 5563SOL    HW118648   3.238   1.932   2.198
 5563SOL    HW218649   3.361   1.985   2.292
 5564SOL     OW18650   2.111   3.647   3.103
 5564SOL    HW118651   2.168   3.582   3.153
 5564SOL    HW218652   2.095   3.614   3.010
 5565SOL     OW18653   2.802   3.560   2.766
 5565SOL    HW118654   2.882   3.503   2.787
 5565SOL    HW218655   2.753   3.520   2.689
 5566SOL     OW18656   2.244   2.562   2.342
 5566SOL    HW118657   2.289   2.472   2.339
 5566SOL    HW218658   2.150   2.551   2.375
 5567SOL     OW18659   3.409   2.084   3.591
 5567SOL    HW118660   3.404   2.121   3.683
 5567SOL    HW218661   3.337   2.015   3.579
 5568SOL     OW18662   2.476   1.984   1.979
 5568SOL    HW118663   2.574   1.962   1.986
 5568SOL    HW218664   2.445   1.967   1.886
 5569SOL     OW18665   2.643   2.126   3.611
 5569SOL    HW118666   2.710   2.065   3.654
 5569SOL    HW218667   2.570   2.145   3.676
 5570SOL     OW18668   2.750   3.376   3.057
 5570SOL    HW118669   2.727   3.351   2.963
 5570SOL    HW218670   2.811   3.307   3.096
 5571SOL     OW18671   3.213   2.452   3.295
 5571SOL    HW118672   3.241   2.409   3.380
 5571SOL    HW218673   3.238   2.548   3.296
 5572SOL     OW18674   2.665   3.264   2.786
 5572SOL    HW118675   2.755   3.278   2.744
 5572SOL    HW218676   2.594   3.266   2.715
 5573SOL     OW18677   2.784   2.365   2.761
 5573SOL    HW118678   2.759   2.356   2.665
 5573SOL    HW218679   2.832   2.283   2.792
 5574SOL     OW18680   2.401   1.926   2.374
 5574SOL    HW118681   2.320   1.927   2.432
 5574SOL    HW218682   2.404   2.009   2.319
 5575SOL     OW18683   3.296   3.050   1.903
 5575SOL    HW118684   3.328   2.974   1.960
 5575SOL    HW218685   3.204   3.077   1.933
 5576SOL     OW18686   2.159   1.897   2.033
 5576SOL    HW118687   2.208   1.981   2.012
 5576SOL    HW218688   2.221   1.832   2.078
 5577SOL     OW18689   2.797   2.098   2.342
 5577SOL    HW118690   2.749   2.139   2.264
 5577SOL    HW218691   2.896   2.096   2.323
 5578SOL     OW18692   2.938   2.545   3.326
 5578SOL    HW118693   2.858   2.484   3.329
 5578SOL    HW218694   3.019   2.492   3.302
 5579SOL     OW18695   3.089   3.432   2.655
 5579SOL    HW118696   3.110   3.506   2.590
 5579SOL    HW218697   3.157   3.432   2.728
 5580SOL     OW18698   2.321   3.014   2.603
 5580SOL    HW118699   2.250   2.987   2.668
 5580SOL    HW218700   2.295   2.986   2.510
 5581SOL     OW18701   3.133   3.659   2.453
 5581SOL    HW118702   3.177   3.723   2.389
 5581SOL    HW218703   3.083   3.711   2.523
 5582SOL     OW18704   2.894   2.411   1.878
 5582SOL    HW118705   2.853   2.493   1.839
 5582SOL    HW218706   2.958   2.437   1.951
 5583SOL     OW18707   1.940   2.418   3.248
 5583SOL    HW118708   2.032   2.417   3.207
 5583SOL    HW218709   1.934   2.492   3.315
 5584SOL     OW18710   2.423   2.084   3.009
 5584SOL    HW118711   2.461   2.000   3.046
 5584SOL    HW218712   2.335   2.103   3.053
 5585SOL     OW18713   2.728   2.316   2.504
 5585SOL    HW118714   2.696   2.388   2.442
 5585SOL    HW218715   2.752   2.235   2.451
 5586SOL     OW18716   2.879   1.901   2.615
 5586SOL    HW118717   2.807   1.906   2.546
 5586SOL    HW218718   2.855   1.832   2.684
 5587SOL     OW18719   3.291   3.035   2.729
 5587SOL    HW118720   3.236   2.951   2.722
 5587SOL    HW218721   3.317   3.064   2.637
 5588SOL     OW18722   3.328   2.452   2.854
 5588SOL    HW118723   3.298   2.357   2.861
 5588SOL    HW218724   3.401   2.468   2.920
 5589SOL     OW18725   3.719   2.695   2.239
 5589SOL    HW118726   3.761   2.631   2.303
 5589SOL    HW218727   3.681   2.644   2.161
 5590SOL     OW18728   2.350   3.247   2.036
 5590SOL    HW118729   2.263   3.232   2.083
 5590SOL    HW218730   2.333   3.273   1.941
 5591SOL     OW18731   3.526   3.142   2.519
 5591SOL    HW118732   3.625   3.150   2.533
 5591SOL    HW218733   3.481   3.226   2.550
 5592SOL     OW18734   3.252   2.437   1.940
 5592SOL    HW118735   3.198   2.416   2.021
 5592SOL    HW218736   3.343   2.396   1.949
 5593SOL     OW18737   2.389   2.118   2.190
 5593SOL    HW118738   2.416   2.059   2.115
 5593SOL    HW218739   2.389   2.213   2.159
 5594SOL     OW18740   3.616   3.085   3.450
 5594SOL    HW118741   3.707   3.046   3.437
 5594SOL    HW218742   3.624   3.181   3.474
 5595SOL     OW18743   2.926   3.209   3.202
 5595SOL    HW118744   2.846   3.186   3.257
 5595SOL    HW218745   3.009   3.183   3.251
 5596SOL     OW18746   3.454   3.491   3.487
 5596SOL    HW118747   3.481   3.525   3.397
 5596SOL    HW218748   3.533   3.453   3.533
 5597SOL     OW18749   2.973   3.057   2.962
 5597SOL    HW118750   2.933   3.101   3.043
 5597SOL    HW218751   2.932   3.094   2.879
 5598SOL     OW18752   3.500   2.961   2.941
 5598SOL    HW118753   3.505   3.042   3.000
 5598SOL    HW218754   3.414   2.963   2.890
 5599SOL     OW18755   2.777   1.951   3.264
 5599SOL    HW118756   2.802   1.931   3.169
 5599SOL    HW218757   2.849   2.007   3.306
 5600SOL     OW18758   2.842   2.978   3.581
 5600SOL    HW118759   2.743   2.984   3.591
 5600SOL    HW218760   2.865   2.898   3.525
 5601SOL     OW18761   2.567   2.912   2.230
 5601SOL    HW118762   2.553   2.919   2.329
 5601SOL    HW218763   2.651   2.861   2.212
 5602SOL     OW18764   2.272   2.675   3.113
 5602SOL    HW118765   2.358   2.687   3.163
 5602SOL    HW218766   2.230   2.588   3.140
 5603SOL     OW18767   3.136   2.248   3.124
 5603SOL    HW118768   3.157   2.322   3.188
 5603SOL    HW218769   3.047   2.265   3.081
 5604SOL     OW18770   1.926   3.426   3.193
 5604SOL    HW118771   1.880   3.508   3.159
 5604SOL    HW218772   2.024   3.445   3.202
 5605SOL     OW18773   2.229   2.962   2.363
 5605SOL    HW118774   2.222   3.045   2.307
 5605SOL    HW218775   2.233   2.882   2.303
 5606SOL     OW18776   2.428   2.399   2.727
 5606SOL    HW118777   2.440   2.465   2.653
 5606SOL    HW218778   2.474   2.433   2.810
 5607SOL     OW18779   3.114   3.210   2.250
 5607SOL    HW118780   3.164   3.287   2.290
 5607SOL    HW218781   3.019   3.212   2.282
 5608SOL     OW18782   3.134   3.307   3.004
 5608SOL    HW118783   3.181   3.320   3.091
 5608SOL    HW218784   3.068   3.233   3.013
 5609SOL     OW18785   3.444   2.501   2.334
 5609SOL    HW118786   3.413   2.562   2.407
 5609SOL    HW218787   3.494   2.553   2.265
 5610SOL     OW18788   2.216   3.372   3.191
 5610SOL    HW118789   2.195   3.328   3.104
 5610SOL    HW218790   2.313   3.398   3.194
 5611SOL     OW18791   2.264   2.613   3.460
 5611SOL    HW118792   2.332   2.668   3.413
 5611SOL    HW218793   2.304   2.525   3.487
 5612SOL     OW18794   3.449   2.641   3.532
 5612SOL    HW118795   3.357   2.679   3.527
 5612SOL    HW218796   3.509   2.688   3.467
 5613SOL     OW18797   2.875   1.967   3.632
 5613SOL    HW118798   2.881   2.052   3.580
 5613SOL    HW218799   2.907   1.891   3.575
 5614SOL     OW18800   2.366   1.912   3.602
 5614SOL    HW118801   2.324   1.855   3.532
 5614SOL    HW218802   2.300   1.981   3.634
 5615SOL     OW18803   2.435   2.732   2.891
 5615SOL    HW118804   2.479   2.821   2.882
 5615SOL    HW218805   2.372   2.732   2.968
 5616SOL     OW18806   3.222   2.724   2.907
 5616SOL    HW118807   3.147   2.724   2.841
 5616SOL    HW218808   3.259   2.632   2.916
 5617SOL     OW18809   3.071   2.387   2.137
 5617SOL    HW118810   3.084   2.303   2.191
 5617SOL    HW218811   3.042   2.461   2.197
 5618SOL     OW18812   2.169   2.075   3.093
 5618SOL    HW118813   2.146   2.112   3.183
 5618SOL    HW218814   2.139   1.980   3.087
 5619SOL     OW18815   1.899   3.172   3.144
 5619SOL    HW118816   1.952   3.123   3.212
 5619SOL    HW218817   1.921   3.270   3.149
 5620SOL     OW18818   2.594   2.496   2.926
 5620SOL    HW118819   2.653   2.470   2.850
 5620SOL    HW218820   2.566   2.592   2.915
 5621SOL     OW18821   3.590   2.797   3.716
 5621SOL    HW118822   3.544   2.790   3.627
 5621SOL    HW218823   3.528   2.841   3.782
 5622SOL     OW18824   2.169   1.925   2.480
 5622SOL    HW118825   2.158   2.019   2.513
 5622SOL    HW218826   2.164   1.862   2.557
 5623SOL     OW18827   3.484   2.229   2.236
 5623SOL    HW118828   3.486   2.153   2.300
 5623SOL    HW218829   3.436   2.306   2.276
 5624SOL     OW18830   2.885   2.628   2.828
 5624SOL    HW118831   2.900   2.649   2.924
 5624SOL    HW218832   2.855   2.533   2.819
 5625SOL     OW18833   2.842   3.435   3.562
 5625SOL    HW118834   2.822   3.479   3.474
 5625SOL    HW218835   2.881   3.344   3.546
 5626SOL     OW18836   3.721   3.380   3.467
 5626SOL    HW118837   3.735   3.407   3.372
 5626SOL    HW218838   3.804   3.402   3.520
 5627SOL     OW18839   2.212   2.760   3.666
 5627SOL    HW118840   2.288   2.804   3.714
 5627SOL    HW218841   2.247   2.713   3.584
 5628SOL     OW18842   3.402   2.136   1.987
 5628SOL    HW118843   3.341   2.061   2.010
 5628SOL    HW218844   3.424   2.188   2.070
 5629SOL     OW18845   3.165   2.700   1.904
 5629SOL    HW118846   3.199   2.607   1.919
 5629SOL    HW218847   3.183   2.727   1.809
 5630SOL     OW18848   2.930   3.195   2.711
 5630SOL    HW118849   2.937   3.111   2.656
 5630SOL    HW218850   2.992   3.264   2.675
 5631SOL     OW18851   2.181   2.672   2.811
 5631SOL    HW118852   2.274   2.708   2.816
 5631SOL    HW218853   2.175   2.587   2.863
 5632SOL     OW18854   2.201   2.371   2.868
 5632SOL    HW118855   2.149   2.288   2.851
 5632SOL    HW218856   2.278   2.376   2.804
 5633SOL     OW18857   2.373   2.277   3.670
 5633SOL    HW118858   2.355   2.322   3.758
 5633SOL    HW218859   2.415   2.342   3.607
 5634SOL     OW18860   3.000   2.242   3.540
 5634SOL    HW118861   2.955   2.305   3.604
 5634SOL    HW218862   3.093   2.273   3.523
 5635SOL     OW18863   3.022   2.069   3.339
 5635SOL    HW118864   3.022   2.133   3.416
 5635SOL    HW218865   3.050   2.117   3.256
 5636SOL     OW18866   1.870   3.188   2.062
 5636SOL    HW118867   1.777   3.209   2.031
 5636SOL    HW218868   1.880   3.089   2.075
 5637SOL     OW18869   1.950   3.663   2.789
 5637SOL    HW118870   1.908   3.577   2.762
 5637SOL    HW218871   2.044   3.666   2.755
 5638SOL     OW18872   2.366   3.430   2.772
 5638SOL    HW118873   2.432   3.504   2.781
 5638SOL    HW218874   2.410   3.351   2.730
 5639SOL     OW18875   2.864   2.658   3.100
 5639SOL    HW118876   2.905   2.626   3.186
 5639SOL    HW218877   2.768   2.631   3.097
 5640SOL     OW18878   1.902   2.406   2.976
 5640SOL    HW118879   1.987   2.373   2.935
 5640SOL    HW218880   1.915   2.421   3.074
 5641SOL     OW18881   2.051   2.382   3.584
 5641SOL    HW118882   2.110   2.342   3.514
 5641SOL    HW218883   1.993   2.453   3.543
 5642SOL     OW18884   3.231   2.812   3.522
 5642SOL    HW118885   3.270   2.901   3.542
 5642SOL    HW218886   3.241   2.792   3.425
 5643SOL     OW18887   2.677   2.434   2.187
 5643SOL    HW118888   2.684   2.345   2.141
 5643SOL    HW218889   2.583   2.468   2.179
 5644SOL     OW18890   3.519   2.466   3.068
 5644SOL    HW118891   3.481   2.397   3.130
 5644SOL    HW218892   3.601   2.430   3.024
 5645SOL     OW18893   2.114   3.426   3.606
 5645SOL    HW118894   2.084   3.483   3.682
 5645SOL    HW218895   2.107   3.329   3.632
 5646SOL     OW18896   2.533   2.326   3.131
 5646SOL    HW118897   2.499   2.237   3.101
 5646SOL    HW218898   2.559   2.380   3.051
 5647SOL     OW18899   2.792   3.540   3.327
 5647SOL    HW118900   2.768   3.522   3.232
 5647SOL    HW218901   2.822   3.634   3.337
 5648SOL     OW18902   2.335   2.362   2.053
 5648SOL    HW118903   2.396   2.442   2.057
 5648SOL    HW218904   2.240   2.393   2.060
 5649SOL     OW18905   2.021   2.999   3.328
 5649SOL    HW118906   2.043   2.938   3.404
 5649SOL    HW218907   2.031   2.950   3.242
 5650SOL     OW18908   3.209   2.921   3.096
 5650SOL    HW118909   3.233   2.858   3.022
 5650SOL    HW218910   3.119   2.961   3.078
 5651SOL     OW18911   3.164   2.717   2.171
 5651SOL    HW118912   3.078   2.686   2.213
 5651SOL    HW218913   3.160   2.703   2.072
 5652SOL     OW18914   3.621   3.609   3.016
 5652SOL    HW118915   3.682   3.639   2.943
 5652SOL    HW218916   3.583   3.520   2.994
 5653SOL     OW18917   3.114   3.593   2.990
 5653SOL    HW118918   3.198   3.598   2.936
 5653SOL    HW218919   3.091   3.497   3.008
 5654SOL     OW18920   1.945   3.120   2.884
 5654SOL    HW118921   1.940   3.119   2.984
 5654SOL    HW218922   1.862   3.079   2.846
 5655SOL     OW18923   2.550   3.524   3.578
 5655SOL    HW118924   2.494   3.605   3.587
 5655SOL    HW218925   2.602   3.528   3.492
 5656SOL     OW18926   2.765   1.948   1.995
 5656SOL    HW118927   2.816   1.949   1.909
 5656SOL    HW218928   2.821   1.906   2.066
 5657SOL     OW18929   3.588   1.997   2.385
 5657SOL    HW118930   3.661   1.980   2.318
 5657SOL    HW218931   3.557   1.910   2.423
 5658SOL     OW18932   3.250   3.435   2.339
 5658SOL    HW118933   3.317   3.447   2.265
 5658SOL    HW218934   3.210   3.524   2.362
 5659SOL     OW18935   1.992   3.656   3.713
 5659SOL    HW118936   1.951   3.582   3.766
 5659SOL    HW218937   2.056   3.707   3.771
 5660SOL     OW18938   3.142   2.789   2.534
 5660SOL    HW118939   3.202   2.708   2.536
 5660SOL    HW218940   3.182   2.858   2.474
 5661SOL     OW18941   2.692   3.135   3.284
 5661SOL    HW118942   2.687   3.168   3.379
 5661SOL    HW218943   2.606   3.154   3.238
 5662SOL     OW18944   2.534   3.478   2.016
 5662SOL    HW118945   2.543   3.488   1.917
 5662SOL    HW218946   2.494   3.389   2.037
 5663SOL     OW18947   3.512   3.582   3.256
 5663SOL    HW118948   3.565   3.592   3.172
 5663SOL    HW218949   3.485   3.672   3.290
 5664SOL     OW18950   3.703   2.037   2.825
 5664SOL    HW118951   3.742   1.952   2.789
 5664SOL    HW218952   3.605   2.039   2.806
 5665SOL     OW18953   2.125   2.188   2.582
 5665SOL    HW118954   2.046   2.239   2.548
 5665SOL    HW218955   2.116   2.173   2.680
 5666SOL     OW18956   3.056   3.474   1.893
 5666SOL    HW118957   3.062   3.381   1.930
 5666SOL    HW218958   2.997   3.474   1.813
 5667SOL     OW18959   2.684   2.864   3.234
 5667SOL    HW118960   2.724   2.863   3.142
 5667SOL    HW218961   2.694   2.956   3.274
 5668SOL     OW18962   2.778   2.772   2.153
 5668SOL    HW118963   2.841   2.810   2.085
 5668SOL    HW218964   2.818   2.689   2.192
 5669SOL     OW18965   3.366   3.469   1.906
 5669SOL    HW118966   3.274   3.506   1.913
 5669SOL    HW218967   3.404   3.489   1.816
 5670SOL     OW18968   2.234   3.150   3.352
 5670SOL    HW118969   2.221   3.243   3.318
 5670SOL    HW218970   2.150   3.098   3.339
 5671SOL     OW18971   3.476   3.154   3.151
 5671SOL    HW118972   3.536   3.157   3.231
 5671SOL    HW218973   3.401   3.218   3.164
 5672SOL     OW18974   2.901   2.960   2.558
 5672SOL    HW118975   2.831   2.913   2.612
 5672SOL    HW218976   2.960   2.892   2.515
 5673SOL     OW18977   2.876   2.098   2.833
 5673SOL    HW118978   2.868   2.062   2.740
 5673SOL    HW218979   2.874   2.022   2.898
 5674SOL     OW18980   2.452   3.349   2.353
 5674SOL    HW118981   2.494   3.291   2.283
 5674SOL    HW218982   2.408   3.428   2.309
 5675SOL     OW18983   3.571   2.247   3.243
 5675SOL    HW118984   3.644   2.316   3.247
 5675SOL    HW218985   3.599   2.172   3.184
 5676SOL     OW18986   2.117   3.210   2.152
 5676SOL    HW118987   2.021   3.211   2.125
 5676SOL    HW218988   2.129   3.263   2.236
 5677SOL     OW18989   1.967   2.875   3.588
 5677SOL    HW118990   1.890   2.842   3.642
 5677SOL    HW218991   2.052   2.845   3.630
 5678SOL     OW18992   2.534   2.065   3.351
 5678SOL    HW118993   2.624   2.049   3.311
 5678SOL    HW218994   2.542   2.070   3.450
 5679SOL     OW18995   1.937   2.207   1.895
 5679SOL    HW118996   1.845   2.179   1.866
 5679SOL    HW218997   1.968   2.284   1.839
 5680SOL     OW18998   3.302   2.718   3.260
 5680SOL    HW118999   3.245   2.770   3.197
 5680SOL    HW219000   3.398   2.730   3.236
 5681SOL     OW19001   1.934   2.028   2.180
 5681SOL    HW119002   1.917   2.111   2.126
 5681SOL    HW219003   2.024   1.991   2.158
 5682SOL     OW19004   3.045   3.197   1.981
 5682SOL    HW119005   2.946   3.186   1.983
 5682SOL    HW219006   3.079   3.212   2.074
 5683SOL     OW19007   2.475   2.704   3.293
 5683SOL    HW119008   2.531   2.785   3.276
 5683SOL    HW219009   2.534   2.624   3.296
 5684SOL     OW19010   3.355   3.629   2.821
 5684SOL    HW119011   3.388   3.693   2.752
 5684SOL    HW219012   3.421   3.623   2.896
 5685SOL     OW19013   2.578   2.427   3.570
 5685SOL    HW119014   2.597   2.492   3.644
 5685SOL    HW219015   2.638   2.347   3.579
 5686SOL     OW19016   3.312   3.082   3.495
 5686SOL    HW119017   3.303   3.072   3.594
 5686SOL    HW219018   3.408   3.075   3.469
 5687SOL     OW19019   2.252   3.603   3.422
 5687SOL    HW119020   2.161   3.644   3.420
 5687SOL    HW219021   2.245   3.509   3.454
 5688SOL     OW19022   3.536   2.745   3.116
 5688SOL    HW119023   3.509   2.656   3.079
 5688SOL    HW219024   3.537   2.813   3.043
 5689SOL     OW19025   3.087   2.187   2.311
 5689SOL    HW119026   3.152   2.113   2.300
 5689SOL    HW219027   3.107   2.237   2.395
 5690SOL     OW19028   2.456   2.607   2.514
 5690SOL    HW119029   2.506   2.692   2.495
 5690SOL    HW219030   2.368   2.609   2.466
 5691SOL     OW19031   3.639   2.204   3.504
 5691SOL    HW119032   3.622   2.235   3.410
 5691SOL    HW219033   3.555   2.167   3.542
 5692SOL     OW19034   3.592   2.796   3.379
 5692SOL    HW119035   3.630   2.887   3.394
 5692SOL    HW219036   3.584   2.779   3.280
 5693SOL     OW19037   2.721   3.236   1.878
 5693SOL    HW119038   2.675   3.251   1.966
 5693SOL    HW219039   2.765   3.321   1.848
 5694SOL     OW19040   2.523   3.652   2.815
 5694SOL    HW119041   2.477   3.740   2.802
 5694SOL    HW219042   2.622   3.664   2.808
 5695SOL     OW19043   3.270   3.713   3.582
 5695SOL    HW119044   3.174   3.702   3.555
 5695SOL    HW219045   3.326   3.646   3.534
 5696SOL     OW19046   2.721   2.818   2.723
 5696SOL    HW119047   2.775   2.749   2.771
 5696SOL    HW219048   2.689   2.887   2.789
 5697SOL     OW19049   2.945   2.846   1.949
 5697SOL    HW119050   2.922   2.899   1.867
 5697SOL    HW219051   3.026   2.790   1.930
 5698SOL     OW19052   3.723   3.431   2.713
 5698SOL    HW119053   3.652   3.419   2.643
 5698SOL    HW219054   3.724   3.352   2.773
 5699SOL     OW19055   2.083   3.176   3.706
 5699SOL    HW119056   2.018   3.103   3.685
 5699SOL    HW219057   2.087   3.190   3.804
 5700SOL     OW19058   1.941   3.102   2.515
 5700SOL    HW119059   1.940   3.055   2.603
 5700SOL    HW219060   2.023   3.074   2.464
 5701SOL     OW19061   2.534   3.253   3.486
 5701SOL    HW119062   2.456   3.203   3.524
 5701SOL    HW219063   2.531   3.348   3.517
 5702SOL     OW19064   3.686   2.054   3.089
 5702SOL    HW119065   3.682   1.964   3.133
 5702SOL    HW219066   3.689   2.043   2.990
 5703SOL     OW19067   2.290   2.286   2.382
 5703SOL    HW119068   2.320   2.214   2.320
 5703SOL    HW219069   2.251   2.246   2.465
 5704SOL     OW19070   3.567   3.349   2.966
 5704SOL    HW119071   3.474   3.324   2.939
 5704SOL    HW219072   3.593   3.299   3.048
 5705SOL     OW19073   2.179   2.409   3.142
 5705SOL    HW119074   2.217   2.350   3.214
 5705SOL    HW219075   2.219   2.383   3.054
 5706SOL     OW19076   2.674   3.448   2.549
 5706SOL    HW119077   2.706   3.458   2.455
 5706SOL    HW219078   2.595   3.386   2.551
 5707SOL     OW19079   3.286   2.076   2.974
 5707SOL    HW119080   3.338   2.011   3.029
 5707SOL    HW219081   3.237   2.139   3.035
 5708SOL     OW19082   2.863   1.896   3.016
 5708SOL    HW119083   2.800   1.824   2.985
 5708SOL    HW219084   2.956   1.860   3.016
 5709SOL     OW19085   2.632   3.192   2.163
 5709SOL    HW119086   2.586   3.105   2.180
 5709SOL    HW219087   2.723   3.189   2.204
 5710SOL     OW19088   2.480   3.429   3.146
 5710SOL    HW119089   2.475   3.511   3.203
 5710SOL    HW219090   2.569   3.426   3.101
 5711SOL     OW19091   3.214   1.914   2.030
 5711SOL    HW119092   3.249   1.873   1.946
 5711SOL    HW219093   3.124   1.876   2.050
 5712SOL     OW19094   3.162   2.315   2.553
 5712SOL    HW119095   3.103   2.395   2.557
 5712SOL    HW219096   3.177   2.280   2.646
 5713SOL     OW19097   3.455   2.083   2.744
 5713SOL    HW119098   3.371   2.082   2.798
 5713SOL    HW219099   3.457   2.166   2.688
 5714SOL     OW19100   1.901   2.939   2.162
 5714SOL    HW119101   2.000   2.928   2.153
 5714SOL    HW219102   1.861   2.853   2.194
 5715SOL     OW19103   2.737   3.508   2.199
 5715SOL    HW119104   2.660   3.473   2.145
 5715SOL    HW219105   2.705   3.579   2.261
 5716SOL     OW19106   2.092   2.490   3.837
 5716SOL    HW119107   1.999   2.488   3.874
 5716SOL    HW219108   2.093   2.451   3.745
 5717SOL     OW19109   2.087   2.137   4.720
 5717SOL    HW119110   2.122   2.120   4.812
 5717SOL    HW219111   1.999   2.092   4.708
 5718SOL     OW19112   1.881   2.230   4.371
 5718SOL    HW119113   1.799   2.273   4.410
 5718SOL    HW219114   1.853   2.157   4.308
 5719SOL     OW19115   2.431   3.137   4.889
 5719SOL    HW119116   2.338   3.130   4.852
 5719SOL    HW219117   2.442   3.226   4.933
 5720SOL     OW19118   3.605   2.480   4.580
 5720SOL    HW119119   3.638   2.574   4.580
 5720SOL    HW219120   3.656   2.426   4.646
 5721SOL     OW19121   2.997   2.565   4.441
 5721SOL    HW119122   3.054   2.643   4.416
 5721SOL    HW219123   2.937   2.591   4.517
 5722SOL     OW19124   3.617   2.469   3.955
 5722SOL    HW119125   3.605   2.456   3.856
 5722SOL    HW219126   3.587   2.388   4.004
 5723SOL     OW19127   2.630   3.006   4.747
 5723SOL    HW119128   2.552   3.023   4.807
 5723SOL    HW219129   2.664   3.093   4.711
 5724SOL     OW19130   2.712   2.660   5.547
 5724SOL    HW119131   2.708   2.736   5.612
 5724SOL    HW219132   2.734   2.696   5.456
 5725SOL     OW19133   2.547   2.874   4.389
 5725SOL    HW119134   2.616   2.858   4.459
 5725SOL    HW219135   2.474   2.931   4.427
 5726SOL     OW19136   2.548   3.023   5.527
 5726SOL    HW119137   2.608   3.102   5.541
 5726SOL    HW219138   2.462   3.054   5.486
 5727SOL     OW19139   2.197   3.297   4.785
 5727SOL    HW119140   2.119   3.266   4.732
 5727SOL    HW219141   2.255   3.355   4.728
 5728SOL     OW19142   3.322   3.367   5.063
 5728SOL    HW119143   3.346   3.461   5.089
 5728SOL    HW219144   3.306   3.313   5.145
 5729SOL     OW19145   2.300   2.254   5.223
 5729SOL    HW119146   2.382   2.198   5.232
 5729SOL    HW219147   2.219   2.196   5.227
 5730SOL     OW19148   3.465   2.309   4.461
 5730SOL    HW119149   3.391   2.355   4.411
 5730SOL    HW219150   3.516   2.377   4.514
 5731SOL     OW19151   2.093   3.575   4.207
 5731SOL    HW119152   2.127   3.652   4.261
 5731SOL    HW219153   2.137   3.575   4.117
 5732SOL     OW19154   2.989   3.203   5.414
 5732SOL    HW119155   3.036   3.203   5.502
 5732SOL    HW219156   2.941   3.116   5.403
 5733SOL     OW19157   2.092   3.296   4.262
 5733SOL    HW119158   2.066   3.392   4.262
 5733SOL    HW219159   2.021   3.242   4.307
 5734SOL     OW19160   2.102   2.953   4.610
 5734SOL    HW119161   2.116   2.869   4.662
 5734SOL    HW219162   2.047   3.017   4.665
 5735SOL     OW19163   2.482   3.648   5.163
 5735SOL    HW119164   2.390   3.631   5.198
 5735SOL    HW219165   2.510   3.740   5.189
 5736SOL     OW19166   2.468   2.826   3.847
 5736SOL    HW119167   2.475   2.910   3.793
 5736SOL    HW219168   2.514   2.839   3.935
 5737SOL     OW19169   3.456   1.976   5.204
 5737SOL    HW119170   3.438   2.043   5.132
 5737SOL    HW219171   3.453   2.022   5.293
 5738SOL     OW19172   1.984   2.505   4.287
 5738SOL    HW119173   1.939   2.417   4.304
 5738SOL    HW219174   1.983   2.559   4.371
 5739SOL     OW19175   3.704   3.629   4.083
 5739SOL    HW119176   3.758   3.600   4.163
 5739SOL    HW219177   3.734   3.719   4.054
 5740SOL     OW19178   1.889   3.458   3.841
 5740SOL    HW119179   1.870   3.362   3.862
 5740SOL    HW219180   1.856   3.516   3.916
 5741SOL     OW19181   3.551   2.784   4.336
 5741SOL    HW119182   3.646   2.755   4.344
 5741SOL    HW219183   3.543   2.849   4.261
 5742SOL     OW19184   3.503   2.970   4.156
 5742SOL    HW119185   3.589   2.972   4.104
 5742SOL    HW219186   3.517   3.017   4.244
 5743SOL     OW19187   1.975   2.599   5.321
 5743SOL    HW119188   2.063   2.586   5.366
 5743SOL    HW219189   1.962   2.696   5.299
 5744SOL     OW19190   2.475   3.227   4.450
 5744SOL    HW119191   2.426   3.140   4.459
 5744SOL    HW219192   2.452   3.270   4.363
 5745SOL     OW19193   3.155   3.090   5.147
 5745SOL    HW119194   3.192   3.017   5.089
 5745SOL    HW219195   3.207   3.095   5.232
 5746SOL     OW19196   2.671   1.866   4.226
 5746SOL    HW119197   2.711   1.957   4.217
 5746SOL    HW219198   2.571   1.874   4.232
 5747SOL     OW19199   2.059   2.838   4.988
 5747SOL    HW119200   2.148   2.793   4.974
 5747SOL    HW219201   1.986   2.773   4.969
 5748SOL     OW19202   3.387   2.861   3.914
 5748SOL    HW119203   3.324   2.785   3.927
 5748SOL    HW219204   3.435   2.879   4.000
 5749SOL     OW19205   3.049   3.654   5.340
 5749SOL    HW119206   3.073   3.714   5.264
 5749SOL    HW219207   3.056   3.559   5.310
 5750SOL     OW19208   2.179   2.113   5.525
 5750SOL    HW119209   2.250   2.184   5.531
 5750SOL    HW219210   2.091   2.152   5.553
 5751SOL     OW19211   3.529   3.576   4.296
 5751SOL    HW119212   3.488   3.553   4.208
 5751SOL    HW219213   3.511   3.502   4.361
 5752SOL     OW19214   2.460   2.591   3.994
 5752SOL    HW119215   2.484   2.660   3.926
 5752SOL    HW219216   2.382   2.624   4.048
 5753SOL     OW19217   3.143   2.207   4.668
 5753SOL    HW119218   3.057   2.157   4.655
 5753SOL    HW219219   3.205   2.153   4.724
 5754SOL     OW19220   3.438   3.524   4.031
 5754SOL    HW119221   3.527   3.570   4.034
 5754SOL    HW219222   3.417   3.500   3.936
 5755SOL     OW19223   2.669   2.467   5.189
 5755SOL    HW119224   2.622   2.464   5.278
 5755SOL    HW219225   2.618   2.412   5.123
 5756SOL     OW19226   3.256   2.331   5.398
 5756SOL    HW119227   3.236   2.374   5.486
 5756SOL    HW219228   3.334   2.269   5.407
 5757SOL     OW19229   2.835   2.752   5.296
 5757SOL    HW119230   2.881   2.668   5.267
 5757SOL    HW219231   2.779   2.786   5.221
 5758SOL     OW19232   2.853   2.272   4.966
 5758SOL    HW119233   2.776   2.306   5.020
 5758SOL    HW219234   2.819   2.221   4.887
 5759SOL     OW19235   2.903   2.563   4.153
 5759SOL    HW119236   2.929   2.559   4.249
 5759SOL    HW219237   2.818   2.512   4.139
 5760SOL     OW19238   1.938   2.673   4.513
 5760SOL    HW119239   2.037   2.661   4.522
 5760SOL    HW219240   1.914   2.768   4.534
 5761SOL     OW19241   1.992   3.683   5.295
 5761SOL    HW119242   1.982   3.668   5.394
 5761SOL    HW219243   1.906   3.719   5.259
 5762SOL     OW19244   2.727   2.210   3.919
 5762SOL    HW119245   2.786   2.273   3.870
 5762SOL    HW219246   2.746   2.116   3.890
 5763SOL     OW19247   3.581   2.447   5.555
 5763SOL    HW119248   3.555   2.536   5.519
 5763SOL    HW219249   3.579   2.379   5.482
 5764SOL     OW19250   3.224   3.006   4.269
 5764SOL    HW119251   3.307   2.977   4.221
 5764SOL    HW219252   3.175   3.073   4.213
 5765SOL     OW19253   2.412   2.058   4.609
 5765SOL    HW119254   2.407   2.053   4.709
 5765SOL    HW219255   2.414   2.154   4.580
 5766SOL     OW19256   2.870   3.318   4.201
 5766SOL    HW119257   2.824   3.390   4.149
 5766SOL    HW219258   2.866   3.338   4.299
 5767SOL     OW19259   2.213   3.663   4.577
 5767SOL    HW119260   2.263   3.577   4.583
 5767SOL    HW219261   2.278   3.740   4.574
 5768SOL     OW19262   3.657   2.928   4.597
 5768SOL    HW119263   3.595   2.913   4.521
 5768SOL    HW219264   3.605   2.939   4.682
 5769SOL     OW19265   3.089   3.412   5.230
 5769SOL    HW119266   3.095   3.335   5.294
 5769SOL    HW219267   3.037   3.386   5.150
 5770SOL     OW19268   2.183   2.805   3.966
 5770SOL    HW119269   2.265   2.844   3.924
 5770SOL    HW219270   2.156   2.723   3.917
 5771SOL     OW19271   3.320   2.597   4.452
 5771SOL    HW119272   3.315   2.532   4.527
 5771SOL    HW219273   3.400   2.656   4.465
 5772SOL     OW19274   2.323   3.128   5.451
 5772SOL    HW119275   2.273   3.129   5.365
 5772SOL    HW219276   2.260   3.110   5.527
 5773SOL     OW19277   2.973   3.638   3.961
 5773SOL    HW119278   2.913   3.576   4.011
 5773SOL    HW219279   3.004   3.594   3.876
 5774SOL     OW19280   2.064   2.147   5.222
 5774SOL    HW119281   1.984   2.207   5.209
 5774SOL    HW219282   2.054   2.098   5.308
 5775SOL     OW19283   3.494   3.239   3.805
 5775SOL    HW119284   3.462   3.333   3.795
 5775SOL    HW219285   3.418   3.176   3.793
 5776SOL     OW19286   2.326   3.605   4.047
 5776SOL    HW119287   2.359   3.644   4.133
 5776SOL    HW219288   2.402   3.598   3.982
 5777SOL     OW19289   3.262   1.969   4.150
 5777SOL    HW119290   3.238   1.932   4.060
 5777SOL    HW219291   3.361   1.985   4.154
 5778SOL     OW19292   2.111   3.647   4.965
 5778SOL    HW119293   2.168   3.582   5.015
 5778SOL    HW219294   2.095   3.614   4.872
 5779SOL     OW19295   2.802   3.560   4.628
 5779SOL    HW119296   2.882   3.503   4.649
 5779SOL    HW219297   2.753   3.520   4.551
 5780SOL     OW19298   2.244   2.562   4.204
 5780SOL    HW119299   2.289   2.472   4.201
 5780SOL    HW219300   2.150   2.551   4.237
 5781SOL     OW19301   3.409   2.084   5.453
 5781SOL    HW119302   3.404   2.121   5.545
 5781SOL    HW219303   3.337   2.015   5.441
 5782SOL     OW19304   2.476   1.984   3.841
 5782SOL    HW119305   2.574   1.962   3.848
 5782SOL    HW219306   2.445   1.967   3.748
 5783SOL     OW19307   2.643   2.126   5.473
 5783SOL    HW119308   2.710   2.065   5.516
 5783SOL    HW219309   2.570   2.145   5.538
 5784SOL     OW19310   2.750   3.376   4.919
 5784SOL    HW119311   2.727   3.351   4.825
 5784SOL    HW219312   2.811   3.307   4.958
 5785SOL     OW19313   3.213   2.452   5.157
 5785SOL    HW119314   3.241   2.409   5.242
 5785SOL    HW219315   3.238   2.548   5.158
 5786SOL     OW19316   2.665   3.264   4.648
 5786SOL    HW119317   2.755   3.278   4.606
 5786SOL    HW219318   2.594   3.266   4.577
 5787SOL     OW19319   2.784   2.365   4.623
 5787SOL    HW119320   2.759   2.356   4.527
 5787SOL    HW219321   2.832   2.283   4.654
 5788SOL     OW19322   2.401   1.926   4.236
 5788SOL    HW119323   2.320   1.927   4.294
 5788SOL    HW219324   2.404   2.009   4.181
 5789SOL     OW19325   3.296   3.050   3.765
 5789SOL    HW119326   3.328   2.974   3.822
 5789SOL    HW219327   3.204   3.077   3.795
 5790SOL     OW19328   2.159   1.897   3.895
 5790SOL    HW119329   2.208   1.981   3.874
 5790SOL    HW219330   2.221   1.832   3.940
 5791SOL     OW19331   2.797   2.098   4.204
 5791SOL    HW119332   2.749   2.139   4.126
 5791SOL    HW219333   2.896   2.096   4.185
 5792SOL     OW19334   2.938   2.545   5.188
 5792SOL    HW119335   2.858   2.484   5.191
 5792SOL    HW219336   3.019   2.492   5.164
 5793SOL     OW19337   2.321   3.014   4.465
 5793SOL    HW119338   2.250   2.987   4.530
 5793SOL    HW219339   2.295   2.986   4.372
 5794SOL     OW19340   3.133   3.659   4.315
 5794SOL    HW119341   3.177   3.723   4.251
 5794SOL    HW219342   3.083   3.711   4.385
 5795SOL     OW19343   2.894   2.411   3.740
 5795SOL    HW119344   2.853   2.493   3.701
 5795SOL    HW219345   2.958   2.437   3.813
 5796SOL     OW19346   1.940   2.418   5.110
 5796SOL    HW119347   2.032   2.417   5.069
 5796SOL    HW219348   1.934   2.492   5.177
 5797SOL     OW19349   2.423   2.084   4.871
 5797SOL    HW119350   2.461   2.000   4.908
 5797SOL    HW219351   2.335   2.103   4.915
 5798SOL     OW19352   2.728   2.316   4.366
 5798SOL    HW119353   2.696   2.388   4.304
 5798SOL    HW219354   2.752   2.235   4.313
 5799SOL     OW19355   2.879   1.901   4.477
 5799SOL    HW119356   2.807   1.906   4.408
 5799SOL    HW219357   2.855   1.832   4.546
 5800SOL     OW19358   3.291   3.035   4.591
 5800SOL    HW119359   3.236   2.951   4.584
 5800SOL    HW219360   3.317   3.064   4.499
 5801SOL     OW19361   3.328   2.452   4.716
 5801SOL    HW119362   3.298   2.357   4.723
 5801SOL    HW219363   3.401   2.468   4.782
 5802SOL     OW19364   3.719   2.695   4.101
 5802SOL    HW119365   3.761   2.631   4.165
 5802SOL    HW219366   3.681   2.644   4.023
 5803SOL     OW19367   2.350   3.247   3.898
 5803SOL    HW119368   2.263   3.232   3.945
 5803SOL    HW219369   2.333   3.273   3.803
 5804SOL     OW19370   3.252   2.437   3.802
 5804SOL    HW119371   3.198   2.416   3.883
 5804SOL    HW219372   3.343   2.396   3.811
 5805SOL     OW19373   2.389   2.118   4.052
 5805SOL    HW119374   2.416   2.059   3.977
 5805SOL    HW219375   2.389   2.213   4.021
 5806SOL     OW19376   3.616   3.085   5.312
 5806SOL    HW119377   3.707   3.046   5.299
 5806SOL    HW219378   3.624   3.181   5.336
 5807SOL     OW19379   2.926   3.209   5.064
 5807SOL    HW119380   2.846   3.186   5.119
 5807SOL    HW219381   3.009   3.183   5.113
 5808SOL     OW19382   3.454   3.491   5.349
 5808SOL    HW119383   3.481   3.525   5.259
 5808SOL    HW219384   3.533   3.453   5.395
 5809SOL     OW19385   2.973   3.057   4.824
 5809SOL    HW119386   2.933   3.101   4.905
 5809SOL    HW219387   2.932   3.094   4.741
 5810SOL     OW19388   3.500   2.961   4.803
 5810SOL    HW119389   3.505   3.042   4.862
 5810SOL    HW219390   3.414   2.963   4.752
 5811SOL     OW19391   2.777   1.951   5.126
 5811SOL    HW119392   2.802   1.931   5.031
 5811SOL    HW219393   2.849   2.007   5.168
 5812SOL     OW19394   2.842   2.978   5.443
 5812SOL    HW119395   2.743   2.984   5.453
 5812SOL    HW219396   2.865   2.898   5.387
 5813SOL     OW19397   2.567   2.912   4.092
 5813SOL    HW119398   2.553   2.919   4.191
 5813SOL    HW219399   2.651   2.861   4.074
 5814SOL     OW19400   2.272   2.675   4.975
 5814SOL    HW119401   2.358   2.687   5.025
 5814SOL    HW219402   2.230   2.588   5.002
 5815SOL     OW19403   3.136   2.248   4.986
 5815SOL    HW119404   3.157   2.322   5.050
 5815SOL    HW219405   3.047   2.265   4.943
 5816SOL     OW19406   1.926   3.426   5.055
 5816SOL    HW119407   1.880   3.508   5.021
 5816SOL    HW219408   2.024   3.445   5.064
 5817SOL     OW19409   2.229   2.962   4.225
 5817SOL    HW119410   2.222   3.045   4.169
 5817SOL    HW219411   2.233   2.882   4.165
 5818SOL     OW19412   2.428   2.399   4.589
 5818SOL    HW119413   2.440   2.465   4.515
 5818SOL    HW219414   2.474   2.433   4.672
 5819SOL     OW19415   3.114   3.210   4.112
 5819SOL    HW119416   3.164   3.287   4.152
 5819SOL    HW219417   3.019   3.212   4.144
 5820SOL     OW19418   3.134   3.307   4.866
 5820SOL    HW119419   3.181   3.320   4.953
 5820SOL    HW219420   3.068   3.233   4.875
 5821SOL     OW19421   3.444   2.501   4.196
 5821SOL    HW119422   3.413   2.562   4.269
 5821SOL    HW219423   3.494   2.553   4.127
 5822SOL     OW19424   2.216   3.372   5.053
 5822SOL    HW119425   2.195   3.328   4.966
 5822SOL    HW219426   2.313   3.398   5.056
 5823SOL     OW19427   2.264   2.613   5.322
 5823SOL    HW119428   2.332   2.668   5.275
 5823SOL    HW219429   2.304   2.525   5.349
 5824SOL     OW19430   3.449   2.641   5.394
 5824SOL    HW119431   3.357   2.679   5.389
 5824SOL    HW219432   3.509   2.688   5.329
 5825SOL     OW19433   2.875   1.967   5.494
 5825SOL    HW119434   2.881   2.052   5.442
 5825SOL    HW219435   2.907   1.891   5.437
 5826SOL     OW19436   2.366   1.912   5.464
 5826SOL    HW119437   2.324   1.855   5.394
 5826SOL    HW219438   2.300   1.981   5.496
 5827SOL     OW19439   2.435   2.732   4.753
 5827SOL    HW119440   2.479   2.821   4.744
 5827SOL    HW219441   2.372   2.732   4.830
 5828SOL     OW19442   3.222   2.724   4.769
 5828SOL    HW119443   3.147   2.724   4.703
 5828SOL    HW219444   3.259   2.632   4.778
 5829SOL     OW19445   3.071   2.387   3.999
 5829SOL    HW119446   3.084   2.303   4.053
 5829SOL    HW219447   3.042   2.461   4.059
 5830SOL     OW19448   2.169   2.075   4.955
 5830SOL    HW119449   2.146   2.112   5.045
 5830SOL    HW219450   2.139   1.980   4.949
 5831SOL     OW19451   1.899   3.172   5.006
 5831SOL    HW119452   1.952   3.123   5.074
 5831SOL    HW219453   1.921   3.270   5.011
 5832SOL     OW19454   2.594   2.496   4.788
 5832SOL    HW119455   2.653   2.470   4.712
 5832SOL    HW219456   2.566   2.592   4.777
 5833SOL     OW19457   3.590   2.797   5.578
 5833SOL    HW119458   3.544   2.790   5.489
 5833SOL    HW219459   3.528   2.841   5.644
 5834SOL     OW19460   2.169   1.925   4.342
 5834SOL    HW119461   2.158   2.019   4.375
 5834SOL    HW219462   2.164   1.862   4.419
 5835SOL     OW19463   3.484   2.229   4.098
 5835SOL    HW119464   3.486   2.153   4.162
 5835SOL    HW219465   3.436   2.306   4.138
 5836SOL     OW19466   2.885   2.628   4.690
 5836SOL    HW119467   2.900   2.649   4.786
 5836SOL    HW219468   2.855   2.533   4.681
 5837SOL     OW19469   2.842   3.435   5.424
 5837SOL    HW119470   2.822   3.479   5.336
 5837SOL    HW219471   2.881   3.344   5.408
 5838SOL     OW19472   3.721   3.380   5.329
 5838SOL    HW119473   3.735   3.407   5.234
 5838SOL    HW219474   3.804   3.402   5.382
 5839SOL     OW19475   2.212   2.760   5.528
 5839SOL    HW119476   2.288   2.804   5.576
 5839SOL    HW219477   2.247   2.713   5.446
 5840SOL     OW19478   3.402   2.136   3.849
 5840SOL    HW119479   3.341   2.061   3.872
 5840SOL    HW219480   3.424   2.188   3.932
 5841SOL     OW19481   3.165   2.700   3.766
 5841SOL    HW119482   3.199   2.607   3.781
 5841SOL    HW219483   3.183   2.727   3.671
 5842SOL     OW19484   2.930   3.195   4.573
 5842SOL    HW119485   2.937   3.111   4.518
 5842SOL    HW219486   2.992   3.264   4.537
 5843SOL     OW19487   2.181   2.672   4.673
 5843SOL    HW119488   2.274   2.708   4.678
 5843SOL    HW219489   2.175   2.587   4.725
 5844SOL     OW19490   2.201   2.371   4.730
 5844SOL    HW119491   2.149   2.288   4.713
 5844SOL    HW219492   2.278   2.376   4.666
 5845SOL     OW19493   2.373   2.277   5.532
 5845SOL    HW119494   2.355   2.322   5.620
 5845SOL    HW219495   2.415   2.342   5.469
 5846SOL     OW19496   3.000   2.242   5.402
 5846SOL    HW119497   2.955   2.305   5.466
 5846SOL    HW219498   3.093   2.273   5.385
 5847SOL     OW19499   3.022   2.069   5.201
 5847SOL    HW119500   3.022   2.133   5.278
 5847SOL    HW219501   3.050   2.117   5.118
 5848SOL     OW19502   1.870   3.188   3.924
 5848SOL    HW119503   1.777   3.209   3.893
 5848SOL    HW219504   1.880   3.089   3.937
 5849SOL     OW19505   1.950   3.663   4.651
 5849SOL    HW119506   1.908   3.577   4.624
 5849SOL    HW219507   2.044   3.666   4.617
 5850SOL     OW19508   2.366   3.430   4.634
 5850SOL    HW119509   2.432   3.504   4.643
 5850SOL    HW219510   2.410   3.351   4.592
 5851SOL     OW19511   2.864   2.658   4.962
 5851SOL    HW119512   2.905   2.626   5.048
 5851SOL    HW219513   2.768   2.631   4.959
 5852SOL     OW19514   1.902   2.406   4.838
 5852SOL    HW119515   1.987   2.373   4.797
 5852SOL    HW219516   1.915   2.421   4.936
 5853SOL     OW19517   2.051   2.382   5.446
 5853SOL    HW119518   2.110   2.342   5.376
 5853SOL    HW219519   1.993   2.453   5.405
 5854SOL     OW19520   3.231   2.812   5.384
 5854SOL    HW119521   3.270   2.901   5.404
 5854SOL    HW219522   3.241   2.792   5.287
 5855SOL     OW19523   2.677   2.434   4.049
 5855SOL    HW119524   2.684   2.345   4.003
 5855SOL    HW219525   2.583   2.468   4.041
 5856SOL     OW19526   3.519   2.466   4.930
 5856SOL    HW119527   3.481   2.397   4.992
 5856SOL    HW219528   3.601   2.430   4.886
 5857SOL     OW19529   2.114   3.426   5.468
 5857SOL    HW119530   2.084   3.483   5.544
 5857SOL    HW219531   2.107   3.329   5.494
 5858SOL     OW19532   2.533   2.326   4.993
 5858SOL    HW119533   2.499   2.237   4.963
 5858SOL    HW219534   2.559   2.380   4.913
 5859SOL     OW19535   2.792   3.540   5.189
 5859SOL    HW119536   2.768   3.522   5.094
 5859SOL    HW219537   2.822   3.634   5.199
 5860SOL     OW19538   2.335   2.362   3.915
 5860SOL    HW119539   2.396   2.442   3.919
 5860SOL    HW219540   2.240   2.393   3.922
 5861SOL     OW19541   2.021   2.999   5.190
 5861SOL    HW119542   2.043   2.938   5.266
 5861SOL    HW219543   2.031   2.950   5.104
 5862SOL     OW19544   3.209   2.921   4.958
 5862SOL    HW119545   3.233   2.858   4.884
 5862SOL    HW219546   3.119   2.961   4.940
 5863SOL     OW19547   3.164   2.717   4.033
 5863SOL    HW119548   3.078   2.686   4.075
 5863SOL    HW219549   3.160   2.703   3.934
 5864SOL     OW19550   1.945   3.120   4.746
 5864SOL    HW119551   1.940   3.119   4.846
 5864SOL    HW219552   1.862   3.079   4.708
 5865SOL     OW19553   2.550   3.524   5.440
 5865SOL    HW119554   2.494   3.605   5.449
 5865SOL    HW219555   2.602   3.528   5.354
 5866SOL     OW19556   2.765   1.948   3.857
 5866SOL    HW119557   2.816   1.949   3.771
 5866SOL    HW219558   2.821   1.906   3.928
 5867SOL     OW19559   3.588   1.997   4.247
 5867SOL    HW119560   3.661   1.980   4.180
 5867SOL    HW219561   3.557   1.910   4.285
 5868SOL     OW19562   3.250   3.435   4.201
 5868SOL    HW119563   3.317   3.447   4.127
 5868SOL    HW219564   3.210   3.524   4.224
 5869SOL     OW19565   1.992   3.656   5.575
 5869SOL    HW119566   1.951   3.582   5.628
 5869SOL    HW219567   2.056   3.707   5.633
 5870SOL     OW19568   3.142   2.789   4.396
 5870SOL    HW119569   3.202   2.708   4.398
 5870SOL    HW219570   3.182   2.858   4.336
 5871SOL     OW19571   2.692   3.135   5.146
 5871SOL    HW119572   2.687   3.168   5.241
 5871SOL    HW219573   2.606   3.154   5.100
 5872SOL     OW19574   2.534   3.478   3.878
 5872SOL    HW119575   2.543   3.488   3.779
 5872SOL    HW219576   2.494   3.389   3.899
 5873SOL     OW19577   3.703   2.037   4.687
 5873SOL    HW119578   3.742   1.952   4.651
 5873SOL    HW219579   3.605   2.039   4.668
 5874SOL     OW19580   2.125   2.188   4.444
 5874SOL    HW119581   2.046   2.239   4.410
 5874SOL    HW219582   2.116   2.173   4.542
 5875SOL     OW19583   3.056   3.474   3.755
 5875SOL    HW119584   3.062   3.381   3.792
 5875SOL    HW219585   2.997   3.474   3.675
 5876SOL     OW19586   2.684   2.864   5.096
 5876SOL    HW119587   2.724   2.863   5.004
 5876SOL    HW219588   2.694   2.956   5.136
 5877SOL     OW19589   2.778   2.772   4.015
 5877SOL    HW119590   2.841   2.810   3.947
 5877SOL    HW219591   2.818   2.689   4.054
 5878SOL     OW19592   3.366   3.469   3.768
 5878SOL    HW119593   3.274   3.506   3.775
 5878SOL    HW219594   3.404   3.489   3.678
 5879SOL     OW19595   2.234   3.150   5.214
 5879SOL    HW119596   2.221   3.243   5.180
 5879SOL    HW219597   2.150   3.098   5.201
 5880SOL     OW19598   3.476   3.154   5.013
 5880SOL    HW119599   3.536   3.157   5.093
 5880SOL    HW219600   3.401   3.218   5.026
 5881SOL     OW19601   2.901   2.960   4.420
 5881SOL    HW119602   2.831   2.913   4.474
 5881SOL    HW219603   2.960   2.892   4.377
 5882SOL     OW19604   2.876   2.098   4.695
 5882SOL    HW119605   2.868   2.062   4.602
 5882SOL    HW219606   2.874   2.022   4.760
 5883SOL     OW19607   2.452   3.349   4.215
 5883SOL    HW119608   2.494   3.291   4.145
 5883SOL    HW219609   2.408   3.428   4.171
 5884SOL     OW19610   3.571   2.247   5.105
 5884SOL    HW119611   3.644   2.316   5.109
 5884SOL    HW219612   3.599   2.172   5.046
 5885SOL     OW19613   2.117   3.210   4.014
 5885SOL    HW119614   2.021   3.211   3.987
 5885SOL    HW219615   2.129   3.263   4.098
 5886SOL     OW19616   1.967   2.875   5.450
 5886SOL    HW119617   1.890   2.842   5.504
 5886SOL    HW219618   2.052   2.845   5.492
 5887SOL     OW19619   2.534   2.065   5.213
 5887SOL    HW119620   2.624   2.049   5.173
 5887SOL    HW219621   2.542   2.070   5.312
 5888SOL     OW19622   1.937   2.207   3.757
 5888SOL    HW119623   1.845   2.179   3.728
 5888SOL    HW219624   1.968   2.284   3.701
 5889SOL     OW19625   3.302   2.718   5.122
 5889SOL    HW119626   3.245   2.770   5.059
 5889SOL    HW219627   3.398   2.730   5.098
 5890SOL     OW19628   1.934   2.028   4.042
 5890SOL    HW119629   1.917   2.111   3.988
 5890SOL    HW219630   2.024   1.991   4.020
 5891SOL     OW19631   3.045   3.197   3.843
 5891SOL    HW119632   2.946   3.186   3.845
 5891SOL    HW219633   3.079   3.212   3.936
 5892SOL     OW19634   2.475   2.704   5.155
 5892SOL    HW119635   2.531   2.785   5.138
 5892SOL    HW219636   2.534   2.624   5.158
 5893SOL     OW19637   2.578   2.427   5.432
 5893SOL    HW119638   2.597   2.492   5.506
 5893SOL    HW219639   2.638   2.347   5.441
 5894SOL     OW19640   3.312   3.082   5.357
 5894SOL    HW119641   3.303   3.072   5.456
 5894SOL    HW219642   3.408   3.075   5.331
 5895SOL     OW19643   2.252   3.603   5.284
 5895SOL    HW119644   2.161   3.644   5.282
 5895SOL    HW219645   2.245   3.509   5.316
 5896SOL     OW19646   3.536   2.745   4.978
 5896SOL    HW119647   3.509   2.656   4.941
 5896SOL    HW219648   3.537   2.813   4.905
 5897SOL     OW19649   3.087   2.187   4.173
 5897SOL    HW119650   3.152   2.113   4.162
 5897SOL    HW219651   3.107   2.237   4.257
 5898SOL     OW19652   2.456   2.607   4.376
 5898SOL    HW119653   2.506   2.692   4.357
 5898SOL    HW219654   2.368   2.609   4.328
 5899SOL     OW19655   3.639   2.204   5.366
 5899SOL    HW119656   3.622   2.235   5.272
 5899SOL    HW219657   3.555   2.167   5.404
 5900SOL     OW19658   3.592   2.796   5.241
 5900SOL    HW119659   3.630   2.887   5.256
 5900SOL    HW219660   3.584   2.779   5.142
 5901SOL     OW19661   2.721   3.236   3.740
 5901SOL    HW119662   2.675   3.251   3.828
 5901SOL    HW219663   2.765   3.321   3.710
 5902SOL     OW19664   2.523   3.652   4.677
 5902SOL    HW119665   2.477   3.740   4.664
 5902SOL    HW219666   2.622   3.664   4.670
 5903SOL     OW19667   3.270   3.713   5.444
 5903SOL    HW119668   3.174   3.702   5.417
 5903SOL    HW219669   3.326   3.646   5.396
 5904SOL     OW19670   2.721   2.818   4.585
 5904SOL    HW119671   2.775   2.749   4.633
 5904SOL    HW219672   2.689   2.887   4.651
 5905SOL     OW19673   2.945   2.846   3.811
 5905SOL    HW119674   2.922   2.899   3.729
 5905SOL    HW219675   3.026   2.790   3.792
 5906SOL     OW19676   3.723   3.431   4.575
 5906SOL    HW119677   3.652   3.419   4.505
 5906SOL    HW219678   3.724   3.352   4.635
 5907SOL     OW19679   2.083   3.176   5.568
 5907SOL    HW119680   2.018   3.103   5.547
 5907SOL    HW219681   2.087   3.190   5.666
 5908SOL     OW19682   1.941   3.102   4.377
 5908SOL    HW119683   1.940   3.055   4.465
 5908SOL    HW219684   2.023   3.074   4.326
 5909SOL     OW19685   2.534   3.253   5.348
 5909SOL    HW119686   2.456   3.203   5.386
 5909SOL    HW219687   2.531   3.348   5.379
 5910SOL     OW19688   3.686   2.054   4.951
 5910SOL    HW119689   3.682   1.964   4.995
 5910SOL    HW219690   3.689   2.043   4.852
 5911SOL     OW19691   2.290   2.286   4.244
 5911SOL    HW119692   2.320   2.214   4.182
 5911SOL    HW219693   2.251   2.246   4.327
 5912SOL     OW19694   2.179   2.409   5.004
 5912SOL    HW119695   2.217   2.350   5.076
 5912SOL    HW219696   2.219   2.383   4.916
 5913SOL     OW19697   2.674   3.448   4.411
 5913SOL    HW119698   2.706   3.458   4.317
 5913SOL    HW219699   2.595   3.386   4.413
 5914SOL     OW19700   3.286   2.076   4.836
 5914SOL    HW119701   3.338   2.011   4.891
 5914SOL    HW219702   3.237   2.139   4.897
 5915SOL     OW19703   2.863   1.896   4.878
 5915SOL    HW119704   2.800   1.824   4.847
 5915SOL    HW219705   2.956   1.860   4.878
 5916SOL     OW19706   2.632   3.192   4.025
 5916SOL    HW119707   2.586   3.105   4.042
 5916SOL    HW219708   2.723   3.189   4.066
 5917SOL     OW19709   2.480   3.429   5.008
 5917SOL    HW119710   2.475   3.511   5.065
 5917SOL    HW219711   2.569   3.426   4.963
 5918SOL     OW19712   3.214   1.914   3.892
 5918SOL    HW119713   3.249   1.873   3.808
 5918SOL    HW219714   3.124   1.876   3.912
 5919SOL     OW19715   3.162   2.315   4.415
 5919SOL    HW119716   3.103   2.395   4.419
 5919SOL    HW219717   3.177   2.280   4.508
 5920SOL     OW19718   3.455   2.083   4.606
 5920SOL    HW119719   3.371   2.082   4.660
 5920SOL    HW219720   3.457   2.166   4.550
 5921SOL     OW19721   1.901   2.939   4.024
 5921SOL    HW119722   2.000   2.928   4.015
 5921SOL    HW219723   1.861   2.853   4.056
 5922SOL     OW19724   2.737   3.508   4.061
 5922SOL    HW119725   2.660   3.473   4.007
 5922SOL    HW219726   2.705   3.579   4.123
 5923SOL     OW19727   2.092   2.490   5.699
 5923SOL    HW119728   1.999   2.488   5.736
 5923SOL    HW219729   2.093   2.451   5.607
 5924SOL     OW19730   2.087   2.137   6.582
 5924SOL    HW119731   2.122   2.120   6.674
 5924SOL    HW219732   1.999   2.092   6.570
 5925SOL     OW19733   1.881   2.230   6.233
 5925SOL    HW119734   1.799   2.273   6.272
 5925SOL    HW219735   1.853   2.157   6.170
 5926SOL     OW19736   2.431   3.137   6.751
 5926SOL    HW119737   2.338   3.130   6.714
 5926SOL    HW219738   2.442   3.226   6.795
 5927SOL     OW19739   3.417   3.373   6.289
 5927SOL    HW119740   3.360   3.357   6.370
 5927SOL    HW219741   3.358   3.383   6.209
 5928SOL     OW19742   3.605   2.480   6.442
 5928SOL    HW119743   3.638   2.574   6.442
 5928SOL    HW219744   3.656   2.426   6.508
 5929SOL     OW19745   2.997   2.565   6.303
 5929SOL    HW119746   3.054   2.643   6.278
 5929SOL    HW219747   2.937   2.591   6.379
 5930SOL     OW19748   3.617   2.469   5.817
 5930SOL    HW119749   3.605   2.456   5.718
 5930SOL    HW219750   3.587   2.388   5.866
 5931SOL     OW19751   2.630   3.006   6.609
 5931SOL    HW119752   2.552   3.023   6.669
 5931SOL    HW219753   2.664   3.093   6.573
 5932SOL     OW19754   2.712   2.660   7.409
 5932SOL    HW119755   2.708   2.736   7.474
 5932SOL    HW219756   2.734   2.696   7.318
 5933SOL     OW19757   2.547   2.874   6.251
 5933SOL    HW119758   2.616   2.858   6.321
 5933SOL    HW219759   2.474   2.931   6.289
 5934SOL     OW19760   2.548   3.023   7.389
 5934SOL    HW119761   2.608   3.102   7.403
 5934SOL    HW219762   2.462   3.054   7.348
 5935SOL     OW19763   2.197   3.297   6.647
 5935SOL    HW119764   2.119   3.266   6.594
 5935SOL    HW219765   2.255   3.355   6.590
 5936SOL     OW19766   3.322   3.367   6.925
 5936SOL    HW119767   3.346   3.461   6.951
 5936SOL    HW219768   3.306   3.313   7.007
 5937SOL     OW19769   2.300   2.254   7.085
 5937SOL    HW119770   2.382   2.198   7.094
 5937SOL    HW219771   2.219   2.196   7.089
 5938SOL     OW19772   3.465   2.309   6.323
 5938SOL    HW119773   3.391   2.355   6.273
 5938SOL    HW219774   3.516   2.377   6.376
 5939SOL     OW19775   2.093   3.575   6.069
 5939SOL    HW119776   2.127   3.652   6.123
 5939SOL    HW219777   2.137   3.575   5.979
 5940SOL     OW19778   2.989   3.203   7.276
 5940SOL    HW119779   3.036   3.203   7.364
 5940SOL    HW219780   2.941   3.116   7.265
 5941SOL     OW19781   2.092   3.296   6.124
 5941SOL    HW119782   2.066   3.392   6.124
 5941SOL    HW219783   2.021   3.242   6.169
 5942SOL     OW19784   2.102   2.953   6.472
 5942SOL    HW119785   2.116   2.869   6.524
 5942SOL    HW219786   2.047   3.017   6.527
 5943SOL     OW19787   2.482   3.648   7.025
 5943SOL    HW119788   2.390   3.631   7.060
 5943SOL    HW219789   2.510   3.740   7.051
 5944SOL     OW19790   2.468   2.826   5.709
 5944SOL    HW119791   2.475   2.910   5.655
 5944SOL    HW219792   2.514   2.839   5.797
 5945SOL     OW19793   3.456   1.976   7.066
 5945SOL    HW119794   3.438   2.043   6.994
 5945SOL    HW219795   3.453   2.022   7.155
 5946SOL     OW19796   1.984   2.505   6.149
 5946SOL    HW119797   1.939   2.417   6.166
 5946SOL    HW219798   1.983   2.559   6.233
 5947SOL     OW19799   3.704   3.629   5.945
 5947SOL    HW119800   3.758   3.600   6.025
 5947SOL    HW219801   3.734   3.719   5.916
 5948SOL     OW19802   1.889   3.458   5.703
 5948SOL    HW119803   1.870   3.362   5.724
 5948SOL    HW219804   1.856   3.516   5.778
 5949SOL     OW19805   3.551   2.784   6.198
 5949SOL    HW119806   3.646   2.755   6.206
 5949SOL    HW219807   3.543   2.849   6.123
 5950SOL     OW19808   3.503   2.970   6.018
 5950SOL    HW119809   3.589   2.972   5.966
 5950SOL    HW219810   3.517   3.017   6.106
 5951SOL     OW19811   1.975   2.599   7.183
 5951SOL    HW119812   2.063   2.586   7.228
 5951SOL    HW219813   1.962   2.696   7.161
 5952SOL     OW19814   2.475   3.227   6.312
 5952SOL    HW119815   2.426   3.140   6.321
 5952SOL    HW219816   2.452   3.270   6.225
 5953SOL     OW19817   3.155   3.090   7.009
 5953SOL    HW119818   3.192   3.017   6.951
 5953SOL    HW219819   3.207   3.095   7.094
 5954SOL     OW19820   2.671   1.866   6.088
 5954SOL    HW119821   2.711   1.957   6.079
 5954SOL    HW219822   2.571   1.874   6.094
 5955SOL     OW19823   2.059   2.838   6.850
 5955SOL    HW119824   2.148   2.793   6.836
 5955SOL    HW219825   1.986   2.773   6.831
 5956SOL     OW19826   3.387   2.861   5.776
 5956SOL    HW119827   3.324   2.785   5.789
 5956SOL    HW219828   3.435   2.879   5.862
 5957SOL     OW19829   3.049   3.654   7.202
 5957SOL    HW119830   3.073   3.714   7.126
 5957SOL    HW219831   3.056   3.559   7.172
 5958SOL     OW19832   2.179   2.113   7.387
 5958SOL    HW119833   2.250   2.184   7.393
 5958SOL    HW219834   2.091   2.152   7.415
 5959SOL     OW19835   3.328   3.279   6.539
 5959SOL    HW119836   3.269   3.285   6.619
 5959SOL    HW219837   3.313   3.191   6.493
 5960SOL     OW19838   3.529   3.576   6.158
 5960SOL    HW119839   3.488   3.553   6.070
 5960SOL    HW219840   3.511   3.502   6.223
 5961SOL     OW19841   2.460   2.591   5.856
 5961SOL    HW119842   2.484   2.660   5.788
 5961SOL    HW219843   2.382   2.624   5.910
 5962SOL     OW19844   3.143   2.207   6.530
 5962SOL    HW119845   3.057   2.157   6.517
 5962SOL    HW219846   3.205   2.153   6.586
 5963SOL     OW19847   3.438   3.524   5.893
 5963SOL    HW119848   3.527   3.570   5.896
 5963SOL    HW219849   3.417   3.500   5.798
 5964SOL     OW19850   2.669   2.467   7.051
 5964SOL    HW119851   2.622   2.464   7.140
 5964SOL    HW219852   2.618   2.412   6.985
 5965SOL     OW19853   3.256   2.331   7.260
 5965SOL    HW119854   3.236   2.374   7.348
 5965SOL    HW219855   3.334   2.269   7.269
 5966SOL     OW19856   2.835   2.752   7.158
 5966SOL    HW119857   2.881   2.668   7.129
 5966SOL    HW219858   2.779   2.786   7.083
 5967SOL     OW19859   2.853   2.272   6.828
 5967SOL    HW119860   2.776   2.306   6.882
 5967SOL    HW219861   2.819   2.221   6.749
 5968SOL     OW19862   2.903   2.563   6.015
 5968SOL    HW119863   2.929   2.559   6.111
 5968SOL    HW219864   2.818   2.512   6.001
 5969SOL     OW19865   1.938   2.673   6.375
 5969SOL    HW119866   2.037   2.661   6.384
 5969SOL    HW219867   1.914   2.768   6.396
 5970SOL     OW19868   1.992   3.683   7.157
 5970SOL    HW119869   1.982   3.668   7.256
 5970SOL    HW219870   1.906   3.719   7.121
 5971SOL     OW19871   2.727   2.210   5.781
 5971SOL    HW119872   2.786   2.273   5.732
 5971SOL    HW219873   2.746   2.116   5.752
 5972SOL     OW19874   3.581   2.447   7.417
 5972SOL    HW119875   3.555   2.536   7.381
 5972SOL    HW219876   3.579   2.379   7.344
 5973SOL     OW19877   3.224   3.006   6.131
 5973SOL    HW119878   3.307   2.977   6.083
 5973SOL    HW219879   3.175   3.073   6.075
 5974SOL     OW19880   2.412   2.058   6.471
 5974SOL    HW119881   2.407   2.053   6.571
 5974SOL    HW219882   2.414   2.154   6.442
 5975SOL     OW19883   2.870   3.318   6.063
 5975SOL    HW119884   2.824   3.390   6.011
 5975SOL    HW219885   2.866   3.338   6.161
 5976SOL     OW19886   2.213   3.663   6.439
 5976SOL    HW119887   2.263   3.577   6.445
 5976SOL    HW219888   2.278   3.740   6.436
 5977SOL     OW19889   3.657   2.928   6.459
 5977SOL    HW119890   3.595   2.913   6.383
 5977SOL    HW219891   3.605   2.939   6.544
 5978SOL     OW19892   3.089   3.412   7.092
 5978SOL    HW119893   3.095   3.335   7.156
 5978SOL    HW219894   3.037   3.386   7.012
 5979SOL     OW19895   2.183   2.805   5.828
 5979SOL    HW119896   2.265   2.844   5.786
 5979SOL    HW219897   2.156   2.723   5.779
 5980SOL     OW19898   3.320   2.597   6.314
 5980SOL    HW119899   3.315   2.532   6.389
 5980SOL    HW219900   3.400   2.656   6.327
 5981SOL     OW19901   2.323   3.128   7.313
 5981SOL    HW119902   2.273   3.129   7.227
 5981SOL    HW219903   2.260   3.110   7.389
 5982SOL     OW19904   2.973   3.638   5.823
 5982SOL    HW119905   2.913   3.576   5.873
 5982SOL    HW219906   3.004   3.594   5.738
 5983SOL     OW19907   2.064   2.147   7.084
 5983SOL    HW119908   1.984   2.207   7.071
 5983SOL    HW219909   2.054   2.098   7.170
 5984SOL     OW19910   3.494   3.239   5.667
 5984SOL    HW119911   3.462   3.333   5.657
 5984SOL    HW219912   3.418   3.176   5.655
 5985SOL     OW19913   2.326   3.605   5.909
 5985SOL    HW119914   2.359   3.644   5.995
 5985SOL    HW219915   2.402   3.598   5.844
 5986SOL     OW19916   3.262   1.969   6.012
 5986SOL    HW119917   3.238   1.932   5.922
 5986SOL    HW219918   3.361   1.985   6.016
 5987SOL     OW19919   2.111   3.647   6.827
 5987SOL    HW119920   2.168   3.582   6.877
 5987SOL    HW219921   2.095   3.614   6.734
 5988SOL     OW19922   2.802   3.560   6.490
 5988SOL    HW119923   2.882   3.503   6.511
 5988SOL    HW219924   2.753   3.520   6.413
 5989SOL     OW19925   2.244   2.562   6.066
 5989SOL    HW119926   2.289   2.472   6.063
 5989SOL    HW219927   2.150   2.551   6.099
 5990SOL     OW19928   3.409   2.084   7.315
 5990SOL    HW119929   3.404   2.121   7.407
 5990SOL    HW219930   3.337   2.015   7.303
 5991SOL     OW19931   2.476   1.984   5.703
 5991SOL    HW119932   2.574   1.962   5.710
 5991SOL    HW219933   2.445   1.967   5.610
 5992SOL     OW19934   2.643   2.126   7.335
 5992SOL    HW119935   2.710   2.065   7.378
 5992SOL    HW219936   2.570   2.145   7.400
 5993SOL     OW19937   2.750   3.376   6.781
 5993SOL    HW119938   2.727   3.351   6.687
 5993SOL    HW219939   2.811   3.307   6.820
 5994SOL     OW19940   3.213   2.452   7.019
 5994SOL    HW119941   3.241   2.409   7.104
 5994SOL    HW219942   3.238   2.548   7.020
 5995SOL     OW19943   2.665   3.264   6.510
 5995SOL    HW119944   2.755   3.278   6.468
 5995SOL    HW219945   2.594   3.266   6.439
 5996SOL     OW19946   2.784   2.365   6.485
 5996SOL    HW119947   2.759   2.356   6.389
 5996SOL    HW219948   2.832   2.283   6.516
 5997SOL     OW19949   2.401   1.926   6.098
 5997SOL    HW119950   2.320   1.927   6.156
 5997SOL    HW219951   2.404   2.009   6.043
 5998SOL     OW19952   3.296   3.050   5.627
 5998SOL    HW119953   3.328   2.974   5.684
 5998SOL    HW219954   3.204   3.077   5.657
 5999SOL     OW19955   2.159   1.897   5.757
 5999SOL    HW119956   2.208   1.981   5.736
 5999SOL    HW219957   2.221   1.832   5.802
 6000SOL     OW19958   2.797   2.098   6.066
 6000SOL    HW119959   2.749   2.139   5.988
 6000SOL    HW219960   2.896   2.096   6.047
 6001SOL     OW19961   2.938   2.545   7.050
 6001SOL    HW119962   2.858   2.484   7.053
 6001SOL    HW219963   3.019   2.492   7.026
 6002SOL     OW19964   3.089   3.432   6.379
 6002SOL    HW119965   3.110   3.506   6.314
 6002SOL    HW219966   3.157   3.432   6.452
 6003SOL     OW19967   2.321   3.014   6.327
 6003SOL    HW119968   2.250   2.987   6.392
 6003SOL    HW219969   2.295   2.986   6.234
 6004SOL     OW19970   3.133   3.659   6.177
 6004SOL    HW119971   3.177   3.723   6.113
 6004SOL    HW219972   3.083   3.711   6.247
 6005SOL     OW19973   2.894   2.411   5.602
 6005SOL    HW119974   2.853   2.493   5.563
 6005SOL    HW219975   2.958   2.437   5.675
 6006SOL     OW19976   1.940   2.418   6.972
 6006SOL    HW119977   2.032   2.417   6.931
 6006SOL    HW219978   1.934   2.492   7.039
 6007SOL     OW19979   2.423   2.084   6.733
 6007SOL    HW119980   2.461   2.000   6.770
 6007SOL    HW219981   2.335   2.103   6.777
 6008SOL     OW19982   2.728   2.316   6.228
 6008SOL    HW119983   2.696   2.388   6.166
 6008SOL    HW219984   2.752   2.235   6.175
 6009SOL     OW19985   2.879   1.901   6.339
 6009SOL    HW119986   2.807   1.906   6.270
 6009SOL    HW219987   2.855   1.832   6.408
 6010SOL     OW19988   3.291   3.035   6.453
 6010SOL    HW119989   3.236   2.951   6.446
 6010SOL    HW219990   3.317   3.064   6.361
 6011SOL     OW19991   3.328   2.452   6.578
 6011SOL    HW119992   3.298   2.357   6.585
 6011SOL    HW219993   3.401   2.468   6.644
 6012SOL     OW19994   3.719   2.695   5.963
 6012SOL    HW119995   3.761   2.631   6.027
 6012SOL    HW219996   3.681   2.644   5.885
 6013SOL     OW19997   2.350   3.247   5.760
 6013SOL    HW119998   2.263   3.232   5.807
 6013SOL    HW219999   2.333   3.273   5.665
 6014SOL     OW20000   3.526   3.142   6.243
 6014SOL    HW120001   3.625   3.150   6.257
 6014SOL    HW220002   3.481   3.226   6.274
 6015SOL     OW20003   3.252   2.437   5.664
 6015SOL    HW120004   3.198   2.416   5.745
 6015SOL    HW220005   3.343   2.396   5.673
 6016SOL     OW20006   2.389   2.118   5.914
 6016SOL    HW120007   2.416   2.059   5.839
 6016SOL    HW220008   2.389   2.213   5.883
 6017SOL     OW20009   3.616   3.085   7.174
 6017SOL    HW120010   3.707   3.046   7.161
 6017SOL    HW220011   3.624   3.181   7.198
 6018SOL     OW20012   2.926   3.209   6.926
 6018SOL    HW120013   2.846   3.186   6.981
 6018SOL    HW220014   3.009   3.183   6.975
 6019SOL     OW20015   3.454   3.491   7.211
 6019SOL    HW120016   3.481   3.525   7.121
 6019SOL    HW220017   3.533   3.453   7.257
 6020SOL     OW20018   2.973   3.057   6.686
 6020SOL    HW120019   2.933   3.101   6.767
 6020SOL    HW220020   2.932   3.094   6.603
 6021SOL     OW20021   3.500   2.961   6.665
 6021SOL    HW120022   3.505   3.042   6.724
 6021SOL    HW220023   3.414   2.963   6.614
 6022SOL     OW20024   2.777   1.951   6.988
 6022SOL    HW120025   2.802   1.931   6.893
 6022SOL    HW220026   2.849   2.007   7.030
 6023SOL     OW20027   2.842   2.978   7.305
 6023SOL    HW120028   2.743   2.984   7.315
 6023SOL    HW220029   2.865   2.898   7.249
 6024SOL     OW20030   2.567   2.912   5.954
 6024SOL    HW120031   2.553   2.919   6.053
 6024SOL    HW220032   2.651   2.861   5.936
 6025SOL     OW20033   2.272   2.675   6.837
 6025SOL    HW120034   2.358   2.687   6.887
 6025SOL    HW220035   2.230   2.588   6.864
 6026SOL     OW20036   3.136   2.248   6.848
 6026SOL    HW120037   3.157   2.322   6.912
 6026SOL    HW220038   3.047   2.265   6.805
 6027SOL     OW20039   1.926   3.426   6.917
 6027SOL    HW120040   1.880   3.508   6.883
 6027SOL    HW220041   2.024   3.445   6.926
 6028SOL     OW20042   2.229   2.962   6.087
 6028SOL    HW120043   2.222   3.045   6.031
 6028SOL    HW220044   2.233   2.882   6.027
 6029SOL     OW20045   2.428   2.399   6.451
 6029SOL    HW120046   2.440   2.465   6.377
 6029SOL    HW220047   2.474   2.433   6.534
 6030SOL     OW20048   3.114   3.210   5.974
 6030SOL    HW120049   3.164   3.287   6.014
 6030SOL    HW220050   3.019   3.212   6.006
 6031SOL     OW20051   3.134   3.307   6.728
 6031SOL    HW120052   3.181   3.320   6.815
 6031SOL    HW220053   3.068   3.233   6.737
 6032SOL     OW20054   3.444   2.501   6.058
 6032SOL    HW120055   3.413   2.562   6.131
 6032SOL    HW220056   3.494   2.553   5.989
 6033SOL     OW20057   2.216   3.372   6.915
 6033SOL    HW120058   2.195   3.328   6.828
 6033SOL    HW220059   2.313   3.398   6.918
 6034SOL     OW20060   2.264   2.613   7.184
 6034SOL    HW120061   2.332   2.668   7.137
 6034SOL    HW220062   2.304   2.525   7.211
 6035SOL     OW20063   3.449   2.641   7.256
 6035SOL    HW120064   3.357   2.679   7.251
 6035SOL    HW220065   3.509   2.688   7.191
 6036SOL     OW20066   2.875   1.967   7.356
 6036SOL    HW120067   2.881   2.052   7.304
 6036SOL    HW220068   2.907   1.891   7.299
 6037SOL     OW20069   2.366   1.912   7.326
 6037SOL    HW120070   2.324   1.855   7.256
 6037SOL    HW220071   2.300   1.981   7.358
 6038SOL     OW20072   2.435   2.732   6.615
 6038SOL    HW120073   2.479   2.821   6.606
 6038SOL    HW220074   2.372   2.732   6.692
 6039SOL     OW20075   3.222   2.724   6.631
 6039SOL    HW120076   3.147   2.724   6.565
 6039SOL    HW220077   3.259   2.632   6.640
 6040SOL     OW20078   3.071   2.387   5.861
 6040SOL    HW120079   3.084   2.303   5.915
 6040SOL    HW220080   3.042   2.461   5.921
 6041SOL     OW20081   2.169   2.075   6.817
 6041SOL    HW120082   2.146   2.112   6.907
 6041SOL    HW220083   2.139   1.980   6.811
 6042SOL     OW20084   1.899   3.172   6.868
 6042SOL    HW120085   1.952   3.123   6.936
 6042SOL    HW220086   1.921   3.270   6.873
 6043SOL     OW20087   2.594   2.496   6.650
 6043SOL    HW120088   2.653   2.470   6.574
 6043SOL    HW220089   2.566   2.592   6.639
 6044SOL     OW20090   3.590   2.797   7.440
 6044SOL    HW120091   3.544   2.790   7.351
 6044SOL    HW220092   3.528   2.841   7.506
 6045SOL     OW20093   2.169   1.925   6.204
 6045SOL    HW120094   2.158   2.019   6.237
 6045SOL    HW220095   2.164   1.862   6.281
 6046SOL     OW20096   3.484   2.229   5.960
 6046SOL    HW120097   3.486   2.153   6.024
 6046SOL    HW220098   3.436   2.306   6.000
 6047SOL     OW20099   2.885   2.628   6.552
 6047SOL    HW120100   2.900   2.649   6.648
 6047SOL    HW220101   2.855   2.533   6.543
 6048SOL     OW20102   2.842   3.435   7.286
 6048SOL    HW120103   2.822   3.479   7.198
 6048SOL    HW220104   2.881   3.344   7.270
 6049SOL     OW20105   3.721   3.380   7.191
 6049SOL    HW120106   3.735   3.407   7.096
 6049SOL    HW220107   3.804   3.402   7.244
 6050SOL     OW20108   2.212   2.760   7.390
 6050SOL    HW120109   2.288   2.804   7.438
 6050SOL    HW220110   2.247   2.713   7.308
 6051SOL     OW20111   3.402   2.136   5.711
 6051SOL    HW120112   3.341   2.061   5.734
 6051SOL    HW220113   3.424   2.188   5.794
 6052SOL     OW20114   3.165   2.700   5.628
 6052SOL    HW120115   3.199   2.607   5.643
 6052SOL    HW220116   3.183   2.727   5.533
 6053SOL     OW20117   2.930   3.195   6.435
 6053SOL    HW120118   2.937   3.111   6.380
 6053SOL    HW220119   2.992   3.264   6.399
 6054SOL     OW20120   2.181   2.672   6.535
 6054SOL    HW120121   2.274   2.708   6.540
 6054SOL    HW220122   2.175   2.587   6.587
 6055SOL     OW20123   2.201   2.371   6.592
 6055SOL    HW120124   2.149   2.288   6.575
 6055SOL    HW220125   2.278   2.376   6.528
 6056SOL     OW20126   2.373   2.277   7.394
 6056SOL    HW120127   2.355   2.322   7.482
 6056SOL    HW220128   2.415   2.342   7.331
 6057SOL     OW20129   3.000   2.242   7.264
 6057SOL    HW120130   2.955   2.305   7.328
 6057SOL    HW220131   3.093   2.273   7.247
 6058SOL     OW20132   3.022   2.069   7.063
 6058SOL    HW120133   3.022   2.133   7.140
 6058SOL    HW220134   3.050   2.117   6.980
 6059SOL     OW20135   1.870   3.188   5.786
 6059SOL    HW120136   1.777   3.209   5.755
 6059SOL    HW220137   1.880   3.089   5.799
 6060SOL     OW20138   1.950   3.663   6.513
 6060SOL    HW120139   1.908   3.577   6.486
 6060SOL    HW220140   2.044   3.666   6.479
 6061SOL     OW20141   2.366   3.430   6.496
 6061SOL    HW120142   2.432   3.504   6.505
 6061SOL    HW220143   2.410   3.351   6.454
 6062SOL     OW20144   2.864   2.658   6.824
 6062SOL    HW120145   2.905   2.626   6.910
 6062SOL    HW220146   2.768   2.631   6.821
 6063SOL     OW20147   1.902   2.406   6.700
 6063SOL    HW120148   1.987   2.373   6.659
 6063SOL    HW220149   1.915   2.421   6.798
 6064SOL     OW20150   2.051   2.382   7.308
 6064SOL    HW120151   2.110   2.342   7.238
 6064SOL    HW220152   1.993   2.453   7.267
 6065SOL     OW20153   3.231   2.812   7.246
 6065SOL    HW120154   3.270   2.901   7.266
 6065SOL    HW220155   3.241   2.792   7.149
 6066SOL     OW20156   2.677   2.434   5.911
 6066SOL    HW120157   2.684   2.345   5.865
 6066SOL    HW220158   2.583   2.468   5.903
 6067SOL     OW20159   3.519   2.466   6.792
 6067SOL    HW120160   3.481   2.397   6.854
 6067SOL    HW220161   3.601   2.430   6.748
 6068SOL     OW20162   2.114   3.426   7.330
 6068SOL    HW120163   2.084   3.483   7.406
 6068SOL    HW220164   2.107   3.329   7.356
 6069SOL     OW20165   2.533   2.326   6.855
 6069SOL    HW120166   2.499   2.237   6.825
 6069SOL    HW220167   2.559   2.380   6.775
 6070SOL     OW20168   2.792   3.540   7.051
 6070SOL    HW120169   2.768   3.522   6.956
 6070SOL    HW220170   2.822   3.634   7.061
 6071SOL     OW20171   2.335   2.362   5.777
 6071SOL    HW120172   2.396   2.442   5.781
 6071SOL    HW220173   2.240   2.393   5.784
 6072SOL     OW20174   2.021   2.999   7.052
 6072SOL    HW120175   2.043   2.938   7.128
 6072SOL    HW220176   2.031   2.950   6.966
 6073SOL     OW20177   3.209   2.921   6.820
 6073SOL    HW120178   3.233   2.858   6.746
 6073SOL    HW220179   3.119   2.961   6.802
 6074SOL     OW20180   3.164   2.717   5.895
 6074SOL    HW120181   3.078   2.686   5.937
 6074SOL    HW220182   3.160   2.703   5.796
 6075SOL     OW20183   3.621   3.609   6.740
 6075SOL    HW120184   3.682   3.639   6.667
 6075SOL    HW220185   3.583   3.520   6.718
 6076SOL     OW20186   3.114   3.593   6.714
 6076SOL    HW120187   3.198   3.598   6.660
 6076SOL    HW220188   3.091   3.497   6.732
 6077SOL     OW20189   1.945   3.120   6.608
 6077SOL    HW120190   1.940   3.119   6.708
 6077SOL    HW220191   1.862   3.079   6.570
 6078SOL     OW20192   2.550   3.524   7.302
 6078SOL    HW120193   2.494   3.605   7.311
 6078SOL    HW220194   2.602   3.528   7.216
 6079SOL     OW20195   2.765   1.948   5.719
 6079SOL    HW120196   2.816   1.949   5.633
 6079SOL    HW220197   2.821   1.906   5.790
 6080SOL     OW20198   3.588   1.997   6.109
 6080SOL    HW120199   3.661   1.980   6.042
 6080SOL    HW220200   3.557   1.910   6.147
 6081SOL     OW20201   3.250   3.435   6.063
 6081SOL    HW120202   3.317   3.447   5.989
 6081SOL    HW220203   3.210   3.524   6.086
 6082SOL     OW20204   1.992   3.656   7.437
 6082SOL    HW120205   1.951   3.582   7.490
 6082SOL    HW220206   2.056   3.707   7.495
 6083SOL     OW20207   3.142   2.789   6.258
 6083SOL    HW120208   3.202   2.708   6.260
 6083SOL    HW220209   3.182   2.858   6.198
 6084SOL     OW20210   2.692   3.135   7.008
 6084SOL    HW120211   2.687   3.168   7.103
 6084SOL    HW220212   2.606   3.154   6.962
 6085SOL     OW20213   2.534   3.478   5.740
 6085SOL    HW120214   2.543   3.488   5.641
 6085SOL    HW220215   2.494   3.389   5.761
 6086SOL     OW20216   3.512   3.582   6.980
 6086SOL    HW120217   3.565   3.592   6.896
 6086SOL    HW220218   3.485   3.672   7.014
 6087SOL     OW20219   3.703   2.037   6.549
 6087SOL    HW120220   3.742   1.952   6.513
 6087SOL    HW220221   3.605   2.039   6.530
 6088SOL     OW20222   2.125   2.188   6.306
 6088SOL    HW120223   2.046   2.239   6.272
 6088SOL    HW220224   2.116   2.173   6.404
 6089SOL     OW20225   3.056   3.474   5.617
 6089SOL    HW120226   3.062   3.381   5.654
 6089SOL    HW220227   2.997   3.474   5.537
 6090SOL     OW20228   2.684   2.864   6.958
 6090SOL    HW120229   2.724   2.863   6.866
 6090SOL    HW220230   2.694   2.956   6.998
 6091SOL     OW20231   2.778   2.772   5.877
 6091SOL    HW120232   2.841   2.810   5.809
 6091SOL    HW220233   2.818   2.689   5.916
 6092SOL     OW20234   3.366   3.469   5.630
 6092SOL    HW120235   3.274   3.506   5.637
 6092SOL    HW220236   3.404   3.489   5.540
 6093SOL     OW20237   2.234   3.150   7.076
 6093SOL    HW120238   2.221   3.243   7.042
 6093SOL    HW220239   2.150   3.098   7.063
 6094SOL     OW20240   3.476   3.154   6.875
 6094SOL    HW120241   3.536   3.157   6.955
 6094SOL    HW220242   3.401   3.218   6.888
 6095SOL     OW20243   2.901   2.960   6.282
 6095SOL    HW120244   2.831   2.913   6.336
 6095SOL    HW220245   2.960   2.892   6.239
 6096SOL     OW20246   2.876   2.098   6.557
 6096SOL    HW120247   2.868   2.062   6.464
 6096SOL    HW220248   2.874   2.022   6.622
 6097SOL     OW20249   2.452   3.349   6.077
 6097SOL    HW120250   2.494   3.291   6.007
 6097SOL    HW220251   2.408   3.428   6.033
 6098SOL     OW20252   3.571   2.247   6.967
 6098SOL    HW120253   3.644   2.316   6.971
 6098SOL    HW220254   3.599   2.172   6.908
 6099SOL     OW20255   2.117   3.210   5.876
 6099SOL    HW120256   2.021   3.211   5.849
 6099SOL    HW220257   2.129   3.263   5.960
 6100SOL     OW20258   1.967   2.875   7.312
 6100SOL    HW120259   1.890   2.842   7.366
 6100SOL    HW220260   2.052   2.845   7.354
 6101SOL     OW20261   2.534   2.065   7.075
 6101SOL    HW120262   2.624   2.049   7.035
 6101SOL    HW220263   2.542   2.070   7.174
 6102SOL     OW20264   1.937   2.207   5.619
 6102SOL    HW120265   1.845   2.179   5.590
 6102SOL    HW220266   1.968   2.284   5.563
 6103SOL     OW20267   3.302   2.718   6.984
 6103SOL    HW120268   3.245   2.770   6.921
 6103SOL    HW220269   3.398   2.730   6.960
 6104SOL     OW20270   1.934   2.028   5.904
 6104SOL    HW120271   1.917   2.111   5.850
 6104SOL    HW220272   2.024   1.991   5.882
 6105SOL     OW20273   3.045   3.197   5.705
 6105SOL    HW120274   2.946   3.186   5.707
 6105SOL    HW220275   3.079   3.212   5.798
 6106SOL     OW20276   2.475   2.704   7.017
 6106SOL    HW120277   2.531   2.785   7.000
 6106SOL    HW220278   2.534   2.624   7.020
 6107SOL     OW20279   3.355   3.629   6.545
 6107SOL    HW120280   3.388   3.693   6.476
 6107SOL    HW220281   3.421   3.623   6.620
 6108SOL     OW20282   2.578   2.427   7.294
 6108SOL    HW120283   2.597   2.492   7.368
 6108SOL    HW220284   2.638   2.347   7.303
 6109SOL     OW20285   3.312   3.082   7.219
 6109SOL    HW120286   3.303   3.072   7.318
 6109SOL    HW220287   3.408   3.075   7.193
 6110SOL     OW20288   2.252   3.603   7.146
 6110SOL    HW120289   2.161   3.644   7.144
 6110SOL    HW220290   2.245   3.509   7.178
 6111SOL     OW20291   3.536   2.745   6.840
 6111SOL    HW120292   3.509   2.656   6.803
 6111SOL    HW220293   3.537   2.813   6.767
 6112SOL     OW20294   3.087   2.187   6.035
 6112SOL    HW120295   3.152   2.113   6.024
 6112SOL    HW220296   3.107   2.237   6.119
 6113SOL     OW20297   2.456   2.607   6.238
 6113SOL    HW120298   2.506   2.692   6.219
 6113SOL    HW220299   2.368   2.609   6.190
 6114SOL     OW20300   3.639   2.204   7.228
 6114SOL    HW120301   3.622   2.235   7.134
 6114SOL    HW220302   3.555   2.167   7.266
 6115SOL     OW20303   3.592   2.796   7.103
 6115SOL    HW120304   3.630   2.887   7.118
 6115SOL    HW220305   3.584   2.779   7.004
 6116SOL     OW20306   2.721   3.236   5.602
 6116SOL    HW120307   2.675   3.251   5.690
 6116SOL    HW220308   2.765   3.321   5.572
 6117SOL     OW20309   2.523   3.652   6.539
 6117SOL    HW120310   2.477   3.740   6.526
 6117SOL    HW220311   2.622   3.664   6.532
 6118SOL     OW20312   3.270   3.713   7.306
 6118SOL    HW120313   3.174   3.702   7.279
 6118SOL    HW220314   3.326   3.646   7.258
 6119SOL     OW20315   2.721   2.818   6.447
 6119SOL    HW120316   2.775   2.749   6.495
 6119SOL    HW220317   2.689   2.887   6.513
 6120SOL     OW20318   2.945   2.846   5.673
 6120SOL    HW120319   2.922   2.899   5.591
 6120SOL    HW220320   3.026   2.790   5.654
 6121SOL     OW20321   3.723   3.431   6.437
 6121SOL    HW120322   3.652   3.419   6.367
 6121SOL    HW220323   3.724   3.352   6.497
 6122SOL     OW20324   2.083   3.176   7.430
 6122SOL    HW120325   2.018   3.103   7.409
 6122SOL    HW220326   2.087   3.190   7.528
 6123SOL     OW20327   1.941   3.102   6.239
 6123SOL    HW120328   1.940   3.055   6.327
 6123SOL    HW220329   2.023   3.074   6.188
 6124SOL     OW20330   2.534   3.253   7.210
 6124SOL    HW120331   2.456   3.203   7.248
 6124SOL    HW220332   2.531   3.348   7.241
 6125SOL     OW20333   3.686   2.054   6.813
 6125SOL    HW120334   3.682   1.964   6.857
 6125SOL    HW220335   3.689   2.043   6.714
 6126SOL     OW20336   2.290   2.286   6.106
 6126SOL    HW120337   2.320   2.214   6.044
 6126SOL    HW220338   2.251   2.246   6.189
 6127SOL     OW20339   3.567   3.349   6.690
 6127SOL    HW120340   3.474   3.324   6.663
 6127SOL    HW220341   3.593   3.299   6.772
 6128SOL     OW20342   2.179   2.409   6.866
 6128SOL    HW120343   2.217   2.350   6.938
 6128SOL    HW220344   2.219   2.383   6.778
 6129SOL     OW20345   2.674   3.448   6.273
 6129SOL    HW120346   2.706   3.458   6.179
 6129SOL    HW220347   2.595   3.386   6.275
 6130SOL     OW20348   3.286   2.076   6.698
 6130SOL    HW120349   3.338   2.011   6.753
 6130SOL    HW220350   3.237   2.139   6.759
 6131SOL     OW20351   2.863   1.896   6.740
 6131SOL    HW120352   2.800   1.824   6.709
 6131SOL    HW220353   2.956   1.860   6.740
 6132SOL     OW20354   2.632   3.192   5.887
 6132SOL    HW120355   2.586   3.105   5.904
 6132SOL    HW220356   2.723   3.189   5.928
 6133SOL     OW20357   2.480   3.429   6.870
 6133SOL    HW120358   2.475   3.511   6.927
 6133SOL    HW220359   2.569   3.426   6.825
 6134SOL     OW20360   3.214   1.914   5.754
 6134SOL    HW120361   3.249   1.873   5.670
 6134SOL    HW220362   3.124   1.876   5.774
 6135SOL     OW20363   3.162   2.315   6.277
 6135SOL    HW120364   3.103   2.395   6.281
 6135SOL    HW220365   3.177   2.280   6.370
 6136SOL     OW20366   3.455   2.083   6.468
 6136SOL    HW120367   3.371   2.082   6.522
 6136SOL    HW220368   3.457   2.166   6.412
 6137SOL     OW20369   1.901   2.939   5.886
 6137SOL    HW120370   2.000   2.928   5.877
 6137SOL    HW220371   1.861   2.853   5.918
 6138SOL     OW20372   2.737   3.508   5.923
 6138SOL    HW120373   2.660   3.473   5.869
 6138SOL    HW220374   2.705   3.579   5.985
 6139SOL     OW20375   2.092   2.490   7.561
 6139SOL    HW120376   1.999   2.488   7.598
 6139SOL    HW220377   2.093   2.451   7.469
 6140SOL     OW20378   2.087   2.137   8.444
 6140SOL    HW120379   2.122   2.120   8.536
 6140SOL    HW220380   1.999   2.092   8.432
 6141SOL     OW20381   1.881   2.230   8.095
 6141SOL    HW120382   1.799   2.273   8.134
 6141SOL    HW220383   1.853   2.157   8.032
 6142SOL     OW20384   2.431   3.137   8.613
 6142SOL    HW120385   2.338   3.130   8.576
 6142SOL    HW220386   2.442   3.226   8.657
 6143SOL     OW20387   3.417   3.373   8.151
 6143SOL    HW120388   3.360   3.357   8.232
 6143SOL    HW220389   3.358   3.383   8.071
 6144SOL     OW20390   3.605   2.480   8.304
 6144SOL    HW120391   3.638   2.574   8.304
 6144SOL    HW220392   3.656   2.426   8.370
 6145SOL     OW20393   2.997   2.565   8.165
 6145SOL    HW120394   3.054   2.643   8.140
 6145SOL    HW220395   2.937   2.591   8.241
 6146SOL     OW20396   3.617   2.469   7.679
 6146SOL    HW120397   3.605   2.456   7.580
 6146SOL    HW220398   3.587   2.388   7.728
 6147SOL     OW20399   2.630   3.006   8.471
 6147SOL    HW120400   2.552   3.023   8.531
 6147SOL    HW220401   2.664   3.093   8.435
 6148SOL     OW20402   2.547   2.874   8.113
 6148SOL    HW120403   2.616   2.858   8.183
 6148SOL    HW220404   2.474   2.931   8.151
 6149SOL     OW20405   2.197   3.297   8.509
 6149SOL    HW120406   2.119   3.266   8.456
 6149SOL    HW220407   2.255   3.355   8.452
 6150SOL     OW20408   3.322   3.367   8.787
 6150SOL    HW120409   3.346   3.461   8.813
 6150SOL    HW220410   3.306   3.313   8.869
 6151SOL     OW20411   2.300   2.254   8.947
 6151SOL    HW120412   2.382   2.198   8.956
 6151SOL    HW220413   2.219   2.196   8.951
 6152SOL     OW20414   3.465   2.309   8.185
 6152SOL    HW120415   3.391   2.355   8.135
 6152SOL    HW220416   3.516   2.377   8.238
 6153SOL     OW20417   2.093   3.575   7.931
 6153SOL    HW120418   2.127   3.652   7.985
 6153SOL    HW220419   2.137   3.575   7.841
 6154SOL     OW20420   2.092   3.296   7.986
 6154SOL    HW120421   2.066   3.392   7.986
 6154SOL    HW220422   2.021   3.242   8.031
 6155SOL     OW20423   2.102   2.953   8.334
 6155SOL    HW120424   2.116   2.869   8.386
 6155SOL    HW220425   2.047   3.017   8.389
 6156SOL     OW20426   2.482   3.648   8.887
 6156SOL    HW120427   2.390   3.631   8.922
 6156SOL    HW220428   2.510   3.740   8.913
 6157SOL     OW20429   2.468   2.826   7.571
 6157SOL    HW120430   2.475   2.910   7.517
 6157SOL    HW220431   2.514   2.839   7.659
 6158SOL     OW20432   3.456   1.976   8.928
 6158SOL    HW120433   3.438   2.043   8.856
 6158SOL    HW220434   3.453   2.022   9.017
 6159SOL     OW20435   1.984   2.505   8.011
 6159SOL    HW120436   1.939   2.417   8.028
 6159SOL    HW220437   1.983   2.559   8.095
 6160SOL     OW20438   3.704   3.629   7.807
 6160SOL    HW120439   3.758   3.600   7.887
 6160SOL    HW220440   3.734   3.719   7.778
 6161SOL     OW20441   1.889   3.458   7.565
 6161SOL    HW120442   1.870   3.362   7.586
 6161SOL    HW220443   1.856   3.516   7.640
 6162SOL     OW20444   3.551   2.784   8.060
 6162SOL    HW120445   3.646   2.755   8.068
 6162SOL    HW220446   3.543   2.849   7.985
 6163SOL     OW20447   3.503   2.970   7.880
 6163SOL    HW120448   3.589   2.972   7.828
 6163SOL    HW220449   3.517   3.017   7.968
 6164SOL     OW20450   2.475   3.227   8.174
 6164SOL    HW120451   2.426   3.140   8.183
 6164SOL    HW220452   2.452   3.270   8.087
 6165SOL     OW20453   2.671   1.866   7.950
 6165SOL    HW120454   2.711   1.957   7.941
 6165SOL    HW220455   2.571   1.874   7.956
 6166SOL     OW20456   2.059   2.838   8.712
 6166SOL    HW120457   2.148   2.793   8.698
 6166SOL    HW220458   1.986   2.773   8.693
 6167SOL     OW20459   3.387   2.861   7.638
 6167SOL    HW120460   3.324   2.785   7.651
 6167SOL    HW220461   3.435   2.879   7.724
 6168SOL     OW20462   3.328   3.279   8.401
 6168SOL    HW120463   3.269   3.285   8.481
 6168SOL    HW220464   3.313   3.191   8.355
 6169SOL     OW20465   3.529   3.576   8.020
 6169SOL    HW120466   3.488   3.553   7.932
 6169SOL    HW220467   3.511   3.502   8.085
 6170SOL     OW20468   2.460   2.591   7.718
 6170SOL    HW120469   2.484   2.660   7.650
 6170SOL    HW220470   2.382   2.624   7.772
 6171SOL     OW20471   3.143   2.207   8.392
 6171SOL    HW120472   3.057   2.157   8.379
 6171SOL    HW220473   3.205   2.153   8.448
 6172SOL     OW20474   3.438   3.524   7.755
 6172SOL    HW120475   3.527   3.570   7.758
 6172SOL    HW220476   3.417   3.500   7.660
 6173SOL     OW20477   2.669   2.467   8.913
 6173SOL    HW120478   2.622   2.464   9.002
 6173SOL    HW220479   2.618   2.412   8.847
 6174SOL     OW20480   2.853   2.272   8.690
 6174SOL    HW120481   2.776   2.306   8.744
 6174SOL    HW220482   2.819   2.221   8.611
 6175SOL     OW20483   2.903   2.563   7.877
 6175SOL    HW120484   2.929   2.559   7.973
 6175SOL    HW220485   2.818   2.512   7.863
 6176SOL     OW20486   1.938   2.673   8.237
 6176SOL    HW120487   2.037   2.661   8.246
 6176SOL    HW220488   1.914   2.768   8.258
 6177SOL     OW20489   1.992   3.683   0.019
 6177SOL    HW120490   1.982   3.668   0.118
 6177SOL    HW220491   1.906   3.719  -0.017
 6178SOL     OW20492   2.727   2.210   7.643
 6178SOL    HW120493   2.786   2.273   7.594
 6178SOL    HW220494   2.746   2.116   7.614
 6179SOL     OW20495   3.224   3.006   7.993
 6179SOL    HW120496   3.307   2.977   7.945
 6179SOL    HW220497   3.175   3.073   7.937
 6180SOL     OW20498   2.412   2.058   8.333
 6180SOL    HW120499   2.407   2.053   8.433
 6180SOL    HW220500   2.414   2.154   8.304
 6181SOL     OW20501   2.870   3.318   7.925
 6181SOL    HW120502   2.824   3.390   7.873
 6181SOL    HW220503   2.866   3.338   8.023
 6182SOL     OW20504   2.213   3.663   8.301
 6182SOL    HW120505   2.263   3.577   8.307
 6182SOL    HW220506   2.278   3.740   8.298
 6183SOL     OW20507   3.657   2.928   8.321
 6183SOL    HW120508   3.595   2.913   8.245
 6183SOL    HW220509   3.605   2.939   8.406
 6184SOL     OW20510   2.183   2.805   7.690
 6184SOL    HW120511   2.265   2.844   7.648
 6184SOL    HW220512   2.156   2.723   7.641
 6185SOL     OW20513   3.320   2.597   8.176
 6185SOL    HW120514   3.315   2.532   8.251
 6185SOL    HW220515   3.400   2.656   8.189
 6186SOL     OW20516   2.973   3.638   7.685
 6186SOL    HW120517   2.913   3.576   7.735
 6186SOL    HW220518   3.004   3.594   7.600
 6187SOL     OW20519   2.064   2.147   8.946
 6187SOL    HW120520   1.984   2.207   8.933
 6187SOL    HW220521   2.054   2.098   9.032
 6188SOL     OW20522   3.494   3.239   7.529
 6188SOL    HW120523   3.462   3.333   7.519
 6188SOL    HW220524   3.418   3.176   7.517
 6189SOL     OW20525   2.326   3.605   7.771
 6189SOL    HW120526   2.359   3.644   7.857
 6189SOL    HW220527   2.402   3.598   7.706
 6190SOL     OW20528   3.262   1.969   7.874
 6190SOL    HW120529   3.238   1.932   7.784
 6190SOL    HW220530   3.361   1.985   7.878
 6191SOL     OW20531   2.111   3.647   8.689
 6191SOL    HW120532   2.168   3.582   8.739
 6191SOL    HW220533   2.095   3.614   8.596
 6192SOL     OW20534   2.802   3.560   8.352
 6192SOL    HW120535   2.882   3.503   8.373
 6192SOL    HW220536   2.753   3.520   8.275
 6193SOL     OW20537   2.244   2.562   7.928
 6193SOL    HW120538   2.289   2.472   7.925
 6193SOL    HW220539   2.150   2.551   7.961
 6194SOL     OW20540   2.476   1.984   7.565
 6194SOL    HW120541   2.574   1.962   7.572
 6194SOL    HW220542   2.445   1.967   7.472
 6195SOL     OW20543   2.750   3.376   8.643
 6195SOL    HW120544   2.727   3.351   8.549
 6195SOL    HW220545   2.811   3.307   8.682
 6196SOL     OW20546   2.665   3.264   8.372
 6196SOL    HW120547   2.755   3.278   8.330
 6196SOL    HW220548   2.594   3.266   8.301
 6197SOL     OW20549   2.784   2.365   8.347
 6197SOL    HW120550   2.759   2.356   8.251
 6197SOL    HW220551   2.832   2.283   8.378
 6198SOL     OW20552   2.401   1.926   7.960
 6198SOL    HW120553   2.320   1.927   8.018
 6198SOL    HW220554   2.404   2.009   7.905
 6199SOL     OW20555   3.296   3.050   7.489
 6199SOL    HW120556   3.328   2.974   7.546
 6199SOL    HW220557   3.204   3.077   7.519
 6200SOL     OW20558   2.159   1.897   7.619
 6200SOL    HW120559   2.208   1.981   7.598
 6200SOL    HW220560   2.221   1.832   7.664
 6201SOL     OW20561   2.797   2.098   7.928
 6201SOL    HW120562   2.749   2.139   7.850
 6201SOL    HW220563   2.896   2.096   7.909
 6202SOL     OW20564   3.089   3.432   8.241
 6202SOL    HW120565   3.110   3.506   8.176
 6202SOL    HW220566   3.157   3.432   8.314
 6203SOL     OW20567   2.321   3.014   8.189
 6203SOL    HW120568   2.250   2.987   8.254
 6203SOL    HW220569   2.295   2.986   8.096
 6204SOL     OW20570   3.133   3.659   8.039
 6204SOL    HW120571   3.177   3.723   7.975
 6204SOL    HW220572   3.083   3.711   8.109
 6205SOL     OW20573   2.894   2.411   7.464
 6205SOL    HW120574   2.853   2.493   7.425
 6205SOL    HW220575   2.958   2.437   7.537
 6206SOL     OW20576   1.940   2.418   8.834
 6206SOL    HW120577   2.032   2.417   8.793
 6206SOL    HW220578   1.934   2.492   8.901
 6207SOL     OW20579   2.423   2.084   8.595
 6207SOL    HW120580   2.461   2.000   8.632
 6207SOL    HW220581   2.335   2.103   8.639
 6208SOL     OW20582   2.728   2.316   8.090
 6208SOL    HW120583   2.696   2.388   8.028
 6208SOL    HW220584   2.752   2.235   8.037
 6209SOL     OW20585   2.879   1.901   8.201
 6209SOL    HW120586   2.807   1.906   8.132
 6209SOL    HW220587   2.855   1.832   8.270
 6210SOL     OW20588   3.291   3.035   8.315
 6210SOL    HW120589   3.236   2.951   8.308
 6210SOL    HW220590   3.317   3.064   8.223
 6211SOL     OW20591   3.328   2.452   8.440
 6211SOL    HW120592   3.298   2.357   8.447
 6211SOL    HW220593   3.401   2.468   8.506
 6212SOL     OW20594   3.719   2.695   7.825
 6212SOL    HW120595   3.761   2.631   7.889
 6212SOL    HW220596   3.681   2.644   7.747
 6213SOL     OW20597   2.350   3.247   7.622
 6213SOL    HW120598   2.263   3.232   7.669
 6213SOL    HW220599   2.333   3.273   7.527
 6214SOL     OW20600   3.526   3.142   8.105
 6214SOL    HW120601   3.625   3.150   8.119
 6214SOL    HW220602   3.481   3.226   8.136
 6215SOL     OW20603   3.252   2.437   7.526
 6215SOL    HW120604   3.198   2.416   7.607
 6215SOL    HW220605   3.343   2.396   7.535
 6216SOL     OW20606   2.389   2.118   7.776
 6216SOL    HW120607   2.416   2.059   7.701
 6216SOL    HW220608   2.389   2.213   7.745
 6217SOL     OW20609   2.926   3.209   8.788
 6217SOL    HW120610   2.846   3.186   8.843
 6217SOL    HW220611   3.009   3.183   8.837
 6218SOL     OW20612   2.973   3.057   8.548
 6218SOL    HW120613   2.933   3.101   8.629
 6218SOL    HW220614   2.932   3.094   8.465
 6219SOL     OW20615   3.500   2.961   8.527
 6219SOL    HW120616   3.505   3.042   8.586
 6219SOL    HW220617   3.414   2.963   8.476
 6220SOL     OW20618   2.777   1.951   8.850
 6220SOL    HW120619   2.802   1.931   8.755
 6220SOL    HW220620   2.849   2.007   8.892
 6221SOL     OW20621   2.567   2.912   7.816
 6221SOL    HW120622   2.553   2.919   7.915
 6221SOL    HW220623   2.651   2.861   7.798
 6222SOL     OW20624   2.272   2.675   8.699
 6222SOL    HW120625   2.358   2.687   8.749
 6222SOL    HW220626   2.230   2.588   8.726
 6223SOL     OW20627   3.136   2.248   8.710
 6223SOL    HW120628   3.157   2.322   8.774
 6223SOL    HW220629   3.047   2.265   8.667
 6224SOL     OW20630   1.926   3.426   8.779
 6224SOL    HW120631   1.880   3.508   8.745
 6224SOL    HW220632   2.024   3.445   8.788
 6225SOL     OW20633   2.229   2.962   7.949
 6225SOL    HW120634   2.222   3.045   7.893
 6225SOL    HW220635   2.233   2.882   7.889
 6226SOL     OW20636   2.428   2.399   8.313
 6226SOL    HW120637   2.440   2.465   8.239
 6226SOL    HW220638   2.474   2.433   8.396
 6227SOL     OW20639   3.114   3.210   7.836
 6227SOL    HW120640   3.164   3.287   7.876
 6227SOL    HW220641   3.019   3.212   7.868
 6228SOL     OW20642   3.134   3.307   8.590
 6228SOL    HW120643   3.181   3.320   8.677
 6228SOL    HW220644   3.068   3.233   8.599
 6229SOL     OW20645   3.444   2.501   7.920
 6229SOL    HW120646   3.413   2.562   7.993
 6229SOL    HW220647   3.494   2.553   7.851
 6230SOL     OW20648   2.216   3.372   8.777
 6230SOL    HW120649   2.195   3.328   8.690
 6230SOL    HW220650   2.313   3.398   8.780
 6231SOL     OW20651   2.264   2.613   0.046
 6231SOL    HW120652   2.332   2.668  -0.001
 6231SOL    HW220653   2.304   2.525   0.073
 6232SOL     OW20654   3.449   2.641   0.118
 6232SOL    HW120655   3.357   2.679   0.113
 6232SOL    HW220656   3.509   2.688   0.053
 6233SOL     OW20657   2.435   2.732   8.477
 6233SOL    HW120658   2.479   2.821   8.468
 6233SOL    HW220659   2.372   2.732   8.554
 6234SOL     OW20660   3.222   2.724   8.493
 6234SOL    HW120661   3.147   2.724   8.427
 6234SOL    HW220662   3.259   2.632   8.502
 6235SOL     OW20663   3.071   2.387   7.723
 6235SOL    HW120664   3.084   2.303   7.777
 6235SOL    HW220665   3.042   2.461   7.783
 6236SOL     OW20666   2.169   2.075   8.679
 6236SOL    HW120667   2.146   2.112   8.769
 6236SOL    HW220668   2.139   1.980   8.673
 6237SOL     OW20669   1.899   3.172   8.730
 6237SOL    HW120670   1.952   3.123   8.798
 6237SOL    HW220671   1.921   3.270   8.735
 6238SOL     OW20672   2.594   2.496   8.512
 6238SOL    HW120673   2.653   2.470   8.436
 6238SOL    HW220674   2.566   2.592   8.501
 6239SOL     OW20675   2.169   1.925   8.066
 6239SOL    HW120676   2.158   2.019   8.099
 6239SOL    HW220677   2.164   1.862   8.143
 6240SOL     OW20678   3.484   2.229   7.822
 6240SOL    HW120679   3.486   2.153   7.886
 6240SOL    HW220680   3.436   2.306   7.862
 6241SOL     OW20681   2.885   2.628   8.414
 6241SOL    HW120682   2.900   2.649   8.510
 6241SOL    HW220683   2.855   2.533   8.405
 6242SOL     OW20684   2.842   3.435   0.148
 6242SOL    HW120685   2.822   3.479   0.060
 6242SOL    HW220686   2.881   3.344   0.132
 6243SOL     OW20687   3.721   3.380   0.053
 6243SOL    HW120688   3.735   3.407  -0.042
 6243SOL    HW220689   3.804   3.402   0.106
 6244SOL     OW20690   3.402   2.136   7.573
 6244SOL    HW120691   3.341   2.061   7.596
 6244SOL    HW220692   3.424   2.188   7.656
 6245SOL     OW20693   3.165   2.700   7.490
 6245SOL    HW120694   3.199   2.607   7.505
 6245SOL    HW220695   3.183   2.727   7.395
 6246SOL     OW20696   2.930   3.195   8.297
 6246SOL    HW120697   2.937   3.111   8.242
 6246SOL    HW220698   2.992   3.264   8.261
 6247SOL     OW20699   2.181   2.672   8.397
 6247SOL    HW120700   2.274   2.708   8.402
 6247SOL    HW220701   2.175   2.587   8.449
 6248SOL     OW20702   2.201   2.371   8.454
 6248SOL    HW120703   2.149   2.288   8.437
 6248SOL    HW220704   2.278   2.376   8.390
 6249SOL     OW20705   3.000   2.242   0.126
 6249SOL    HW120706   2.955   2.305   0.190
 6249SOL    HW220707   3.093   2.273   0.109
 6250SOL     OW20708   3.022   2.069   8.925
 6250SOL    HW120709   3.022   2.133   9.002
 6250SOL    HW220710   3.050   2.117   8.842
 6251SOL     OW20711   1.870   3.188   7.648
 6251SOL    HW120712   1.777   3.209   7.617
 6251SOL    HW220713   1.880   3.089   7.661
 6252SOL     OW20714   1.950   3.663   8.375
 6252SOL    HW120715   1.908   3.577   8.348
 6252SOL    HW220716   2.044   3.666   8.341
 6253SOL     OW20717   2.366   3.430   8.358
 6253SOL    HW120718   2.432   3.504   8.367
 6253SOL    HW220719   2.410   3.351   8.316
 6254SOL     OW20720   2.864   2.658   8.686
 6254SOL    HW120721   2.905   2.626   8.772
 6254SOL    HW220722   2.768   2.631   8.683
 6255SOL     OW20723   1.902   2.406   8.562
 6255SOL    HW120724   1.987   2.373   8.521
 6255SOL    HW220725   1.915   2.421   8.660
 6256SOL     OW20726   2.677   2.434   7.773
 6256SOL    HW120727   2.684   2.345   7.727
 6256SOL    HW220728   2.583   2.468   7.765
 6257SOL     OW20729   3.519   2.466   8.654
 6257SOL    HW120730   3.481   2.397   8.716
 6257SOL    HW220731   3.601   2.430   8.610
 6258SOL     OW20732   2.533   2.326   8.717
 6258SOL    HW120733   2.499   2.237   8.687
 6258SOL    HW220734   2.559   2.380   8.637
 6259SOL     OW20735   2.792   3.540   8.913
 6259SOL    HW120736   2.768   3.522   8.818
 6259SOL    HW220737   2.822   3.634   8.923
 6260SOL     OW20738   2.335   2.362   7.639
 6260SOL    HW120739   2.396   2.442   7.643
 6260SOL    HW220740   2.240   2.393   7.646
 6261SOL     OW20741   2.021   2.999   8.914
 6261SOL    HW120742   2.043   2.938   8.990
 6261SOL    HW220743   2.031   2.950   8.828
 6262SOL     OW20744   3.209   2.921   8.682
 6262SOL    HW120745   3.233   2.858   8.608
 6262SOL    HW220746   3.119   2.961   8.664
 6263SOL     OW20747   3.164   2.717   7.757
 6263SOL    HW120748   3.078   2.686   7.799
 6263SOL    HW220749   3.160   2.703   7.658
 6264SOL     OW20750   3.621   3.609   8.602
 6264SOL    HW120751   3.682   3.639   8.529
 6264SOL    HW220752   3.583   3.520   8.580
 6265SOL     OW20753   3.114   3.593   8.576
 6265SOL    HW120754   3.198   3.598   8.522
 6265SOL    HW220755   3.091   3.497   8.594
 6266SOL     OW20756   1.945   3.120   8.470
 6266SOL    HW120757   1.940   3.119   8.570
 6266SOL    HW220758   1.862   3.079   8.432
 6267SOL     OW20759   2.765   1.948   7.581
 6267SOL    HW120760   2.816   1.949   7.495
 6267SOL    HW220761   2.821   1.906   7.652
 6268SOL     OW20762   3.588   1.997   7.971
 6268SOL    HW120763   3.661   1.980   7.904
 6268SOL    HW220764   3.557   1.910   8.009
 6269SOL     OW20765   3.250   3.435   7.925
 6269SOL    HW120766   3.317   3.447   7.851
 6269SOL    HW220767   3.210   3.524   7.948
 6270SOL     OW20768   3.142   2.789   8.120
 6270SOL    HW120769   3.202   2.708   8.122
 6270SOL    HW220770   3.182   2.858   8.060
 6271SOL     OW20771   2.534   3.478   7.602
 6271SOL    HW120772   2.543   3.488   7.503
 6271SOL    HW220773   2.494   3.389   7.623
 6272SOL     OW20774   3.512   3.582   8.842
 6272SOL    HW120775   3.565   3.592   8.758
 6272SOL    HW220776   3.485   3.672   8.876
 6273SOL     OW20777   3.703   2.037   8.411
 6273SOL    HW120778   3.742   1.952   8.375
 6273SOL    HW220779   3.605   2.039   8.392
 6274SOL     OW20780   2.125   2.188   8.168
 6274SOL    HW120781   2.046   2.239   8.134
 6274SOL    HW220782   2.116   2.173   8.266
 6275SOL     OW20783   3.056   3.474   7.479
 6275SOL    HW120784   3.062   3.381   7.516
 6275SOL    HW220785   2.997   3.474   7.399
 6276SOL     OW20786   2.684   2.864   8.820
 6276SOL    HW120787   2.724   2.863   8.728
 6276SOL    HW220788   2.694   2.956   8.860
 6277SOL     OW20789   2.778   2.772   7.739
 6277SOL    HW120790   2.841   2.810   7.671
 6277SOL    HW220791   2.818   2.689   7.778
 6278SOL     OW20792   3.366   3.469   7.492
 6278SOL    HW120793   3.274   3.506   7.499
 6278SOL    HW220794   3.404   3.489   7.402
 6279SOL     OW20795   2.234   3.150   8.938
 6279SOL    HW120796   2.221   3.243   8.904
 6279SOL    HW220797   2.150   3.098   8.925
 6280SOL     OW20798   3.476   3.154   8.737
 6280SOL    HW120799   3.536   3.157   8.817
 6280SOL    HW220800   3.401   3.218   8.750
 6281SOL     OW20801   2.901   2.960   8.144
 6281SOL    HW120802   2.831   2.913   8.198
 6281SOL    HW220803   2.960   2.892   8.101
 6282SOL     OW20804   2.876   2.098   8.419
 6282SOL    HW120805   2.868   2.062   8.326
 6282SOL    HW220806   2.874   2.022   8.484
 6283SOL     OW20807   2.452   3.349   7.939
 6283SOL    HW120808   2.494   3.291   7.869
 6283SOL    HW220809   2.408   3.428   7.895
 6284SOL     OW20810   3.571   2.247   8.829
 6284SOL    HW120811   3.644   2.316   8.833
 6284SOL    HW220812   3.599   2.172   8.770
 6285SOL     OW20813   2.117   3.210   7.738
 6285SOL    HW120814   2.021   3.211   7.711
 6285SOL    HW220815   2.129   3.263   7.822
 6286SOL     OW20816   1.937   2.207   7.481
 6286SOL    HW120817   1.845   2.179   7.452
 6286SOL    HW220818   1.968   2.284   7.425
 6287SOL     OW20819   3.302   2.718   8.846
 6287SOL    HW120820   3.245   2.770   8.783
 6287SOL    HW220821   3.398   2.730   8.822
 6288SOL     OW20822   1.934   2.028   7.766
 6288SOL    HW120823   1.917   2.111   7.712
 6288SOL    HW220824   2.024   1.991   7.744
 6289SOL     OW20825   3.045   3.197   7.567
 6289SOL    HW120826   2.946   3.186   7.569
 6289SOL    HW220827   3.079   3.212   7.660
 6290SOL     OW20828   2.475   2.704   8.879
 6290SOL    HW120829   2.531   2.785   8.862
 6290SOL    HW220830   2.534   2.624   8.882
 6291SOL     OW20831   3.355   3.629   8.407
 6291SOL    HW120832   3.388   3.693   8.338
 6291SOL    HW220833   3.421   3.623   8.482
 6292SOL     OW20834   2.252   3.603   0.008
 6292SOL    HW120835   2.161   3.644   0.006
 6292SOL    HW220836   2.245   3.509   0.040
 6293SOL     OW20837   3.536   2.745   8.702
 6293SOL    HW120838   3.509   2.656   8.665
 6293SOL    HW220839   3.537   2.813   8.629
 6294SOL     OW20840   3.087   2.187   7.897
 6294SOL    HW120841   3.152   2.113   7.886
 6294SOL    HW220842   3.107   2.237   7.981
 6295SOL     OW20843   2.456   2.607   8.100
 6295SOL    HW120844   2.506   2.692   8.081
 6295SOL    HW220845   2.368   2.609   8.052
 6296SOL     OW20846   3.639   2.204   0.090
 6296SOL    HW120847   3.622   2.235  -0.004
 6296SOL    HW220848   3.555   2.167   0.128
 6297SOL     OW20849   3.592   2.796   8.965
 6297SOL    HW120850   3.630   2.887   8.980
 6297SOL    HW220851   3.584   2.779   8.866
 6298SOL     OW20852   2.721   3.236   7.464
 6298SOL    HW120853   2.675   3.251   7.552
 6298SOL    HW220854   2.765   3.321   7.434
 6299SOL     OW20855   2.523   3.652   8.401
 6299SOL    HW120856   2.477   3.740   8.388
 6299SOL    HW220857   2.622   3.664   8.394
 6300SOL     OW20858   3.270   3.713   0.168
 6300SOL    HW120859   3.174   3.702   0.141
 6300SOL    HW220860   3.326   3.646   0.120
 6301SOL     OW20861   2.721   2.818   8.309
 6301SOL    HW120862   2.775   2.749   8.357
 6301SOL    HW220863   2.689   2.887   8.375
 6302SOL     OW20864   2.945   2.846   7.535
 6302SOL    HW120865   2.922   2.899   7.453
 6302SOL    HW220866   3.026   2.790   7.516
 6303SOL     OW20867   3.723   3.431   8.299
 6303SOL    HW120868   3.652   3.419   8.229
 6303SOL    HW220869   3.724   3.352   8.359
 6304SOL     OW20870   1.941   3.102   8.101
 6304SOL    HW120871   1.940   3.055   8.189
 6304SOL    HW220872   2.023   3.074   8.050
 6305SOL     OW20873   3.686   2.054   8.675
 6305SOL    HW120874   3.682   1.964   8.719
 6305SOL    HW220875   3.689   2.043   8.576
 6306SOL     OW20876   2.290   2.286   7.968
 6306SOL    HW120877   2.320   2.214   7.906
 6306SOL    HW220878   2.251   2.246   8.051
 6307SOL     OW20879   3.567   3.349   8.552
 6307SOL    HW120880   3.474   3.324   8.525
 6307SOL    HW220881   3.593   3.299   8.634
 6308SOL     OW20882   2.179   2.409   8.728
 6308SOL    HW120883   2.217   2.350   8.800
 6308SOL    HW220884   2.219   2.383   8.640
 6309SOL     OW20885   2.674   3.448   8.135
 6309SOL    HW120886   2.706   3.458   8.041
 6309SOL    HW220887   2.595   3.386   8.137
 6310SOL     OW20888   3.286   2.076   8.560
 6310SOL    HW120889   3.338   2.011   8.615
 6310SOL    HW220890   3.237   2.139   8.621
 6311SOL     OW20891   2.863   1.896   8.602
 6311SOL    HW120892   2.800   1.824   8.571
 6311SOL    HW220893   2.956   1.860   8.602
 6312SOL     OW20894   2.632   3.192   7.749
 6312SOL    HW120895   2.586   3.105   7.766
 6312SOL    HW220896   2.723   3.189   7.790
 6313SOL     OW20897   2.480   3.429   8.732
 6313SOL    HW120898   2.475   3.511   8.789
 6313SOL    HW220899   2.569   3.426   8.687
 6314SOL     OW20900   3.214   1.914   7.616
 6314SOL    HW120901   3.249   1.873   7.532
 6314SOL    HW220902   3.124   1.876   7.636
 6315SOL     OW20903   3.162   2.315   8.139
 6315SOL    HW120904   3.103   2.395   8.143
 6315SOL    HW220905   3.177   2.280   8.232
 6316SOL     OW20906   3.455   2.083   8.330
 6316SOL    HW120907   3.371   2.082   8.384
 6316SOL    HW220908   3.457   2.166   8.274
 6317SOL     OW20909   1.901   2.939   7.748
 6317SOL    HW120910   2.000   2.928   7.739
 6317SOL    HW220911   1.861   2.853   7.780
 6318SOL     OW20912   2.737   3.508   7.785
 6318SOL    HW120913   2.660   3.473   7.731
 6318SOL    HW220914   2.705   3.579   7.847
 6319SOL     OW20915   2.092   4.352   0.113
 6319SOL    HW120916   1.999   4.350   0.150
 6319SOL    HW220917   2.093   4.313   0.021
 6320SOL     OW20918   2.087   3.999   0.996
 6320SOL    HW120919   2.122   3.982   1.088
 6320SOL    HW220920   1.999   3.954   0.984
 6321SOL     OW20921   1.881   4.092   0.647
 6321SOL    HW120922   1.799   4.135   0.686
 6321SOL    HW220923   1.853   4.019   0.584
 6322SOL     OW20924   2.431   4.999   1.165
 6322SOL    HW120925   2.338   4.992   1.128
 6322SOL    HW220926   2.442   5.088   1.209
 6323SOL     OW20927   3.417   5.235   0.703
 6323SOL    HW120928   3.360   5.219   0.784
 6323SOL    HW220929   3.358   5.245   0.623
 6324SOL     OW20930   2.997   4.427   0.717
 6324SOL    HW120931   3.054   4.505   0.692
 6324SOL    HW220932   2.937   4.453   0.793
 6325SOL     OW20933   3.617   4.331   0.231
 6325SOL    HW120934   3.605   4.318   0.132
 6325SOL    HW220935   3.587   4.250   0.280
 6326SOL     OW20936   2.630   4.868   1.023
 6326SOL    HW120937   2.552   4.885   1.083
 6326SOL    HW220938   2.664   4.955   0.987
 6327SOL     OW20939   2.712   4.522   1.823
 6327SOL    HW120940   2.708   4.598   1.888
 6327SOL    HW220941   2.734   4.558   1.732
 6328SOL     OW20942   2.547   4.736   0.665
 6328SOL    HW120943   2.616   4.720   0.735
 6328SOL    HW220944   2.474   4.793   0.703
 6329SOL     OW20945   2.548   4.885   1.803
 6329SOL    HW120946   2.608   4.964   1.817
 6329SOL    HW220947   2.462   4.916   1.762
 6330SOL     OW20948   2.197   5.159   1.061
 6330SOL    HW120949   2.119   5.128   1.008
 6330SOL    HW220950   2.255   5.217   1.004
 6331SOL     OW20951   3.322   5.229   1.339
 6331SOL    HW120952   3.346   5.323   1.365
 6331SOL    HW220953   3.306   5.175   1.421
 6332SOL     OW20954   2.300   4.116   1.499
 6332SOL    HW120955   2.382   4.060   1.508
 6332SOL    HW220956   2.219   4.058   1.503
 6333SOL     OW20957   3.465   4.171   0.737
 6333SOL    HW120958   3.391   4.217   0.687
 6333SOL    HW220959   3.516   4.239   0.790
 6334SOL     OW20960   2.093   5.437   0.483
 6334SOL    HW120961   2.127   5.514   0.537
 6334SOL    HW220962   2.137   5.437   0.393
 6335SOL     OW20963   2.989   5.065   1.690
 6335SOL    HW120964   3.036   5.065   1.778
 6335SOL    HW220965   2.941   4.978   1.679
 6336SOL     OW20966   2.092   5.158   0.538
 6336SOL    HW120967   2.066   5.254   0.538
 6336SOL    HW220968   2.021   5.104   0.583
 6337SOL     OW20969   2.102   4.815   0.886
 6337SOL    HW120970   2.116   4.731   0.938
 6337SOL    HW220971   2.047   4.879   0.941
 6338SOL     OW20972   2.482   5.510   1.439
 6338SOL    HW120973   2.390   5.493   1.474
 6338SOL    HW220974   2.510   5.602   1.465
 6339SOL     OW20975   2.468   4.688   0.123
 6339SOL    HW120976   2.475   4.772   0.069
 6339SOL    HW220977   2.514   4.701   0.211
 6340SOL     OW20978   1.984   4.367   0.563
 6340SOL    HW120979   1.939   4.279   0.580
 6340SOL    HW220980   1.983   4.421   0.647
 6341SOL     OW20981   3.704   5.491   0.359
 6341SOL    HW120982   3.758   5.462   0.439
 6341SOL    HW220983   3.734   5.581   0.330
 6342SOL     OW20984   3.551   4.646   0.612
 6342SOL    HW120985   3.646   4.617   0.620
 6342SOL    HW220986   3.543   4.711   0.537
 6343SOL     OW20987   3.503   4.832   0.432
 6343SOL    HW120988   3.589   4.834   0.380
 6343SOL    HW220989   3.517   4.879   0.520
 6344SOL     OW20990   1.975   4.461   1.597
 6344SOL    HW120991   2.063   4.448   1.642
 6344SOL    HW220992   1.962   4.558   1.575
 6345SOL     OW20993   2.475   5.089   0.726
 6345SOL    HW120994   2.426   5.002   0.735
 6345SOL    HW220995   2.452   5.132   0.639
 6346SOL     OW20996   3.155   4.952   1.423
 6346SOL    HW120997   3.192   4.879   1.365
 6346SOL    HW220998   3.207   4.957   1.508
 6347SOL     OW20999   2.059   4.700   1.264
 6347SOL    HW121000   2.148   4.655   1.250
 6347SOL    HW221001   1.986   4.635   1.245
 6348SOL     OW21002   3.387   4.723   0.190
 6348SOL    HW121003   3.324   4.647   0.203
 6348SOL    HW221004   3.435   4.741   0.276
 6349SOL     OW21005   3.049   5.516   1.616
 6349SOL    HW121006   3.073   5.576   1.540
 6349SOL    HW221007   3.056   5.421   1.586
 6350SOL     OW21008   2.179   3.975   1.801
 6350SOL    HW121009   2.250   4.046   1.807
 6350SOL    HW221010   2.091   4.014   1.829
 6351SOL     OW21011   3.328   5.141   0.953
 6351SOL    HW121012   3.269   5.147   1.033
 6351SOL    HW221013   3.313   5.053   0.907
 6352SOL     OW21014   3.529   5.438   0.572
 6352SOL    HW121015   3.488   5.415   0.484
 6352SOL    HW221016   3.511   5.364   0.637
 6353SOL     OW21017   2.460   4.453   0.270
 6353SOL    HW121018   2.484   4.522   0.202
 6353SOL    HW221019   2.382   4.486   0.324
 6354SOL     OW21020   3.438   5.386   0.307
 6354SOL    HW121021   3.527   5.432   0.310
 6354SOL    HW221022   3.417   5.362   0.212
 6355SOL     OW21023   2.669   4.329   1.465
 6355SOL    HW121024   2.622   4.326   1.554
 6355SOL    HW221025   2.618   4.274   1.399
 6356SOL     OW21026   3.256   4.193   1.674
 6356SOL    HW121027   3.236   4.236   1.762
 6356SOL    HW221028   3.334   4.131   1.683
 6357SOL     OW21029   2.835   4.614   1.572
 6357SOL    HW121030   2.881   4.530   1.543
 6357SOL    HW221031   2.779   4.648   1.497
 6358SOL     OW21032   2.903   4.425   0.429
 6358SOL    HW121033   2.929   4.421   0.525
 6358SOL    HW221034   2.818   4.374   0.415
 6359SOL     OW21035   1.938   4.535   0.789
 6359SOL    HW121036   2.037   4.523   0.798
 6359SOL    HW221037   1.914   4.630   0.810
 6360SOL     OW21038   1.992   5.545   1.571
 6360SOL    HW121039   1.982   5.530   1.670
 6360SOL    HW221040   1.906   5.581   1.535
 6361SOL     OW21041   2.727   4.072   0.195
 6361SOL    HW121042   2.786   4.135   0.146
 6361SOL    HW221043   2.746   3.978   0.166
 6362SOL     OW21044   3.581   4.309   1.831
 6362SOL    HW121045   3.555   4.398   1.795
 6362SOL    HW221046   3.579   4.241   1.758
 6363SOL     OW21047   3.224   4.868   0.545
 6363SOL    HW121048   3.307   4.839   0.497
 6363SOL    HW221049   3.175   4.935   0.489
 6364SOL     OW21050   2.870   5.180   0.477
 6364SOL    HW121051   2.824   5.252   0.425
 6364SOL    HW221052   2.866   5.200   0.575
 6365SOL     OW21053   2.213   5.525   0.853
 6365SOL    HW121054   2.263   5.439   0.859
 6365SOL    HW221055   2.278   5.602   0.850
 6366SOL     OW21056   3.657   4.790   0.873
 6366SOL    HW121057   3.595   4.775   0.797
 6366SOL    HW221058   3.605   4.801   0.958
 6367SOL     OW21059   3.089   5.274   1.506
 6367SOL    HW121060   3.095   5.197   1.570
 6367SOL    HW221061   3.037   5.248   1.426
 6368SOL     OW21062   2.183   4.667   0.242
 6368SOL    HW121063   2.265   4.706   0.200
 6368SOL    HW221064   2.156   4.585   0.193
 6369SOL     OW21065   3.320   4.459   0.728
 6369SOL    HW121066   3.315   4.394   0.803
 6369SOL    HW221067   3.400   4.518   0.741
 6370SOL     OW21068   2.323   4.990   1.727
 6370SOL    HW121069   2.273   4.991   1.641
 6370SOL    HW221070   2.260   4.972   1.803
 6371SOL     OW21071   2.973   5.500   0.237
 6371SOL    HW121072   2.913   5.438   0.287
 6371SOL    HW221073   3.004   5.456   0.152
 6372SOL     OW21074   2.064   4.009   1.498
 6372SOL    HW121075   1.984   4.069   1.485
 6372SOL    HW221076   2.054   3.960   1.584
 6373SOL     OW21077   3.494   5.101   0.081
 6373SOL    HW121078   3.462   5.195   0.071
 6373SOL    HW221079   3.418   5.038   0.069
 6374SOL     OW21080   2.326   5.467   0.323
 6374SOL    HW121081   2.359   5.506   0.409
 6374SOL    HW221082   2.402   5.460   0.258
 6375SOL     OW21083   3.262   3.831   0.426
 6375SOL    HW121084   3.238   3.794   0.336
 6375SOL    HW221085   3.361   3.847   0.430
 6376SOL     OW21086   2.111   5.509   1.241
 6376SOL    HW121087   2.168   5.444   1.291
 6376SOL    HW221088   2.095   5.476   1.148
 6377SOL     OW21089   2.802   5.422   0.904
 6377SOL    HW121090   2.882   5.365   0.925
 6377SOL    HW221091   2.753   5.382   0.827
 6378SOL     OW21092   2.244   4.424   0.480
 6378SOL    HW121093   2.289   4.334   0.477
 6378SOL    HW221094   2.150   4.413   0.513
 6379SOL     OW21095   3.409   3.946   1.729
 6379SOL    HW121096   3.404   3.983   1.821
 6379SOL    HW221097   3.337   3.877   1.717
 6380SOL     OW21098   2.476   3.846   0.117
 6380SOL    HW121099   2.574   3.824   0.124
 6380SOL    HW221100   2.445   3.829   0.024
 6381SOL     OW21101   2.643   3.988   1.749
 6381SOL    HW121102   2.710   3.927   1.792
 6381SOL    HW221103   2.570   4.007   1.814
 6382SOL     OW21104   2.750   5.238   1.195
 6382SOL    HW121105   2.727   5.213   1.101
 6382SOL    HW221106   2.811   5.169   1.234
 6383SOL     OW21107   3.213   4.314   1.433
 6383SOL    HW121108   3.241   4.271   1.518
 6383SOL    HW221109   3.238   4.410   1.434
 6384SOL     OW21110   2.665   5.126   0.924
 6384SOL    HW121111   2.755   5.140   0.882
 6384SOL    HW221112   2.594   5.128   0.853
 6385SOL     OW21113   2.401   3.788   0.512
 6385SOL    HW121114   2.320   3.789   0.570
 6385SOL    HW221115   2.404   3.871   0.457
 6386SOL     OW21116   3.296   4.912   0.041
 6386SOL    HW121117   3.328   4.836   0.098
 6386SOL    HW221118   3.204   4.939   0.071
 6387SOL     OW21119   3.089   5.294   0.793
 6387SOL    HW121120   3.110   5.368   0.728
 6387SOL    HW221121   3.157   5.294   0.866
 6388SOL     OW21122   2.321   4.876   0.741
 6388SOL    HW121123   2.250   4.849   0.806
 6388SOL    HW221124   2.295   4.848   0.648
 6389SOL     OW21125   3.133   5.521   0.591
 6389SOL    HW121126   3.177   5.585   0.527
 6389SOL    HW221127   3.083   5.573   0.661
 6390SOL     OW21128   2.894   4.273   0.016
 6390SOL    HW121129   2.853   4.355  -0.023
 6390SOL    HW221130   2.958   4.299   0.089
 6391SOL     OW21131   1.940   4.280   1.386
 6391SOL    HW121132   2.032   4.279   1.345
 6391SOL    HW221133   1.934   4.354   1.453
 6392SOL     OW21134   2.728   4.178   0.642
 6392SOL    HW121135   2.696   4.250   0.580
 6392SOL    HW221136   2.752   4.097   0.589
 6393SOL     OW21137   3.291   4.897   0.867
 6393SOL    HW121138   3.236   4.813   0.860
 6393SOL    HW221139   3.317   4.926   0.775
 6394SOL     OW21140   3.328   4.314   0.992
 6394SOL    HW121141   3.298   4.219   0.999
 6394SOL    HW221142   3.401   4.330   1.058
 6395SOL     OW21143   3.719   4.557   0.377
 6395SOL    HW121144   3.761   4.493   0.441
 6395SOL    HW221145   3.681   4.506   0.299
 6396SOL     OW21146   2.350   5.109   0.174
 6396SOL    HW121147   2.263   5.094   0.221
 6396SOL    HW221148   2.333   5.135   0.079
 6397SOL     OW21149   3.526   5.004   0.657
 6397SOL    HW121150   3.625   5.012   0.671
 6397SOL    HW221151   3.481   5.088   0.688
 6398SOL     OW21152   3.252   4.299   0.078
 6398SOL    HW121153   3.198   4.278   0.159
 6398SOL    HW221154   3.343   4.258   0.087
 6399SOL     OW21155   3.616   4.947   1.588
 6399SOL    HW121156   3.707   4.908   1.575
 6399SOL    HW221157   3.624   5.043   1.612
 6400SOL     OW21158   2.926   5.071   1.340
 6400SOL    HW121159   2.846   5.048   1.395
 6400SOL    HW221160   3.009   5.045   1.389
 6401SOL     OW21161   3.454   5.353   1.625
 6401SOL    HW121162   3.481   5.387   1.535
 6401SOL    HW221163   3.533   5.315   1.671
 6402SOL     OW21164   2.973   4.919   1.100
 6402SOL    HW121165   2.933   4.963   1.181
 6402SOL    HW221166   2.932   4.956   1.017
 6403SOL     OW21167   3.500   4.823   1.079
 6403SOL    HW121168   3.505   4.904   1.138
 6403SOL    HW221169   3.414   4.825   1.028
 6404SOL     OW21170   2.777   3.813   1.402
 6404SOL    HW121171   2.802   3.793   1.307
 6404SOL    HW221172   2.849   3.869   1.444
 6405SOL     OW21173   2.842   4.840   1.719
 6405SOL    HW121174   2.743   4.846   1.729
 6405SOL    HW221175   2.865   4.760   1.663
 6406SOL     OW21176   2.567   4.774   0.368
 6406SOL    HW121177   2.553   4.781   0.467
 6406SOL    HW221178   2.651   4.723   0.350
 6407SOL     OW21179   2.272   4.537   1.251
 6407SOL    HW121180   2.358   4.549   1.301
 6407SOL    HW221181   2.230   4.450   1.278
 6408SOL     OW21182   1.926   5.288   1.331
 6408SOL    HW121183   1.880   5.370   1.297
 6408SOL    HW221184   2.024   5.307   1.340
 6409SOL     OW21185   2.229   4.824   0.501
 6409SOL    HW121186   2.222   4.907   0.445
 6409SOL    HW221187   2.233   4.744   0.441
 6410SOL     OW21188   2.428   4.261   0.865
 6410SOL    HW121189   2.440   4.327   0.791
 6410SOL    HW221190   2.474   4.295   0.948
 6411SOL     OW21191   3.114   5.072   0.388
 6411SOL    HW121192   3.164   5.149   0.428
 6411SOL    HW221193   3.019   5.074   0.420
 6412SOL     OW21194   3.134   5.169   1.142
 6412SOL    HW121195   3.181   5.182   1.229
 6412SOL    HW221196   3.068   5.095   1.151
 6413SOL     OW21197   3.444   4.363   0.472
 6413SOL    HW121198   3.413   4.424   0.545
 6413SOL    HW221199   3.494   4.415   0.403
 6414SOL     OW21200   2.216   5.234   1.329
 6414SOL    HW121201   2.195   5.190   1.242
 6414SOL    HW221202   2.313   5.260   1.332
 6415SOL     OW21203   2.264   4.475   1.598
 6415SOL    HW121204   2.332   4.530   1.551
 6415SOL    HW221205   2.304   4.387   1.625
 6416SOL     OW21206   3.449   4.503   1.670
 6416SOL    HW121207   3.357   4.541   1.665
 6416SOL    HW221208   3.509   4.550   1.605
 6417SOL     OW21209   2.875   3.829   1.770
 6417SOL    HW121210   2.881   3.914   1.718
 6417SOL    HW221211   2.907   3.753   1.713
 6418SOL     OW21212   2.366   3.774   1.740
 6418SOL    HW121213   2.324   3.717   1.670
 6418SOL    HW221214   2.300   3.843   1.772
 6419SOL     OW21215   2.435   4.594   1.029
 6419SOL    HW121216   2.479   4.683   1.020
 6419SOL    HW221217   2.372   4.594   1.106
 6420SOL     OW21218   3.222   4.586   1.045
 6420SOL    HW121219   3.147   4.586   0.979
 6420SOL    HW221220   3.259   4.494   1.054
 6421SOL     OW21221   3.071   4.249   0.275
 6421SOL    HW121222   3.084   4.165   0.329
 6421SOL    HW221223   3.042   4.323   0.335
 6422SOL     OW21224   2.169   3.937   1.231
 6422SOL    HW121225   2.146   3.974   1.321
 6422SOL    HW221226   2.139   3.842   1.225
 6423SOL     OW21227   1.899   5.034   1.282
 6423SOL    HW121228   1.952   4.985   1.350
 6423SOL    HW221229   1.921   5.132   1.287
 6424SOL     OW21230   2.594   4.358   1.064
 6424SOL    HW121231   2.653   4.332   0.988
 6424SOL    HW221232   2.566   4.454   1.053
 6425SOL     OW21233   3.590   4.659   1.854
 6425SOL    HW121234   3.544   4.652   1.765
 6425SOL    HW221235   3.528   4.703   1.920
 6426SOL     OW21236   2.169   3.787   0.618
 6426SOL    HW121237   2.158   3.881   0.651
 6426SOL    HW221238   2.164   3.724   0.695
 6427SOL     OW21239   3.484   4.091   0.374
 6427SOL    HW121240   3.486   4.015   0.438
 6427SOL    HW221241   3.436   4.168   0.414
 6428SOL     OW21242   2.885   4.490   0.966
 6428SOL    HW121243   2.900   4.511   1.062
 6428SOL    HW221244   2.855   4.395   0.957
 6429SOL     OW21245   2.842   5.297   1.700
 6429SOL    HW121246   2.822   5.341   1.612
 6429SOL    HW221247   2.881   5.206   1.684
 6430SOL     OW21248   3.721   5.242   1.605
 6430SOL    HW121249   3.735   5.269   1.510
 6430SOL    HW221250   3.804   5.264   1.658
 6431SOL     OW21251   2.212   4.622   1.804
 6431SOL    HW121252   2.288   4.666   1.852
 6431SOL    HW221253   2.247   4.575   1.722
 6432SOL     OW21254   3.402   3.998   0.125
 6432SOL    HW121255   3.341   3.923   0.148
 6432SOL    HW221256   3.424   4.050   0.208
 6433SOL     OW21257   3.165   4.562   0.042
 6433SOL    HW121258   3.199   4.469   0.057
 6433SOL    HW221259   3.183   4.589  -0.053
 6434SOL     OW21260   2.930   5.057   0.849
 6434SOL    HW121261   2.937   4.973   0.794
 6434SOL    HW221262   2.992   5.126   0.813
 6435SOL     OW21263   2.181   4.534   0.949
 6435SOL    HW121264   2.274   4.570   0.954
 6435SOL    HW221265   2.175   4.449   1.001
 6436SOL     OW21266   2.201   4.233   1.006
 6436SOL    HW121267   2.149   4.150   0.989
 6436SOL    HW221268   2.278   4.238   0.942
 6437SOL     OW21269   2.373   4.139   1.808
 6437SOL    HW121270   2.355   4.184   1.896
 6437SOL    HW221271   2.415   4.204   1.745
 6438SOL     OW21272   3.000   4.104   1.678
 6438SOL    HW121273   2.955   4.167   1.742
 6438SOL    HW221274   3.093   4.135   1.661
 6439SOL     OW21275   1.870   5.050   0.200
 6439SOL    HW121276   1.777   5.071   0.169
 6439SOL    HW221277   1.880   4.951   0.213
 6440SOL     OW21278   1.950   5.525   0.927
 6440SOL    HW121279   1.908   5.439   0.900
 6440SOL    HW221280   2.044   5.528   0.893
 6441SOL     OW21281   2.366   5.292   0.910
 6441SOL    HW121282   2.432   5.366   0.919
 6441SOL    HW221283   2.410   5.213   0.868
 6442SOL     OW21284   2.864   4.520   1.238
 6442SOL    HW121285   2.905   4.488   1.324
 6442SOL    HW221286   2.768   4.493   1.235
 6443SOL     OW21287   1.902   4.268   1.114
 6443SOL    HW121288   1.987   4.235   1.073
 6443SOL    HW221289   1.915   4.283   1.212
 6444SOL     OW21290   2.051   4.244   1.722
 6444SOL    HW121291   2.110   4.204   1.652
 6444SOL    HW221292   1.993   4.315   1.681
 6445SOL     OW21293   3.231   4.674   1.660
 6445SOL    HW121294   3.270   4.763   1.680
 6445SOL    HW221295   3.241   4.654   1.563
 6446SOL     OW21296   2.677   4.296   0.325
 6446SOL    HW121297   2.684   4.207   0.279
 6446SOL    HW221298   2.583   4.330   0.317
 6447SOL     OW21299   3.519   4.328   1.206
 6447SOL    HW121300   3.481   4.259   1.268
 6447SOL    HW221301   3.601   4.292   1.162
 6448SOL     OW21302   2.114   5.288   1.744
 6448SOL    HW121303   2.084   5.345   1.820
 6448SOL    HW221304   2.107   5.191   1.770
 6449SOL     OW21305   2.533   4.188   1.269
 6449SOL    HW121306   2.499   4.099   1.239
 6449SOL    HW221307   2.559   4.242   1.189
 6450SOL     OW21308   2.792   5.402   1.465
 6450SOL    HW121309   2.768   5.384   1.370
 6450SOL    HW221310   2.822   5.496   1.475
 6451SOL     OW21311   2.335   4.224   0.191
 6451SOL    HW121312   2.396   4.304   0.195
 6451SOL    HW221313   2.240   4.255   0.198
 6452SOL     OW21314   2.021   4.861   1.466
 6452SOL    HW121315   2.043   4.800   1.542
 6452SOL    HW221316   2.031   4.812   1.380
 6453SOL     OW21317   3.209   4.783   1.234
 6453SOL    HW121318   3.233   4.720   1.160
 6453SOL    HW221319   3.119   4.823   1.216
 6454SOL     OW21320   3.164   4.579   0.309
 6454SOL    HW121321   3.078   4.548   0.351
 6454SOL    HW221322   3.160   4.565   0.210
 6455SOL     OW21323   3.621   5.471   1.154
 6455SOL    HW121324   3.682   5.501   1.081
 6455SOL    HW221325   3.583   5.382   1.132
 6456SOL     OW21326   3.114   5.455   1.128
 6456SOL    HW121327   3.198   5.460   1.074
 6456SOL    HW221328   3.091   5.359   1.146
 6457SOL     OW21329   1.945   4.982   1.022
 6457SOL    HW121330   1.940   4.981   1.122
 6457SOL    HW221331   1.862   4.941   0.984
 6458SOL     OW21332   2.550   5.386   1.716
 6458SOL    HW121333   2.494   5.467   1.725
 6458SOL    HW221334   2.602   5.390   1.630
 6459SOL     OW21335   2.765   3.810   0.133
 6459SOL    HW121336   2.816   3.811   0.047
 6459SOL    HW221337   2.821   3.768   0.204
 6460SOL     OW21338   3.250   5.297   0.477
 6460SOL    HW121339   3.317   5.309   0.403
 6460SOL    HW221340   3.210   5.386   0.500
 6461SOL     OW21341   1.992   5.518   1.851
 6461SOL    HW121342   1.951   5.444   1.904
 6461SOL    HW221343   2.056   5.569   1.909
 6462SOL     OW21344   3.142   4.651   0.672
 6462SOL    HW121345   3.202   4.570   0.674
 6462SOL    HW221346   3.182   4.720   0.612
 6463SOL     OW21347   2.692   4.997   1.422
 6463SOL    HW121348   2.687   5.030   1.517
 6463SOL    HW221349   2.606   5.016   1.376
 6464SOL     OW21350   2.534   5.340   0.154
 6464SOL    HW121351   2.543   5.350   0.055
 6464SOL    HW221352   2.494   5.251   0.175
 6465SOL     OW21353   3.512   5.444   1.394
 6465SOL    HW121354   3.565   5.454   1.310
 6465SOL    HW221355   3.485   5.534   1.428
 6466SOL     OW21356   2.125   4.050   0.720
 6466SOL    HW121357   2.046   4.101   0.686
 6466SOL    HW221358   2.116   4.035   0.818
 6467SOL     OW21359   3.056   5.336   0.031
 6467SOL    HW121360   3.062   5.243   0.068
 6467SOL    HW221361   2.997   5.336  -0.049
 6468SOL     OW21362   2.684   4.726   1.372
 6468SOL    HW121363   2.724   4.725   1.280
 6468SOL    HW221364   2.694   4.818   1.412
 6469SOL     OW21365   2.778   4.634   0.291
 6469SOL    HW121366   2.841   4.672   0.223
 6469SOL    HW221367   2.818   4.551   0.330
 6470SOL     OW21368   3.366   5.331   0.044
 6470SOL    HW121369   3.274   5.368   0.051
 6470SOL    HW221370   3.404   5.351  -0.046
 6471SOL     OW21371   2.234   5.012   1.490
 6471SOL    HW121372   2.221   5.105   1.456
 6471SOL    HW221373   2.150   4.960   1.477
 6472SOL     OW21374   3.476   5.016   1.289
 6472SOL    HW121375   3.536   5.019   1.369
 6472SOL    HW221376   3.401   5.080   1.302
 6473SOL     OW21377   2.901   4.822   0.696
 6473SOL    HW121378   2.831   4.775   0.750
 6473SOL    HW221379   2.960   4.754   0.653
 6474SOL     OW21380   2.452   5.211   0.491
 6474SOL    HW121381   2.494   5.153   0.421
 6474SOL    HW221382   2.408   5.290   0.447
 6475SOL     OW21383   2.117   5.072   0.290
 6475SOL    HW121384   2.021   5.073   0.263
 6475SOL    HW221385   2.129   5.125   0.374
 6476SOL     OW21386   1.967   4.737   1.726
 6476SOL    HW121387   1.890   4.704   1.780
 6476SOL    HW221388   2.052   4.707   1.768
 6477SOL     OW21389   2.534   3.927   1.489
 6477SOL    HW121390   2.624   3.911   1.449
 6477SOL    HW221391   2.542   3.932   1.588
 6478SOL     OW21392   3.302   4.580   1.398
 6478SOL    HW121393   3.245   4.632   1.335
 6478SOL    HW221394   3.398   4.592   1.374
 6479SOL     OW21395   1.934   3.890   0.318
 6479SOL    HW121396   1.917   3.973   0.264
 6479SOL    HW221397   2.024   3.853   0.296
 6480SOL     OW21398   3.045   5.059   0.119
 6480SOL    HW121399   2.946   5.048   0.121
 6480SOL    HW221400   3.079   5.074   0.212
 6481SOL     OW21401   2.475   4.566   1.431
 6481SOL    HW121402   2.531   4.647   1.414
 6481SOL    HW221403   2.534   4.486   1.434
 6482SOL     OW21404   3.355   5.491   0.959
 6482SOL    HW121405   3.388   5.555   0.890
 6482SOL    HW221406   3.421   5.485   1.034
 6483SOL     OW21407   2.578   4.289   1.708
 6483SOL    HW121408   2.597   4.354   1.782
 6483SOL    HW221409   2.638   4.209   1.717
 6484SOL     OW21410   3.312   4.944   1.633
 6484SOL    HW121411   3.303   4.934   1.732
 6484SOL    HW221412   3.408   4.937   1.607
 6485SOL     OW21413   2.252   5.465   1.560
 6485SOL    HW121414   2.161   5.506   1.558
 6485SOL    HW221415   2.245   5.371   1.592
 6486SOL     OW21416   3.536   4.607   1.254
 6486SOL    HW121417   3.509   4.518   1.217
 6486SOL    HW221418   3.537   4.675   1.181
 6487SOL     OW21419   2.456   4.469   0.652
 6487SOL    HW121420   2.506   4.554   0.633
 6487SOL    HW221421   2.368   4.471   0.604
 6488SOL     OW21422   3.592   4.658   1.517
 6488SOL    HW121423   3.630   4.749   1.532
 6488SOL    HW221424   3.584   4.641   1.418
 6489SOL     OW21425   2.721   5.098   0.016
 6489SOL    HW121426   2.675   5.113   0.104
 6489SOL    HW221427   2.765   5.183  -0.014
 6490SOL     OW21428   2.523   5.514   0.953
 6490SOL    HW121429   2.477   5.602   0.940
 6490SOL    HW221430   2.622   5.526   0.946
 6491SOL     OW21431   3.270   5.575   1.720
 6491SOL    HW121432   3.174   5.564   1.693
 6491SOL    HW221433   3.326   5.508   1.672
 6492SOL     OW21434   2.721   4.680   0.861
 6492SOL    HW121435   2.775   4.611   0.909
 6492SOL    HW221436   2.689   4.749   0.927
 6493SOL     OW21437   2.945   4.708   0.087
 6493SOL    HW121438   2.922   4.761   0.005
 6493SOL    HW221439   3.026   4.652   0.068
 6494SOL     OW21440   3.723   5.293   0.851
 6494SOL    HW121441   3.652   5.281   0.781
 6494SOL    HW221442   3.724   5.214   0.911
 6495SOL     OW21443   2.083   5.038   1.844
 6495SOL    HW121444   2.018   4.965   1.823
 6495SOL    HW221445   2.087   5.052   1.942
 6496SOL     OW21446   1.941   4.964   0.653
 6496SOL    HW121447   1.940   4.917   0.741
 6496SOL    HW221448   2.023   4.936   0.602
 6497SOL     OW21449   2.534   5.115   1.624
 6497SOL    HW121450   2.456   5.065   1.662
 6497SOL    HW221451   2.531   5.210   1.655
 6498SOL     OW21452   2.290   4.148   0.520
 6498SOL    HW121453   2.320   4.076   0.458
 6498SOL    HW221454   2.251   4.108   0.603
 6499SOL     OW21455   3.567   5.211   1.104
 6499SOL    HW121456   3.474   5.186   1.077
 6499SOL    HW221457   3.593   5.161   1.186
 6500SOL     OW21458   2.179   4.271   1.280
 6500SOL    HW121459   2.217   4.212   1.352
 6500SOL    HW221460   2.219   4.245   1.192
 6501SOL     OW21461   2.674   5.310   0.687
 6501SOL    HW121462   2.706   5.320   0.593
 6501SOL    HW221463   2.595   5.248   0.689
 6502SOL     OW21464   2.632   5.054   0.301
 6502SOL    HW121465   2.586   4.967   0.318
 6502SOL    HW221466   2.723   5.051   0.342
 6503SOL     OW21467   2.480   5.291   1.284
 6503SOL    HW121468   2.475   5.373   1.341
 6503SOL    HW221469   2.569   5.288   1.239
 6504SOL     OW21470   3.162   4.177   0.691
 6504SOL    HW121471   3.103   4.257   0.695
 6504SOL    HW221472   3.177   4.142   0.784
 6505SOL     OW21473   3.455   3.945   0.882
 6505SOL    HW121474   3.371   3.944   0.936
 6505SOL    HW221475   3.457   4.028   0.826
 6506SOL     OW21476   1.901   4.801   0.300
 6506SOL    HW121477   2.000   4.790   0.291
 6506SOL    HW221478   1.861   4.715   0.332
 6507SOL     OW21479   2.737   5.370   0.337
 6507SOL    HW121480   2.660   5.335   0.283
 6507SOL    HW221481   2.705   5.441   0.399
 6508SOL     OW21482   2.092   4.352   1.975
 6508SOL    HW121483   1.999   4.350   2.012
 6508SOL    HW221484   2.093   4.313   1.883
 6509SOL     OW21485   2.087   3.999   2.858
 6509SOL    HW121486   2.122   3.982   2.950
 6509SOL    HW221487   1.999   3.954   2.846
 6510SOL     OW21488   1.881   4.092   2.509
 6510SOL    HW121489   1.799   4.135   2.548
 6510SOL    HW221490   1.853   4.019   2.446
 6511SOL     OW21491   3.417   5.235   2.565
 6511SOL    HW121492   3.360   5.219   2.646
 6511SOL    HW221493   3.358   5.245   2.485
 6512SOL     OW21494   3.605   4.342   2.718
 6512SOL    HW121495   3.638   4.436   2.718
 6512SOL    HW221496   3.656   4.288   2.784
 6513SOL     OW21497   2.997   4.427   2.579
 6513SOL    HW121498   3.054   4.505   2.554
 6513SOL    HW221499   2.937   4.453   2.655
 6514SOL     OW21500   3.617   4.331   2.093
 6514SOL    HW121501   3.605   4.318   1.994
 6514SOL    HW221502   3.587   4.250   2.142
 6515SOL     OW21503   2.630   4.868   2.885
 6515SOL    HW121504   2.552   4.885   2.945
 6515SOL    HW221505   2.664   4.955   2.849
 6516SOL     OW21506   2.712   4.522   3.685
 6516SOL    HW121507   2.708   4.598   3.750
 6516SOL    HW221508   2.734   4.558   3.594
 6517SOL     OW21509   2.547   4.736   2.527
 6517SOL    HW121510   2.616   4.720   2.597
 6517SOL    HW221511   2.474   4.793   2.565
 6518SOL     OW21512   2.548   4.885   3.665
 6518SOL    HW121513   2.608   4.964   3.679
 6518SOL    HW221514   2.462   4.916   3.624
 6519SOL     OW21515   3.322   5.229   3.201
 6519SOL    HW121516   3.346   5.323   3.227
 6519SOL    HW221517   3.306   5.175   3.283
 6520SOL     OW21518   2.300   4.116   3.361
 6520SOL    HW121519   2.382   4.060   3.370
 6520SOL    HW221520   2.219   4.058   3.365
 6521SOL     OW21521   3.465   4.171   2.599
 6521SOL    HW121522   3.391   4.217   2.549
 6521SOL    HW221523   3.516   4.239   2.652
 6522SOL     OW21524   2.093   5.437   2.345
 6522SOL    HW121525   2.127   5.514   2.399
 6522SOL    HW221526   2.137   5.437   2.255
 6523SOL     OW21527   2.989   5.065   3.552
 6523SOL    HW121528   3.036   5.065   3.640
 6523SOL    HW221529   2.941   4.978   3.541
 6524SOL     OW21530   2.092   5.158   2.400
 6524SOL    HW121531   2.066   5.254   2.400
 6524SOL    HW221532   2.021   5.104   2.445
 6525SOL     OW21533   2.482   5.510   3.301
 6525SOL    HW121534   2.390   5.493   3.336
 6525SOL    HW221535   2.510   5.602   3.327
 6526SOL     OW21536   2.468   4.688   1.985
 6526SOL    HW121537   2.475   4.772   1.931
 6526SOL    HW221538   2.514   4.701   2.073
 6527SOL     OW21539   3.456   3.838   3.342
 6527SOL    HW121540   3.438   3.905   3.270
 6527SOL    HW221541   3.453   3.884   3.431
 6528SOL     OW21542   1.984   4.367   2.425
 6528SOL    HW121543   1.939   4.279   2.442
 6528SOL    HW221544   1.983   4.421   2.509
 6529SOL     OW21545   3.704   5.491   2.221
 6529SOL    HW121546   3.758   5.462   2.301
 6529SOL    HW221547   3.734   5.581   2.192
 6530SOL     OW21548   1.889   5.320   1.979
 6530SOL    HW121549   1.870   5.224   2.000
 6530SOL    HW221550   1.856   5.378   2.054
 6531SOL     OW21551   3.551   4.646   2.474
 6531SOL    HW121552   3.646   4.617   2.482
 6531SOL    HW221553   3.543   4.711   2.399
 6532SOL     OW21554   3.503   4.832   2.294
 6532SOL    HW121555   3.589   4.834   2.242
 6532SOL    HW221556   3.517   4.879   2.382
 6533SOL     OW21557   1.975   4.461   3.459
 6533SOL    HW121558   2.063   4.448   3.504
 6533SOL    HW221559   1.962   4.558   3.437
 6534SOL     OW21560   3.155   4.952   3.285
 6534SOL    HW121561   3.192   4.879   3.227
 6534SOL    HW221562   3.207   4.957   3.370
 6535SOL     OW21563   2.671   3.728   2.364
 6535SOL    HW121564   2.711   3.819   2.355
 6535SOL    HW221565   2.571   3.736   2.370
 6536SOL     OW21566   2.059   4.700   3.126
 6536SOL    HW121567   2.148   4.655   3.112
 6536SOL    HW221568   1.986   4.635   3.107
 6537SOL     OW21569   3.387   4.723   2.052
 6537SOL    HW121570   3.324   4.647   2.065
 6537SOL    HW221571   3.435   4.741   2.138
 6538SOL     OW21572   2.179   3.975   3.663
 6538SOL    HW121573   2.250   4.046   3.669
 6538SOL    HW221574   2.091   4.014   3.691
 6539SOL     OW21575   3.328   5.141   2.815
 6539SOL    HW121576   3.269   5.147   2.895
 6539SOL    HW221577   3.313   5.053   2.769
 6540SOL     OW21578   3.529   5.438   2.434
 6540SOL    HW121579   3.488   5.415   2.346
 6540SOL    HW221580   3.511   5.364   2.499
 6541SOL     OW21581   2.460   4.453   2.132
 6541SOL    HW121582   2.484   4.522   2.064
 6541SOL    HW221583   2.382   4.486   2.186
 6542SOL     OW21584   3.143   4.069   2.806
 6542SOL    HW121585   3.057   4.019   2.793
 6542SOL    HW221586   3.205   4.015   2.862
 6543SOL     OW21587   3.438   5.386   2.169
 6543SOL    HW121588   3.527   5.432   2.172
 6543SOL    HW221589   3.417   5.362   2.074
 6544SOL     OW21590   2.669   4.329   3.327
 6544SOL    HW121591   2.622   4.326   3.416
 6544SOL    HW221592   2.618   4.274   3.261
 6545SOL     OW21593   3.256   4.193   3.536
 6545SOL    HW121594   3.236   4.236   3.624
 6545SOL    HW221595   3.334   4.131   3.545
 6546SOL     OW21596   2.835   4.614   3.434
 6546SOL    HW121597   2.881   4.530   3.405
 6546SOL    HW221598   2.779   4.648   3.359
 6547SOL     OW21599   2.853   4.134   3.104
 6547SOL    HW121600   2.776   4.168   3.158
 6547SOL    HW221601   2.819   4.083   3.025
 6548SOL     OW21602   2.903   4.425   2.291
 6548SOL    HW121603   2.929   4.421   2.387
 6548SOL    HW221604   2.818   4.374   2.277
 6549SOL     OW21605   1.938   4.535   2.651
 6549SOL    HW121606   2.037   4.523   2.660
 6549SOL    HW221607   1.914   4.630   2.672
 6550SOL     OW21608   1.992   5.545   3.433
 6550SOL    HW121609   1.982   5.530   3.532
 6550SOL    HW221610   1.906   5.581   3.397
 6551SOL     OW21611   2.727   4.072   2.057
 6551SOL    HW121612   2.786   4.135   2.008
 6551SOL    HW221613   2.746   3.978   2.028
 6552SOL     OW21614   3.581   4.309   3.693
 6552SOL    HW121615   3.555   4.398   3.657
 6552SOL    HW221616   3.579   4.241   3.620
 6553SOL     OW21617   3.224   4.868   2.407
 6553SOL    HW121618   3.307   4.839   2.359
 6553SOL    HW221619   3.175   4.935   2.351
 6554SOL     OW21620   2.412   3.920   2.747
 6554SOL    HW121621   2.407   3.915   2.847
 6554SOL    HW221622   2.414   4.016   2.718
 6555SOL     OW21623   2.870   5.180   2.339
 6555SOL    HW121624   2.824   5.252   2.287
 6555SOL    HW221625   2.866   5.200   2.437
 6556SOL     OW21626   2.213   5.525   2.715
 6556SOL    HW121627   2.263   5.439   2.721
 6556SOL    HW221628   2.278   5.602   2.712
 6557SOL     OW21629   3.657   4.790   2.735
 6557SOL    HW121630   3.595   4.775   2.659
 6557SOL    HW221631   3.605   4.801   2.820
 6558SOL     OW21632   3.089   5.274   3.368
 6558SOL    HW121633   3.095   5.197   3.432
 6558SOL    HW221634   3.037   5.248   3.288
 6559SOL     OW21635   2.183   4.667   2.104
 6559SOL    HW121636   2.265   4.706   2.062
 6559SOL    HW221637   2.156   4.585   2.055
 6560SOL     OW21638   3.320   4.459   2.590
 6560SOL    HW121639   3.315   4.394   2.665
 6560SOL    HW221640   3.400   4.518   2.603
 6561SOL     OW21641   2.323   4.990   3.589
 6561SOL    HW121642   2.273   4.991   3.503
 6561SOL    HW221643   2.260   4.972   3.665
 6562SOL     OW21644   2.973   5.500   2.099
 6562SOL    HW121645   2.913   5.438   2.149
 6562SOL    HW221646   3.004   5.456   2.014
 6563SOL     OW21647   2.064   4.009   3.360
 6563SOL    HW121648   1.984   4.069   3.347
 6563SOL    HW221649   2.054   3.960   3.446
 6564SOL     OW21650   3.494   5.101   1.943
 6564SOL    HW121651   3.462   5.195   1.933
 6564SOL    HW221652   3.418   5.038   1.931
 6565SOL     OW21653   2.326   5.467   2.185
 6565SOL    HW121654   2.359   5.506   2.271
 6565SOL    HW221655   2.402   5.460   2.120
 6566SOL     OW21656   3.262   3.831   2.288
 6566SOL    HW121657   3.238   3.794   2.198
 6566SOL    HW221658   3.361   3.847   2.292
 6567SOL     OW21659   2.111   5.509   3.103
 6567SOL    HW121660   2.168   5.444   3.153
 6567SOL    HW221661   2.095   5.476   3.010
 6568SOL     OW21662   2.802   5.422   2.766
 6568SOL    HW121663   2.882   5.365   2.787
 6568SOL    HW221664   2.753   5.382   2.689
 6569SOL     OW21665   2.244   4.424   2.342
 6569SOL    HW121666   2.289   4.334   2.339
 6569SOL    HW221667   2.150   4.413   2.375
 6570SOL     OW21668   3.409   3.946   3.591
 6570SOL    HW121669   3.404   3.983   3.683
 6570SOL    HW221670   3.337   3.877   3.579
 6571SOL     OW21671   2.476   3.846   1.979
 6571SOL    HW121672   2.574   3.824   1.986
 6571SOL    HW221673   2.445   3.829   1.886
 6572SOL     OW21674   2.643   3.988   3.611
 6572SOL    HW121675   2.710   3.927   3.654
 6572SOL    HW221676   2.570   4.007   3.676
 6573SOL     OW21677   2.750   5.238   3.057
 6573SOL    HW121678   2.727   5.213   2.963
 6573SOL    HW221679   2.811   5.169   3.096
 6574SOL     OW21680   3.213   4.314   3.295
 6574SOL    HW121681   3.241   4.271   3.380
 6574SOL    HW221682   3.238   4.410   3.296
 6575SOL     OW21683   2.784   4.227   2.761
 6575SOL    HW121684   2.759   4.218   2.665
 6575SOL    HW221685   2.832   4.145   2.792
 6576SOL     OW21686   2.401   3.788   2.374
 6576SOL    HW121687   2.320   3.789   2.432
 6576SOL    HW221688   2.404   3.871   2.319
 6577SOL     OW21689   3.296   4.912   1.903
 6577SOL    HW121690   3.328   4.836   1.960
 6577SOL    HW221691   3.204   4.939   1.933
 6578SOL     OW21692   2.159   3.759   2.033
 6578SOL    HW121693   2.208   3.843   2.012
 6578SOL    HW221694   2.221   3.694   2.078
 6579SOL     OW21695   2.797   3.960   2.342
 6579SOL    HW121696   2.749   4.001   2.264
 6579SOL    HW221697   2.896   3.958   2.323
 6580SOL     OW21698   2.938   4.407   3.326
 6580SOL    HW121699   2.858   4.346   3.329
 6580SOL    HW221700   3.019   4.354   3.302
 6581SOL     OW21701   3.089   5.294   2.655
 6581SOL    HW121702   3.110   5.368   2.590
 6581SOL    HW221703   3.157   5.294   2.728
 6582SOL     OW21704   3.133   5.521   2.453
 6582SOL    HW121705   3.177   5.585   2.389
 6582SOL    HW221706   3.083   5.573   2.523
 6583SOL     OW21707   2.894   4.273   1.878
 6583SOL    HW121708   2.853   4.355   1.839
 6583SOL    HW221709   2.958   4.299   1.951
 6584SOL     OW21710   1.940   4.280   3.248
 6584SOL    HW121711   2.032   4.279   3.207
 6584SOL    HW221712   1.934   4.354   3.315
 6585SOL     OW21713   2.423   3.946   3.009
 6585SOL    HW121714   2.461   3.862   3.046
 6585SOL    HW221715   2.335   3.965   3.053
 6586SOL     OW21716   2.728   4.178   2.504
 6586SOL    HW121717   2.696   4.250   2.442
 6586SOL    HW221718   2.752   4.097   2.451
 6587SOL     OW21719   2.879   3.763   2.615
 6587SOL    HW121720   2.807   3.768   2.546
 6587SOL    HW221721   2.855   3.694   2.684
 6588SOL     OW21722   3.291   4.897   2.729
 6588SOL    HW121723   3.236   4.813   2.722
 6588SOL    HW221724   3.317   4.926   2.637
 6589SOL     OW21725   3.328   4.314   2.854
 6589SOL    HW121726   3.298   4.219   2.861
 6589SOL    HW221727   3.401   4.330   2.920
 6590SOL     OW21728   3.719   4.557   2.239
 6590SOL    HW121729   3.761   4.493   2.303
 6590SOL    HW221730   3.681   4.506   2.161
 6591SOL     OW21731   2.350   5.109   2.036
 6591SOL    HW121732   2.263   5.094   2.083
 6591SOL    HW221733   2.333   5.135   1.941
 6592SOL     OW21734   3.526   5.004   2.519
 6592SOL    HW121735   3.625   5.012   2.533
 6592SOL    HW221736   3.481   5.088   2.550
 6593SOL     OW21737   3.252   4.299   1.940
 6593SOL    HW121738   3.198   4.278   2.021
 6593SOL    HW221739   3.343   4.258   1.949
 6594SOL     OW21740   2.389   3.980   2.190
 6594SOL    HW121741   2.416   3.921   2.115
 6594SOL    HW221742   2.389   4.075   2.159
 6595SOL     OW21743   3.616   4.947   3.450
 6595SOL    HW121744   3.707   4.908   3.437
 6595SOL    HW221745   3.624   5.043   3.474
 6596SOL     OW21746   2.926   5.071   3.202
 6596SOL    HW121747   2.846   5.048   3.257
 6596SOL    HW221748   3.009   5.045   3.251
 6597SOL     OW21749   3.454   5.353   3.487
 6597SOL    HW121750   3.481   5.387   3.397
 6597SOL    HW221751   3.533   5.315   3.533
 6598SOL     OW21752   2.973   4.919   2.962
 6598SOL    HW121753   2.933   4.963   3.043
 6598SOL    HW221754   2.932   4.956   2.879
 6599SOL     OW21755   3.500   4.823   2.941
 6599SOL    HW121756   3.505   4.904   3.000
 6599SOL    HW221757   3.414   4.825   2.890
 6600SOL     OW21758   2.777   3.813   3.264
 6600SOL    HW121759   2.802   3.793   3.169
 6600SOL    HW221760   2.849   3.869   3.306
 6601SOL     OW21761   2.842   4.840   3.581
 6601SOL    HW121762   2.743   4.846   3.591
 6601SOL    HW221763   2.865   4.760   3.525
 6602SOL     OW21764   2.567   4.774   2.230
 6602SOL    HW121765   2.553   4.781   2.329
 6602SOL    HW221766   2.651   4.723   2.212
 6603SOL     OW21767   2.272   4.537   3.113
 6603SOL    HW121768   2.358   4.549   3.163
 6603SOL    HW221769   2.230   4.450   3.140
 6604SOL     OW21770   3.136   4.110   3.124
 6604SOL    HW121771   3.157   4.184   3.188
 6604SOL    HW221772   3.047   4.127   3.081
 6605SOL     OW21773   1.926   5.288   3.193
 6605SOL    HW121774   1.880   5.370   3.159
 6605SOL    HW221775   2.024   5.307   3.202
 6606SOL     OW21776   2.229   4.824   2.363
 6606SOL    HW121777   2.222   4.907   2.307
 6606SOL    HW221778   2.233   4.744   2.303
 6607SOL     OW21779   2.428   4.261   2.727
 6607SOL    HW121780   2.440   4.327   2.653
 6607SOL    HW221781   2.474   4.295   2.810
 6608SOL     OW21782   3.114   5.072   2.250
 6608SOL    HW121783   3.164   5.149   2.290
 6608SOL    HW221784   3.019   5.074   2.282
 6609SOL     OW21785   3.134   5.169   3.004
 6609SOL    HW121786   3.181   5.182   3.091
 6609SOL    HW221787   3.068   5.095   3.013
 6610SOL     OW21788   3.444   4.363   2.334
 6610SOL    HW121789   3.413   4.424   2.407
 6610SOL    HW221790   3.494   4.415   2.265
 6611SOL     OW21791   2.264   4.475   3.460
 6611SOL    HW121792   2.332   4.530   3.413
 6611SOL    HW221793   2.304   4.387   3.487
 6612SOL     OW21794   3.449   4.503   3.532
 6612SOL    HW121795   3.357   4.541   3.527
 6612SOL    HW221796   3.509   4.550   3.467
 6613SOL     OW21797   2.875   3.829   3.632
 6613SOL    HW121798   2.881   3.914   3.580
 6613SOL    HW221799   2.907   3.753   3.575
 6614SOL     OW21800   2.366   3.774   3.602
 6614SOL    HW121801   2.324   3.717   3.532
 6614SOL    HW221802   2.300   3.843   3.634
 6615SOL     OW21803   2.435   4.594   2.891
 6615SOL    HW121804   2.479   4.683   2.882
 6615SOL    HW221805   2.372   4.594   2.968
 6616SOL     OW21806   3.222   4.586   2.907
 6616SOL    HW121807   3.147   4.586   2.841
 6616SOL    HW221808   3.259   4.494   2.916
 6617SOL     OW21809   3.071   4.249   2.137
 6617SOL    HW121810   3.084   4.165   2.191
 6617SOL    HW221811   3.042   4.323   2.197
 6618SOL     OW21812   2.169   3.937   3.093
 6618SOL    HW121813   2.146   3.974   3.183
 6618SOL    HW221814   2.139   3.842   3.087
 6619SOL     OW21815   1.899   5.034   3.144
 6619SOL    HW121816   1.952   4.985   3.212
 6619SOL    HW221817   1.921   5.132   3.149
 6620SOL     OW21818   2.594   4.358   2.926
 6620SOL    HW121819   2.653   4.332   2.850
 6620SOL    HW221820   2.566   4.454   2.915
 6621SOL     OW21821   3.590   4.659   3.716
 6621SOL    HW121822   3.544   4.652   3.627
 6621SOL    HW221823   3.528   4.703   3.782
 6622SOL     OW21824   2.169   3.787   2.480
 6622SOL    HW121825   2.158   3.881   2.513
 6622SOL    HW221826   2.164   3.724   2.557
 6623SOL     OW21827   3.484   4.091   2.236
 6623SOL    HW121828   3.486   4.015   2.300
 6623SOL    HW221829   3.436   4.168   2.276
 6624SOL     OW21830   2.885   4.490   2.828
 6624SOL    HW121831   2.900   4.511   2.924
 6624SOL    HW221832   2.855   4.395   2.819
 6625SOL     OW21833   2.842   5.297   3.562
 6625SOL    HW121834   2.822   5.341   3.474
 6625SOL    HW221835   2.881   5.206   3.546
 6626SOL     OW21836   3.721   5.242   3.467
 6626SOL    HW121837   3.735   5.269   3.372
 6626SOL    HW221838   3.804   5.264   3.520
 6627SOL     OW21839   2.212   4.622   3.666
 6627SOL    HW121840   2.288   4.666   3.714
 6627SOL    HW221841   2.247   4.575   3.584
 6628SOL     OW21842   3.402   3.998   1.987
 6628SOL    HW121843   3.341   3.923   2.010
 6628SOL    HW221844   3.424   4.050   2.070
 6629SOL     OW21845   3.165   4.562   1.904
 6629SOL    HW121846   3.199   4.469   1.919
 6629SOL    HW221847   3.183   4.589   1.809
 6630SOL     OW21848   2.930   5.057   2.711
 6630SOL    HW121849   2.937   4.973   2.656
 6630SOL    HW221850   2.992   5.126   2.675
 6631SOL     OW21851   2.181   4.534   2.811
 6631SOL    HW121852   2.274   4.570   2.816
 6631SOL    HW221853   2.175   4.449   2.863
 6632SOL     OW21854   2.201   4.233   2.868
 6632SOL    HW121855   2.149   4.150   2.851
 6632SOL    HW221856   2.278   4.238   2.804
 6633SOL     OW21857   2.373   4.139   3.670
 6633SOL    HW121858   2.355   4.184   3.758
 6633SOL    HW221859   2.415   4.204   3.607
 6634SOL     OW21860   3.000   4.104   3.540
 6634SOL    HW121861   2.955   4.167   3.604
 6634SOL    HW221862   3.093   4.135   3.523
 6635SOL     OW21863   3.022   3.931   3.339
 6635SOL    HW121864   3.022   3.995   3.416
 6635SOL    HW221865   3.050   3.979   3.256
 6636SOL     OW21866   1.870   5.050   2.062
 6636SOL    HW121867   1.777   5.071   2.031
 6636SOL    HW221868   1.880   4.951   2.075
 6637SOL     OW21869   1.950   5.525   2.789
 6637SOL    HW121870   1.908   5.439   2.762
 6637SOL    HW221871   2.044   5.528   2.755
 6638SOL     OW21872   2.366   5.292   2.772
 6638SOL    HW121873   2.432   5.366   2.781
 6638SOL    HW221874   2.410   5.213   2.730
 6639SOL     OW21875   2.864   4.520   3.100
 6639SOL    HW121876   2.905   4.488   3.186
 6639SOL    HW221877   2.768   4.493   3.097
 6640SOL     OW21878   1.902   4.268   2.976
 6640SOL    HW121879   1.987   4.235   2.935
 6640SOL    HW221880   1.915   4.283   3.074
 6641SOL     OW21881   2.051   4.244   3.584
 6641SOL    HW121882   2.110   4.204   3.514
 6641SOL    HW221883   1.993   4.315   3.543
 6642SOL     OW21884   3.231   4.674   3.522
 6642SOL    HW121885   3.270   4.763   3.542
 6642SOL    HW221886   3.241   4.654   3.425
 6643SOL     OW21887   2.677   4.296   2.187
 6643SOL    HW121888   2.684   4.207   2.141
 6643SOL    HW221889   2.583   4.330   2.179
 6644SOL     OW21890   3.519   4.328   3.068
 6644SOL    HW121891   3.481   4.259   3.130
 6644SOL    HW221892   3.601   4.292   3.024
 6645SOL     OW21893   2.114   5.288   3.606
 6645SOL    HW121894   2.084   5.345   3.682
 6645SOL    HW221895   2.107   5.191   3.632
 6646SOL     OW21896   2.533   4.188   3.131
 6646SOL    HW121897   2.499   4.099   3.101
 6646SOL    HW221898   2.559   4.242   3.051
 6647SOL     OW21899   2.792   5.402   3.327
 6647SOL    HW121900   2.768   5.384   3.232
 6647SOL    HW221901   2.822   5.496   3.337
 6648SOL     OW21902   2.335   4.224   2.053
 6648SOL    HW121903   2.396   4.304   2.057
 6648SOL    HW221904   2.240   4.255   2.060
 6649SOL     OW21905   2.021   4.861   3.328
 6649SOL    HW121906   2.043   4.800   3.404
 6649SOL    HW221907   2.031   4.812   3.242
 6650SOL     OW21908   3.209   4.783   3.096
 6650SOL    HW121909   3.233   4.720   3.022
 6650SOL    HW221910   3.119   4.823   3.078
 6651SOL     OW21911   3.164   4.579   2.171
 6651SOL    HW121912   3.078   4.548   2.213
 6651SOL    HW221913   3.160   4.565   2.072
 6652SOL     OW21914   3.621   5.471   3.016
 6652SOL    HW121915   3.682   5.501   2.943
 6652SOL    HW221916   3.583   5.382   2.994
 6653SOL     OW21917   3.114   5.455   2.990
 6653SOL    HW121918   3.198   5.460   2.936
 6653SOL    HW221919   3.091   5.359   3.008
 6654SOL     OW21920   1.945   4.982   2.884
 6654SOL    HW121921   1.940   4.981   2.984
 6654SOL    HW221922   1.862   4.941   2.846
 6655SOL     OW21923   2.550   5.386   3.578
 6655SOL    HW121924   2.494   5.467   3.587
 6655SOL    HW221925   2.602   5.390   3.492
 6656SOL     OW21926   2.765   3.810   1.995
 6656SOL    HW121927   2.816   3.811   1.909
 6656SOL    HW221928   2.821   3.768   2.066
 6657SOL     OW21929   3.588   3.859   2.385
 6657SOL    HW121930   3.661   3.842   2.318
 6657SOL    HW221931   3.557   3.772   2.423
 6658SOL     OW21932   3.250   5.297   2.339
 6658SOL    HW121933   3.317   5.309   2.265
 6658SOL    HW221934   3.210   5.386   2.362
 6659SOL     OW21935   1.992   5.518   3.713
 6659SOL    HW121936   1.951   5.444   3.766
 6659SOL    HW221937   2.056   5.569   3.771
 6660SOL     OW21938   3.142   4.651   2.534
 6660SOL    HW121939   3.202   4.570   2.536
 6660SOL    HW221940   3.182   4.720   2.474
 6661SOL     OW21941   2.692   4.997   3.284
 6661SOL    HW121942   2.687   5.030   3.379
 6661SOL    HW221943   2.606   5.016   3.238
 6662SOL     OW21944   2.534   5.340   2.016
 6662SOL    HW121945   2.543   5.350   1.917
 6662SOL    HW221946   2.494   5.251   2.037
 6663SOL     OW21947   3.512   5.444   3.256
 6663SOL    HW121948   3.565   5.454   3.172
 6663SOL    HW221949   3.485   5.534   3.290
 6664SOL     OW21950   3.703   3.899   2.825
 6664SOL    HW121951   3.742   3.814   2.789
 6664SOL    HW221952   3.605   3.901   2.806
 6665SOL     OW21953   2.125   4.050   2.582
 6665SOL    HW121954   2.046   4.101   2.548
 6665SOL    HW221955   2.116   4.035   2.680
 6666SOL     OW21956   3.056   5.336   1.893
 6666SOL    HW121957   3.062   5.243   1.930
 6666SOL    HW221958   2.997   5.336   1.813
 6667SOL     OW21959   2.684   4.726   3.234
 6667SOL    HW121960   2.724   4.725   3.142
 6667SOL    HW221961   2.694   4.818   3.274
 6668SOL     OW21962   2.778   4.634   2.153
 6668SOL    HW121963   2.841   4.672   2.085
 6668SOL    HW221964   2.818   4.551   2.192
 6669SOL     OW21965   3.366   5.331   1.906
 6669SOL    HW121966   3.274   5.368   1.913
 6669SOL    HW221967   3.404   5.351   1.816
 6670SOL     OW21968   2.234   5.012   3.352
 6670SOL    HW121969   2.221   5.105   3.318
 6670SOL    HW221970   2.150   4.960   3.339
 6671SOL     OW21971   3.476   5.016   3.151
 6671SOL    HW121972   3.536   5.019   3.231
 6671SOL    HW221973   3.401   5.080   3.164
 6672SOL     OW21974   2.901   4.822   2.558
 6672SOL    HW121975   2.831   4.775   2.612
 6672SOL    HW221976   2.960   4.754   2.515
 6673SOL     OW21977   2.876   3.960   2.833
 6673SOL    HW121978   2.868   3.924   2.740
 6673SOL    HW221979   2.874   3.884   2.898
 6674SOL     OW21980   2.452   5.211   2.353
 6674SOL    HW121981   2.494   5.153   2.283
 6674SOL    HW221982   2.408   5.290   2.309
 6675SOL     OW21983   3.571   4.109   3.243
 6675SOL    HW121984   3.644   4.178   3.247
 6675SOL    HW221985   3.599   4.034   3.184
 6676SOL     OW21986   2.117   5.072   2.152
 6676SOL    HW121987   2.021   5.073   2.125
 6676SOL    HW221988   2.129   5.125   2.236
 6677SOL     OW21989   1.967   4.737   3.588
 6677SOL    HW121990   1.890   4.704   3.642
 6677SOL    HW221991   2.052   4.707   3.630
 6678SOL     OW21992   2.534   3.927   3.351
 6678SOL    HW121993   2.624   3.911   3.311
 6678SOL    HW221994   2.542   3.932   3.450
 6679SOL     OW21995   1.937   4.069   1.895
 6679SOL    HW121996   1.845   4.041   1.866
 6679SOL    HW221997   1.968   4.146   1.839
 6680SOL     OW21998   3.302   4.580   3.260
 6680SOL    HW121999   3.245   4.632   3.197
 6680SOL    HW222000   3.398   4.592   3.236
 6681SOL     OW22001   1.934   3.890   2.180
 6681SOL    HW122002   1.917   3.973   2.126
 6681SOL    HW222003   2.024   3.853   2.158
 6682SOL     OW22004   3.045   5.059   1.981
 6682SOL    HW122005   2.946   5.048   1.983
 6682SOL    HW222006   3.079   5.074   2.074
 6683SOL     OW22007   2.475   4.566   3.293
 6683SOL    HW122008   2.531   4.647   3.276
 6683SOL    HW222009   2.534   4.486   3.296
 6684SOL     OW22010   2.578   4.289   3.570
 6684SOL    HW122011   2.597   4.354   3.644
 6684SOL    HW222012   2.638   4.209   3.579
 6685SOL     OW22013   3.312   4.944   3.495
 6685SOL    HW122014   3.303   4.934   3.594
 6685SOL    HW222015   3.408   4.937   3.469
 6686SOL     OW22016   2.252   5.465   3.422
 6686SOL    HW122017   2.161   5.506   3.420
 6686SOL    HW222018   2.245   5.371   3.454
 6687SOL     OW22019   3.536   4.607   3.116
 6687SOL    HW122020   3.509   4.518   3.079
 6687SOL    HW222021   3.537   4.675   3.043
 6688SOL     OW22022   3.087   4.049   2.311
 6688SOL    HW122023   3.152   3.975   2.300
 6688SOL    HW222024   3.107   4.099   2.395
 6689SOL     OW22025   2.456   4.469   2.514
 6689SOL    HW122026   2.506   4.554   2.495
 6689SOL    HW222027   2.368   4.471   2.466
 6690SOL     OW22028   3.639   4.066   3.504
 6690SOL    HW122029   3.622   4.097   3.410
 6690SOL    HW222030   3.555   4.029   3.542
 6691SOL     OW22031   3.592   4.658   3.379
 6691SOL    HW122032   3.630   4.749   3.394
 6691SOL    HW222033   3.584   4.641   3.280
 6692SOL     OW22034   2.721   5.098   1.878
 6692SOL    HW122035   2.675   5.113   1.966
 6692SOL    HW222036   2.765   5.183   1.848
 6693SOL     OW22037   2.523   5.514   2.815
 6693SOL    HW122038   2.477   5.602   2.802
 6693SOL    HW222039   2.622   5.526   2.808
 6694SOL     OW22040   3.270   5.575   3.582
 6694SOL    HW122041   3.174   5.564   3.555
 6694SOL    HW222042   3.326   5.508   3.534
 6695SOL     OW22043   2.721   4.680   2.723
 6695SOL    HW122044   2.775   4.611   2.771
 6695SOL    HW222045   2.689   4.749   2.789
 6696SOL     OW22046   2.945   4.708   1.949
 6696SOL    HW122047   2.922   4.761   1.867
 6696SOL    HW222048   3.026   4.652   1.930
 6697SOL     OW22049   3.723   5.293   2.713
 6697SOL    HW122050   3.652   5.281   2.643
 6697SOL    HW222051   3.724   5.214   2.773
 6698SOL     OW22052   2.083   5.038   3.706
 6698SOL    HW122053   2.018   4.965   3.685
 6698SOL    HW222054   2.087   5.052   3.804
 6699SOL     OW22055   1.941   4.964   2.515
 6699SOL    HW122056   1.940   4.917   2.603
 6699SOL    HW222057   2.023   4.936   2.464
 6700SOL     OW22058   2.534   5.115   3.486
 6700SOL    HW122059   2.456   5.065   3.524
 6700SOL    HW222060   2.531   5.210   3.517
 6701SOL     OW22061   3.686   3.916   3.089
 6701SOL    HW122062   3.682   3.826   3.133
 6701SOL    HW222063   3.689   3.905   2.990
 6702SOL     OW22064   2.290   4.148   2.382
 6702SOL    HW122065   2.320   4.076   2.320
 6702SOL    HW222066   2.251   4.108   2.465
 6703SOL     OW22067   3.567   5.211   2.966
 6703SOL    HW122068   3.474   5.186   2.939
 6703SOL    HW222069   3.593   5.161   3.048
 6704SOL     OW22070   2.179   4.271   3.142
 6704SOL    HW122071   2.217   4.212   3.214
 6704SOL    HW222072   2.219   4.245   3.054
 6705SOL     OW22073   2.674   5.310   2.549
 6705SOL    HW122074   2.706   5.320   2.455
 6705SOL    HW222075   2.595   5.248   2.551
 6706SOL     OW22076   3.286   3.938   2.974
 6706SOL    HW122077   3.338   3.873   3.029
 6706SOL    HW222078   3.237   4.001   3.035
 6707SOL     OW22079   2.863   3.758   3.016
 6707SOL    HW122080   2.800   3.686   2.985
 6707SOL    HW222081   2.956   3.722   3.016
 6708SOL     OW22082   2.632   5.054   2.163
 6708SOL    HW122083   2.586   4.967   2.180
 6708SOL    HW222084   2.723   5.051   2.204
 6709SOL     OW22085   2.480   5.291   3.146
 6709SOL    HW122086   2.475   5.373   3.203
 6709SOL    HW222087   2.569   5.288   3.101
 6710SOL     OW22088   3.214   3.776   2.030
 6710SOL    HW122089   3.249   3.735   1.946
 6710SOL    HW222090   3.124   3.738   2.050
 6711SOL     OW22091   3.162   4.177   2.553
 6711SOL    HW122092   3.103   4.257   2.557
 6711SOL    HW222093   3.177   4.142   2.646
 6712SOL     OW22094   3.455   3.945   2.744
 6712SOL    HW122095   3.371   3.944   2.798
 6712SOL    HW222096   3.457   4.028   2.688
 6713SOL     OW22097   1.901   4.801   2.162
 6713SOL    HW122098   2.000   4.790   2.153
 6713SOL    HW222099   1.861   4.715   2.194
 6714SOL     OW22100   2.092   4.352   3.837
 6714SOL    HW122101   1.999   4.350   3.874
 6714SOL    HW222102   2.093   4.313   3.745
 6715SOL     OW22103   2.087   3.999   4.720
 6715SOL    HW122104   2.122   3.982   4.812
 6715SOL    HW222105   1.999   3.954   4.708
 6716SOL     OW22106   1.881   4.092   4.371
 6716SOL    HW122107   1.799   4.135   4.410
 6716SOL    HW222108   1.853   4.019   4.308
 6717SOL     OW22109   2.431   4.999   4.889
 6717SOL    HW122110   2.338   4.992   4.852
 6717SOL    HW222111   2.442   5.088   4.933
 6718SOL     OW22112   3.417   5.235   4.427
 6718SOL    HW122113   3.360   5.219   4.508
 6718SOL    HW222114   3.358   5.245   4.347
 6719SOL     OW22115   3.605   4.342   4.580
 6719SOL    HW122116   3.638   4.436   4.580
 6719SOL    HW222117   3.656   4.288   4.646
 6720SOL     OW22118   2.997   4.427   4.441
 6720SOL    HW122119   3.054   4.505   4.416
 6720SOL    HW222120   2.937   4.453   4.517
 6721SOL     OW22121   3.617   4.331   3.955
 6721SOL    HW122122   3.605   4.318   3.856
 6721SOL    HW222123   3.587   4.250   4.004
 6722SOL     OW22124   2.630   4.868   4.747
 6722SOL    HW122125   2.552   4.885   4.807
 6722SOL    HW222126   2.664   4.955   4.711
 6723SOL     OW22127   2.712   4.522   5.547
 6723SOL    HW122128   2.708   4.598   5.612
 6723SOL    HW222129   2.734   4.558   5.456
 6724SOL     OW22130   2.547   4.736   4.389
 6724SOL    HW122131   2.616   4.720   4.459
 6724SOL    HW222132   2.474   4.793   4.427
 6725SOL     OW22133   2.548   4.885   5.527
 6725SOL    HW122134   2.608   4.964   5.541
 6725SOL    HW222135   2.462   4.916   5.486
 6726SOL     OW22136   2.197   5.159   4.785
 6726SOL    HW122137   2.119   5.128   4.732
 6726SOL    HW222138   2.255   5.217   4.728
 6727SOL     OW22139   3.322   5.229   5.063
 6727SOL    HW122140   3.346   5.323   5.089
 6727SOL    HW222141   3.306   5.175   5.145
 6728SOL     OW22142   2.300   4.116   5.223
 6728SOL    HW122143   2.382   4.060   5.232
 6728SOL    HW222144   2.219   4.058   5.227
 6729SOL     OW22145   3.465   4.171   4.461
 6729SOL    HW122146   3.391   4.217   4.411
 6729SOL    HW222147   3.516   4.239   4.514
 6730SOL     OW22148   2.093   5.437   4.207
 6730SOL    HW122149   2.127   5.514   4.261
 6730SOL    HW222150   2.137   5.437   4.117
 6731SOL     OW22151   2.989   5.065   5.414
 6731SOL    HW122152   3.036   5.065   5.502
 6731SOL    HW222153   2.941   4.978   5.403
 6732SOL     OW22154   2.092   5.158   4.262
 6732SOL    HW122155   2.066   5.254   4.262
 6732SOL    HW222156   2.021   5.104   4.307
 6733SOL     OW22157   2.102   4.815   4.610
 6733SOL    HW122158   2.116   4.731   4.662
 6733SOL    HW222159   2.047   4.879   4.665
 6734SOL     OW22160   2.482   5.510   5.163
 6734SOL    HW122161   2.390   5.493   5.198
 6734SOL    HW222162   2.510   5.602   5.189
 6735SOL     OW22163   2.468   4.688   3.847
 6735SOL    HW122164   2.475   4.772   3.793
 6735SOL    HW222165   2.514   4.701   3.935
 6736SOL     OW22166   3.456   3.838   5.204
 6736SOL    HW122167   3.438   3.905   5.132
 6736SOL    HW222168   3.453   3.884   5.293
 6737SOL     OW22169   1.984   4.367   4.287
 6737SOL    HW122170   1.939   4.279   4.304
 6737SOL    HW222171   1.983   4.421   4.371
 6738SOL     OW22172   3.704   5.491   4.083
 6738SOL    HW122173   3.758   5.462   4.163
 6738SOL    HW222174   3.734   5.581   4.054
 6739SOL     OW22175   1.889   5.320   3.841
 6739SOL    HW122176   1.870   5.224   3.862
 6739SOL    HW222177   1.856   5.378   3.916
 6740SOL     OW22178   3.551   4.646   4.336
 6740SOL    HW122179   3.646   4.617   4.344
 6740SOL    HW222180   3.543   4.711   4.261
 6741SOL     OW22181   3.503   4.832   4.156
 6741SOL    HW122182   3.589   4.834   4.104
 6741SOL    HW222183   3.517   4.879   4.244
 6742SOL     OW22184   1.975   4.461   5.321
 6742SOL    HW122185   2.063   4.448   5.366
 6742SOL    HW222186   1.962   4.558   5.299
 6743SOL     OW22187   2.475   5.089   4.450
 6743SOL    HW122188   2.426   5.002   4.459
 6743SOL    HW222189   2.452   5.132   4.363
 6744SOL     OW22190   3.155   4.952   5.147
 6744SOL    HW122191   3.192   4.879   5.089
 6744SOL    HW222192   3.207   4.957   5.232
 6745SOL     OW22193   2.671   3.728   4.226
 6745SOL    HW122194   2.711   3.819   4.217
 6745SOL    HW222195   2.571   3.736   4.232
 6746SOL     OW22196   2.059   4.700   4.988
 6746SOL    HW122197   2.148   4.655   4.974
 6746SOL    HW222198   1.986   4.635   4.969
 6747SOL     OW22199   3.387   4.723   3.914
 6747SOL    HW122200   3.324   4.647   3.927
 6747SOL    HW222201   3.435   4.741   4.000
 6748SOL     OW22202   3.049   5.516   5.340
 6748SOL    HW122203   3.073   5.576   5.264
 6748SOL    HW222204   3.056   5.421   5.310
 6749SOL     OW22205   2.179   3.975   5.525
 6749SOL    HW122206   2.250   4.046   5.531
 6749SOL    HW222207   2.091   4.014   5.553
 6750SOL     OW22208   3.328   5.141   4.677
 6750SOL    HW122209   3.269   5.147   4.757
 6750SOL    HW222210   3.313   5.053   4.631
 6751SOL     OW22211   3.529   5.438   4.296
 6751SOL    HW122212   3.488   5.415   4.208
 6751SOL    HW222213   3.511   5.364   4.361
 6752SOL     OW22214   2.460   4.453   3.994
 6752SOL    HW122215   2.484   4.522   3.926
 6752SOL    HW222216   2.382   4.486   4.048
 6753SOL     OW22217   3.143   4.069   4.668
 6753SOL    HW122218   3.057   4.019   4.655
 6753SOL    HW222219   3.205   4.015   4.724
 6754SOL     OW22220   3.438   5.386   4.031
 6754SOL    HW122221   3.527   5.432   4.034
 6754SOL    HW222222   3.417   5.362   3.936
 6755SOL     OW22223   2.669   4.329   5.189
 6755SOL    HW122224   2.622   4.326   5.278
 6755SOL    HW222225   2.618   4.274   5.123
 6756SOL     OW22226   3.256   4.193   5.398
 6756SOL    HW122227   3.236   4.236   5.486
 6756SOL    HW222228   3.334   4.131   5.407
 6757SOL     OW22229   2.835   4.614   5.296
 6757SOL    HW122230   2.881   4.530   5.267
 6757SOL    HW222231   2.779   4.648   5.221
 6758SOL     OW22232   2.853   4.134   4.966
 6758SOL    HW122233   2.776   4.168   5.020
 6758SOL    HW222234   2.819   4.083   4.887
 6759SOL     OW22235   2.903   4.425   4.153
 6759SOL    HW122236   2.929   4.421   4.249
 6759SOL    HW222237   2.818   4.374   4.139
 6760SOL     OW22238   1.938   4.535   4.513
 6760SOL    HW122239   2.037   4.523   4.522
 6760SOL    HW222240   1.914   4.630   4.534
 6761SOL     OW22241   1.992   5.545   5.295
 6761SOL    HW122242   1.982   5.530   5.394
 6761SOL    HW222243   1.906   5.581   5.259
 6762SOL     OW22244   2.727   4.072   3.919
 6762SOL    HW122245   2.786   4.135   3.870
 6762SOL    HW222246   2.746   3.978   3.890
 6763SOL     OW22247   3.581   4.309   5.555
 6763SOL    HW122248   3.555   4.398   5.519
 6763SOL    HW222249   3.579   4.241   5.482
 6764SOL     OW22250   3.224   4.868   4.269
 6764SOL    HW122251   3.307   4.839   4.221
 6764SOL    HW222252   3.175   4.935   4.213
 6765SOL     OW22253   2.412   3.920   4.609
 6765SOL    HW122254   2.407   3.915   4.709
 6765SOL    HW222255   2.414   4.016   4.580
 6766SOL     OW22256   2.870   5.180   4.201
 6766SOL    HW122257   2.824   5.252   4.149
 6766SOL    HW222258   2.866   5.200   4.299
 6767SOL     OW22259   2.213   5.525   4.577
 6767SOL    HW122260   2.263   5.439   4.583
 6767SOL    HW222261   2.278   5.602   4.574
 6768SOL     OW22262   3.657   4.790   4.597
 6768SOL    HW122263   3.595   4.775   4.521
 6768SOL    HW222264   3.605   4.801   4.682
 6769SOL     OW22265   3.089   5.274   5.230
 6769SOL    HW122266   3.095   5.197   5.294
 6769SOL    HW222267   3.037   5.248   5.150
 6770SOL     OW22268   2.183   4.667   3.966
 6770SOL    HW122269   2.265   4.706   3.924
 6770SOL    HW222270   2.156   4.585   3.917
 6771SOL     OW22271   3.320   4.459   4.452
 6771SOL    HW122272   3.315   4.394   4.527
 6771SOL    HW222273   3.400   4.518   4.465
 6772SOL     OW22274   2.323   4.990   5.451
 6772SOL    HW122275   2.273   4.991   5.365
 6772SOL    HW222276   2.260   4.972   5.527
 6773SOL     OW22277   2.973   5.500   3.961
 6773SOL    HW122278   2.913   5.438   4.011
 6773SOL    HW222279   3.004   5.456   3.876
 6774SOL     OW22280   2.064   4.009   5.222
 6774SOL    HW122281   1.984   4.069   5.209
 6774SOL    HW222282   2.054   3.960   5.308
 6775SOL     OW22283   3.494   5.101   3.805
 6775SOL    HW122284   3.462   5.195   3.795
 6775SOL    HW222285   3.418   5.038   3.793
 6776SOL     OW22286   2.326   5.467   4.047
 6776SOL    HW122287   2.359   5.506   4.133
 6776SOL    HW222288   2.402   5.460   3.982
 6777SOL     OW22289   3.262   3.831   4.150
 6777SOL    HW122290   3.238   3.794   4.060
 6777SOL    HW222291   3.361   3.847   4.154
 6778SOL     OW22292   2.111   5.509   4.965
 6778SOL    HW122293   2.168   5.444   5.015
 6778SOL    HW222294   2.095   5.476   4.872
 6779SOL     OW22295   2.802   5.422   4.628
 6779SOL    HW122296   2.882   5.365   4.649
 6779SOL    HW222297   2.753   5.382   4.551
 6780SOL     OW22298   2.244   4.424   4.204
 6780SOL    HW122299   2.289   4.334   4.201
 6780SOL    HW222300   2.150   4.413   4.237
 6781SOL     OW22301   3.409   3.946   5.453
 6781SOL    HW122302   3.404   3.983   5.545
 6781SOL    HW222303   3.337   3.877   5.441
 6782SOL     OW22304   2.476   3.846   3.841
 6782SOL    HW122305   2.574   3.824   3.848
 6782SOL    HW222306   2.445   3.829   3.748
 6783SOL     OW22307   2.643   3.988   5.473
 6783SOL    HW122308   2.710   3.927   5.516
 6783SOL    HW222309   2.570   4.007   5.538
 6784SOL     OW22310   2.750   5.238   4.919
 6784SOL    HW122311   2.727   5.213   4.825
 6784SOL    HW222312   2.811   5.169   4.958
 6785SOL     OW22313   3.213   4.314   5.157
 6785SOL    HW122314   3.241   4.271   5.242
 6785SOL    HW222315   3.238   4.410   5.158
 6786SOL     OW22316   2.665   5.126   4.648
 6786SOL    HW122317   2.755   5.140   4.606
 6786SOL    HW222318   2.594   5.128   4.577
 6787SOL     OW22319   2.784   4.227   4.623
 6787SOL    HW122320   2.759   4.218   4.527
 6787SOL    HW222321   2.832   4.145   4.654
 6788SOL     OW22322   2.401   3.788   4.236
 6788SOL    HW122323   2.320   3.789   4.294
 6788SOL    HW222324   2.404   3.871   4.181
 6789SOL     OW22325   3.296   4.912   3.765
 6789SOL    HW122326   3.328   4.836   3.822
 6789SOL    HW222327   3.204   4.939   3.795
 6790SOL     OW22328   2.159   3.759   3.895
 6790SOL    HW122329   2.208   3.843   3.874
 6790SOL    HW222330   2.221   3.694   3.940
 6791SOL     OW22331   2.797   3.960   4.204
 6791SOL    HW122332   2.749   4.001   4.126
 6791SOL    HW222333   2.896   3.958   4.185
 6792SOL     OW22334   2.938   4.407   5.188
 6792SOL    HW122335   2.858   4.346   5.191
 6792SOL    HW222336   3.019   4.354   5.164
 6793SOL     OW22337   3.089   5.294   4.517
 6793SOL    HW122338   3.110   5.368   4.452
 6793SOL    HW222339   3.157   5.294   4.590
 6794SOL     OW22340   2.321   4.876   4.465
 6794SOL    HW122341   2.250   4.849   4.530
 6794SOL    HW222342   2.295   4.848   4.372
 6795SOL     OW22343   2.894   4.273   3.740
 6795SOL    HW122344   2.853   4.355   3.701
 6795SOL    HW222345   2.958   4.299   3.813
 6796SOL     OW22346   1.940   4.280   5.110
 6796SOL    HW122347   2.032   4.279   5.069
 6796SOL    HW222348   1.934   4.354   5.177
 6797SOL     OW22349   2.423   3.946   4.871
 6797SOL    HW122350   2.461   3.862   4.908
 6797SOL    HW222351   2.335   3.965   4.915
 6798SOL     OW22352   2.728   4.178   4.366
 6798SOL    HW122353   2.696   4.250   4.304
 6798SOL    HW222354   2.752   4.097   4.313
 6799SOL     OW22355   2.879   3.763   4.477
 6799SOL    HW122356   2.807   3.768   4.408
 6799SOL    HW222357   2.855   3.694   4.546
 6800SOL     OW22358   3.291   4.897   4.591
 6800SOL    HW122359   3.236   4.813   4.584
 6800SOL    HW222360   3.317   4.926   4.499
 6801SOL     OW22361   3.328   4.314   4.716
 6801SOL    HW122362   3.298   4.219   4.723
 6801SOL    HW222363   3.401   4.330   4.782
 6802SOL     OW22364   3.719   4.557   4.101
 6802SOL    HW122365   3.761   4.493   4.165
 6802SOL    HW222366   3.681   4.506   4.023
 6803SOL     OW22367   2.350   5.109   3.898
 6803SOL    HW122368   2.263   5.094   3.945
 6803SOL    HW222369   2.333   5.135   3.803
 6804SOL     OW22370   3.526   5.004   4.381
 6804SOL    HW122371   3.625   5.012   4.395
 6804SOL    HW222372   3.481   5.088   4.412
 6805SOL     OW22373   3.252   4.299   3.802
 6805SOL    HW122374   3.198   4.278   3.883
 6805SOL    HW222375   3.343   4.258   3.811
 6806SOL     OW22376   2.389   3.980   4.052
 6806SOL    HW122377   2.416   3.921   3.977
 6806SOL    HW222378   2.389   4.075   4.021
 6807SOL     OW22379   3.616   4.947   5.312
 6807SOL    HW122380   3.707   4.908   5.299
 6807SOL    HW222381   3.624   5.043   5.336
 6808SOL     OW22382   2.926   5.071   5.064
 6808SOL    HW122383   2.846   5.048   5.119
 6808SOL    HW222384   3.009   5.045   5.113
 6809SOL     OW22385   3.454   5.353   5.349
 6809SOL    HW122386   3.481   5.387   5.259
 6809SOL    HW222387   3.533   5.315   5.395
 6810SOL     OW22388   2.973   4.919   4.824
 6810SOL    HW122389   2.933   4.963   4.905
 6810SOL    HW222390   2.932   4.956   4.741
 6811SOL     OW22391   3.500   4.823   4.803
 6811SOL    HW122392   3.505   4.904   4.862
 6811SOL    HW222393   3.414   4.825   4.752
 6812SOL     OW22394   2.777   3.813   5.126
 6812SOL    HW122395   2.802   3.793   5.031
 6812SOL    HW222396   2.849   3.869   5.168
 6813SOL     OW22397   2.842   4.840   5.443
 6813SOL    HW122398   2.743   4.846   5.453
 6813SOL    HW222399   2.865   4.760   5.387
 6814SOL     OW22400   2.567   4.774   4.092
 6814SOL    HW122401   2.553   4.781   4.191
 6814SOL    HW222402   2.651   4.723   4.074
 6815SOL     OW22403   2.272   4.537   4.975
 6815SOL    HW122404   2.358   4.549   5.025
 6815SOL    HW222405   2.230   4.450   5.002
 6816SOL     OW22406   3.136   4.110   4.986
 6816SOL    HW122407   3.157   4.184   5.050
 6816SOL    HW222408   3.047   4.127   4.943
 6817SOL     OW22409   1.926   5.288   5.055
 6817SOL    HW122410   1.880   5.370   5.021
 6817SOL    HW222411   2.024   5.307   5.064
 6818SOL     OW22412   2.229   4.824   4.225
 6818SOL    HW122413   2.222   4.907   4.169
 6818SOL    HW222414   2.233   4.744   4.165
 6819SOL     OW22415   2.428   4.261   4.589
 6819SOL    HW122416   2.440   4.327   4.515
 6819SOL    HW222417   2.474   4.295   4.672
 6820SOL     OW22418   3.114   5.072   4.112
 6820SOL    HW122419   3.164   5.149   4.152
 6820SOL    HW222420   3.019   5.074   4.144
 6821SOL     OW22421   3.134   5.169   4.866
 6821SOL    HW122422   3.181   5.182   4.953
 6821SOL    HW222423   3.068   5.095   4.875
 6822SOL     OW22424   3.444   4.363   4.196
 6822SOL    HW122425   3.413   4.424   4.269
 6822SOL    HW222426   3.494   4.415   4.127
 6823SOL     OW22427   2.216   5.234   5.053
 6823SOL    HW122428   2.195   5.190   4.966
 6823SOL    HW222429   2.313   5.260   5.056
 6824SOL     OW22430   2.264   4.475   5.322
 6824SOL    HW122431   2.332   4.530   5.275
 6824SOL    HW222432   2.304   4.387   5.349
 6825SOL     OW22433   3.449   4.503   5.394
 6825SOL    HW122434   3.357   4.541   5.389
 6825SOL    HW222435   3.509   4.550   5.329
 6826SOL     OW22436   2.875   3.829   5.494
 6826SOL    HW122437   2.881   3.914   5.442
 6826SOL    HW222438   2.907   3.753   5.437
 6827SOL     OW22439   2.366   3.774   5.464
 6827SOL    HW122440   2.324   3.717   5.394
 6827SOL    HW222441   2.300   3.843   5.496
 6828SOL     OW22442   2.435   4.594   4.753
 6828SOL    HW122443   2.479   4.683   4.744
 6828SOL    HW222444   2.372   4.594   4.830
 6829SOL     OW22445   3.222   4.586   4.769
 6829SOL    HW122446   3.147   4.586   4.703
 6829SOL    HW222447   3.259   4.494   4.778
 6830SOL     OW22448   3.071   4.249   3.999
 6830SOL    HW122449   3.084   4.165   4.053
 6830SOL    HW222450   3.042   4.323   4.059
 6831SOL     OW22451   2.169   3.937   4.955
 6831SOL    HW122452   2.146   3.974   5.045
 6831SOL    HW222453   2.139   3.842   4.949
 6832SOL     OW22454   1.899   5.034   5.006
 6832SOL    HW122455   1.952   4.985   5.074
 6832SOL    HW222456   1.921   5.132   5.011
 6833SOL     OW22457   2.594   4.358   4.788
 6833SOL    HW122458   2.653   4.332   4.712
 6833SOL    HW222459   2.566   4.454   4.777
 6834SOL     OW22460   3.590   4.659   5.578
 6834SOL    HW122461   3.544   4.652   5.489
 6834SOL    HW222462   3.528   4.703   5.644
 6835SOL     OW22463   2.169   3.787   4.342
 6835SOL    HW122464   2.158   3.881   4.375
 6835SOL    HW222465   2.164   3.724   4.419
 6836SOL     OW22466   3.484   4.091   4.098
 6836SOL    HW122467   3.486   4.015   4.162
 6836SOL    HW222468   3.436   4.168   4.138
 6837SOL     OW22469   2.885   4.490   4.690
 6837SOL    HW122470   2.900   4.511   4.786
 6837SOL    HW222471   2.855   4.395   4.681
 6838SOL     OW22472   2.842   5.297   5.424
 6838SOL    HW122473   2.822   5.341   5.336
 6838SOL    HW222474   2.881   5.206   5.408
 6839SOL     OW22475   3.721   5.242   5.329
 6839SOL    HW122476   3.735   5.269   5.234
 6839SOL    HW222477   3.804   5.264   5.382
 6840SOL     OW22478   2.212   4.622   5.528
 6840SOL    HW122479   2.288   4.666   5.576
 6840SOL    HW222480   2.247   4.575   5.446
 6841SOL     OW22481   3.402   3.998   3.849
 6841SOL    HW122482   3.341   3.923   3.872
 6841SOL    HW222483   3.424   4.050   3.932
 6842SOL     OW22484   3.165   4.562   3.766
 6842SOL    HW122485   3.199   4.469   3.781
 6842SOL    HW222486   3.183   4.589   3.671
 6843SOL     OW22487   2.930   5.057   4.573
 6843SOL    HW122488   2.937   4.973   4.518
 6843SOL    HW222489   2.992   5.126   4.537
 6844SOL     OW22490   2.181   4.534   4.673
 6844SOL    HW122491   2.274   4.570   4.678
 6844SOL    HW222492   2.175   4.449   4.725
 6845SOL     OW22493   2.201   4.233   4.730
 6845SOL    HW122494   2.149   4.150   4.713
 6845SOL    HW222495   2.278   4.238   4.666
 6846SOL     OW22496   2.373   4.139   5.532
 6846SOL    HW122497   2.355   4.184   5.620
 6846SOL    HW222498   2.415   4.204   5.469
 6847SOL     OW22499   3.000   4.104   5.402
 6847SOL    HW122500   2.955   4.167   5.466
 6847SOL    HW222501   3.093   4.135   5.385
 6848SOL     OW22502   3.022   3.931   5.201
 6848SOL    HW122503   3.022   3.995   5.278
 6848SOL    HW222504   3.050   3.979   5.118
 6849SOL     OW22505   1.870   5.050   3.924
 6849SOL    HW122506   1.777   5.071   3.893
 6849SOL    HW222507   1.880   4.951   3.937
 6850SOL     OW22508   1.950   5.525   4.651
 6850SOL    HW122509   1.908   5.439   4.624
 6850SOL    HW222510   2.044   5.528   4.617
 6851SOL     OW22511   2.366   5.292   4.634
 6851SOL    HW122512   2.432   5.366   4.643
 6851SOL    HW222513   2.410   5.213   4.592
 6852SOL     OW22514   2.864   4.520   4.962
 6852SOL    HW122515   2.905   4.488   5.048
 6852SOL    HW222516   2.768   4.493   4.959
 6853SOL     OW22517   1.902   4.268   4.838
 6853SOL    HW122518   1.987   4.235   4.797
 6853SOL    HW222519   1.915   4.283   4.936
 6854SOL     OW22520   2.051   4.244   5.446
 6854SOL    HW122521   2.110   4.204   5.376
 6854SOL    HW222522   1.993   4.315   5.405
 6855SOL     OW22523   3.231   4.674   5.384
 6855SOL    HW122524   3.270   4.763   5.404
 6855SOL    HW222525   3.241   4.654   5.287
 6856SOL     OW22526   2.677   4.296   4.049
 6856SOL    HW122527   2.684   4.207   4.003
 6856SOL    HW222528   2.583   4.330   4.041
 6857SOL     OW22529   2.114   5.288   5.468
 6857SOL    HW122530   2.084   5.345   5.544
 6857SOL    HW222531   2.107   5.191   5.494
 6858SOL     OW22532   2.533   4.188   4.993
 6858SOL    HW122533   2.499   4.099   4.963
 6858SOL    HW222534   2.559   4.242   4.913
 6859SOL     OW22535   2.792   5.402   5.189
 6859SOL    HW122536   2.768   5.384   5.094
 6859SOL    HW222537   2.822   5.496   5.199
 6860SOL     OW22538   2.335   4.224   3.915
 6860SOL    HW122539   2.396   4.304   3.919
 6860SOL    HW222540   2.240   4.255   3.922
 6861SOL     OW22541   2.021   4.861   5.190
 6861SOL    HW122542   2.043   4.800   5.266
 6861SOL    HW222543   2.031   4.812   5.104
 6862SOL     OW22544   3.209   4.783   4.958
 6862SOL    HW122545   3.233   4.720   4.884
 6862SOL    HW222546   3.119   4.823   4.940
 6863SOL     OW22547   3.164   4.579   4.033
 6863SOL    HW122548   3.078   4.548   4.075
 6863SOL    HW222549   3.160   4.565   3.934
 6864SOL     OW22550   3.621   5.471   4.878
 6864SOL    HW122551   3.682   5.501   4.805
 6864SOL    HW222552   3.583   5.382   4.856
 6865SOL     OW22553   3.114   5.455   4.852
 6865SOL    HW122554   3.198   5.460   4.798
 6865SOL    HW222555   3.091   5.359   4.870
 6866SOL     OW22556   1.945   4.982   4.746
 6866SOL    HW122557   1.940   4.981   4.846
 6866SOL    HW222558   1.862   4.941   4.708
 6867SOL     OW22559   2.550   5.386   5.440
 6867SOL    HW122560   2.494   5.467   5.449
 6867SOL    HW222561   2.602   5.390   5.354
 6868SOL     OW22562   2.765   3.810   3.857
 6868SOL    HW122563   2.816   3.811   3.771
 6868SOL    HW222564   2.821   3.768   3.928
 6869SOL     OW22565   3.588   3.859   4.247
 6869SOL    HW122566   3.661   3.842   4.180
 6869SOL    HW222567   3.557   3.772   4.285
 6870SOL     OW22568   3.250   5.297   4.201
 6870SOL    HW122569   3.317   5.309   4.127
 6870SOL    HW222570   3.210   5.386   4.224
 6871SOL     OW22571   1.992   5.518   5.575
 6871SOL    HW122572   1.951   5.444   5.628
 6871SOL    HW222573   2.056   5.569   5.633
 6872SOL     OW22574   3.142   4.651   4.396
 6872SOL    HW122575   3.202   4.570   4.398
 6872SOL    HW222576   3.182   4.720   4.336
 6873SOL     OW22577   2.692   4.997   5.146
 6873SOL    HW122578   2.687   5.030   5.241
 6873SOL    HW222579   2.606   5.016   5.100
 6874SOL     OW22580   2.534   5.340   3.878
 6874SOL    HW122581   2.543   5.350   3.779
 6874SOL    HW222582   2.494   5.251   3.899
 6875SOL     OW22583   3.512   5.444   5.118
 6875SOL    HW122584   3.565   5.454   5.034
 6875SOL    HW222585   3.485   5.534   5.152
 6876SOL     OW22586   2.125   4.050   4.444
 6876SOL    HW122587   2.046   4.101   4.410
 6876SOL    HW222588   2.116   4.035   4.542
 6877SOL     OW22589   3.056   5.336   3.755
 6877SOL    HW122590   3.062   5.243   3.792
 6877SOL    HW222591   2.997   5.336   3.675
 6878SOL     OW22592   2.684   4.726   5.096
 6878SOL    HW122593   2.724   4.725   5.004
 6878SOL    HW222594   2.694   4.818   5.136
 6879SOL     OW22595   2.778   4.634   4.015
 6879SOL    HW122596   2.841   4.672   3.947
 6879SOL    HW222597   2.818   4.551   4.054
 6880SOL     OW22598   3.366   5.331   3.768
 6880SOL    HW122599   3.274   5.368   3.775
 6880SOL    HW222600   3.404   5.351   3.678
 6881SOL     OW22601   2.234   5.012   5.214
 6881SOL    HW122602   2.221   5.105   5.180
 6881SOL    HW222603   2.150   4.960   5.201
 6882SOL     OW22604   3.476   5.016   5.013
 6882SOL    HW122605   3.536   5.019   5.093
 6882SOL    HW222606   3.401   5.080   5.026
 6883SOL     OW22607   2.901   4.822   4.420
 6883SOL    HW122608   2.831   4.775   4.474
 6883SOL    HW222609   2.960   4.754   4.377
 6884SOL     OW22610   2.876   3.960   4.695
 6884SOL    HW122611   2.868   3.924   4.602
 6884SOL    HW222612   2.874   3.884   4.760
 6885SOL     OW22613   2.452   5.211   4.215
 6885SOL    HW122614   2.494   5.153   4.145
 6885SOL    HW222615   2.408   5.290   4.171
 6886SOL     OW22616   2.117   5.072   4.014
 6886SOL    HW122617   2.021   5.073   3.987
 6886SOL    HW222618   2.129   5.125   4.098
 6887SOL     OW22619   1.967   4.737   5.450
 6887SOL    HW122620   1.890   4.704   5.504
 6887SOL    HW222621   2.052   4.707   5.492
 6888SOL     OW22622   2.534   3.927   5.213
 6888SOL    HW122623   2.624   3.911   5.173
 6888SOL    HW222624   2.542   3.932   5.312
 6889SOL     OW22625   1.937   4.069   3.757
 6889SOL    HW122626   1.845   4.041   3.728
 6889SOL    HW222627   1.968   4.146   3.701
 6890SOL     OW22628   3.302   4.580   5.122
 6890SOL    HW122629   3.245   4.632   5.059
 6890SOL    HW222630   3.398   4.592   5.098
 6891SOL     OW22631   1.934   3.890   4.042
 6891SOL    HW122632   1.917   3.973   3.988
 6891SOL    HW222633   2.024   3.853   4.020
 6892SOL     OW22634   3.045   5.059   3.843
 6892SOL    HW122635   2.946   5.048   3.845
 6892SOL    HW222636   3.079   5.074   3.936
 6893SOL     OW22637   2.475   4.566   5.155
 6893SOL    HW122638   2.531   4.647   5.138
 6893SOL    HW222639   2.534   4.486   5.158
 6894SOL     OW22640   3.355   5.491   4.683
 6894SOL    HW122641   3.388   5.555   4.614
 6894SOL    HW222642   3.421   5.485   4.758
 6895SOL     OW22643   2.578   4.289   5.432
 6895SOL    HW122644   2.597   4.354   5.506
 6895SOL    HW222645   2.638   4.209   5.441
 6896SOL     OW22646   3.312   4.944   5.357
 6896SOL    HW122647   3.303   4.934   5.456
 6896SOL    HW222648   3.408   4.937   5.331
 6897SOL     OW22649   2.252   5.465   5.284
 6897SOL    HW122650   2.161   5.506   5.282
 6897SOL    HW222651   2.245   5.371   5.316
 6898SOL     OW22652   3.536   4.607   4.978
 6898SOL    HW122653   3.509   4.518   4.941
 6898SOL    HW222654   3.537   4.675   4.905
 6899SOL     OW22655   3.087   4.049   4.173
 6899SOL    HW122656   3.152   3.975   4.162
 6899SOL    HW222657   3.107   4.099   4.257
 6900SOL     OW22658   2.456   4.469   4.376
 6900SOL    HW122659   2.506   4.554   4.357
 6900SOL    HW222660   2.368   4.471   4.328
 6901SOL     OW22661   3.639   4.066   5.366
 6901SOL    HW122662   3.622   4.097   5.272
 6901SOL    HW222663   3.555   4.029   5.404
 6902SOL     OW22664   3.592   4.658   5.241
 6902SOL    HW122665   3.630   4.749   5.256
 6902SOL    HW222666   3.584   4.641   5.142
 6903SOL     OW22667   2.721   5.098   3.740
 6903SOL    HW122668   2.675   5.113   3.828
 6903SOL    HW222669   2.765   5.183   3.710
 6904SOL     OW22670   2.523   5.514   4.677
 6904SOL    HW122671   2.477   5.602   4.664
 6904SOL    HW222672   2.622   5.526   4.670
 6905SOL     OW22673   3.270   5.575   5.444
 6905SOL    HW122674   3.174   5.564   5.417
 6905SOL    HW222675   3.326   5.508   5.396
 6906SOL     OW22676   2.721   4.680   4.585
 6906SOL    HW122677   2.775   4.611   4.633
 6906SOL    HW222678   2.689   4.749   4.651
 6907SOL     OW22679   2.945   4.708   3.811
 6907SOL    HW122680   2.922   4.761   3.729
 6907SOL    HW222681   3.026   4.652   3.792
 6908SOL     OW22682   3.723   5.293   4.575
 6908SOL    HW122683   3.652   5.281   4.505
 6908SOL    HW222684   3.724   5.214   4.635
 6909SOL     OW22685   2.083   5.038   5.568
 6909SOL    HW122686   2.018   4.965   5.547
 6909SOL    HW222687   2.087   5.052   5.666
 6910SOL     OW22688   1.941   4.964   4.377
 6910SOL    HW122689   1.940   4.917   4.465
 6910SOL    HW222690   2.023   4.936   4.326
 6911SOL     OW22691   2.534   5.115   5.348
 6911SOL    HW122692   2.456   5.065   5.386
 6911SOL    HW222693   2.531   5.210   5.379
 6912SOL     OW22694   3.686   3.916   4.951
 6912SOL    HW122695   3.682   3.826   4.995
 6912SOL    HW222696   3.689   3.905   4.852
 6913SOL     OW22697   2.290   4.148   4.244
 6913SOL    HW122698   2.320   4.076   4.182
 6913SOL    HW222699   2.251   4.108   4.327
 6914SOL     OW22700   3.567   5.211   4.828
 6914SOL    HW122701   3.474   5.186   4.801
 6914SOL    HW222702   3.593   5.161   4.910
 6915SOL     OW22703   2.179   4.271   5.004
 6915SOL    HW122704   2.217   4.212   5.076
 6915SOL    HW222705   2.219   4.245   4.916
 6916SOL     OW22706   2.674   5.310   4.411
 6916SOL    HW122707   2.706   5.320   4.317
 6916SOL    HW222708   2.595   5.248   4.413
 6917SOL     OW22709   2.632   5.054   4.025
 6917SOL    HW122710   2.586   4.967   4.042
 6917SOL    HW222711   2.723   5.051   4.066
 6918SOL     OW22712   2.480   5.291   5.008
 6918SOL    HW122713   2.475   5.373   5.065
 6918SOL    HW222714   2.569   5.288   4.963
 6919SOL     OW22715   3.214   3.776   3.892
 6919SOL    HW122716   3.249   3.735   3.808
 6919SOL    HW222717   3.124   3.738   3.912
 6920SOL     OW22718   3.162   4.177   4.415
 6920SOL    HW122719   3.103   4.257   4.419
 6920SOL    HW222720   3.177   4.142   4.508
 6921SOL     OW22721   1.901   4.801   4.024
 6921SOL    HW122722   2.000   4.790   4.015
 6921SOL    HW222723   1.861   4.715   4.056
 6922SOL     OW22724   2.737   5.370   4.061
 6922SOL    HW122725   2.660   5.335   4.007
 6922SOL    HW222726   2.705   5.441   4.123
 6923SOL     OW22727   2.092   4.352   5.699
 6923SOL    HW122728   1.999   4.350   5.736
 6923SOL    HW222729   2.093   4.313   5.607
 6924SOL     OW22730   2.087   3.999   6.582
 6924SOL    HW122731   2.122   3.982   6.674
 6924SOL    HW222732   1.999   3.954   6.570
 6925SOL     OW22733   1.881   4.092   6.233
 6925SOL    HW122734   1.799   4.135   6.272
 6925SOL    HW222735   1.853   4.019   6.170
 6926SOL     OW22736   2.431   4.999   6.751
 6926SOL    HW122737   2.338   4.992   6.714
 6926SOL    HW222738   2.442   5.088   6.795
 6927SOL     OW22739   3.417   5.235   6.289
 6927SOL    HW122740   3.360   5.219   6.370
 6927SOL    HW222741   3.358   5.245   6.209
 6928SOL     OW22742   3.605   4.342   6.442
 6928SOL    HW122743   3.638   4.436   6.442
 6928SOL    HW222744   3.656   4.288   6.508
 6929SOL     OW22745   2.997   4.427   6.303
 6929SOL    HW122746   3.054   4.505   6.278
 6929SOL    HW222747   2.937   4.453   6.379
 6930SOL     OW22748   3.617   4.331   5.817
 6930SOL    HW122749   3.605   4.318   5.718
 6930SOL    HW222750   3.587   4.250   5.866
 6931SOL     OW22751   2.630   4.868   6.609
 6931SOL    HW122752   2.552   4.885   6.669
 6931SOL    HW222753   2.664   4.955   6.573
 6932SOL     OW22754   2.712   4.522   7.409
 6932SOL    HW122755   2.708   4.598   7.474
 6932SOL    HW222756   2.734   4.558   7.318
 6933SOL     OW22757   2.547   4.736   6.251
 6933SOL    HW122758   2.616   4.720   6.321
 6933SOL    HW222759   2.474   4.793   6.289
 6934SOL     OW22760   2.548   4.885   7.389
 6934SOL    HW122761   2.608   4.964   7.403
 6934SOL    HW222762   2.462   4.916   7.348
 6935SOL     OW22763   2.197   5.159   6.647
 6935SOL    HW122764   2.119   5.128   6.594
 6935SOL    HW222765   2.255   5.217   6.590
 6936SOL     OW22766   3.322   5.229   6.925
 6936SOL    HW122767   3.346   5.323   6.951
 6936SOL    HW222768   3.306   5.175   7.007
 6937SOL     OW22769   2.300   4.116   7.085
 6937SOL    HW122770   2.382   4.060   7.094
 6937SOL    HW222771   2.219   4.058   7.089
 6938SOL     OW22772   3.465   4.171   6.323
 6938SOL    HW122773   3.391   4.217   6.273
 6938SOL    HW222774   3.516   4.239   6.376
 6939SOL     OW22775   2.093   5.437   6.069
 6939SOL    HW122776   2.127   5.514   6.123
 6939SOL    HW222777   2.137   5.437   5.979
 6940SOL     OW22778   2.989   5.065   7.276
 6940SOL    HW122779   3.036   5.065   7.364
 6940SOL    HW222780   2.941   4.978   7.265
 6941SOL     OW22781   2.092   5.158   6.124
 6941SOL    HW122782   2.066   5.254   6.124
 6941SOL    HW222783   2.021   5.104   6.169
 6942SOL     OW22784   2.102   4.815   6.472
 6942SOL    HW122785   2.116   4.731   6.524
 6942SOL    HW222786   2.047   4.879   6.527
 6943SOL     OW22787   2.482   5.510   7.025
 6943SOL    HW122788   2.390   5.493   7.060
 6943SOL    HW222789   2.510   5.602   7.051
 6944SOL     OW22790   2.468   4.688   5.709
 6944SOL    HW122791   2.475   4.772   5.655
 6944SOL    HW222792   2.514   4.701   5.797
 6945SOL     OW22793   3.456   3.838   7.066
 6945SOL    HW122794   3.438   3.905   6.994
 6945SOL    HW222795   3.453   3.884   7.155
 6946SOL     OW22796   1.984   4.367   6.149
 6946SOL    HW122797   1.939   4.279   6.166
 6946SOL    HW222798   1.983   4.421   6.233
 6947SOL     OW22799   3.704   5.491   5.945
 6947SOL    HW122800   3.758   5.462   6.025
 6947SOL    HW222801   3.734   5.581   5.916
 6948SOL     OW22802   1.889   5.320   5.703
 6948SOL    HW122803   1.870   5.224   5.724
 6948SOL    HW222804   1.856   5.378   5.778
 6949SOL     OW22805   3.551   4.646   6.198
 6949SOL    HW122806   3.646   4.617   6.206
 6949SOL    HW222807   3.543   4.711   6.123
 6950SOL     OW22808   3.503   4.832   6.018
 6950SOL    HW122809   3.589   4.834   5.966
 6950SOL    HW222810   3.517   4.879   6.106
 6951SOL     OW22811   1.975   4.461   7.183
 6951SOL    HW122812   2.063   4.448   7.228
 6951SOL    HW222813   1.962   4.558   7.161
 6952SOL     OW22814   2.475   5.089   6.312
 6952SOL    HW122815   2.426   5.002   6.321
 6952SOL    HW222816   2.452   5.132   6.225
 6953SOL     OW22817   3.155   4.952   7.009
 6953SOL    HW122818   3.192   4.879   6.951
 6953SOL    HW222819   3.207   4.957   7.094
 6954SOL     OW22820   2.671   3.728   6.088
 6954SOL    HW122821   2.711   3.819   6.079
 6954SOL    HW222822   2.571   3.736   6.094
 6955SOL     OW22823   2.059   4.700   6.850
 6955SOL    HW122824   2.148   4.655   6.836
 6955SOL    HW222825   1.986   4.635   6.831
 6956SOL     OW22826   3.387   4.723   5.776
 6956SOL    HW122827   3.324   4.647   5.789
 6956SOL    HW222828   3.435   4.741   5.862
 6957SOL     OW22829   3.049   5.516   7.202
 6957SOL    HW122830   3.073   5.576   7.126
 6957SOL    HW222831   3.056   5.421   7.172
 6958SOL     OW22832   2.179   3.975   7.387
 6958SOL    HW122833   2.250   4.046   7.393
 6958SOL    HW222834   2.091   4.014   7.415
 6959SOL     OW22835   3.328   5.141   6.539
 6959SOL    HW122836   3.269   5.147   6.619
 6959SOL    HW222837   3.313   5.053   6.493
 6960SOL     OW22838   3.529   5.438   6.158
 6960SOL    HW122839   3.488   5.415   6.070
 6960SOL    HW222840   3.511   5.364   6.223
 6961SOL     OW22841   2.460   4.453   5.856
 6961SOL    HW122842   2.484   4.522   5.788
 6961SOL    HW222843   2.382   4.486   5.910
 6962SOL     OW22844   3.143   4.069   6.530
 6962SOL    HW122845   3.057   4.019   6.517
 6962SOL    HW222846   3.205   4.015   6.586
 6963SOL     OW22847   3.438   5.386   5.893
 6963SOL    HW122848   3.527   5.432   5.896
 6963SOL    HW222849   3.417   5.362   5.798
 6964SOL     OW22850   2.669   4.329   7.051
 6964SOL    HW122851   2.622   4.326   7.140
 6964SOL    HW222852   2.618   4.274   6.985
 6965SOL     OW22853   3.256   4.193   7.260
 6965SOL    HW122854   3.236   4.236   7.348
 6965SOL    HW222855   3.334   4.131   7.269
 6966SOL     OW22856   2.835   4.614   7.158
 6966SOL    HW122857   2.881   4.530   7.129
 6966SOL    HW222858   2.779   4.648   7.083
 6967SOL     OW22859   2.853   4.134   6.828
 6967SOL    HW122860   2.776   4.168   6.882
 6967SOL    HW222861   2.819   4.083   6.749
 6968SOL     OW22862   2.903   4.425   6.015
 6968SOL    HW122863   2.929   4.421   6.111
 6968SOL    HW222864   2.818   4.374   6.001
 6969SOL     OW22865   1.938   4.535   6.375
 6969SOL    HW122866   2.037   4.523   6.384
 6969SOL    HW222867   1.914   4.630   6.396
 6970SOL     OW22868   1.992   5.545   7.157
 6970SOL    HW122869   1.982   5.530   7.256
 6970SOL    HW222870   1.906   5.581   7.121
 6971SOL     OW22871   2.727   4.072   5.781
 6971SOL    HW122872   2.786   4.135   5.732
 6971SOL    HW222873   2.746   3.978   5.752
 6972SOL     OW22874   3.581   4.309   7.417
 6972SOL    HW122875   3.555   4.398   7.381
 6972SOL    HW222876   3.579   4.241   7.344
 6973SOL     OW22877   3.224   4.868   6.131
 6973SOL    HW122878   3.307   4.839   6.083
 6973SOL    HW222879   3.175   4.935   6.075
 6974SOL     OW22880   2.412   3.920   6.471
 6974SOL    HW122881   2.407   3.915   6.571
 6974SOL    HW222882   2.414   4.016   6.442
 6975SOL     OW22883   2.870   5.180   6.063
 6975SOL    HW122884   2.824   5.252   6.011
 6975SOL    HW222885   2.866   5.200   6.161
 6976SOL     OW22886   2.213   5.525   6.439
 6976SOL    HW122887   2.263   5.439   6.445
 6976SOL    HW222888   2.278   5.602   6.436
 6977SOL     OW22889   3.657   4.790   6.459
 6977SOL    HW122890   3.595   4.775   6.383
 6977SOL    HW222891   3.605   4.801   6.544
 6978SOL     OW22892   3.089   5.274   7.092
 6978SOL    HW122893   3.095   5.197   7.156
 6978SOL    HW222894   3.037   5.248   7.012
 6979SOL     OW22895   2.183   4.667   5.828
 6979SOL    HW122896   2.265   4.706   5.786
 6979SOL    HW222897   2.156   4.585   5.779
 6980SOL     OW22898   3.320   4.459   6.314
 6980SOL    HW122899   3.315   4.394   6.389
 6980SOL    HW222900   3.400   4.518   6.327
 6981SOL     OW22901   2.323   4.990   7.313
 6981SOL    HW122902   2.273   4.991   7.227
 6981SOL    HW222903   2.260   4.972   7.389
 6982SOL     OW22904   2.973   5.500   5.823
 6982SOL    HW122905   2.913   5.438   5.873
 6982SOL    HW222906   3.004   5.456   5.738
 6983SOL     OW22907   2.064   4.009   7.084
 6983SOL    HW122908   1.984   4.069   7.071
 6983SOL    HW222909   2.054   3.960   7.170
 6984SOL     OW22910   3.494   5.101   5.667
 6984SOL    HW122911   3.462   5.195   5.657
 6984SOL    HW222912   3.418   5.038   5.655
 6985SOL     OW22913   2.326   5.467   5.909
 6985SOL    HW122914   2.359   5.506   5.995
 6985SOL    HW222915   2.402   5.460   5.844
 6986SOL     OW22916   3.262   3.831   6.012
 6986SOL    HW122917   3.238   3.794   5.922
 6986SOL    HW222918   3.361   3.847   6.016
 6987SOL     OW22919   2.111   5.509   6.827
 6987SOL    HW122920   2.168   5.444   6.877
 6987SOL    HW222921   2.095   5.476   6.734
 6988SOL     OW22922   2.802   5.422   6.490
 6988SOL    HW122923   2.882   5.365   6.511
 6988SOL    HW222924   2.753   5.382   6.413
 6989SOL     OW22925   2.244   4.424   6.066
 6989SOL    HW122926   2.289   4.334   6.063
 6989SOL    HW222927   2.150   4.413   6.099
 6990SOL     OW22928   3.409   3.946   7.315
 6990SOL    HW122929   3.404   3.983   7.407
 6990SOL    HW222930   3.337   3.877   7.303
 6991SOL     OW22931   2.476   3.846   5.703
 6991SOL    HW122932   2.574   3.824   5.710
 6991SOL    HW222933   2.445   3.829   5.610
 6992SOL     OW22934   2.643   3.988   7.335
 6992SOL    HW122935   2.710   3.927   7.378
 6992SOL    HW222936   2.570   4.007   7.400
 6993SOL     OW22937   2.750   5.238   6.781
 6993SOL    HW122938   2.727   5.213   6.687
 6993SOL    HW222939   2.811   5.169   6.820
 6994SOL     OW22940   3.213   4.314   7.019
 6994SOL    HW122941   3.241   4.271   7.104
 6994SOL    HW222942   3.238   4.410   7.020
 6995SOL     OW22943   2.665   5.126   6.510
 6995SOL    HW122944   2.755   5.140   6.468
 6995SOL    HW222945   2.594   5.128   6.439
 6996SOL     OW22946   2.784   4.227   6.485
 6996SOL    HW122947   2.759   4.218   6.389
 6996SOL    HW222948   2.832   4.145   6.516
 6997SOL     OW22949   2.401   3.788   6.098
 6997SOL    HW122950   2.320   3.789   6.156
 6997SOL    HW222951   2.404   3.871   6.043
 6998SOL     OW22952   3.296   4.912   5.627
 6998SOL    HW122953   3.328   4.836   5.684
 6998SOL    HW222954   3.204   4.939   5.657
 6999SOL     OW22955   2.159   3.759   5.757
 6999SOL    HW122956   2.208   3.843   5.736
 6999SOL    HW222957   2.221   3.694   5.802
 7000SOL     OW22958   2.797   3.960   6.066
 7000SOL    HW122959   2.749   4.001   5.988
 7000SOL    HW222960   2.896   3.958   6.047
 7001SOL     OW22961   2.938   4.407   7.050
 7001SOL    HW122962   2.858   4.346   7.053
 7001SOL    HW222963   3.019   4.354   7.026
 7002SOL     OW22964   3.089   5.294   6.379
 7002SOL    HW122965   3.110   5.368   6.314
 7002SOL    HW222966   3.157   5.294   6.452
 7003SOL     OW22967   2.321   4.876   6.327
 7003SOL    HW122968   2.250   4.849   6.392
 7003SOL    HW222969   2.295   4.848   6.234
 7004SOL     OW22970   3.133   5.521   6.177
 7004SOL    HW122971   3.177   5.585   6.113
 7004SOL    HW222972   3.083   5.573   6.247
 7005SOL     OW22973   2.894   4.273   5.602
 7005SOL    HW122974   2.853   4.355   5.563
 7005SOL    HW222975   2.958   4.299   5.675
 7006SOL     OW22976   1.940   4.280   6.972
 7006SOL    HW122977   2.032   4.279   6.931
 7006SOL    HW222978   1.934   4.354   7.039
 7007SOL     OW22979   2.423   3.946   6.733
 7007SOL    HW122980   2.461   3.862   6.770
 7007SOL    HW222981   2.335   3.965   6.777
 7008SOL     OW22982   2.728   4.178   6.228
 7008SOL    HW122983   2.696   4.250   6.166
 7008SOL    HW222984   2.752   4.097   6.175
 7009SOL     OW22985   2.879   3.763   6.339
 7009SOL    HW122986   2.807   3.768   6.270
 7009SOL    HW222987   2.855   3.694   6.408
 7010SOL     OW22988   3.291   4.897   6.453
 7010SOL    HW122989   3.236   4.813   6.446
 7010SOL    HW222990   3.317   4.926   6.361
 7011SOL     OW22991   3.328   4.314   6.578
 7011SOL    HW122992   3.298   4.219   6.585
 7011SOL    HW222993   3.401   4.330   6.644
 7012SOL     OW22994   3.719   4.557   5.963
 7012SOL    HW122995   3.761   4.493   6.027
 7012SOL    HW222996   3.681   4.506   5.885
 7013SOL     OW22997   2.350   5.109   5.760
 7013SOL    HW122998   2.263   5.094   5.807
 7013SOL    HW222999   2.333   5.135   5.665
 7014SOL     OW23000   3.526   5.004   6.243
 7014SOL    HW123001   3.625   5.012   6.257
 7014SOL    HW223002   3.481   5.088   6.274
 7015SOL     OW23003   3.252   4.299   5.664
 7015SOL    HW123004   3.198   4.278   5.745
 7015SOL    HW223005   3.343   4.258   5.673
 7016SOL     OW23006   2.389   3.980   5.914
 7016SOL    HW123007   2.416   3.921   5.839
 7016SOL    HW223008   2.389   4.075   5.883
 7017SOL     OW23009   3.616   4.947   7.174
 7017SOL    HW123010   3.707   4.908   7.161
 7017SOL    HW223011   3.624   5.043   7.198
 7018SOL     OW23012   2.926   5.071   6.926
 7018SOL    HW123013   2.846   5.048   6.981
 7018SOL    HW223014   3.009   5.045   6.975
 7019SOL     OW23015   3.454   5.353   7.211
 7019SOL    HW123016   3.481   5.387   7.121
 7019SOL    HW223017   3.533   5.315   7.257
 7020SOL     OW23018   2.973   4.919   6.686
 7020SOL    HW123019   2.933   4.963   6.767
 7020SOL    HW223020   2.932   4.956   6.603
 7021SOL     OW23021   3.500   4.823   6.665
 7021SOL    HW123022   3.505   4.904   6.724
 7021SOL    HW223023   3.414   4.825   6.614
 7022SOL     OW23024   2.777   3.813   6.988
 7022SOL    HW123025   2.802   3.793   6.893
 7022SOL    HW223026   2.849   3.869   7.030
 7023SOL     OW23027   2.842   4.840   7.305
 7023SOL    HW123028   2.743   4.846   7.315
 7023SOL    HW223029   2.865   4.760   7.249
 7024SOL     OW23030   2.567   4.774   5.954
 7024SOL    HW123031   2.553   4.781   6.053
 7024SOL    HW223032   2.651   4.723   5.936
 7025SOL     OW23033   2.272   4.537   6.837
 7025SOL    HW123034   2.358   4.549   6.887
 7025SOL    HW223035   2.230   4.450   6.864
 7026SOL     OW23036   3.136   4.110   6.848
 7026SOL    HW123037   3.157   4.184   6.912
 7026SOL    HW223038   3.047   4.127   6.805
 7027SOL     OW23039   1.926   5.288   6.917
 7027SOL    HW123040   1.880   5.370   6.883
 7027SOL    HW223041   2.024   5.307   6.926
 7028SOL     OW23042   2.229   4.824   6.087
 7028SOL    HW123043   2.222   4.907   6.031
 7028SOL    HW223044   2.233   4.744   6.027
 7029SOL     OW23045   2.428   4.261   6.451
 7029SOL    HW123046   2.440   4.327   6.377
 7029SOL    HW223047   2.474   4.295   6.534
 7030SOL     OW23048   3.114   5.072   5.974
 7030SOL    HW123049   3.164   5.149   6.014
 7030SOL    HW223050   3.019   5.074   6.006
 7031SOL     OW23051   3.134   5.169   6.728
 7031SOL    HW123052   3.181   5.182   6.815
 7031SOL    HW223053   3.068   5.095   6.737
 7032SOL     OW23054   3.444   4.363   6.058
 7032SOL    HW123055   3.413   4.424   6.131
 7032SOL    HW223056   3.494   4.415   5.989
 7033SOL     OW23057   2.216   5.234   6.915
 7033SOL    HW123058   2.195   5.190   6.828
 7033SOL    HW223059   2.313   5.260   6.918
 7034SOL     OW23060   2.264   4.475   7.184
 7034SOL    HW123061   2.332   4.530   7.137
 7034SOL    HW223062   2.304   4.387   7.211
 7035SOL     OW23063   3.449   4.503   7.256
 7035SOL    HW123064   3.357   4.541   7.251
 7035SOL    HW223065   3.509   4.550   7.191
 7036SOL     OW23066   2.875   3.829   7.356
 7036SOL    HW123067   2.881   3.914   7.304
 7036SOL    HW223068   2.907   3.753   7.299
 7037SOL     OW23069   2.366   3.774   7.326
 7037SOL    HW123070   2.324   3.717   7.256
 7037SOL    HW223071   2.300   3.843   7.358
 7038SOL     OW23072   2.435   4.594   6.615
 7038SOL    HW123073   2.479   4.683   6.606
 7038SOL    HW223074   2.372   4.594   6.692
 7039SOL     OW23075   3.222   4.586   6.631
 7039SOL    HW123076   3.147   4.586   6.565
 7039SOL    HW223077   3.259   4.494   6.640
 7040SOL     OW23078   3.071   4.249   5.861
 7040SOL    HW123079   3.084   4.165   5.915
 7040SOL    HW223080   3.042   4.323   5.921
 7041SOL     OW23081   2.169   3.937   6.817
 7041SOL    HW123082   2.146   3.974   6.907
 7041SOL    HW223083   2.139   3.842   6.811
 7042SOL     OW23084   1.899   5.034   6.868
 7042SOL    HW123085   1.952   4.985   6.936
 7042SOL    HW223086   1.921   5.132   6.873
 7043SOL     OW23087   2.594   4.358   6.650
 7043SOL    HW123088   2.653   4.332   6.574
 7043SOL    HW223089   2.566   4.454   6.639
 7044SOL     OW23090   3.590   4.659   7.440
 7044SOL    HW123091   3.544   4.652   7.351
 7044SOL    HW223092   3.528   4.703   7.506
 7045SOL     OW23093   2.169   3.787   6.204
 7045SOL    HW123094   2.158   3.881   6.237
 7045SOL    HW223095   2.164   3.724   6.281
 7046SOL     OW23096   3.484   4.091   5.960
 7046SOL    HW123097   3.486   4.015   6.024
 7046SOL    HW223098   3.436   4.168   6.000
 7047SOL     OW23099   2.885   4.490   6.552
 7047SOL    HW123100   2.900   4.511   6.648
 7047SOL    HW223101   2.855   4.395   6.543
 7048SOL     OW23102   2.842   5.297   7.286
 7048SOL    HW123103   2.822   5.341   7.198
 7048SOL    HW223104   2.881   5.206   7.270
 7049SOL     OW23105   3.721   5.242   7.191
 7049SOL    HW123106   3.735   5.269   7.096
 7049SOL    HW223107   3.804   5.264   7.244
 7050SOL     OW23108   2.212   4.622   7.390
 7050SOL    HW123109   2.288   4.666   7.438
 7050SOL    HW223110   2.247   4.575   7.308
 7051SOL     OW23111   3.402   3.998   5.711
 7051SOL    HW123112   3.341   3.923   5.734
 7051SOL    HW223113   3.424   4.050   5.794
 7052SOL     OW23114   3.165   4.562   5.628
 7052SOL    HW123115   3.199   4.469   5.643
 7052SOL    HW223116   3.183   4.589   5.533
 7053SOL     OW23117   2.930   5.057   6.435
 7053SOL    HW123118   2.937   4.973   6.380
 7053SOL    HW223119   2.992   5.126   6.399
 7054SOL     OW23120   2.181   4.534   6.535
 7054SOL    HW123121   2.274   4.570   6.540
 7054SOL    HW223122   2.175   4.449   6.587
 7055SOL     OW23123   2.201   4.233   6.592
 7055SOL    HW123124   2.149   4.150   6.575
 7055SOL    HW223125   2.278   4.238   6.528
 7056SOL     OW23126   2.373   4.139   7.394
 7056SOL    HW123127   2.355   4.184   7.482
 7056SOL    HW223128   2.415   4.204   7.331
 7057SOL     OW23129   3.000   4.104   7.264
 7057SOL    HW123130   2.955   4.167   7.328
 7057SOL    HW223131   3.093   4.135   7.247
 7058SOL     OW23132   3.022   3.931   7.063
 7058SOL    HW123133   3.022   3.995   7.140
 7058SOL    HW223134   3.050   3.979   6.980
 7059SOL     OW23135   1.870   5.050   5.786
 7059SOL    HW123136   1.777   5.071   5.755
 7059SOL    HW223137   1.880   4.951   5.799
 7060SOL     OW23138   1.950   5.525   6.513
 7060SOL    HW123139   1.908   5.439   6.486
 7060SOL    HW223140   2.044   5.528   6.479
 7061SOL     OW23141   2.366   5.292   6.496
 7061SOL    HW123142   2.432   5.366   6.505
 7061SOL    HW223143   2.410   5.213   6.454
 7062SOL     OW23144   2.864   4.520   6.824
 7062SOL    HW123145   2.905   4.488   6.910
 7062SOL    HW223146   2.768   4.493   6.821
 7063SOL     OW23147   1.902   4.268   6.700
 7063SOL    HW123148   1.987   4.235   6.659
 7063SOL    HW223149   1.915   4.283   6.798
 7064SOL     OW23150   2.051   4.244   7.308
 7064SOL    HW123151   2.110   4.204   7.238
 7064SOL    HW223152   1.993   4.315   7.267
 7065SOL     OW23153   3.231   4.674   7.246
 7065SOL    HW123154   3.270   4.763   7.266
 7065SOL    HW223155   3.241   4.654   7.149
 7066SOL     OW23156   2.677   4.296   5.911
 7066SOL    HW123157   2.684   4.207   5.865
 7066SOL    HW223158   2.583   4.330   5.903
 7067SOL     OW23159   3.519   4.328   6.792
 7067SOL    HW123160   3.481   4.259   6.854
 7067SOL    HW223161   3.601   4.292   6.748
 7068SOL     OW23162   2.114   5.288   7.330
 7068SOL    HW123163   2.084   5.345   7.406
 7068SOL    HW223164   2.107   5.191   7.356
 7069SOL     OW23165   2.533   4.188   6.855
 7069SOL    HW123166   2.499   4.099   6.825
 7069SOL    HW223167   2.559   4.242   6.775
 7070SOL     OW23168   2.792   5.402   7.051
 7070SOL    HW123169   2.768   5.384   6.956
 7070SOL    HW223170   2.822   5.496   7.061
 7071SOL     OW23171   2.335   4.224   5.777
 7071SOL    HW123172   2.396   4.304   5.781
 7071SOL    HW223173   2.240   4.255   5.784
 7072SOL     OW23174   2.021   4.861   7.052
 7072SOL    HW123175   2.043   4.800   7.128
 7072SOL    HW223176   2.031   4.812   6.966
 7073SOL     OW23177   3.209   4.783   6.820
 7073SOL    HW123178   3.233   4.720   6.746
 7073SOL    HW223179   3.119   4.823   6.802
 7074SOL     OW23180   3.164   4.579   5.895
 7074SOL    HW123181   3.078   4.548   5.937
 7074SOL    HW223182   3.160   4.565   5.796
 7075SOL     OW23183   3.621   5.471   6.740
 7075SOL    HW123184   3.682   5.501   6.667
 7075SOL    HW223185   3.583   5.382   6.718
 7076SOL     OW23186   3.114   5.455   6.714
 7076SOL    HW123187   3.198   5.460   6.660
 7076SOL    HW223188   3.091   5.359   6.732
 7077SOL     OW23189   1.945   4.982   6.608
 7077SOL    HW123190   1.940   4.981   6.708
 7077SOL    HW223191   1.862   4.941   6.570
 7078SOL     OW23192   2.550   5.386   7.302
 7078SOL    HW123193   2.494   5.467   7.311
 7078SOL    HW223194   2.602   5.390   7.216
 7079SOL     OW23195   2.765   3.810   5.719
 7079SOL    HW123196   2.816   3.811   5.633
 7079SOL    HW223197   2.821   3.768   5.790
 7080SOL     OW23198   3.588   3.859   6.109
 7080SOL    HW123199   3.661   3.842   6.042
 7080SOL    HW223200   3.557   3.772   6.147
 7081SOL     OW23201   3.250   5.297   6.063
 7081SOL    HW123202   3.317   5.309   5.989
 7081SOL    HW223203   3.210   5.386   6.086
 7082SOL     OW23204   1.992   5.518   7.437
 7082SOL    HW123205   1.951   5.444   7.490
 7082SOL    HW223206   2.056   5.569   7.495
 7083SOL     OW23207   3.142   4.651   6.258
 7083SOL    HW123208   3.202   4.570   6.260
 7083SOL    HW223209   3.182   4.720   6.198
 7084SOL     OW23210   2.692   4.997   7.008
 7084SOL    HW123211   2.687   5.030   7.103
 7084SOL    HW223212   2.606   5.016   6.962
 7085SOL     OW23213   2.534   5.340   5.740
 7085SOL    HW123214   2.543   5.350   5.641
 7085SOL    HW223215   2.494   5.251   5.761
 7086SOL     OW23216   3.512   5.444   6.980
 7086SOL    HW123217   3.565   5.454   6.896
 7086SOL    HW223218   3.485   5.534   7.014
 7087SOL     OW23219   3.703   3.899   6.549
 7087SOL    HW123220   3.742   3.814   6.513
 7087SOL    HW223221   3.605   3.901   6.530
 7088SOL     OW23222   2.125   4.050   6.306
 7088SOL    HW123223   2.046   4.101   6.272
 7088SOL    HW223224   2.116   4.035   6.404
 7089SOL     OW23225   3.056   5.336   5.617
 7089SOL    HW123226   3.062   5.243   5.654
 7089SOL    HW223227   2.997   5.336   5.537
 7090SOL     OW23228   2.684   4.726   6.958
 7090SOL    HW123229   2.724   4.725   6.866
 7090SOL    HW223230   2.694   4.818   6.998
 7091SOL     OW23231   2.778   4.634   5.877
 7091SOL    HW123232   2.841   4.672   5.809
 7091SOL    HW223233   2.818   4.551   5.916
 7092SOL     OW23234   3.366   5.331   5.630
 7092SOL    HW123235   3.274   5.368   5.637
 7092SOL    HW223236   3.404   5.351   5.540
 7093SOL     OW23237   2.234   5.012   7.076
 7093SOL    HW123238   2.221   5.105   7.042
 7093SOL    HW223239   2.150   4.960   7.063
 7094SOL     OW23240   3.476   5.016   6.875
 7094SOL    HW123241   3.536   5.019   6.955
 7094SOL    HW223242   3.401   5.080   6.888
 7095SOL     OW23243   2.901   4.822   6.282
 7095SOL    HW123244   2.831   4.775   6.336
 7095SOL    HW223245   2.960   4.754   6.239
 7096SOL     OW23246   2.876   3.960   6.557
 7096SOL    HW123247   2.868   3.924   6.464
 7096SOL    HW223248   2.874   3.884   6.622
 7097SOL     OW23249   2.452   5.211   6.077
 7097SOL    HW123250   2.494   5.153   6.007
 7097SOL    HW223251   2.408   5.290   6.033
 7098SOL     OW23252   3.571   4.109   6.967
 7098SOL    HW123253   3.644   4.178   6.971
 7098SOL    HW223254   3.599   4.034   6.908
 7099SOL     OW23255   2.117   5.072   5.876
 7099SOL    HW123256   2.021   5.073   5.849
 7099SOL    HW223257   2.129   5.125   5.960
 7100SOL     OW23258   1.967   4.737   7.312
 7100SOL    HW123259   1.890   4.704   7.366
 7100SOL    HW223260   2.052   4.707   7.354
 7101SOL     OW23261   2.534   3.927   7.075
 7101SOL    HW123262   2.624   3.911   7.035
 7101SOL    HW223263   2.542   3.932   7.174
 7102SOL     OW23264   1.937   4.069   5.619
 7102SOL    HW123265   1.845   4.041   5.590
 7102SOL    HW223266   1.968   4.146   5.563
 7103SOL     OW23267   3.302   4.580   6.984
 7103SOL    HW123268   3.245   4.632   6.921
 7103SOL    HW223269   3.398   4.592   6.960
 7104SOL     OW23270   1.934   3.890   5.904
 7104SOL    HW123271   1.917   3.973   5.850
 7104SOL    HW223272   2.024   3.853   5.882
 7105SOL     OW23273   3.045   5.059   5.705
 7105SOL    HW123274   2.946   5.048   5.707
 7105SOL    HW223275   3.079   5.074   5.798
 7106SOL     OW23276   2.475   4.566   7.017
 7106SOL    HW123277   2.531   4.647   7.000
 7106SOL    HW223278   2.534   4.486   7.020
 7107SOL     OW23279   3.355   5.491   6.545
 7107SOL    HW123280   3.388   5.555   6.476
 7107SOL    HW223281   3.421   5.485   6.620
 7108SOL     OW23282   2.578   4.289   7.294
 7108SOL    HW123283   2.597   4.354   7.368
 7108SOL    HW223284   2.638   4.209   7.303
 7109SOL     OW23285   3.312   4.944   7.219
 7109SOL    HW123286   3.303   4.934   7.318
 7109SOL    HW223287   3.408   4.937   7.193
 7110SOL     OW23288   2.252   5.465   7.146
 7110SOL    HW123289   2.161   5.506   7.144
 7110SOL    HW223290   2.245   5.371   7.178
 7111SOL     OW23291   3.536   4.607   6.840
 7111SOL    HW123292   3.509   4.518   6.803
 7111SOL    HW223293   3.537   4.675   6.767
 7112SOL     OW23294   3.087   4.049   6.035
 7112SOL    HW123295   3.152   3.975   6.024
 7112SOL    HW223296   3.107   4.099   6.119
 7113SOL     OW23297   2.456   4.469   6.238
 7113SOL    HW123298   2.506   4.554   6.219
 7113SOL    HW223299   2.368   4.471   6.190
 7114SOL     OW23300   3.639   4.066   7.228
 7114SOL    HW123301   3.622   4.097   7.134
 7114SOL    HW223302   3.555   4.029   7.266
 7115SOL     OW23303   3.592   4.658   7.103
 7115SOL    HW123304   3.630   4.749   7.118
 7115SOL    HW223305   3.584   4.641   7.004
 7116SOL     OW23306   2.721   5.098   5.602
 7116SOL    HW123307   2.675   5.113   5.690
 7116SOL    HW223308   2.765   5.183   5.572
 7117SOL     OW23309   2.523   5.514   6.539
 7117SOL    HW123310   2.477   5.602   6.526
 7117SOL    HW223311   2.622   5.526   6.532
 7118SOL     OW23312   3.270   5.575   7.306
 7118SOL    HW123313   3.174   5.564   7.279
 7118SOL    HW223314   3.326   5.508   7.258
 7119SOL     OW23315   2.721   4.680   6.447
 7119SOL    HW123316   2.775   4.611   6.495
 7119SOL    HW223317   2.689   4.749   6.513
 7120SOL     OW23318   2.945   4.708   5.673
 7120SOL    HW123319   2.922   4.761   5.591
 7120SOL    HW223320   3.026   4.652   5.654
 7121SOL     OW23321   3.723   5.293   6.437
 7121SOL    HW123322   3.652   5.281   6.367
 7121SOL    HW223323   3.724   5.214   6.497
 7122SOL     OW23324   2.083   5.038   7.430
 7122SOL    HW123325   2.018   4.965   7.409
 7122SOL    HW223326   2.087   5.052   7.528
 7123SOL     OW23327   1.941   4.964   6.239
 7123SOL    HW123328   1.940   4.917   6.327
 7123SOL    HW223329   2.023   4.936   6.188
 7124SOL     OW23330   2.534   5.115   7.210
 7124SOL    HW123331   2.456   5.065   7.248
 7124SOL    HW223332   2.531   5.210   7.241
 7125SOL     OW23333   3.686   3.916   6.813
 7125SOL    HW123334   3.682   3.826   6.857
 7125SOL    HW223335   3.689   3.905   6.714
 7126SOL     OW23336   2.290   4.148   6.106
 7126SOL    HW123337   2.320   4.076   6.044
 7126SOL    HW223338   2.251   4.108   6.189
 7127SOL     OW23339   3.567   5.211   6.690
 7127SOL    HW123340   3.474   5.186   6.663
 7127SOL    HW223341   3.593   5.161   6.772
 7128SOL     OW23342   2.179   4.271   6.866
 7128SOL    HW123343   2.217   4.212   6.938
 7128SOL    HW223344   2.219   4.245   6.778
 7129SOL     OW23345   2.674   5.310   6.273
 7129SOL    HW123346   2.706   5.320   6.179
 7129SOL    HW223347   2.595   5.248   6.275
 7130SOL     OW23348   3.286   3.938   6.698
 7130SOL    HW123349   3.338   3.873   6.753
 7130SOL    HW223350   3.237   4.001   6.759
 7131SOL     OW23351   2.863   3.758   6.740
 7131SOL    HW123352   2.800   3.686   6.709
 7131SOL    HW223353   2.956   3.722   6.740
 7132SOL     OW23354   2.632   5.054   5.887
 7132SOL    HW123355   2.586   4.967   5.904
 7132SOL    HW223356   2.723   5.051   5.928
 7133SOL     OW23357   2.480   5.291   6.870
 7133SOL    HW123358   2.475   5.373   6.927
 7133SOL    HW223359   2.569   5.288   6.825
 7134SOL     OW23360   3.214   3.776   5.754
 7134SOL    HW123361   3.249   3.735   5.670
 7134SOL    HW223362   3.124   3.738   5.774
 7135SOL     OW23363   3.162   4.177   6.277
 7135SOL    HW123364   3.103   4.257   6.281
 7135SOL    HW223365   3.177   4.142   6.370
 7136SOL     OW23366   3.455   3.945   6.468
 7136SOL    HW123367   3.371   3.944   6.522
 7136SOL    HW223368   3.457   4.028   6.412
 7137SOL     OW23369   1.901   4.801   5.886
 7137SOL    HW123370   2.000   4.790   5.877
 7137SOL    HW223371   1.861   4.715   5.918
 7138SOL     OW23372   2.737   5.370   5.923
 7138SOL    HW123373   2.660   5.335   5.869
 7138SOL    HW223374   2.705   5.441   5.985
 7139SOL     OW23375   2.092   4.352   7.561
 7139SOL    HW123376   1.999   4.350   7.598
 7139SOL    HW223377   2.093   4.313   7.469
 7140SOL     OW23378   2.087   3.999   8.444
 7140SOL    HW123379   2.122   3.982   8.536
 7140SOL    HW223380   1.999   3.954   8.432
 7141SOL     OW23381   1.881   4.092   8.095
 7141SOL    HW123382   1.799   4.135   8.134
 7141SOL    HW223383   1.853   4.019   8.032
 7142SOL     OW23384   2.431   4.999   8.613
 7142SOL    HW123385   2.338   4.992   8.576
 7142SOL    HW223386   2.442   5.088   8.657
 7143SOL     OW23387   3.417   5.235   8.151
 7143SOL    HW123388   3.360   5.219   8.232
 7143SOL    HW223389   3.358   5.245   8.071
 7144SOL     OW23390   3.605   4.342   8.304
 7144SOL    HW123391   3.638   4.436   8.304
 7144SOL    HW223392   3.656   4.288   8.370
 7145SOL     OW23393   2.997   4.427   8.165
 7145SOL    HW123394   3.054   4.505   8.140
 7145SOL    HW223395   2.937   4.453   8.241
 7146SOL     OW23396   3.617   4.331   7.679
 7146SOL    HW123397   3.605   4.318   7.580
 7146SOL    HW223398   3.587   4.250   7.728
 7147SOL     OW23399   2.630   4.868   8.471
 7147SOL    HW123400   2.552   4.885   8.531
 7147SOL    HW223401   2.664   4.955   8.435
 7148SOL     OW23402   2.547   4.736   8.113
 7148SOL    HW123403   2.616   4.720   8.183
 7148SOL    HW223404   2.474   4.793   8.151
 7149SOL     OW23405   2.197   5.159   8.509
 7149SOL    HW123406   2.119   5.128   8.456
 7149SOL    HW223407   2.255   5.217   8.452
 7150SOL     OW23408   3.322   5.229   8.787
 7150SOL    HW123409   3.346   5.323   8.813
 7150SOL    HW223410   3.306   5.175   8.869
 7151SOL     OW23411   2.300   4.116   8.947
 7151SOL    HW123412   2.382   4.060   8.956
 7151SOL    HW223413   2.219   4.058   8.951
 7152SOL     OW23414   3.465   4.171   8.185
 7152SOL    HW123415   3.391   4.217   8.135
 7152SOL    HW223416   3.516   4.239   8.238
 7153SOL     OW23417   2.093   5.437   7.931
 7153SOL    HW123418   2.127   5.514   7.985
 7153SOL    HW223419   2.137   5.437   7.841
 7154SOL     OW23420   2.092   5.158   7.986
 7154SOL    HW123421   2.066   5.254   7.986
 7154SOL    HW223422   2.021   5.104   8.031
 7155SOL     OW23423   2.102   4.815   8.334
 7155SOL    HW123424   2.116   4.731   8.386
 7155SOL    HW223425   2.047   4.879   8.389
 7156SOL     OW23426   2.482   5.510   8.887
 7156SOL    HW123427   2.390   5.493   8.922
 7156SOL    HW223428   2.510   5.602   8.913
 7157SOL     OW23429   2.468   4.688   7.571
 7157SOL    HW123430   2.475   4.772   7.517
 7157SOL    HW223431   2.514   4.701   7.659
 7158SOL     OW23432   3.456   3.838   8.928
 7158SOL    HW123433   3.438   3.905   8.856
 7158SOL    HW223434   3.453   3.884   9.017
 7159SOL     OW23435   1.984   4.367   8.011
 7159SOL    HW123436   1.939   4.279   8.028
 7159SOL    HW223437   1.983   4.421   8.095
 7160SOL     OW23438   3.704   5.491   7.807
 7160SOL    HW123439   3.758   5.462   7.887
 7160SOL    HW223440   3.734   5.581   7.778
 7161SOL     OW23441   1.889   5.320   7.565
 7161SOL    HW123442   1.870   5.224   7.586
 7161SOL    HW223443   1.856   5.378   7.640
 7162SOL     OW23444   3.551   4.646   8.060
 7162SOL    HW123445   3.646   4.617   8.068
 7162SOL    HW223446   3.543   4.711   7.985
 7163SOL     OW23447   3.503   4.832   7.880
 7163SOL    HW123448   3.589   4.834   7.828
 7163SOL    HW223449   3.517   4.879   7.968
 7164SOL     OW23450   2.475   5.089   8.174
 7164SOL    HW123451   2.426   5.002   8.183
 7164SOL    HW223452   2.452   5.132   8.087
 7165SOL     OW23453   2.671   3.728   7.950
 7165SOL    HW123454   2.711   3.819   7.941
 7165SOL    HW223455   2.571   3.736   7.956
 7166SOL     OW23456   2.059   4.700   8.712
 7166SOL    HW123457   2.148   4.655   8.698
 7166SOL    HW223458   1.986   4.635   8.693
 7167SOL     OW23459   3.387   4.723   7.638
 7167SOL    HW123460   3.324   4.647   7.651
 7167SOL    HW223461   3.435   4.741   7.724
 7168SOL     OW23462   3.328   5.141   8.401
 7168SOL    HW123463   3.269   5.147   8.481
 7168SOL    HW223464   3.313   5.053   8.355
 7169SOL     OW23465   3.529   5.438   8.020
 7169SOL    HW123466   3.488   5.415   7.932
 7169SOL    HW223467   3.511   5.364   8.085
 7170SOL     OW23468   2.460   4.453   7.718
 7170SOL    HW123469   2.484   4.522   7.650
 7170SOL    HW223470   2.382   4.486   7.772
 7171SOL     OW23471   3.143   4.069   8.392
 7171SOL    HW123472   3.057   4.019   8.379
 7171SOL    HW223473   3.205   4.015   8.448
 7172SOL     OW23474   3.438   5.386   7.755
 7172SOL    HW123475   3.527   5.432   7.758
 7172SOL    HW223476   3.417   5.362   7.660
 7173SOL     OW23477   2.669   4.329   8.913
 7173SOL    HW123478   2.622   4.326   9.002
 7173SOL    HW223479   2.618   4.274   8.847
 7174SOL     OW23480   2.853   4.134   8.690
 7174SOL    HW123481   2.776   4.168   8.744
 7174SOL    HW223482   2.819   4.083   8.611
 7175SOL     OW23483   2.903   4.425   7.877
 7175SOL    HW123484   2.929   4.421   7.973
 7175SOL    HW223485   2.818   4.374   7.863
 7176SOL     OW23486   1.938   4.535   8.237
 7176SOL    HW123487   2.037   4.523   8.246
 7176SOL    HW223488   1.914   4.630   8.258
 7177SOL     OW23489   1.992   5.545   0.019
 7177SOL    HW123490   1.982   5.530   0.118
 7177SOL    HW223491   1.906   5.581  -0.017
 7178SOL     OW23492   2.727   4.072   7.643
 7178SOL    HW123493   2.786   4.135   7.594
 7178SOL    HW223494   2.746   3.978   7.614
 7179SOL     OW23495   3.224   4.868   7.993
 7179SOL    HW123496   3.307   4.839   7.945
 7179SOL    HW223497   3.175   4.935   7.937
 7180SOL     OW23498   2.412   3.920   8.333
 7180SOL    HW123499   2.407   3.915   8.433
 7180SOL    HW223500   2.414   4.016   8.304
 7181SOL     OW23501   2.870   5.180   7.925
 7181SOL    HW123502   2.824   5.252   7.873
 7181SOL    HW223503   2.866   5.200   8.023
 7182SOL     OW23504   2.213   5.525   8.301
 7182SOL    HW123505   2.263   5.439   8.307
 7182SOL    HW223506   2.278   5.602   8.298
 7183SOL     OW23507   3.657   4.790   8.321
 7183SOL    HW123508   3.595   4.775   8.245
 7183SOL    HW223509   3.605   4.801   8.406
 7184SOL     OW23510   2.183   4.667   7.690
 7184SOL    HW123511   2.265   4.706   7.648
 7184SOL    HW223512   2.156   4.585   7.641
 7185SOL     OW23513   3.320   4.459   8.176
 7185SOL    HW123514   3.315   4.394   8.251
 7185SOL    HW223515   3.400   4.518   8.189
 7186SOL     OW23516   2.973   5.500   7.685
 7186SOL    HW123517   2.913   5.438   7.735
 7186SOL    HW223518   3.004   5.456   7.600
 7187SOL     OW23519   2.064   4.009   8.946
 7187SOL    HW123520   1.984   4.069   8.933
 7187SOL    HW223521   2.054   3.960   9.032
 7188SOL     OW23522   3.494   5.101   7.529
 7188SOL    HW123523   3.462   5.195   7.519
 7188SOL    HW223524   3.418   5.038   7.517
 7189SOL     OW23525   2.326   5.467   7.771
 7189SOL    HW123526   2.359   5.506   7.857
 7189SOL    HW223527   2.402   5.460   7.706
 7190SOL     OW23528   3.262   3.831   7.874
 7190SOL    HW123529   3.238   3.794   7.784
 7190SOL    HW223530   3.361   3.847   7.878
 7191SOL     OW23531   2.111   5.509   8.689
 7191SOL    HW123532   2.168   5.444   8.739
 7191SOL    HW223533   2.095   5.476   8.596
 7192SOL     OW23534   2.802   5.422   8.352
 7192SOL    HW123535   2.882   5.365   8.373
 7192SOL    HW223536   2.753   5.382   8.275
 7193SOL     OW23537   2.244   4.424   7.928
 7193SOL    HW123538   2.289   4.334   7.925
 7193SOL    HW223539   2.150   4.413   7.961
 7194SOL     OW23540   2.476   3.846   7.565
 7194SOL    HW123541   2.574   3.824   7.572
 7194SOL    HW223542   2.445   3.829   7.472
 7195SOL     OW23543   2.750   5.238   8.643
 7195SOL    HW123544   2.727   5.213   8.549
 7195SOL    HW223545   2.811   5.169   8.682
 7196SOL     OW23546   2.665   5.126   8.372
 7196SOL    HW123547   2.755   5.140   8.330
 7196SOL    HW223548   2.594   5.128   8.301
 7197SOL     OW23549   2.784   4.227   8.347
 7197SOL    HW123550   2.759   4.218   8.251
 7197SOL    HW223551   2.832   4.145   8.378
 7198SOL     OW23552   2.401   3.788   7.960
 7198SOL    HW123553   2.320   3.789   8.018
 7198SOL    HW223554   2.404   3.871   7.905
 7199SOL     OW23555   3.296   4.912   7.489
 7199SOL    HW123556   3.328   4.836   7.546
 7199SOL    HW223557   3.204   4.939   7.519
 7200SOL     OW23558   2.159   3.759   7.619
 7200SOL    HW123559   2.208   3.843   7.598
 7200SOL    HW223560   2.221   3.694   7.664
 7201SOL     OW23561   2.797   3.960   7.928
 7201SOL    HW123562   2.749   4.001   7.850
 7201SOL    HW223563   2.896   3.958   7.909
 7202SOL     OW23564   3.089   5.294   8.241
 7202SOL    HW123565   3.110   5.368   8.176
 7202SOL    HW223566   3.157   5.294   8.314
 7203SOL     OW23567   2.321   4.876   8.189
 7203SOL    HW123568   2.250   4.849   8.254
 7203SOL    HW223569   2.295   4.848   8.096
 7204SOL     OW23570   3.133   5.521   8.039
 7204SOL    HW123571   3.177   5.585   7.975
 7204SOL    HW223572   3.083   5.573   8.109
 7205SOL     OW23573   2.894   4.273   7.464
 7205SOL    HW123574   2.853   4.355   7.425
 7205SOL    HW223575   2.958   4.299   7.537
 7206SOL     OW23576   1.940   4.280   8.834
 7206SOL    HW123577   2.032   4.279   8.793
 7206SOL    HW223578   1.934   4.354   8.901
 7207SOL     OW23579   2.423   3.946   8.595
 7207SOL    HW123580   2.461   3.862   8.632
 7207SOL    HW223581   2.335   3.965   8.639
 7208SOL     OW23582   2.728   4.178   8.090
 7208SOL    HW123583   2.696   4.250   8.028
 7208SOL    HW223584   2.752   4.097   8.037
 7209SOL     OW23585   2.879   3.763   8.201
 7209SOL    HW123586   2.807   3.768   8.132
 7209SOL    HW223587   2.855   3.694   8.270
 7210SOL     OW23588   3.291   4.897   8.315
 7210SOL    HW123589   3.236   4.813   8.308
 7210SOL    HW223590   3.317   4.926   8.223
 7211SOL     OW23591   3.328   4.314   8.440
 7211SOL    HW123592   3.298   4.219   8.447
 7211SOL    HW223593   3.401   4.330   8.506
 7212SOL     OW23594   3.719   4.557   7.825
 7212SOL    HW123595   3.761   4.493   7.889
 7212SOL    HW223596   3.681   4.506   7.747
 7213SOL     OW23597   2.350   5.109   7.622
 7213SOL    HW123598   2.263   5.094   7.669
 7213SOL    HW223599   2.333   5.135   7.527
 7214SOL     OW23600   3.526   5.004   8.105
 7214SOL    HW123601   3.625   5.012   8.119
 7214SOL    HW223602   3.481   5.088   8.136
 7215SOL     OW23603   3.252   4.299   7.526
 7215SOL    HW123604   3.198   4.278   7.607
 7215SOL    HW223605   3.343   4.258   7.535
 7216SOL     OW23606   2.389   3.980   7.776
 7216SOL    HW123607   2.416   3.921   7.701
 7216SOL    HW223608   2.389   4.075   7.745
 7217SOL     OW23609   2.926   5.071   8.788
 7217SOL    HW123610   2.846   5.048   8.843
 7217SOL    HW223611   3.009   5.045   8.837
 7218SOL     OW23612   2.973   4.919   8.548
 7218SOL    HW123613   2.933   4.963   8.629
 7218SOL    HW223614   2.932   4.956   8.465
 7219SOL     OW23615   3.500   4.823   8.527
 7219SOL    HW123616   3.505   4.904   8.586
 7219SOL    HW223617   3.414   4.825   8.476
 7220SOL     OW23618   2.777   3.813   8.850
 7220SOL    HW123619   2.802   3.793   8.755
 7220SOL    HW223620   2.849   3.869   8.892
 7221SOL     OW23621   2.567   4.774   7.816
 7221SOL    HW123622   2.553   4.781   7.915
 7221SOL    HW223623   2.651   4.723   7.798
 7222SOL     OW23624   2.272   4.537   8.699
 7222SOL    HW123625   2.358   4.549   8.749
 7222SOL    HW223626   2.230   4.450   8.726
 7223SOL     OW23627   3.136   4.110   8.710
 7223SOL    HW123628   3.157   4.184   8.774
 7223SOL    HW223629   3.047   4.127   8.667
 7224SOL     OW23630   1.926   5.288   8.779
 7224SOL    HW123631   1.880   5.370   8.745
 7224SOL    HW223632   2.024   5.307   8.788
 7225SOL     OW23633   2.229   4.824   7.949
 7225SOL    HW123634   2.222   4.907   7.893
 7225SOL    HW223635   2.233   4.744   7.889
 7226SOL     OW23636   2.428   4.261   8.313
 7226SOL    HW123637   2.440   4.327   8.239
 7226SOL    HW223638   2.474   4.295   8.396
 7227SOL     OW23639   3.114   5.072   7.836
 7227SOL    HW123640   3.164   5.149   7.876
 7227SOL    HW223641   3.019   5.074   7.868
 7228SOL     OW23642   3.134   5.169   8.590
 7228SOL    HW123643   3.181   5.182   8.677
 7228SOL    HW223644   3.068   5.095   8.599
 7229SOL     OW23645   3.444   4.363   7.920
 7229SOL    HW123646   3.413   4.424   7.993
 7229SOL    HW223647   3.494   4.415   7.851
 7230SOL     OW23648   2.216   5.234   8.777
 7230SOL    HW123649   2.195   5.190   8.690
 7230SOL    HW223650   2.313   5.260   8.780
 7231SOL     OW23651   2.264   4.475   0.046
 7231SOL    HW123652   2.332   4.530  -0.001
 7231SOL    HW223653   2.304   4.387   0.073
 7232SOL     OW23654   3.449   4.503   0.118
 7232SOL    HW123655   3.357   4.541   0.113
 7232SOL    HW223656   3.509   4.550   0.053
 7233SOL     OW23657   2.435   4.594   8.477
 7233SOL    HW123658   2.479   4.683   8.468
 7233SOL    HW223659   2.372   4.594   8.554
 7234SOL     OW23660   3.222   4.586   8.493
 7234SOL    HW123661   3.147   4.586   8.427
 7234SOL    HW223662   3.259   4.494   8.502
 7235SOL     OW23663   3.071   4.249   7.723
 7235SOL    HW123664   3.084   4.165   7.777
 7235SOL    HW223665   3.042   4.323   7.783
 7236SOL     OW23666   2.169   3.937   8.679
 7236SOL    HW123667   2.146   3.974   8.769
 7236SOL    HW223668   2.139   3.842   8.673
 7237SOL     OW23669   1.899   5.034   8.730
 7237SOL    HW123670   1.952   4.985   8.798
 7237SOL    HW223671   1.921   5.132   8.735
 7238SOL     OW23672   2.594   4.358   8.512
 7238SOL    HW123673   2.653   4.332   8.436
 7238SOL    HW223674   2.566   4.454   8.501
 7239SOL     OW23675   2.169   3.787   8.066
 7239SOL    HW123676   2.158   3.881   8.099
 7239SOL    HW223677   2.164   3.724   8.143
 7240SOL     OW23678   3.484   4.091   7.822
 7240SOL    HW123679   3.486   4.015   7.886
 7240SOL    HW223680   3.436   4.168   7.862
 7241SOL     OW23681   2.885   4.490   8.414
 7241SOL    HW123682   2.900   4.511   8.510
 7241SOL    HW223683   2.855   4.395   8.405
 7242SOL     OW23684   2.842   5.297   0.148
 7242SOL    HW123685   2.822   5.341   0.060
 7242SOL    HW223686   2.881   5.206   0.132
 7243SOL     OW23687   3.721   5.242   0.053
 7243SOL    HW123688   3.735   5.269  -0.042
 7243SOL    HW223689   3.804   5.264   0.106
 7244SOL     OW23690   3.402   3.998   7.573
 7244SOL    HW123691   3.341   3.923   7.596
 7244SOL    HW223692   3.424   4.050   7.656
 7245SOL     OW23693   3.165   4.562   7.490
 7245SOL    HW123694   3.199   4.469   7.505
 7245SOL    HW223695   3.183   4.589   7.395
 7246SOL     OW23696   2.930   5.057   8.297
 7246SOL    HW123697   2.937   4.973   8.242
 7246SOL    HW223698   2.992   5.126   8.261
 7247SOL     OW23699   2.181   4.534   8.397
 7247SOL    HW123700   2.274   4.570   8.402
 7247SOL    HW223701   2.175   4.449   8.449
 7248SOL     OW23702   2.201   4.233   8.454
 7248SOL    HW123703   2.149   4.150   8.437
 7248SOL    HW223704   2.278   4.238   8.390
 7249SOL     OW23705   3.000   4.104   0.126
 7249SOL    HW123706   2.955   4.167   0.190
 7249SOL    HW223707   3.093   4.135   0.109
 7250SOL     OW23708   3.022   3.931   8.925
 7250SOL    HW123709   3.022   3.995   9.002
 7250SOL    HW223710   3.050   3.979   8.842
 7251SOL     OW23711   1.870   5.050   7.648
 7251SOL    HW123712   1.777   5.071   7.617
 7251SOL    HW223713   1.880   4.951   7.661
 7252SOL     OW23714   1.950   5.525   8.375
 7252SOL    HW123715   1.908   5.439   8.348
 7252SOL    HW223716   2.044   5.528   8.341
 7253SOL     OW23717   2.366   5.292   8.358
 7253SOL    HW123718   2.432   5.366   8.367
 7253SOL    HW223719   2.410   5.213   8.316
 7254SOL     OW23720   2.864   4.520   8.686
 7254SOL    HW123721   2.905   4.488   8.772
 7254SOL    HW223722   2.768   4.493   8.683
 7255SOL     OW23723   1.902   4.268   8.562
 7255SOL    HW123724   1.987   4.235   8.521
 7255SOL    HW223725   1.915   4.283   8.660
 7256SOL     OW23726   2.677   4.296   7.773
 7256SOL    HW123727   2.684   4.207   7.727
 7256SOL    HW223728   2.583   4.330   7.765
 7257SOL     OW23729   3.519   4.328   8.654
 7257SOL    HW123730   3.481   4.259   8.716
 7257SOL    HW223731   3.601   4.292   8.610
 7258SOL     OW23732   2.533   4.188   8.717
 7258SOL    HW123733   2.499   4.099   8.687
 7258SOL    HW223734   2.559   4.242   8.637
 7259SOL     OW23735   2.792   5.402   8.913
 7259SOL    HW123736   2.768   5.384   8.818
 7259SOL    HW223737   2.822   5.496   8.923
 7260SOL     OW23738   2.335   4.224   7.639
 7260SOL    HW123739   2.396   4.304   7.643
 7260SOL    HW223740   2.240   4.255   7.646
 7261SOL     OW23741   2.021   4.861   8.914
 7261SOL    HW123742   2.043   4.800   8.990
 7261SOL    HW223743   2.031   4.812   8.828
 7262SOL     OW23744   3.209   4.783   8.682
 7262SOL    HW123745   3.233   4.720   8.608
 7262SOL    HW223746   3.119   4.823   8.664
 7263SOL     OW23747   3.164   4.579   7.757
 7263SOL    HW123748   3.078   4.548   7.799
 7263SOL    HW223749   3.160   4.565   7.658
 7264SOL     OW23750   3.621   5.471   8.602
 7264SOL    HW123751   3.682   5.501   8.529
 7264SOL    HW223752   3.583   5.382   8.580
 7265SOL     OW23753   3.114   5.455   8.576
 7265SOL    HW123754   3.198   5.460   8.522
 7265SOL    HW223755   3.091   5.359   8.594
 7266SOL     OW23756   1.945   4.982   8.470
 7266SOL    HW123757   1.940   4.981   8.570
 7266SOL    HW223758   1.862   4.941   8.432
 7267SOL     OW23759   2.765   3.810   7.581
 7267SOL    HW123760   2.816   3.811   7.495
 7267SOL    HW223761   2.821   3.768   7.652
 7268SOL     OW23762   3.588   3.859   7.971
 7268SOL    HW123763   3.661   3.842   7.904
 7268SOL    HW223764   3.557   3.772   8.009
 7269SOL     OW23765   3.250   5.297   7.925
 7269SOL    HW123766   3.317   5.309   7.851
 7269SOL    HW223767   3.210   5.386   7.948
 7270SOL     OW23768   3.142   4.651   8.120
 7270SOL    HW123769   3.202   4.570   8.122
 7270SOL    HW223770   3.182   4.720   8.060
 7271SOL     OW23771   2.534   5.340   7.602
 7271SOL    HW123772   2.543   5.350   7.503
 7271SOL    HW223773   2.494   5.251   7.623
 7272SOL     OW23774   3.512   5.444   8.842
 7272SOL    HW123775   3.565   5.454   8.758
 7272SOL    HW223776   3.485   5.534   8.876
 7273SOL     OW23777   3.703   3.899   8.411
 7273SOL    HW123778   3.742   3.814   8.375
 7273SOL    HW223779   3.605   3.901   8.392
 7274SOL     OW23780   2.125   4.050   8.168
 7274SOL    HW123781   2.046   4.101   8.134
 7274SOL    HW223782   2.116   4.035   8.266
 7275SOL     OW23783   3.056   5.336   7.479
 7275SOL    HW123784   3.062   5.243   7.516
 7275SOL    HW223785   2.997   5.336   7.399
 7276SOL     OW23786   2.684   4.726   8.820
 7276SOL    HW123787   2.724   4.725   8.728
 7276SOL    HW223788   2.694   4.818   8.860
 7277SOL     OW23789   2.778   4.634   7.739
 7277SOL    HW123790   2.841   4.672   7.671
 7277SOL    HW223791   2.818   4.551   7.778
 7278SOL     OW23792   3.366   5.331   7.492
 7278SOL    HW123793   3.274   5.368   7.499
 7278SOL    HW223794   3.404   5.351   7.402
 7279SOL     OW23795   2.234   5.012   8.938
 7279SOL    HW123796   2.221   5.105   8.904
 7279SOL    HW223797   2.150   4.960   8.925
 7280SOL     OW23798   3.476   5.016   8.737
 7280SOL    HW123799   3.536   5.019   8.817
 7280SOL    HW223800   3.401   5.080   8.750
 7281SOL     OW23801   2.901   4.822   8.144
 7281SOL    HW123802   2.831   4.775   8.198
 7281SOL    HW223803   2.960   4.754   8.101
 7282SOL     OW23804   2.876   3.960   8.419
 7282SOL    HW123805   2.868   3.924   8.326
 7282SOL    HW223806   2.874   3.884   8.484
 7283SOL     OW23807   2.452   5.211   7.939
 7283SOL    HW123808   2.494   5.153   7.869
 7283SOL    HW223809   2.408   5.290   7.895
 7284SOL     OW23810   3.571   4.109   8.829
 7284SOL    HW123811   3.644   4.178   8.833
 7284SOL    HW223812   3.599   4.034   8.770
 7285SOL     OW23813   2.117   5.072   7.738
 7285SOL    HW123814   2.021   5.073   7.711
 7285SOL    HW223815   2.129   5.125   7.822
 7286SOL     OW23816   1.937   4.069   7.481
 7286SOL    HW123817   1.845   4.041   7.452
 7286SOL    HW223818   1.968   4.146   7.425
 7287SOL     OW23819   3.302   4.580   8.846
 7287SOL    HW123820   3.245   4.632   8.783
 7287SOL    HW223821   3.398   4.592   8.822
 7288SOL     OW23822   1.934   3.890   7.766
 7288SOL    HW123823   1.917   3.973   7.712
 7288SOL    HW223824   2.024   3.853   7.744
 7289SOL     OW23825   3.045   5.059   7.567
 7289SOL    HW123826   2.946   5.048   7.569
 7289SOL    HW223827   3.079   5.074   7.660
 7290SOL     OW23828   2.475   4.566   8.879
 7290SOL    HW123829   2.531   4.647   8.862
 7290SOL    HW223830   2.534   4.486   8.882
 7291SOL     OW23831   3.355   5.491   8.407
 7291SOL    HW123832   3.388   5.555   8.338
 7291SOL    HW223833   3.421   5.485   8.482
 7292SOL     OW23834   2.252   5.465   0.008
 7292SOL    HW123835   2.161   5.506   0.006
 7292SOL    HW223836   2.245   5.371   0.040
 7293SOL     OW23837   3.536   4.607   8.702
 7293SOL    HW123838   3.509   4.518   8.665
 7293SOL    HW223839   3.537   4.675   8.629
 7294SOL     OW23840   3.087   4.049   7.897
 7294SOL    HW123841   3.152   3.975   7.886
 7294SOL    HW223842   3.107   4.099   7.981
 7295SOL     OW23843   2.456   4.469   8.100
 7295SOL    HW123844   2.506   4.554   8.081
 7295SOL    HW223845   2.368   4.471   8.052
 7296SOL     OW23846   3.639   4.066   0.090
 7296SOL    HW123847   3.622   4.097  -0.004
 7296SOL    HW223848   3.555   4.029   0.128
 7297SOL     OW23849   3.592   4.658   8.965
 7297SOL    HW123850   3.630   4.749   8.980
 7297SOL    HW223851   3.584   4.641   8.866
 7298SOL     OW23852   2.721   5.098   7.464
 7298SOL    HW123853   2.675   5.113   7.552
 7298SOL    HW223854   2.765   5.183   7.434
 7299SOL     OW23855   2.523   5.514   8.401
 7299SOL    HW123856   2.477   5.602   8.388
 7299SOL    HW223857   2.622   5.526   8.394
 7300SOL     OW23858   3.270   5.575   0.168
 7300SOL    HW123859   3.174   5.564   0.141
 7300SOL    HW223860   3.326   5.508   0.120
 7301SOL     OW23861   2.721   4.680   8.309
 7301SOL    HW123862   2.775   4.611   8.357
 7301SOL    HW223863   2.689   4.749   8.375
 7302SOL     OW23864   2.945   4.708   7.535
 7302SOL    HW123865   2.922   4.761   7.453
 7302SOL    HW223866   3.026   4.652   7.516
 7303SOL     OW23867   3.723   5.293   8.299
 7303SOL    HW123868   3.652   5.281   8.229
 7303SOL    HW223869   3.724   5.214   8.359
 7304SOL     OW23870   1.941   4.964   8.101
 7304SOL    HW123871   1.940   4.917   8.189
 7304SOL    HW223872   2.023   4.936   8.050
 7305SOL     OW23873   3.686   3.916   8.675
 7305SOL    HW123874   3.682   3.826   8.719
 7305SOL    HW223875   3.689   3.905   8.576
 7306SOL     OW23876   2.290   4.148   7.968
 7306SOL    HW123877   2.320   4.076   7.906
 7306SOL    HW223878   2.251   4.108   8.051
 7307SOL     OW23879   3.567   5.211   8.552
 7307SOL    HW123880   3.474   5.186   8.525
 7307SOL    HW223881   3.593   5.161   8.634
 7308SOL     OW23882   2.179   4.271   8.728
 7308SOL    HW123883   2.217   4.212   8.800
 7308SOL    HW223884   2.219   4.245   8.640
 7309SOL     OW23885   2.674   5.310   8.135
 7309SOL    HW123886   2.706   5.320   8.041
 7309SOL    HW223887   2.595   5.248   8.137
 7310SOL     OW23888   3.286   3.938   8.560
 7310SOL    HW123889   3.338   3.873   8.615
 7310SOL    HW223890   3.237   4.001   8.621
 7311SOL     OW23891   2.863   3.758   8.602
 7311SOL    HW123892   2.800   3.686   8.571
 7311SOL    HW223893   2.956   3.722   8.602
 7312SOL     OW23894   2.632   5.054   7.749
 7312SOL    HW123895   2.586   4.967   7.766
 7312SOL    HW223896   2.723   5.051   7.790
 7313SOL     OW23897   2.480   5.291   8.732
 7313SOL    HW123898   2.475   5.373   8.789
 7313SOL    HW223899   2.569   5.288   8.687
 7314SOL     OW23900   3.214   3.776   7.616
 7314SOL    HW123901   3.249   3.735   7.532
 7314SOL    HW223902   3.124   3.738   7.636
 7315SOL     OW23903   3.162   4.177   8.139
 7315SOL    HW123904   3.103   4.257   8.143
 7315SOL    HW223905   3.177   4.142   8.232
 7316SOL     OW23906   3.455   3.945   8.330
 7316SOL    HW123907   3.371   3.944   8.384
 7316SOL    HW223908   3.457   4.028   8.274
 7317SOL     OW23909   1.901   4.801   7.748
 7317SOL    HW123910   2.000   4.790   7.739
 7317SOL    HW223911   1.861   4.715   7.780
 7318SOL     OW23912   2.737   5.370   7.785
 7318SOL    HW123913   2.660   5.335   7.731
 7318SOL    HW223914   2.705   5.441   7.847
 7319SOL     OW23915   2.092   6.214   0.113
 7319SOL    HW123916   1.999   6.212   0.150
 7319SOL    HW223917   2.093   6.175   0.021
 7320SOL     OW23918   2.087   5.861   0.996
 7320SOL    HW123919   2.122   5.844   1.088
 7320SOL    HW223920   1.999   5.816   0.984
 7321SOL     OW23921   1.881   5.954   0.647
 7321SOL    HW123922   1.799   5.997   0.686
 7321SOL    HW223923   1.853   5.881   0.584
 7322SOL     OW23924   2.431   6.861   1.165
 7322SOL    HW123925   2.338   6.854   1.128
 7322SOL    HW223926   2.442   6.950   1.209
 7323SOL     OW23927   3.417   7.097   0.703
 7323SOL    HW123928   3.360   7.081   0.784
 7323SOL    HW223929   3.358   7.107   0.623
 7324SOL     OW23930   3.605   6.204   0.856
 7324SOL    HW123931   3.638   6.298   0.856
 7324SOL    HW223932   3.656   6.150   0.922
 7325SOL     OW23933   2.997   6.289   0.717
 7325SOL    HW123934   3.054   6.367   0.692
 7325SOL    HW223935   2.937   6.315   0.793
 7326SOL     OW23936   3.617   6.193   0.231
 7326SOL    HW123937   3.605   6.180   0.132
 7326SOL    HW223938   3.587   6.112   0.280
 7327SOL     OW23939   2.630   6.730   1.023
 7327SOL    HW123940   2.552   6.747   1.083
 7327SOL    HW223941   2.664   6.817   0.987
 7328SOL     OW23942   2.712   6.384   1.823
 7328SOL    HW123943   2.708   6.460   1.888
 7328SOL    HW223944   2.734   6.420   1.732
 7329SOL     OW23945   2.547   6.598   0.665
 7329SOL    HW123946   2.616   6.582   0.735
 7329SOL    HW223947   2.474   6.655   0.703
 7330SOL     OW23948   2.548   6.747   1.803
 7330SOL    HW123949   2.608   6.826   1.817
 7330SOL    HW223950   2.462   6.778   1.762
 7331SOL     OW23951   2.197   7.021   1.061
 7331SOL    HW123952   2.119   6.990   1.008
 7331SOL    HW223953   2.255   7.079   1.004
 7332SOL     OW23954   3.322   7.091   1.339
 7332SOL    HW123955   3.346   7.185   1.365
 7332SOL    HW223956   3.306   7.037   1.421
 7333SOL     OW23957   2.300   5.978   1.499
 7333SOL    HW123958   2.382   5.922   1.508
 7333SOL    HW223959   2.219   5.920   1.503
 7334SOL     OW23960   3.465   6.033   0.737
 7334SOL    HW123961   3.391   6.079   0.687
 7334SOL    HW223962   3.516   6.101   0.790
 7335SOL     OW23963   2.093   7.299   0.483
 7335SOL    HW123964   2.127   7.376   0.537
 7335SOL    HW223965   2.137   7.299   0.393
 7336SOL     OW23966   2.989   6.927   1.690
 7336SOL    HW123967   3.036   6.927   1.778
 7336SOL    HW223968   2.941   6.840   1.679
 7337SOL     OW23969   2.092   7.020   0.538
 7337SOL    HW123970   2.066   7.116   0.538
 7337SOL    HW223971   2.021   6.966   0.583
 7338SOL     OW23972   2.102   6.677   0.886
 7338SOL    HW123973   2.116   6.593   0.938
 7338SOL    HW223974   2.047   6.741   0.941
 7339SOL     OW23975   2.482   7.372   1.439
 7339SOL    HW123976   2.390   7.355   1.474
 7339SOL    HW223977   2.510   7.464   1.465
 7340SOL     OW23978   2.468   6.550   0.123
 7340SOL    HW123979   2.475   6.634   0.069
 7340SOL    HW223980   2.514   6.563   0.211
 7341SOL     OW23981   3.456   5.700   1.480
 7341SOL    HW123982   3.438   5.767   1.408
 7341SOL    HW223983   3.453   5.746   1.569
 7342SOL     OW23984   1.984   6.229   0.563
 7342SOL    HW123985   1.939   6.141   0.580
 7342SOL    HW223986   1.983   6.283   0.647
 7343SOL     OW23987   3.704   7.353   0.359
 7343SOL    HW123988   3.758   7.324   0.439
 7343SOL    HW223989   3.734   7.443   0.330
 7344SOL     OW23990   3.551   6.508   0.612
 7344SOL    HW123991   3.646   6.479   0.620
 7344SOL    HW223992   3.543   6.573   0.537
 7345SOL     OW23993   3.503   6.694   0.432
 7345SOL    HW123994   3.589   6.696   0.380
 7345SOL    HW223995   3.517   6.741   0.520
 7346SOL     OW23996   1.975   6.323   1.597
 7346SOL    HW123997   2.063   6.310   1.642
 7346SOL    HW223998   1.962   6.420   1.575
 7347SOL     OW23999   2.475   6.951   0.726
 7347SOL    HW124000   2.426   6.864   0.735
 7347SOL    HW224001   2.452   6.994   0.639
 7348SOL     OW24002   3.155   6.814   1.423
 7348SOL    HW124003   3.192   6.741   1.365
 7348SOL    HW224004   3.207   6.819   1.508
 7349SOL     OW24005   2.671   5.590   0.502
 7349SOL    HW124006   2.711   5.681   0.493
 7349SOL    HW224007   2.571   5.598   0.508
 7350SOL     OW24008   2.059   6.562   1.264
 7350SOL    HW124009   2.148   6.517   1.250
 7350SOL    HW224010   1.986   6.497   1.245
 7351SOL     OW24011   3.387   6.585   0.190
 7351SOL    HW124012   3.324   6.509   0.203
 7351SOL    HW224013   3.435   6.603   0.276
 7352SOL     OW24014   3.049   7.378   1.616
 7352SOL    HW124015   3.073   7.438   1.540
 7352SOL    HW224016   3.056   7.283   1.586
 7353SOL     OW24017   2.179   5.837   1.801
 7353SOL    HW124018   2.250   5.908   1.807
 7353SOL    HW224019   2.091   5.876   1.829
 7354SOL     OW24020   3.328   7.003   0.953
 7354SOL    HW124021   3.269   7.009   1.033
 7354SOL    HW224022   3.313   6.915   0.907
 7355SOL     OW24023   3.529   7.300   0.572
 7355SOL    HW124024   3.488   7.277   0.484
 7355SOL    HW224025   3.511   7.226   0.637
 7356SOL     OW24026   2.460   6.315   0.270
 7356SOL    HW124027   2.484   6.384   0.202
 7356SOL    HW224028   2.382   6.348   0.324
 7357SOL     OW24029   3.143   5.931   0.944
 7357SOL    HW124030   3.057   5.881   0.931
 7357SOL    HW224031   3.205   5.877   1.000
 7358SOL     OW24032   3.438   7.248   0.307
 7358SOL    HW124033   3.527   7.294   0.310
 7358SOL    HW224034   3.417   7.224   0.212
 7359SOL     OW24035   2.835   6.476   1.572
 7359SOL    HW124036   2.881   6.392   1.543
 7359SOL    HW224037   2.779   6.510   1.497
 7360SOL     OW24038   2.853   5.996   1.242
 7360SOL    HW124039   2.776   6.030   1.296
 7360SOL    HW224040   2.819   5.945   1.163
 7361SOL     OW24041   2.903   6.287   0.429
 7361SOL    HW124042   2.929   6.283   0.525
 7361SOL    HW224043   2.818   6.236   0.415
 7362SOL     OW24044   1.938   6.397   0.789
 7362SOL    HW124045   2.037   6.385   0.798
 7362SOL    HW224046   1.914   6.492   0.810
 7363SOL     OW24047   1.992   7.407   1.571
 7363SOL    HW124048   1.982   7.392   1.670
 7363SOL    HW224049   1.906   7.443   1.535
 7364SOL     OW24050   2.727   5.934   0.195
 7364SOL    HW124051   2.786   5.997   0.146
 7364SOL    HW224052   2.746   5.840   0.166
 7365SOL     OW24053   3.581   6.171   1.831
 7365SOL    HW124054   3.555   6.260   1.795
 7365SOL    HW224055   3.579   6.103   1.758
 7366SOL     OW24056   3.224   6.730   0.545
 7366SOL    HW124057   3.307   6.701   0.497
 7366SOL    HW224058   3.175   6.797   0.489
 7367SOL     OW24059   2.412   5.782   0.885
 7367SOL    HW124060   2.407   5.777   0.985
 7367SOL    HW224061   2.414   5.878   0.856
 7368SOL     OW24062   2.870   7.042   0.477
 7368SOL    HW124063   2.824   7.114   0.425
 7368SOL    HW224064   2.866   7.062   0.575
 7369SOL     OW24065   2.213   7.387   0.853
 7369SOL    HW124066   2.263   7.301   0.859
 7369SOL    HW224067   2.278   7.464   0.850
 7370SOL     OW24068   3.657   6.652   0.873
 7370SOL    HW124069   3.595   6.637   0.797
 7370SOL    HW224070   3.605   6.663   0.958
 7371SOL     OW24071   3.089   7.136   1.506
 7371SOL    HW124072   3.095   7.059   1.570
 7371SOL    HW224073   3.037   7.110   1.426
 7372SOL     OW24074   2.183   6.529   0.242
 7372SOL    HW124075   2.265   6.568   0.200
 7372SOL    HW224076   2.156   6.447   0.193
 7373SOL     OW24077   3.320   6.321   0.728
 7373SOL    HW124078   3.315   6.256   0.803
 7373SOL    HW224079   3.400   6.380   0.741
 7374SOL     OW24080   2.323   6.852   1.727
 7374SOL    HW124081   2.273   6.853   1.641
 7374SOL    HW224082   2.260   6.834   1.803
 7375SOL     OW24083   2.973   7.362   0.237
 7375SOL    HW124084   2.913   7.300   0.287
 7375SOL    HW224085   3.004   7.318   0.152
 7376SOL     OW24086   2.064   5.871   1.498
 7376SOL    HW124087   1.984   5.931   1.485
 7376SOL    HW224088   2.054   5.822   1.584
 7377SOL     OW24089   3.494   6.963   0.081
 7377SOL    HW124090   3.462   7.057   0.071
 7377SOL    HW224091   3.418   6.900   0.069
 7378SOL     OW24092   2.326   7.329   0.323
 7378SOL    HW124093   2.359   7.368   0.409
 7378SOL    HW224094   2.402   7.322   0.258
 7379SOL     OW24095   3.262   5.693   0.426
 7379SOL    HW124096   3.238   5.656   0.336
 7379SOL    HW224097   3.361   5.709   0.430
 7380SOL     OW24098   2.111   7.371   1.241
 7380SOL    HW124099   2.168   7.306   1.291
 7380SOL    HW224100   2.095   7.338   1.148
 7381SOL     OW24101   2.802   7.284   0.904
 7381SOL    HW124102   2.882   7.227   0.925
 7381SOL    HW224103   2.753   7.244   0.827
 7382SOL     OW24104   2.244   6.286   0.480
 7382SOL    HW124105   2.289   6.196   0.477
 7382SOL    HW224106   2.150   6.275   0.513
 7383SOL     OW24107   3.409   5.808   1.729
 7383SOL    HW124108   3.404   5.845   1.821
 7383SOL    HW224109   3.337   5.739   1.717
 7384SOL     OW24110   2.476   5.708   0.117
 7384SOL    HW124111   2.574   5.686   0.124
 7384SOL    HW224112   2.445   5.691   0.024
 7385SOL     OW24113   2.750   7.100   1.195
 7385SOL    HW124114   2.727   7.075   1.101
 7385SOL    HW224115   2.811   7.031   1.234
 7386SOL     OW24116   2.665   6.988   0.924
 7386SOL    HW124117   2.755   7.002   0.882
 7386SOL    HW224118   2.594   6.990   0.853
 7387SOL     OW24119   2.784   6.089   0.899
 7387SOL    HW124120   2.759   6.080   0.803
 7387SOL    HW224121   2.832   6.007   0.930
 7388SOL     OW24122   2.401   5.650   0.512
 7388SOL    HW124123   2.320   5.651   0.570
 7388SOL    HW224124   2.404   5.733   0.457
 7389SOL     OW24125   3.296   6.774   0.041
 7389SOL    HW124126   3.328   6.698   0.098
 7389SOL    HW224127   3.204   6.801   0.071
 7390SOL     OW24128   2.159   5.621   0.171
 7390SOL    HW124129   2.208   5.705   0.150
 7390SOL    HW224130   2.221   5.556   0.216
 7391SOL     OW24131   2.797   5.822   0.480
 7391SOL    HW124132   2.749   5.863   0.402
 7391SOL    HW224133   2.896   5.820   0.461
 7392SOL     OW24134   3.089   7.156   0.793
 7392SOL    HW124135   3.110   7.230   0.728
 7392SOL    HW224136   3.157   7.156   0.866
 7393SOL     OW24137   2.321   6.738   0.741
 7393SOL    HW124138   2.250   6.711   0.806
 7393SOL    HW224139   2.295   6.710   0.648
 7394SOL     OW24140   3.133   7.383   0.591
 7394SOL    HW124141   3.177   7.447   0.527
 7394SOL    HW224142   3.083   7.435   0.661
 7395SOL     OW24143   2.894   6.135   0.016
 7395SOL    HW124144   2.853   6.217  -0.023
 7395SOL    HW224145   2.958   6.161   0.089
 7396SOL     OW24146   1.940   6.142   1.386
 7396SOL    HW124147   2.032   6.141   1.345
 7396SOL    HW224148   1.934   6.216   1.453
 7397SOL     OW24149   2.423   5.808   1.147
 7397SOL    HW124150   2.461   5.724   1.184
 7397SOL    HW224151   2.335   5.827   1.191
 7398SOL     OW24152   2.728   6.040   0.642
 7398SOL    HW124153   2.696   6.112   0.580
 7398SOL    HW224154   2.752   5.959   0.589
 7399SOL     OW24155   2.879   5.625   0.753
 7399SOL    HW124156   2.807   5.630   0.684
 7399SOL    HW224157   2.855   5.556   0.822
 7400SOL     OW24158   3.291   6.759   0.867
 7400SOL    HW124159   3.236   6.675   0.860
 7400SOL    HW224160   3.317   6.788   0.775
 7401SOL     OW24161   3.328   6.176   0.992
 7401SOL    HW124162   3.298   6.081   0.999
 7401SOL    HW224163   3.401   6.192   1.058
 7402SOL     OW24164   3.719   6.419   0.377
 7402SOL    HW124165   3.761   6.355   0.441
 7402SOL    HW224166   3.681   6.368   0.299
 7403SOL     OW24167   2.350   6.971   0.174
 7403SOL    HW124168   2.263   6.956   0.221
 7403SOL    HW224169   2.333   6.997   0.079
 7404SOL     OW24170   3.526   6.866   0.657
 7404SOL    HW124171   3.625   6.874   0.671
 7404SOL    HW224172   3.481   6.950   0.688
 7405SOL     OW24173   3.252   6.161   0.078
 7405SOL    HW124174   3.198   6.140   0.159
 7405SOL    HW224175   3.343   6.120   0.087
 7406SOL     OW24176   2.389   5.842   0.328
 7406SOL    HW124177   2.416   5.783   0.253
 7406SOL    HW224178   2.389   5.937   0.297
 7407SOL     OW24179   3.616   6.809   1.588
 7407SOL    HW124180   3.707   6.770   1.575
 7407SOL    HW224181   3.624   6.905   1.612
 7408SOL     OW24182   2.926   6.933   1.340
 7408SOL    HW124183   2.846   6.910   1.395
 7408SOL    HW224184   3.009   6.907   1.389
 7409SOL     OW24185   3.454   7.215   1.625
 7409SOL    HW124186   3.481   7.249   1.535
 7409SOL    HW224187   3.533   7.177   1.671
 7410SOL     OW24188   2.973   6.781   1.100
 7410SOL    HW124189   2.933   6.825   1.181
 7410SOL    HW224190   2.932   6.818   1.017
 7411SOL     OW24191   3.500   6.685   1.079
 7411SOL    HW124192   3.505   6.766   1.138
 7411SOL    HW224193   3.414   6.687   1.028
 7412SOL     OW24194   2.777   5.675   1.402
 7412SOL    HW124195   2.802   5.655   1.307
 7412SOL    HW224196   2.849   5.731   1.444
 7413SOL     OW24197   2.842   6.702   1.719
 7413SOL    HW124198   2.743   6.708   1.729
 7413SOL    HW224199   2.865   6.622   1.663
 7414SOL     OW24200   2.567   6.636   0.368
 7414SOL    HW124201   2.553   6.643   0.467
 7414SOL    HW224202   2.651   6.585   0.350
 7415SOL     OW24203   2.272   6.399   1.251
 7415SOL    HW124204   2.358   6.411   1.301
 7415SOL    HW224205   2.230   6.312   1.278
 7416SOL     OW24206   3.136   5.972   1.262
 7416SOL    HW124207   3.157   6.046   1.326
 7416SOL    HW224208   3.047   5.989   1.219
 7417SOL     OW24209   1.926   7.150   1.331
 7417SOL    HW124210   1.880   7.232   1.297
 7417SOL    HW224211   2.024   7.169   1.340
 7418SOL     OW24212   2.229   6.686   0.501
 7418SOL    HW124213   2.222   6.769   0.445
 7418SOL    HW224214   2.233   6.606   0.441
 7419SOL     OW24215   2.428   6.123   0.865
 7419SOL    HW124216   2.440   6.189   0.791
 7419SOL    HW224217   2.474   6.157   0.948
 7420SOL     OW24218   3.114   6.934   0.388
 7420SOL    HW124219   3.164   7.011   0.428
 7420SOL    HW224220   3.019   6.936   0.420
 7421SOL     OW24221   3.134   7.031   1.142
 7421SOL    HW124222   3.181   7.044   1.229
 7421SOL    HW224223   3.068   6.957   1.151
 7422SOL     OW24224   3.444   6.225   0.472
 7422SOL    HW124225   3.413   6.286   0.545
 7422SOL    HW224226   3.494   6.277   0.403
 7423SOL     OW24227   2.216   7.096   1.329
 7423SOL    HW124228   2.195   7.052   1.242
 7423SOL    HW224229   2.313   7.122   1.332
 7424SOL     OW24230   2.264   6.337   1.598
 7424SOL    HW124231   2.332   6.392   1.551
 7424SOL    HW224232   2.304   6.249   1.625
 7425SOL     OW24233   2.875   5.691   1.770
 7425SOL    HW124234   2.881   5.776   1.718
 7425SOL    HW224235   2.907   5.615   1.713
 7426SOL     OW24236   2.366   5.636   1.740
 7426SOL    HW124237   2.324   5.579   1.670
 7426SOL    HW224238   2.300   5.705   1.772
 7427SOL     OW24239   2.435   6.456   1.029
 7427SOL    HW124240   2.479   6.545   1.020
 7427SOL    HW224241   2.372   6.456   1.106
 7428SOL     OW24242   3.222   6.448   1.045
 7428SOL    HW124243   3.147   6.448   0.979
 7428SOL    HW224244   3.259   6.356   1.054
 7429SOL     OW24245   3.071   6.111   0.275
 7429SOL    HW124246   3.084   6.027   0.329
 7429SOL    HW224247   3.042   6.185   0.335
 7430SOL     OW24248   2.169   5.799   1.231
 7430SOL    HW124249   2.146   5.836   1.321
 7430SOL    HW224250   2.139   5.704   1.225
 7431SOL     OW24251   1.899   6.896   1.282
 7431SOL    HW124252   1.952   6.847   1.350
 7431SOL    HW224253   1.921   6.994   1.287
 7432SOL     OW24254   2.594   6.220   1.064
 7432SOL    HW124255   2.653   6.194   0.988
 7432SOL    HW224256   2.566   6.316   1.053
 7433SOL     OW24257   3.590   6.521   1.854
 7433SOL    HW124258   3.544   6.514   1.765
 7433SOL    HW224259   3.528   6.565   1.920
 7434SOL     OW24260   2.169   5.649   0.618
 7434SOL    HW124261   2.158   5.743   0.651
 7434SOL    HW224262   2.164   5.586   0.695
 7435SOL     OW24263   3.484   5.953   0.374
 7435SOL    HW124264   3.486   5.877   0.438
 7435SOL    HW224265   3.436   6.030   0.414
 7436SOL     OW24266   2.885   6.352   0.966
 7436SOL    HW124267   2.900   6.373   1.062
 7436SOL    HW224268   2.855   6.257   0.957
 7437SOL     OW24269   2.842   7.159   1.700
 7437SOL    HW124270   2.822   7.203   1.612
 7437SOL    HW224271   2.881   7.068   1.684
 7438SOL     OW24272   3.721   7.104   1.605
 7438SOL    HW124273   3.735   7.131   1.510
 7438SOL    HW224274   3.804   7.126   1.658
 7439SOL     OW24275   2.212   6.484   1.804
 7439SOL    HW124276   2.288   6.528   1.852
 7439SOL    HW224277   2.247   6.437   1.722
 7440SOL     OW24278   3.402   5.860   0.125
 7440SOL    HW124279   3.341   5.785   0.148
 7440SOL    HW224280   3.424   5.912   0.208
 7441SOL     OW24281   3.165   6.424   0.042
 7441SOL    HW124282   3.199   6.331   0.057
 7441SOL    HW224283   3.183   6.451  -0.053
 7442SOL     OW24284   2.930   6.919   0.849
 7442SOL    HW124285   2.937   6.835   0.794
 7442SOL    HW224286   2.992   6.988   0.813
 7443SOL     OW24287   2.181   6.396   0.949
 7443SOL    HW124288   2.274   6.432   0.954
 7443SOL    HW224289   2.175   6.311   1.001
 7444SOL     OW24290   2.201   6.095   1.006
 7444SOL    HW124291   2.149   6.012   0.989
 7444SOL    HW224292   2.278   6.100   0.942
 7445SOL     OW24293   2.373   6.001   1.808
 7445SOL    HW124294   2.355   6.046   1.896
 7445SOL    HW224295   2.415   6.066   1.745
 7446SOL     OW24296   3.022   5.793   1.477
 7446SOL    HW124297   3.022   5.857   1.554
 7446SOL    HW224298   3.050   5.841   1.394
 7447SOL     OW24299   1.870   6.912   0.200
 7447SOL    HW124300   1.777   6.933   0.169
 7447SOL    HW224301   1.880   6.813   0.213
 7448SOL     OW24302   1.950   7.387   0.927
 7448SOL    HW124303   1.908   7.301   0.900
 7448SOL    HW224304   2.044   7.390   0.893
 7449SOL     OW24305   2.366   7.154   0.910
 7449SOL    HW124306   2.432   7.228   0.919
 7449SOL    HW224307   2.410   7.075   0.868
 7450SOL     OW24308   2.864   6.382   1.238
 7450SOL    HW124309   2.905   6.350   1.324
 7450SOL    HW224310   2.768   6.355   1.235
 7451SOL     OW24311   1.902   6.130   1.114
 7451SOL    HW124312   1.987   6.097   1.073
 7451SOL    HW224313   1.915   6.145   1.212
 7452SOL     OW24314   2.051   6.106   1.722
 7452SOL    HW124315   2.110   6.066   1.652
 7452SOL    HW224316   1.993   6.177   1.681
 7453SOL     OW24317   2.677   6.158   0.325
 7453SOL    HW124318   2.684   6.069   0.279
 7453SOL    HW224319   2.583   6.192   0.317
 7454SOL     OW24320   3.519   6.190   1.206
 7454SOL    HW124321   3.481   6.121   1.268
 7454SOL    HW224322   3.601   6.154   1.162
 7455SOL     OW24323   2.114   7.150   1.744
 7455SOL    HW124324   2.084   7.207   1.820
 7455SOL    HW224325   2.107   7.053   1.770
 7456SOL     OW24326   2.533   6.050   1.269
 7456SOL    HW124327   2.499   5.961   1.239
 7456SOL    HW224328   2.559   6.104   1.189
 7457SOL     OW24329   2.792   7.264   1.465
 7457SOL    HW124330   2.768   7.246   1.370
 7457SOL    HW224331   2.822   7.358   1.475
 7458SOL     OW24332   2.335   6.086   0.191
 7458SOL    HW124333   2.396   6.166   0.195
 7458SOL    HW224334   2.240   6.117   0.198
 7459SOL     OW24335   2.021   6.723   1.466
 7459SOL    HW124336   2.043   6.662   1.542
 7459SOL    HW224337   2.031   6.674   1.380
 7460SOL     OW24338   3.164   6.441   0.309
 7460SOL    HW124339   3.078   6.410   0.351
 7460SOL    HW224340   3.160   6.427   0.210
 7461SOL     OW24341   3.621   7.333   1.154
 7461SOL    HW124342   3.682   7.363   1.081
 7461SOL    HW224343   3.583   7.244   1.132
 7462SOL     OW24344   3.114   7.317   1.128
 7462SOL    HW124345   3.198   7.322   1.074
 7462SOL    HW224346   3.091   7.221   1.146
 7463SOL     OW24347   1.945   6.844   1.022
 7463SOL    HW124348   1.940   6.843   1.122
 7463SOL    HW224349   1.862   6.803   0.984
 7464SOL     OW24350   2.550   7.248   1.716
 7464SOL    HW124351   2.494   7.329   1.725
 7464SOL    HW224352   2.602   7.252   1.630
 7465SOL     OW24353   2.765   5.672   0.133
 7465SOL    HW124354   2.816   5.673   0.047
 7465SOL    HW224355   2.821   5.630   0.204
 7466SOL     OW24356   3.588   5.721   0.523
 7466SOL    HW124357   3.661   5.704   0.456
 7466SOL    HW224358   3.557   5.634   0.561
 7467SOL     OW24359   3.250   7.159   0.477
 7467SOL    HW124360   3.317   7.171   0.403
 7467SOL    HW224361   3.210   7.248   0.500
 7468SOL     OW24362   1.992   7.380   1.851
 7468SOL    HW124363   1.951   7.306   1.904
 7468SOL    HW224364   2.056   7.431   1.909
 7469SOL     OW24365   3.142   6.513   0.672
 7469SOL    HW124366   3.202   6.432   0.674
 7469SOL    HW224367   3.182   6.582   0.612
 7470SOL     OW24368   2.692   6.859   1.422
 7470SOL    HW124369   2.687   6.892   1.517
 7470SOL    HW224370   2.606   6.878   1.376
 7471SOL     OW24371   2.534   7.202   0.154
 7471SOL    HW124372   2.543   7.212   0.055
 7471SOL    HW224373   2.494   7.113   0.175
 7472SOL     OW24374   3.512   7.306   1.394
 7472SOL    HW124375   3.565   7.316   1.310
 7472SOL    HW224376   3.485   7.396   1.428
 7473SOL     OW24377   3.703   5.761   0.963
 7473SOL    HW124378   3.742   5.676   0.927
 7473SOL    HW224379   3.605   5.763   0.944
 7474SOL     OW24380   2.125   5.912   0.720
 7474SOL    HW124381   2.046   5.963   0.686
 7474SOL    HW224382   2.116   5.897   0.818
 7475SOL     OW24383   3.056   7.198   0.031
 7475SOL    HW124384   3.062   7.105   0.068
 7475SOL    HW224385   2.997   7.198  -0.049
 7476SOL     OW24386   2.684   6.588   1.372
 7476SOL    HW124387   2.724   6.587   1.280
 7476SOL    HW224388   2.694   6.680   1.412
 7477SOL     OW24389   2.778   6.496   0.291
 7477SOL    HW124390   2.841   6.534   0.223
 7477SOL    HW224391   2.818   6.413   0.330
 7478SOL     OW24392   3.366   7.193   0.044
 7478SOL    HW124393   3.274   7.230   0.051
 7478SOL    HW224394   3.404   7.213  -0.046
 7479SOL     OW24395   2.234   6.874   1.490
 7479SOL    HW124396   2.221   6.967   1.456
 7479SOL    HW224397   2.150   6.822   1.477
 7480SOL     OW24398   3.476   6.878   1.289
 7480SOL    HW124399   3.536   6.881   1.369
 7480SOL    HW224400   3.401   6.942   1.302
 7481SOL     OW24401   2.901   6.684   0.696
 7481SOL    HW124402   2.831   6.637   0.750
 7481SOL    HW224403   2.960   6.616   0.653
 7482SOL     OW24404   2.876   5.822   0.971
 7482SOL    HW124405   2.868   5.786   0.878
 7482SOL    HW224406   2.874   5.746   1.036
 7483SOL     OW24407   2.452   7.073   0.491
 7483SOL    HW124408   2.494   7.015   0.421
 7483SOL    HW224409   2.408   7.152   0.447
 7484SOL     OW24410   3.571   5.971   1.381
 7484SOL    HW124411   3.644   6.040   1.385
 7484SOL    HW224412   3.599   5.896   1.322
 7485SOL     OW24413   2.117   6.934   0.290
 7485SOL    HW124414   2.021   6.935   0.263
 7485SOL    HW224415   2.129   6.987   0.374
 7486SOL     OW24416   1.967   6.599   1.726
 7486SOL    HW124417   1.890   6.566   1.780
 7486SOL    HW224418   2.052   6.569   1.768
 7487SOL     OW24419   2.534   5.789   1.489
 7487SOL    HW124420   2.624   5.773   1.449
 7487SOL    HW224421   2.542   5.794   1.588
 7488SOL     OW24422   1.934   5.752   0.318
 7488SOL    HW124423   1.917   5.835   0.264
 7488SOL    HW224424   2.024   5.715   0.296
 7489SOL     OW24425   3.045   6.921   0.119
 7489SOL    HW124426   2.946   6.910   0.121
 7489SOL    HW224427   3.079   6.936   0.212
 7490SOL     OW24428   2.475   6.428   1.431
 7490SOL    HW124429   2.531   6.509   1.414
 7490SOL    HW224430   2.534   6.348   1.434
 7491SOL     OW24431   3.355   7.353   0.959
 7491SOL    HW124432   3.388   7.417   0.890
 7491SOL    HW224433   3.421   7.347   1.034
 7492SOL     OW24434   3.312   6.806   1.633
 7492SOL    HW124435   3.303   6.796   1.732
 7492SOL    HW224436   3.408   6.799   1.607
 7493SOL     OW24437   2.252   7.327   1.560
 7493SOL    HW124438   2.161   7.368   1.558
 7493SOL    HW224439   2.245   7.233   1.592
 7494SOL     OW24440   3.536   6.469   1.254
 7494SOL    HW124441   3.509   6.380   1.217
 7494SOL    HW224442   3.537   6.537   1.181
 7495SOL     OW24443   3.087   5.911   0.449
 7495SOL    HW124444   3.152   5.837   0.438
 7495SOL    HW224445   3.107   5.961   0.533
 7496SOL     OW24446   2.456   6.331   0.652
 7496SOL    HW124447   2.506   6.416   0.633
 7496SOL    HW224448   2.368   6.333   0.604
 7497SOL     OW24449   3.639   5.928   1.642
 7497SOL    HW124450   3.622   5.959   1.548
 7497SOL    HW224451   3.555   5.891   1.680
 7498SOL     OW24452   3.592   6.520   1.517
 7498SOL    HW124453   3.630   6.611   1.532
 7498SOL    HW224454   3.584   6.503   1.418
 7499SOL     OW24455   2.721   6.960   0.016
 7499SOL    HW124456   2.675   6.975   0.104
 7499SOL    HW224457   2.765   7.045  -0.014
 7500SOL     OW24458   2.523   7.376   0.953
 7500SOL    HW124459   2.477   7.464   0.940
 7500SOL    HW224460   2.622   7.388   0.946
 7501SOL     OW24461   3.270   7.437   1.720
 7501SOL    HW124462   3.174   7.426   1.693
 7501SOL    HW224463   3.326   7.370   1.672
 7502SOL     OW24464   2.721   6.542   0.861
 7502SOL    HW124465   2.775   6.473   0.909
 7502SOL    HW224466   2.689   6.611   0.927
 7503SOL     OW24467   2.945   6.570   0.087
 7503SOL    HW124468   2.922   6.623   0.005
 7503SOL    HW224469   3.026   6.514   0.068
 7504SOL     OW24470   3.723   7.155   0.851
 7504SOL    HW124471   3.652   7.143   0.781
 7504SOL    HW224472   3.724   7.076   0.911
 7505SOL     OW24473   2.083   6.900   1.844
 7505SOL    HW124474   2.018   6.827   1.823
 7505SOL    HW224475   2.087   6.914   1.942
 7506SOL     OW24476   1.941   6.826   0.653
 7506SOL    HW124477   1.940   6.779   0.741
 7506SOL    HW224478   2.023   6.798   0.602
 7507SOL     OW24479   2.534   6.977   1.624
 7507SOL    HW124480   2.456   6.927   1.662
 7507SOL    HW224481   2.531   7.072   1.655
 7508SOL     OW24482   3.686   5.778   1.227
 7508SOL    HW124483   3.682   5.688   1.271
 7508SOL    HW224484   3.689   5.767   1.128
 7509SOL     OW24485   2.290   6.010   0.520
 7509SOL    HW124486   2.320   5.938   0.458
 7509SOL    HW224487   2.251   5.970   0.603
 7510SOL     OW24488   3.567   7.073   1.104
 7510SOL    HW124489   3.474   7.048   1.077
 7510SOL    HW224490   3.593   7.023   1.186
 7511SOL     OW24491   2.179   6.133   1.280
 7511SOL    HW124492   2.217   6.074   1.352
 7511SOL    HW224493   2.219   6.107   1.192
 7512SOL     OW24494   2.674   7.172   0.687
 7512SOL    HW124495   2.706   7.182   0.593
 7512SOL    HW224496   2.595   7.110   0.689
 7513SOL     OW24497   3.286   5.800   1.112
 7513SOL    HW124498   3.338   5.735   1.167
 7513SOL    HW224499   3.237   5.863   1.173
 7514SOL     OW24500   2.863   5.620   1.154
 7514SOL    HW124501   2.800   5.548   1.123
 7514SOL    HW224502   2.956   5.584   1.154
 7515SOL     OW24503   2.632   6.916   0.301
 7515SOL    HW124504   2.586   6.829   0.318
 7515SOL    HW224505   2.723   6.913   0.342
 7516SOL     OW24506   2.480   7.153   1.284
 7516SOL    HW124507   2.475   7.235   1.341
 7516SOL    HW224508   2.569   7.150   1.239
 7517SOL     OW24509   3.162   6.039   0.691
 7517SOL    HW124510   3.103   6.119   0.695
 7517SOL    HW224511   3.177   6.004   0.784
 7518SOL     OW24512   3.455   5.807   0.882
 7518SOL    HW124513   3.371   5.806   0.936
 7518SOL    HW224514   3.457   5.890   0.826
 7519SOL     OW24515   1.901   6.663   0.300
 7519SOL    HW124516   2.000   6.652   0.291
 7519SOL    HW224517   1.861   6.577   0.332
 7520SOL     OW24518   2.737   7.232   0.337
 7520SOL    HW124519   2.660   7.197   0.283
 7520SOL    HW224520   2.705   7.303   0.399
 7521SOL     OW24521   2.092   6.214   1.975
 7521SOL    HW124522   1.999   6.212   2.012
 7521SOL    HW224523   2.093   6.175   1.883
 7522SOL     OW24524   2.431   6.861   3.027
 7522SOL    HW124525   2.338   6.854   2.990
 7522SOL    HW224526   2.442   6.950   3.071
 7523SOL     OW24527   3.417   7.097   2.565
 7523SOL    HW124528   3.360   7.081   2.646
 7523SOL    HW224529   3.358   7.107   2.485
 7524SOL     OW24530   3.605   6.204   2.718
 7524SOL    HW124531   3.638   6.298   2.718
 7524SOL    HW224532   3.656   6.150   2.784
 7525SOL     OW24533   3.617   6.193   2.093
 7525SOL    HW124534   3.605   6.180   1.994
 7525SOL    HW224535   3.587   6.112   2.142
 7526SOL     OW24536   2.630   6.730   2.885
 7526SOL    HW124537   2.552   6.747   2.945
 7526SOL    HW224538   2.664   6.817   2.849
 7527SOL     OW24539   2.547   6.598   2.527
 7527SOL    HW124540   2.616   6.582   2.597
 7527SOL    HW224541   2.474   6.655   2.565
 7528SOL     OW24542   2.548   6.747   3.665
 7528SOL    HW124543   2.608   6.826   3.679
 7528SOL    HW224544   2.462   6.778   3.624
 7529SOL     OW24545   2.197   7.021   2.923
 7529SOL    HW124546   2.119   6.990   2.870
 7529SOL    HW224547   2.255   7.079   2.866
 7530SOL     OW24548   3.322   7.091   3.201
 7530SOL    HW124549   3.346   7.185   3.227
 7530SOL    HW224550   3.306   7.037   3.283
 7531SOL     OW24551   2.300   5.978   3.361
 7531SOL    HW124552   2.382   5.922   3.370
 7531SOL    HW224553   2.219   5.920   3.365
 7532SOL     OW24554   3.465   6.033   2.599
 7532SOL    HW124555   3.391   6.079   2.549
 7532SOL    HW224556   3.516   6.101   2.652
 7533SOL     OW24557   2.093   7.299   2.345
 7533SOL    HW124558   2.127   7.376   2.399
 7533SOL    HW224559   2.137   7.299   2.255
 7534SOL     OW24560   2.989   6.927   3.552
 7534SOL    HW124561   3.036   6.927   3.640
 7534SOL    HW224562   2.941   6.840   3.541
 7535SOL     OW24563   2.092   7.020   2.400
 7535SOL    HW124564   2.066   7.116   2.400
 7535SOL    HW224565   2.021   6.966   2.445
 7536SOL     OW24566   2.102   6.677   2.748
 7536SOL    HW124567   2.116   6.593   2.800
 7536SOL    HW224568   2.047   6.741   2.803
 7537SOL     OW24569   2.482   7.372   3.301
 7537SOL    HW124570   2.390   7.355   3.336
 7537SOL    HW224571   2.510   7.464   3.327
 7538SOL     OW24572   2.468   6.550   1.985
 7538SOL    HW124573   2.475   6.634   1.931
 7538SOL    HW224574   2.514   6.563   2.073
 7539SOL     OW24575   3.456   5.700   3.342
 7539SOL    HW124576   3.438   5.767   3.270
 7539SOL    HW224577   3.453   5.746   3.431
 7540SOL     OW24578   1.984   6.229   2.425
 7540SOL    HW124579   1.939   6.141   2.442
 7540SOL    HW224580   1.983   6.283   2.509
 7541SOL     OW24581   3.704   7.353   2.221
 7541SOL    HW124582   3.758   7.324   2.301
 7541SOL    HW224583   3.734   7.443   2.192
 7542SOL     OW24584   1.889   7.182   1.979
 7542SOL    HW124585   1.870   7.086   2.000
 7542SOL    HW224586   1.856   7.240   2.054
 7543SOL     OW24587   3.551   6.508   2.474
 7543SOL    HW124588   3.646   6.479   2.482
 7543SOL    HW224589   3.543   6.573   2.399
 7544SOL     OW24590   3.503   6.694   2.294
 7544SOL    HW124591   3.589   6.696   2.242
 7544SOL    HW224592   3.517   6.741   2.382
 7545SOL     OW24593   1.975   6.323   3.459
 7545SOL    HW124594   2.063   6.310   3.504
 7545SOL    HW224595   1.962   6.420   3.437
 7546SOL     OW24596   2.475   6.951   2.588
 7546SOL    HW124597   2.426   6.864   2.597
 7546SOL    HW224598   2.452   6.994   2.501
 7547SOL     OW24599   3.155   6.814   3.285
 7547SOL    HW124600   3.192   6.741   3.227
 7547SOL    HW224601   3.207   6.819   3.370
 7548SOL     OW24602   2.059   6.562   3.126
 7548SOL    HW124603   2.148   6.517   3.112
 7548SOL    HW224604   1.986   6.497   3.107
 7549SOL     OW24605   3.049   7.378   3.478
 7549SOL    HW124606   3.073   7.438   3.402
 7549SOL    HW224607   3.056   7.283   3.448
 7550SOL     OW24608   2.179   5.837   3.663
 7550SOL    HW124609   2.250   5.908   3.669
 7550SOL    HW224610   2.091   5.876   3.691
 7551SOL     OW24611   3.328   7.003   2.815
 7551SOL    HW124612   3.269   7.009   2.895
 7551SOL    HW224613   3.313   6.915   2.769
 7552SOL     OW24614   3.529   7.300   2.434
 7552SOL    HW124615   3.488   7.277   2.346
 7552SOL    HW224616   3.511   7.226   2.499
 7553SOL     OW24617   2.460   6.315   2.132
 7553SOL    HW124618   2.484   6.384   2.064
 7553SOL    HW224619   2.382   6.348   2.186
 7554SOL     OW24620   3.438   7.248   2.169
 7554SOL    HW124621   3.527   7.294   2.172
 7554SOL    HW224622   3.417   7.224   2.074
 7555SOL     OW24623   1.938   6.397   2.651
 7555SOL    HW124624   2.037   6.385   2.660
 7555SOL    HW224625   1.914   6.492   2.672
 7556SOL     OW24626   1.992   7.407   3.433
 7556SOL    HW124627   1.982   7.392   3.532
 7556SOL    HW224628   1.906   7.443   3.397
 7557SOL     OW24629   3.224   6.730   2.407
 7557SOL    HW124630   3.307   6.701   2.359
 7557SOL    HW224631   3.175   6.797   2.351
 7558SOL     OW24632   2.870   7.042   2.339
 7558SOL    HW124633   2.824   7.114   2.287
 7558SOL    HW224634   2.866   7.062   2.437
 7559SOL     OW24635   2.213   7.387   2.715
 7559SOL    HW124636   2.263   7.301   2.721
 7559SOL    HW224637   2.278   7.464   2.712
 7560SOL     OW24638   3.657   6.652   2.735
 7560SOL    HW124639   3.595   6.637   2.659
 7560SOL    HW224640   3.605   6.663   2.820
 7561SOL     OW24641   3.089   7.136   3.368
 7561SOL    HW124642   3.095   7.059   3.432
 7561SOL    HW224643   3.037   7.110   3.288
 7562SOL     OW24644   2.183   6.529   2.104
 7562SOL    HW124645   2.265   6.568   2.062
 7562SOL    HW224646   2.156   6.447   2.055
 7563SOL     OW24647   3.320   6.321   2.590
 7563SOL    HW124648   3.315   6.256   2.665
 7563SOL    HW224649   3.400   6.380   2.603
 7564SOL     OW24650   2.323   6.852   3.589
 7564SOL    HW124651   2.273   6.853   3.503
 7564SOL    HW224652   2.260   6.834   3.665
 7565SOL     OW24653   2.973   7.362   2.099
 7565SOL    HW124654   2.913   7.300   2.149
 7565SOL    HW224655   3.004   7.318   2.014
 7566SOL     OW24656   2.064   5.871   3.360
 7566SOL    HW124657   1.984   5.931   3.347
 7566SOL    HW224658   2.054   5.822   3.446
 7567SOL     OW24659   3.494   6.963   1.943
 7567SOL    HW124660   3.462   7.057   1.933
 7567SOL    HW224661   3.418   6.900   1.931
 7568SOL     OW24662   2.326   7.329   2.185
 7568SOL    HW124663   2.359   7.368   2.271
 7568SOL    HW224664   2.402   7.322   2.120
 7569SOL     OW24665   3.262   5.693   2.288
 7569SOL    HW124666   3.238   5.656   2.198
 7569SOL    HW224667   3.361   5.709   2.292
 7570SOL     OW24668   2.111   7.371   3.103
 7570SOL    HW124669   2.168   7.306   3.153
 7570SOL    HW224670   2.095   7.338   3.010
 7571SOL     OW24671   2.802   7.284   2.766
 7571SOL    HW124672   2.882   7.227   2.787
 7571SOL    HW224673   2.753   7.244   2.689
 7572SOL     OW24674   2.244   6.286   2.342
 7572SOL    HW124675   2.289   6.196   2.339
 7572SOL    HW224676   2.150   6.275   2.375
 7573SOL     OW24677   3.409   5.808   3.591
 7573SOL    HW124678   3.404   5.845   3.683
 7573SOL    HW224679   3.337   5.739   3.579
 7574SOL     OW24680   2.476   5.708   1.979
 7574SOL    HW124681   2.574   5.686   1.986
 7574SOL    HW224682   2.445   5.691   1.886
 7575SOL     OW24683   2.643   5.850   3.611
 7575SOL    HW124684   2.710   5.789   3.654
 7575SOL    HW224685   2.570   5.869   3.676
 7576SOL     OW24686   2.750   7.100   3.057
 7576SOL    HW124687   2.727   7.075   2.963
 7576SOL    HW224688   2.811   7.031   3.096
 7577SOL     OW24689   2.665   6.988   2.786
 7577SOL    HW124690   2.755   7.002   2.744
 7577SOL    HW224691   2.594   6.990   2.715
 7578SOL     OW24692   2.401   5.650   2.374
 7578SOL    HW124693   2.320   5.651   2.432
 7578SOL    HW224694   2.404   5.733   2.319
 7579SOL     OW24695   3.296   6.774   1.903
 7579SOL    HW124696   3.328   6.698   1.960
 7579SOL    HW224697   3.204   6.801   1.933
 7580SOL     OW24698   2.159   5.621   2.033
 7580SOL    HW124699   2.208   5.705   2.012
 7580SOL    HW224700   2.221   5.556   2.078
 7581SOL     OW24701   3.089   7.156   2.655
 7581SOL    HW124702   3.110   7.230   2.590
 7581SOL    HW224703   3.157   7.156   2.728
 7582SOL     OW24704   2.321   6.738   2.603
 7582SOL    HW124705   2.250   6.711   2.668
 7582SOL    HW224706   2.295   6.710   2.510
 7583SOL     OW24707   3.133   7.383   2.453
 7583SOL    HW124708   3.177   7.447   2.389
 7583SOL    HW224709   3.083   7.435   2.523
 7584SOL     OW24710   1.940   6.142   3.248
 7584SOL    HW124711   2.032   6.141   3.207
 7584SOL    HW224712   1.934   6.216   3.315
 7585SOL     OW24713   3.291   6.759   2.729
 7585SOL    HW124714   3.236   6.675   2.722
 7585SOL    HW224715   3.317   6.788   2.637
 7586SOL     OW24716   3.719   6.419   2.239
 7586SOL    HW124717   3.761   6.355   2.303
 7586SOL    HW224718   3.681   6.368   2.161
 7587SOL     OW24719   2.350   6.971   2.036
 7587SOL    HW124720   2.263   6.956   2.083
 7587SOL    HW224721   2.333   6.997   1.941
 7588SOL     OW24722   3.526   6.866   2.519
 7588SOL    HW124723   3.625   6.874   2.533
 7588SOL    HW224724   3.481   6.950   2.550
 7589SOL     OW24725   2.389   5.842   2.190
 7589SOL    HW124726   2.416   5.783   2.115
 7589SOL    HW224727   2.389   5.937   2.159
 7590SOL     OW24728   3.616   6.809   3.450
 7590SOL    HW124729   3.707   6.770   3.437
 7590SOL    HW224730   3.624   6.905   3.474
 7591SOL     OW24731   2.926   6.933   3.202
 7591SOL    HW124732   2.846   6.910   3.257
 7591SOL    HW224733   3.009   6.907   3.251
 7592SOL     OW24734   3.454   7.215   3.487
 7592SOL    HW124735   3.481   7.249   3.397
 7592SOL    HW224736   3.533   7.177   3.533
 7593SOL     OW24737   2.973   6.781   2.962
 7593SOL    HW124738   2.933   6.825   3.043
 7593SOL    HW224739   2.932   6.818   2.879
 7594SOL     OW24740   3.500   6.685   2.941
 7594SOL    HW124741   3.505   6.766   3.000
 7594SOL    HW224742   3.414   6.687   2.890
 7595SOL     OW24743   2.777   5.675   3.264
 7595SOL    HW124744   2.802   5.655   3.169
 7595SOL    HW224745   2.849   5.731   3.306
 7596SOL     OW24746   2.842   6.702   3.581
 7596SOL    HW124747   2.743   6.708   3.591
 7596SOL    HW224748   2.865   6.622   3.525
 7597SOL     OW24749   2.567   6.636   2.230
 7597SOL    HW124750   2.553   6.643   2.329
 7597SOL    HW224751   2.651   6.585   2.212
 7598SOL     OW24752   2.272   6.399   3.113
 7598SOL    HW124753   2.358   6.411   3.163
 7598SOL    HW224754   2.230   6.312   3.140
 7599SOL     OW24755   1.926   7.150   3.193
 7599SOL    HW124756   1.880   7.232   3.159
 7599SOL    HW224757   2.024   7.169   3.202
 7600SOL     OW24758   2.229   6.686   2.363
 7600SOL    HW124759   2.222   6.769   2.307
 7600SOL    HW224760   2.233   6.606   2.303
 7601SOL     OW24761   2.428   6.123   2.727
 7601SOL    HW124762   2.440   6.189   2.653
 7601SOL    HW224763   2.474   6.157   2.810
 7602SOL     OW24764   3.114   6.934   2.250
 7602SOL    HW124765   3.164   7.011   2.290
 7602SOL    HW224766   3.019   6.936   2.282
 7603SOL     OW24767   3.134   7.031   3.004
 7603SOL    HW124768   3.181   7.044   3.091
 7603SOL    HW224769   3.068   6.957   3.013
 7604SOL     OW24770   3.444   6.225   2.334
 7604SOL    HW124771   3.413   6.286   2.407
 7604SOL    HW224772   3.494   6.277   2.265
 7605SOL     OW24773   2.216   7.096   3.191
 7605SOL    HW124774   2.195   7.052   3.104
 7605SOL    HW224775   2.313   7.122   3.194
 7606SOL     OW24776   2.264   6.337   3.460
 7606SOL    HW124777   2.332   6.392   3.413
 7606SOL    HW224778   2.304   6.249   3.487
 7607SOL     OW24779   3.449   6.365   3.532
 7607SOL    HW124780   3.357   6.403   3.527
 7607SOL    HW224781   3.509   6.412   3.467
 7608SOL     OW24782   2.366   5.636   3.602
 7608SOL    HW124783   2.324   5.579   3.532
 7608SOL    HW224784   2.300   5.705   3.634
 7609SOL     OW24785   2.435   6.456   2.891
 7609SOL    HW124786   2.479   6.545   2.882
 7609SOL    HW224787   2.372   6.456   2.968
 7610SOL     OW24788   2.169   5.799   3.093
 7610SOL    HW124789   2.146   5.836   3.183
 7610SOL    HW224790   2.139   5.704   3.087
 7611SOL     OW24791   1.899   6.896   3.144
 7611SOL    HW124792   1.952   6.847   3.212
 7611SOL    HW224793   1.921   6.994   3.149
 7612SOL     OW24794   2.594   6.220   2.926
 7612SOL    HW124795   2.653   6.194   2.850
 7612SOL    HW224796   2.566   6.316   2.915
 7613SOL     OW24797   3.590   6.521   3.716
 7613SOL    HW124798   3.544   6.514   3.627
 7613SOL    HW224799   3.528   6.565   3.782
 7614SOL     OW24800   2.169   5.649   2.480
 7614SOL    HW124801   2.158   5.743   2.513
 7614SOL    HW224802   2.164   5.586   2.557
 7615SOL     OW24803   2.885   6.352   2.828
 7615SOL    HW124804   2.900   6.373   2.924
 7615SOL    HW224805   2.855   6.257   2.819
 7616SOL     OW24806   2.842   7.159   3.562
 7616SOL    HW124807   2.822   7.203   3.474
 7616SOL    HW224808   2.881   7.068   3.546
 7617SOL     OW24809   3.721   7.104   3.467
 7617SOL    HW124810   3.735   7.131   3.372
 7617SOL    HW224811   3.804   7.126   3.520
 7618SOL     OW24812   2.212   6.484   3.666
 7618SOL    HW124813   2.288   6.528   3.714
 7618SOL    HW224814   2.247   6.437   3.584
 7619SOL     OW24815   2.930   6.919   2.711
 7619SOL    HW124816   2.937   6.835   2.656
 7619SOL    HW224817   2.992   6.988   2.675
 7620SOL     OW24818   2.181   6.396   2.811
 7620SOL    HW124819   2.274   6.432   2.816
 7620SOL    HW224820   2.175   6.311   2.863
 7621SOL     OW24821   2.201   6.095   2.868
 7621SOL    HW124822   2.149   6.012   2.851
 7621SOL    HW224823   2.278   6.100   2.804
 7622SOL     OW24824   1.870   6.912   2.062
 7622SOL    HW124825   1.777   6.933   2.031
 7622SOL    HW224826   1.880   6.813   2.075
 7623SOL     OW24827   1.950   7.387   2.789
 7623SOL    HW124828   1.908   7.301   2.762
 7623SOL    HW224829   2.044   7.390   2.755
 7624SOL     OW24830   2.366   7.154   2.772
 7624SOL    HW124831   2.432   7.228   2.781
 7624SOL    HW224832   2.410   7.075   2.730
 7625SOL     OW24833   1.902   6.130   2.976
 7625SOL    HW124834   1.987   6.097   2.935
 7625SOL    HW224835   1.915   6.145   3.074
 7626SOL     OW24836   2.051   6.106   3.584
 7626SOL    HW124837   2.110   6.066   3.514
 7626SOL    HW224838   1.993   6.177   3.543
 7627SOL     OW24839   3.231   6.536   3.522
 7627SOL    HW124840   3.270   6.625   3.542
 7627SOL    HW224841   3.241   6.516   3.425
 7628SOL     OW24842   2.677   6.158   2.187
 7628SOL    HW124843   2.684   6.069   2.141
 7628SOL    HW224844   2.583   6.192   2.179
 7629SOL     OW24845   3.519   6.190   3.068
 7629SOL    HW124846   3.481   6.121   3.130
 7629SOL    HW224847   3.601   6.154   3.024
 7630SOL     OW24848   2.114   7.150   3.606
 7630SOL    HW124849   2.084   7.207   3.682
 7630SOL    HW224850   2.107   7.053   3.632
 7631SOL     OW24851   2.792   7.264   3.327
 7631SOL    HW124852   2.768   7.246   3.232
 7631SOL    HW224853   2.822   7.358   3.337
 7632SOL     OW24854   2.335   6.086   2.053
 7632SOL    HW124855   2.396   6.166   2.057
 7632SOL    HW224856   2.240   6.117   2.060
 7633SOL     OW24857   2.021   6.723   3.328
 7633SOL    HW124858   2.043   6.662   3.404
 7633SOL    HW224859   2.031   6.674   3.242
 7634SOL     OW24860   3.209   6.645   3.096
 7634SOL    HW124861   3.233   6.582   3.022
 7634SOL    HW224862   3.119   6.685   3.078
 7635SOL     OW24863   3.621   7.333   3.016
 7635SOL    HW124864   3.682   7.363   2.943
 7635SOL    HW224865   3.583   7.244   2.994
 7636SOL     OW24866   3.114   7.317   2.990
 7636SOL    HW124867   3.198   7.322   2.936
 7636SOL    HW224868   3.091   7.221   3.008
 7637SOL     OW24869   1.945   6.844   2.884
 7637SOL    HW124870   1.940   6.843   2.984
 7637SOL    HW224871   1.862   6.803   2.846
 7638SOL     OW24872   2.550   7.248   3.578
 7638SOL    HW124873   2.494   7.329   3.587
 7638SOL    HW224874   2.602   7.252   3.492
 7639SOL     OW24875   3.250   7.159   2.339
 7639SOL    HW124876   3.317   7.171   2.265
 7639SOL    HW224877   3.210   7.248   2.362
 7640SOL     OW24878   1.992   7.380   3.713
 7640SOL    HW124879   1.951   7.306   3.766
 7640SOL    HW224880   2.056   7.431   3.771
 7641SOL     OW24881   3.142   6.513   2.534
 7641SOL    HW124882   3.202   6.432   2.536
 7641SOL    HW224883   3.182   6.582   2.474
 7642SOL     OW24884   2.692   6.859   3.284
 7642SOL    HW124885   2.687   6.892   3.379
 7642SOL    HW224886   2.606   6.878   3.238
 7643SOL     OW24887   2.534   7.202   2.016
 7643SOL    HW124888   2.543   7.212   1.917
 7643SOL    HW224889   2.494   7.113   2.037
 7644SOL     OW24890   3.512   7.306   3.256
 7644SOL    HW124891   3.565   7.316   3.172
 7644SOL    HW224892   3.485   7.396   3.290
 7645SOL     OW24893   3.703   5.761   2.825
 7645SOL    HW124894   3.742   5.676   2.789
 7645SOL    HW224895   3.605   5.763   2.806
 7646SOL     OW24896   2.125   5.912   2.582
 7646SOL    HW124897   2.046   5.963   2.548
 7646SOL    HW224898   2.116   5.897   2.680
 7647SOL     OW24899   3.056   7.198   1.893
 7647SOL    HW124900   3.062   7.105   1.930
 7647SOL    HW224901   2.997   7.198   1.813
 7648SOL     OW24902   2.684   6.588   3.234
 7648SOL    HW124903   2.724   6.587   3.142
 7648SOL    HW224904   2.694   6.680   3.274
 7649SOL     OW24905   2.778   6.496   2.153
 7649SOL    HW124906   2.841   6.534   2.085
 7649SOL    HW224907   2.818   6.413   2.192
 7650SOL     OW24908   3.366   7.193   1.906
 7650SOL    HW124909   3.274   7.230   1.913
 7650SOL    HW224910   3.404   7.213   1.816
 7651SOL     OW24911   2.234   6.874   3.352
 7651SOL    HW124912   2.221   6.967   3.318
 7651SOL    HW224913   2.150   6.822   3.339
 7652SOL     OW24914   3.476   6.878   3.151
 7652SOL    HW124915   3.536   6.881   3.231
 7652SOL    HW224916   3.401   6.942   3.164
 7653SOL     OW24917   2.901   6.684   2.558
 7653SOL    HW124918   2.831   6.637   2.612
 7653SOL    HW224919   2.960   6.616   2.515
 7654SOL     OW24920   2.452   7.073   2.353
 7654SOL    HW124921   2.494   7.015   2.283
 7654SOL    HW224922   2.408   7.152   2.309
 7655SOL     OW24923   3.571   5.971   3.243
 7655SOL    HW124924   3.644   6.040   3.247
 7655SOL    HW224925   3.599   5.896   3.184
 7656SOL     OW24926   2.117   6.934   2.152
 7656SOL    HW124927   2.021   6.935   2.125
 7656SOL    HW224928   2.129   6.987   2.236
 7657SOL     OW24929   1.967   6.599   3.588
 7657SOL    HW124930   1.890   6.566   3.642
 7657SOL    HW224931   2.052   6.569   3.630
 7658SOL     OW24932   2.534   5.789   3.351
 7658SOL    HW124933   2.624   5.773   3.311
 7658SOL    HW224934   2.542   5.794   3.450
 7659SOL     OW24935   1.937   5.931   1.895
 7659SOL    HW124936   1.845   5.903   1.866
 7659SOL    HW224937   1.968   6.008   1.839
 7660SOL     OW24938   3.302   6.442   3.260
 7660SOL    HW124939   3.245   6.494   3.197
 7660SOL    HW224940   3.398   6.454   3.236
 7661SOL     OW24941   1.934   5.752   2.180
 7661SOL    HW124942   1.917   5.835   2.126
 7661SOL    HW224943   2.024   5.715   2.158
 7662SOL     OW24944   3.045   6.921   1.981
 7662SOL    HW124945   2.946   6.910   1.983
 7662SOL    HW224946   3.079   6.936   2.074
 7663SOL     OW24947   3.355   7.353   2.821
 7663SOL    HW124948   3.388   7.417   2.752
 7663SOL    HW224949   3.421   7.347   2.896
 7664SOL     OW24950   3.312   6.806   3.495
 7664SOL    HW124951   3.303   6.796   3.594
 7664SOL    HW224952   3.408   6.799   3.469
 7665SOL     OW24953   2.252   7.327   3.422
 7665SOL    HW124954   2.161   7.368   3.420
 7665SOL    HW224955   2.245   7.233   3.454
 7666SOL     OW24956   2.456   6.331   2.514
 7666SOL    HW124957   2.506   6.416   2.495
 7666SOL    HW224958   2.368   6.333   2.466
 7667SOL     OW24959   3.639   5.928   3.504
 7667SOL    HW124960   3.622   5.959   3.410
 7667SOL    HW224961   3.555   5.891   3.542
 7668SOL     OW24962   3.592   6.520   3.379
 7668SOL    HW124963   3.630   6.611   3.394
 7668SOL    HW224964   3.584   6.503   3.280
 7669SOL     OW24965   2.721   6.960   1.878
 7669SOL    HW124966   2.675   6.975   1.966
 7669SOL    HW224967   2.765   7.045   1.848
 7670SOL     OW24968   2.523   7.376   2.815
 7670SOL    HW124969   2.477   7.464   2.802
 7670SOL    HW224970   2.622   7.388   2.808
 7671SOL     OW24971   3.270   7.437   3.582
 7671SOL    HW124972   3.174   7.426   3.555
 7671SOL    HW224973   3.326   7.370   3.534
 7672SOL     OW24974   2.721   6.542   2.723
 7672SOL    HW124975   2.775   6.473   2.771
 7672SOL    HW224976   2.689   6.611   2.789
 7673SOL     OW24977   2.945   6.570   1.949
 7673SOL    HW124978   2.922   6.623   1.867
 7673SOL    HW224979   3.026   6.514   1.930
 7674SOL     OW24980   3.723   7.155   2.713
 7674SOL    HW124981   3.652   7.143   2.643
 7674SOL    HW224982   3.724   7.076   2.773
 7675SOL     OW24983   2.083   6.900   3.706
 7675SOL    HW124984   2.018   6.827   3.685
 7675SOL    HW224985   2.087   6.914   3.804
 7676SOL     OW24986   1.941   6.826   2.515
 7676SOL    HW124987   1.940   6.779   2.603
 7676SOL    HW224988   2.023   6.798   2.464
 7677SOL     OW24989   2.534   6.977   3.486
 7677SOL    HW124990   2.456   6.927   3.524
 7677SOL    HW224991   2.531   7.072   3.517
 7678SOL     OW24992   3.686   5.778   3.089
 7678SOL    HW124993   3.682   5.688   3.133
 7678SOL    HW224994   3.689   5.767   2.990
 7679SOL     OW24995   2.290   6.010   2.382
 7679SOL    HW124996   2.320   5.938   2.320
 7679SOL    HW224997   2.251   5.970   2.465
 7680SOL     OW24998   3.567   7.073   2.966
 7680SOL    HW124999   3.474   7.048   2.939
 7680SOL    HW225000   3.593   7.023   3.048
 7681SOL     OW25001   2.179   6.133   3.142
 7681SOL    HW125002   2.217   6.074   3.214
 7681SOL    HW225003   2.219   6.107   3.054
 7682SOL     OW25004   2.674   7.172   2.549
 7682SOL    HW125005   2.706   7.182   2.455
 7682SOL    HW225006   2.595   7.110   2.551
 7683SOL     OW25007   2.863   5.620   3.016
 7683SOL    HW125008   2.800   5.548   2.985
 7683SOL    HW225009   2.956   5.584   3.016
 7684SOL     OW25010   2.632   6.916   2.163
 7684SOL    HW125011   2.586   6.829   2.180
 7684SOL    HW225012   2.723   6.913   2.204
 7685SOL     OW25013   2.480   7.153   3.146
 7685SOL    HW125014   2.475   7.235   3.203
 7685SOL    HW225015   2.569   7.150   3.101
 7686SOL     OW25016   3.214   5.638   2.030
 7686SOL    HW125017   3.249   5.597   1.946
 7686SOL    HW225018   3.124   5.600   2.050
 7687SOL     OW25019   1.901   6.663   2.162
 7687SOL    HW125020   2.000   6.652   2.153
 7687SOL    HW225021   1.861   6.577   2.194
 7688SOL     OW25022   2.737   7.232   2.199
 7688SOL    HW125023   2.660   7.197   2.145
 7688SOL    HW225024   2.705   7.303   2.261
 7689SOL     OW25025   2.092   6.214   3.837
 7689SOL    HW125026   1.999   6.212   3.874
 7689SOL    HW225027   2.093   6.175   3.745
 7690SOL     OW25028   2.087   5.861   4.720
 7690SOL    HW125029   2.122   5.844   4.812
 7690SOL    HW225030   1.999   5.816   4.708
 7691SOL     OW25031   1.881   5.954   4.371
 7691SOL    HW125032   1.799   5.997   4.410
 7691SOL    HW225033   1.853   5.881   4.308
 7692SOL     OW25034   2.431   6.861   4.889
 7692SOL    HW125035   2.338   6.854   4.852
 7692SOL    HW225036   2.442   6.950   4.933
 7693SOL     OW25037   3.417   7.097   4.427
 7693SOL    HW125038   3.360   7.081   4.508
 7693SOL    HW225039   3.358   7.107   4.347
 7694SOL     OW25040   3.605   6.204   4.580
 7694SOL    HW125041   3.638   6.298   4.580
 7694SOL    HW225042   3.656   6.150   4.646
 7695SOL     OW25043   2.997   6.289   4.441
 7695SOL    HW125044   3.054   6.367   4.416
 7695SOL    HW225045   2.937   6.315   4.517
 7696SOL     OW25046   3.617   6.193   3.955
 7696SOL    HW125047   3.605   6.180   3.856
 7696SOL    HW225048   3.587   6.112   4.004
 7697SOL     OW25049   2.630   6.730   4.747
 7697SOL    HW125050   2.552   6.747   4.807
 7697SOL    HW225051   2.664   6.817   4.711
 7698SOL     OW25052   2.548   6.747   5.527
 7698SOL    HW125053   2.608   6.826   5.541
 7698SOL    HW225054   2.462   6.778   5.486
 7699SOL     OW25055   2.197   7.021   4.785
 7699SOL    HW125056   2.119   6.990   4.732
 7699SOL    HW225057   2.255   7.079   4.728
 7700SOL     OW25058   3.322   7.091   5.063
 7700SOL    HW125059   3.346   7.185   5.089
 7700SOL    HW225060   3.306   7.037   5.145
 7701SOL     OW25061   2.300   5.978   5.223
 7701SOL    HW125062   2.382   5.922   5.232
 7701SOL    HW225063   2.219   5.920   5.227
 7702SOL     OW25064   3.465   6.033   4.461
 7702SOL    HW125065   3.391   6.079   4.411
 7702SOL    HW225066   3.516   6.101   4.514
 7703SOL     OW25067   2.093   7.299   4.207
 7703SOL    HW125068   2.127   7.376   4.261
 7703SOL    HW225069   2.137   7.299   4.117
 7704SOL     OW25070   2.989   6.927   5.414
 7704SOL    HW125071   3.036   6.927   5.502
 7704SOL    HW225072   2.941   6.840   5.403
 7705SOL     OW25073   2.092   7.020   4.262
 7705SOL    HW125074   2.066   7.116   4.262
 7705SOL    HW225075   2.021   6.966   4.307
 7706SOL     OW25076   2.102   6.677   4.610
 7706SOL    HW125077   2.116   6.593   4.662
 7706SOL    HW225078   2.047   6.741   4.665
 7707SOL     OW25079   2.482   7.372   5.163
 7707SOL    HW125080   2.390   7.355   5.198
 7707SOL    HW225081   2.510   7.464   5.189
 7708SOL     OW25082   2.468   6.550   3.847
 7708SOL    HW125083   2.475   6.634   3.793
 7708SOL    HW225084   2.514   6.563   3.935
 7709SOL     OW25085   3.456   5.700   5.204
 7709SOL    HW125086   3.438   5.767   5.132
 7709SOL    HW225087   3.453   5.746   5.293
 7710SOL     OW25088   1.984   6.229   4.287
 7710SOL    HW125089   1.939   6.141   4.304
 7710SOL    HW225090   1.983   6.283   4.371
 7711SOL     OW25091   3.704   7.353   4.083
 7711SOL    HW125092   3.758   7.324   4.163
 7711SOL    HW225093   3.734   7.443   4.054
 7712SOL     OW25094   1.889   7.182   3.841
 7712SOL    HW125095   1.870   7.086   3.862
 7712SOL    HW225096   1.856   7.240   3.916
 7713SOL     OW25097   3.551   6.508   4.336
 7713SOL    HW125098   3.646   6.479   4.344
 7713SOL    HW225099   3.543   6.573   4.261
 7714SOL     OW25100   3.503   6.694   4.156
 7714SOL    HW125101   3.589   6.696   4.104
 7714SOL    HW225102   3.517   6.741   4.244
 7715SOL     OW25103   1.975   6.323   5.321
 7715SOL    HW125104   2.063   6.310   5.366
 7715SOL    HW225105   1.962   6.420   5.299
 7716SOL     OW25106   2.475   6.951   4.450
 7716SOL    HW125107   2.426   6.864   4.459
 7716SOL    HW225108   2.452   6.994   4.363
 7717SOL     OW25109   3.155   6.814   5.147
 7717SOL    HW125110   3.192   6.741   5.089
 7717SOL    HW225111   3.207   6.819   5.232
 7718SOL     OW25112   2.059   6.562   4.988
 7718SOL    HW125113   2.148   6.517   4.974
 7718SOL    HW225114   1.986   6.497   4.969
 7719SOL     OW25115   3.387   6.585   3.914
 7719SOL    HW125116   3.324   6.509   3.927
 7719SOL    HW225117   3.435   6.603   4.000
 7720SOL     OW25118   3.049   7.378   5.340
 7720SOL    HW125119   3.073   7.438   5.264
 7720SOL    HW225120   3.056   7.283   5.310
 7721SOL     OW25121   3.328   7.003   4.677
 7721SOL    HW125122   3.269   7.009   4.757
 7721SOL    HW225123   3.313   6.915   4.631
 7722SOL     OW25124   3.529   7.300   4.296
 7722SOL    HW125125   3.488   7.277   4.208
 7722SOL    HW225126   3.511   7.226   4.361
 7723SOL     OW25127   2.460   6.315   3.994
 7723SOL    HW125128   2.484   6.384   3.926
 7723SOL    HW225129   2.382   6.348   4.048
 7724SOL     OW25130   3.438   7.248   4.031
 7724SOL    HW125131   3.527   7.294   4.034
 7724SOL    HW225132   3.417   7.224   3.936
 7725SOL     OW25133   3.256   6.055   5.398
 7725SOL    HW125134   3.236   6.098   5.486
 7725SOL    HW225135   3.334   5.993   5.407
 7726SOL     OW25136   1.938   6.397   4.513
 7726SOL    HW125137   2.037   6.385   4.522
 7726SOL    HW225138   1.914   6.492   4.534
 7727SOL     OW25139   1.992   7.407   5.295
 7727SOL    HW125140   1.982   7.392   5.394
 7727SOL    HW225141   1.906   7.443   5.259
 7728SOL     OW25142   3.581   6.171   5.555
 7728SOL    HW125143   3.555   6.260   5.519
 7728SOL    HW225144   3.579   6.103   5.482
 7729SOL     OW25145   3.224   6.730   4.269
 7729SOL    HW125146   3.307   6.701   4.221
 7729SOL    HW225147   3.175   6.797   4.213
 7730SOL     OW25148   2.412   5.782   4.609
 7730SOL    HW125149   2.407   5.777   4.709
 7730SOL    HW225150   2.414   5.878   4.580
 7731SOL     OW25151   2.870   7.042   4.201
 7731SOL    HW125152   2.824   7.114   4.149
 7731SOL    HW225153   2.866   7.062   4.299
 7732SOL     OW25154   2.213   7.387   4.577
 7732SOL    HW125155   2.263   7.301   4.583
 7732SOL    HW225156   2.278   7.464   4.574
 7733SOL     OW25157   3.657   6.652   4.597
 7733SOL    HW125158   3.595   6.637   4.521
 7733SOL    HW225159   3.605   6.663   4.682
 7734SOL     OW25160   3.089   7.136   5.230
 7734SOL    HW125161   3.095   7.059   5.294
 7734SOL    HW225162   3.037   7.110   5.150
 7735SOL     OW25163   2.183   6.529   3.966
 7735SOL    HW125164   2.265   6.568   3.924
 7735SOL    HW225165   2.156   6.447   3.917
 7736SOL     OW25166   3.320   6.321   4.452
 7736SOL    HW125167   3.315   6.256   4.527
 7736SOL    HW225168   3.400   6.380   4.465
 7737SOL     OW25169   2.323   6.852   5.451
 7737SOL    HW125170   2.273   6.853   5.365
 7737SOL    HW225171   2.260   6.834   5.527
 7738SOL     OW25172   2.973   7.362   3.961
 7738SOL    HW125173   2.913   7.300   4.011
 7738SOL    HW225174   3.004   7.318   3.876
 7739SOL     OW25175   2.064   5.871   5.222
 7739SOL    HW125176   1.984   5.931   5.209
 7739SOL    HW225177   2.054   5.822   5.308
 7740SOL     OW25178   3.494   6.963   3.805
 7740SOL    HW125179   3.462   7.057   3.795
 7740SOL    HW225180   3.418   6.900   3.793
 7741SOL     OW25181   2.326   7.329   4.047
 7741SOL    HW125182   2.359   7.368   4.133
 7741SOL    HW225183   2.402   7.322   3.982
 7742SOL     OW25184   2.111   7.371   4.965
 7742SOL    HW125185   2.168   7.306   5.015
 7742SOL    HW225186   2.095   7.338   4.872
 7743SOL     OW25187   2.802   7.284   4.628
 7743SOL    HW125188   2.882   7.227   4.649
 7743SOL    HW225189   2.753   7.244   4.551
 7744SOL     OW25190   2.244   6.286   4.204
 7744SOL    HW125191   2.289   6.196   4.201
 7744SOL    HW225192   2.150   6.275   4.237
 7745SOL     OW25193   3.409   5.808   5.453
 7745SOL    HW125194   3.404   5.845   5.545
 7745SOL    HW225195   3.337   5.739   5.441
 7746SOL     OW25196   2.750   7.100   4.919
 7746SOL    HW125197   2.727   7.075   4.825
 7746SOL    HW225198   2.811   7.031   4.958
 7747SOL     OW25199   3.213   6.176   5.157
 7747SOL    HW125200   3.241   6.133   5.242
 7747SOL    HW225201   3.238   6.272   5.158
 7748SOL     OW25202   2.665   6.988   4.648
 7748SOL    HW125203   2.755   7.002   4.606
 7748SOL    HW225204   2.594   6.990   4.577
 7749SOL     OW25205   2.401   5.650   4.236
 7749SOL    HW125206   2.320   5.651   4.294
 7749SOL    HW225207   2.404   5.733   4.181
 7750SOL     OW25208   3.296   6.774   3.765
 7750SOL    HW125209   3.328   6.698   3.822
 7750SOL    HW225210   3.204   6.801   3.795
 7751SOL     OW25211   2.159   5.621   3.895
 7751SOL    HW125212   2.208   5.705   3.874
 7751SOL    HW225213   2.221   5.556   3.940
 7752SOL     OW25214   3.089   7.156   4.517
 7752SOL    HW125215   3.110   7.230   4.452
 7752SOL    HW225216   3.157   7.156   4.590
 7753SOL     OW25217   2.321   6.738   4.465
 7753SOL    HW125218   2.250   6.711   4.530
 7753SOL    HW225219   2.295   6.710   4.372
 7754SOL     OW25220   3.133   7.383   4.315
 7754SOL    HW125221   3.177   7.447   4.251
 7754SOL    HW225222   3.083   7.435   4.385
 7755SOL     OW25223   1.940   6.142   5.110
 7755SOL    HW125224   2.032   6.141   5.069
 7755SOL    HW225225   1.934   6.216   5.177
 7756SOL     OW25226   2.423   5.808   4.871
 7756SOL    HW125227   2.461   5.724   4.908
 7756SOL    HW225228   2.335   5.827   4.915
 7757SOL     OW25229   2.879   5.625   4.477
 7757SOL    HW125230   2.807   5.630   4.408
 7757SOL    HW225231   2.855   5.556   4.546
 7758SOL     OW25232   3.719   6.419   4.101
 7758SOL    HW125233   3.761   6.355   4.165
 7758SOL    HW225234   3.681   6.368   4.023
 7759SOL     OW25235   2.350   6.971   3.898
 7759SOL    HW125236   2.263   6.956   3.945
 7759SOL    HW225237   2.333   6.997   3.803
 7760SOL     OW25238   3.526   6.866   4.381
 7760SOL    HW125239   3.625   6.874   4.395
 7760SOL    HW225240   3.481   6.950   4.412
 7761SOL     OW25241   3.616   6.809   5.312
 7761SOL    HW125242   3.707   6.770   5.299
 7761SOL    HW225243   3.624   6.905   5.336
 7762SOL     OW25244   2.926   6.933   5.064
 7762SOL    HW125245   2.846   6.910   5.119
 7762SOL    HW225246   3.009   6.907   5.113
 7763SOL     OW25247   3.454   7.215   5.349
 7763SOL    HW125248   3.481   7.249   5.259
 7763SOL    HW225249   3.533   7.177   5.395
 7764SOL     OW25250   2.973   6.781   4.824
 7764SOL    HW125251   2.933   6.825   4.905
 7764SOL    HW225252   2.932   6.818   4.741
 7765SOL     OW25253   3.500   6.685   4.803
 7765SOL    HW125254   3.505   6.766   4.862
 7765SOL    HW225255   3.414   6.687   4.752
 7766SOL     OW25256   2.842   6.702   5.443
 7766SOL    HW125257   2.743   6.708   5.453
 7766SOL    HW225258   2.865   6.622   5.387
 7767SOL     OW25259   2.567   6.636   4.092
 7767SOL    HW125260   2.553   6.643   4.191
 7767SOL    HW225261   2.651   6.585   4.074
 7768SOL     OW25262   2.272   6.399   4.975
 7768SOL    HW125263   2.358   6.411   5.025
 7768SOL    HW225264   2.230   6.312   5.002
 7769SOL     OW25265   3.136   5.972   4.986
 7769SOL    HW125266   3.157   6.046   5.050
 7769SOL    HW225267   3.047   5.989   4.943
 7770SOL     OW25268   1.926   7.150   5.055
 7770SOL    HW125269   1.880   7.232   5.021
 7770SOL    HW225270   2.024   7.169   5.064
 7771SOL     OW25271   2.229   6.686   4.225
 7771SOL    HW125272   2.222   6.769   4.169
 7771SOL    HW225273   2.233   6.606   4.165
 7772SOL     OW25274   3.114   6.934   4.112
 7772SOL    HW125275   3.164   7.011   4.152
 7772SOL    HW225276   3.019   6.936   4.144
 7773SOL     OW25277   3.134   7.031   4.866
 7773SOL    HW125278   3.181   7.044   4.953
 7773SOL    HW225279   3.068   6.957   4.875
 7774SOL     OW25280   3.444   6.225   4.196
 7774SOL    HW125281   3.413   6.286   4.269
 7774SOL    HW225282   3.494   6.277   4.127
 7775SOL     OW25283   2.216   7.096   5.053
 7775SOL    HW125284   2.195   7.052   4.966
 7775SOL    HW225285   2.313   7.122   5.056
 7776SOL     OW25286   2.875   5.691   5.494
 7776SOL    HW125287   2.881   5.776   5.442
 7776SOL    HW225288   2.907   5.615   5.437
 7777SOL     OW25289   2.366   5.636   5.464
 7777SOL    HW125290   2.324   5.579   5.394
 7777SOL    HW225291   2.300   5.705   5.496
 7778SOL     OW25292   2.435   6.456   4.753
 7778SOL    HW125293   2.479   6.545   4.744
 7778SOL    HW225294   2.372   6.456   4.830
 7779SOL     OW25295   2.169   5.799   4.955
 7779SOL    HW125296   2.146   5.836   5.045
 7779SOL    HW225297   2.139   5.704   4.949
 7780SOL     OW25298   1.899   6.896   5.006
 7780SOL    HW125299   1.952   6.847   5.074
 7780SOL    HW225300   1.921   6.994   5.011
 7781SOL     OW25301   3.590   6.521   5.578
 7781SOL    HW125302   3.544   6.514   5.489
 7781SOL    HW225303   3.528   6.565   5.644
 7782SOL     OW25304   2.169   5.649   4.342
 7782SOL    HW125305   2.158   5.743   4.375
 7782SOL    HW225306   2.164   5.586   4.419
 7783SOL     OW25307   3.484   5.953   4.098
 7783SOL    HW125308   3.486   5.877   4.162
 7783SOL    HW225309   3.436   6.030   4.138
 7784SOL     OW25310   2.842   7.159   5.424
 7784SOL    HW125311   2.822   7.203   5.336
 7784SOL    HW225312   2.881   7.068   5.408
 7785SOL     OW25313   3.721   7.104   5.329
 7785SOL    HW125314   3.735   7.131   5.234
 7785SOL    HW225315   3.804   7.126   5.382
 7786SOL     OW25316   2.212   6.484   5.528
 7786SOL    HW125317   2.288   6.528   5.576
 7786SOL    HW225318   2.247   6.437   5.446
 7787SOL     OW25319   3.402   5.860   3.849
 7787SOL    HW125320   3.341   5.785   3.872
 7787SOL    HW225321   3.424   5.912   3.932
 7788SOL     OW25322   3.165   6.424   3.766
 7788SOL    HW125323   3.199   6.331   3.781
 7788SOL    HW225324   3.183   6.451   3.671
 7789SOL     OW25325   2.930   6.919   4.573
 7789SOL    HW125326   2.937   6.835   4.518
 7789SOL    HW225327   2.992   6.988   4.537
 7790SOL     OW25328   2.181   6.396   4.673
 7790SOL    HW125329   2.274   6.432   4.678
 7790SOL    HW225330   2.175   6.311   4.725
 7791SOL     OW25331   2.201   6.095   4.730
 7791SOL    HW125332   2.149   6.012   4.713
 7791SOL    HW225333   2.278   6.100   4.666
 7792SOL     OW25334   3.000   5.966   5.402
 7792SOL    HW125335   2.955   6.029   5.466
 7792SOL    HW225336   3.093   5.997   5.385
 7793SOL     OW25337   1.870   6.912   3.924
 7793SOL    HW125338   1.777   6.933   3.893
 7793SOL    HW225339   1.880   6.813   3.937
 7794SOL     OW25340   1.950   7.387   4.651
 7794SOL    HW125341   1.908   7.301   4.624
 7794SOL    HW225342   2.044   7.390   4.617
 7795SOL     OW25343   2.366   7.154   4.634
 7795SOL    HW125344   2.432   7.228   4.643
 7795SOL    HW225345   2.410   7.075   4.592
 7796SOL     OW25346   1.902   6.130   4.838
 7796SOL    HW125347   1.987   6.097   4.797
 7796SOL    HW225348   1.915   6.145   4.936
 7797SOL     OW25349   2.051   6.106   5.446
 7797SOL    HW125350   2.110   6.066   5.376
 7797SOL    HW225351   1.993   6.177   5.405
 7798SOL     OW25352   3.231   6.536   5.384
 7798SOL    HW125353   3.270   6.625   5.404
 7798SOL    HW225354   3.241   6.516   5.287
 7799SOL     OW25355   3.519   6.190   4.930
 7799SOL    HW125356   3.481   6.121   4.992
 7799SOL    HW225357   3.601   6.154   4.886
 7800SOL     OW25358   2.114   7.150   5.468
 7800SOL    HW125359   2.084   7.207   5.544
 7800SOL    HW225360   2.107   7.053   5.494
 7801SOL     OW25361   2.533   6.050   4.993
 7801SOL    HW125362   2.499   5.961   4.963
 7801SOL    HW225363   2.559   6.104   4.913
 7802SOL     OW25364   2.792   7.264   5.189
 7802SOL    HW125365   2.768   7.246   5.094
 7802SOL    HW225366   2.822   7.358   5.199
 7803SOL     OW25367   2.335   6.086   3.915
 7803SOL    HW125368   2.396   6.166   3.919
 7803SOL    HW225369   2.240   6.117   3.922
 7804SOL     OW25370   2.021   6.723   5.190
 7804SOL    HW125371   2.043   6.662   5.266
 7804SOL    HW225372   2.031   6.674   5.104
 7805SOL     OW25373   3.209   6.645   4.958
 7805SOL    HW125374   3.233   6.582   4.884
 7805SOL    HW225375   3.119   6.685   4.940
 7806SOL     OW25376   3.164   6.441   4.033
 7806SOL    HW125377   3.078   6.410   4.075
 7806SOL    HW225378   3.160   6.427   3.934
 7807SOL     OW25379   3.621   7.333   4.878
 7807SOL    HW125380   3.682   7.363   4.805
 7807SOL    HW225381   3.583   7.244   4.856
 7808SOL     OW25382   3.114   7.317   4.852
 7808SOL    HW125383   3.198   7.322   4.798
 7808SOL    HW225384   3.091   7.221   4.870
 7809SOL     OW25385   1.945   6.844   4.746
 7809SOL    HW125386   1.940   6.843   4.846
 7809SOL    HW225387   1.862   6.803   4.708
 7810SOL     OW25388   2.550   7.248   5.440
 7810SOL    HW125389   2.494   7.329   5.449
 7810SOL    HW225390   2.602   7.252   5.354
 7811SOL     OW25391   3.588   5.721   4.247
 7811SOL    HW125392   3.661   5.704   4.180
 7811SOL    HW225393   3.557   5.634   4.285
 7812SOL     OW25394   3.250   7.159   4.201
 7812SOL    HW125395   3.317   7.171   4.127
 7812SOL    HW225396   3.210   7.248   4.224
 7813SOL     OW25397   1.992   7.380   5.575
 7813SOL    HW125398   1.951   7.306   5.628
 7813SOL    HW225399   2.056   7.431   5.633
 7814SOL     OW25400   2.692   6.859   5.146
 7814SOL    HW125401   2.687   6.892   5.241
 7814SOL    HW225402   2.606   6.878   5.100
 7815SOL     OW25403   2.534   7.202   3.878
 7815SOL    HW125404   2.543   7.212   3.779
 7815SOL    HW225405   2.494   7.113   3.899
 7816SOL     OW25406   3.512   7.306   5.118
 7816SOL    HW125407   3.565   7.316   5.034
 7816SOL    HW225408   3.485   7.396   5.152
 7817SOL     OW25409   3.703   5.761   4.687
 7817SOL    HW125410   3.742   5.676   4.651
 7817SOL    HW225411   3.605   5.763   4.668
 7818SOL     OW25412   2.125   5.912   4.444
 7818SOL    HW125413   2.046   5.963   4.410
 7818SOL    HW225414   2.116   5.897   4.542
 7819SOL     OW25415   3.056   7.198   3.755
 7819SOL    HW125416   3.062   7.105   3.792
 7819SOL    HW225417   2.997   7.198   3.675
 7820SOL     OW25418   2.778   6.496   4.015
 7820SOL    HW125419   2.841   6.534   3.947
 7820SOL    HW225420   2.818   6.413   4.054
 7821SOL     OW25421   3.366   7.193   3.768
 7821SOL    HW125422   3.274   7.230   3.775
 7821SOL    HW225423   3.404   7.213   3.678
 7822SOL     OW25424   2.234   6.874   5.214
 7822SOL    HW125425   2.221   6.967   5.180
 7822SOL    HW225426   2.150   6.822   5.201
 7823SOL     OW25427   3.476   6.878   5.013
 7823SOL    HW125428   3.536   6.881   5.093
 7823SOL    HW225429   3.401   6.942   5.026
 7824SOL     OW25430   2.901   6.684   4.420
 7824SOL    HW125431   2.831   6.637   4.474
 7824SOL    HW225432   2.960   6.616   4.377
 7825SOL     OW25433   2.876   5.822   4.695
 7825SOL    HW125434   2.868   5.786   4.602
 7825SOL    HW225435   2.874   5.746   4.760
 7826SOL     OW25436   2.452   7.073   4.215
 7826SOL    HW125437   2.494   7.015   4.145
 7826SOL    HW225438   2.408   7.152   4.171
 7827SOL     OW25439   3.571   5.971   5.105
 7827SOL    HW125440   3.644   6.040   5.109
 7827SOL    HW225441   3.599   5.896   5.046
 7828SOL     OW25442   2.117   6.934   4.014
 7828SOL    HW125443   2.021   6.935   3.987
 7828SOL    HW225444   2.129   6.987   4.098
 7829SOL     OW25445   1.967   6.599   5.450
 7829SOL    HW125446   1.890   6.566   5.504
 7829SOL    HW225447   2.052   6.569   5.492
 7830SOL     OW25448   2.534   5.789   5.213
 7830SOL    HW125449   2.624   5.773   5.173
 7830SOL    HW225450   2.542   5.794   5.312
 7831SOL     OW25451   1.937   5.931   3.757
 7831SOL    HW125452   1.845   5.903   3.728
 7831SOL    HW225453   1.968   6.008   3.701
 7832SOL     OW25454   3.302   6.442   5.122
 7832SOL    HW125455   3.245   6.494   5.059
 7832SOL    HW225456   3.398   6.454   5.098
 7833SOL     OW25457   1.934   5.752   4.042
 7833SOL    HW125458   1.917   5.835   3.988
 7833SOL    HW225459   2.024   5.715   4.020
 7834SOL     OW25460   3.045   6.921   3.843
 7834SOL    HW125461   2.946   6.910   3.845
 7834SOL    HW225462   3.079   6.936   3.936
 7835SOL     OW25463   3.355   7.353   4.683
 7835SOL    HW125464   3.388   7.417   4.614
 7835SOL    HW225465   3.421   7.347   4.758
 7836SOL     OW25466   3.312   6.806   5.357
 7836SOL    HW125467   3.303   6.796   5.456
 7836SOL    HW225468   3.408   6.799   5.331
 7837SOL     OW25469   2.252   7.327   5.284
 7837SOL    HW125470   2.161   7.368   5.282
 7837SOL    HW225471   2.245   7.233   5.316
 7838SOL     OW25472   3.536   6.469   4.978
 7838SOL    HW125473   3.509   6.380   4.941
 7838SOL    HW225474   3.537   6.537   4.905
 7839SOL     OW25475   3.639   5.928   5.366
 7839SOL    HW125476   3.622   5.959   5.272
 7839SOL    HW225477   3.555   5.891   5.404
 7840SOL     OW25478   3.592   6.520   5.241
 7840SOL    HW125479   3.630   6.611   5.256
 7840SOL    HW225480   3.584   6.503   5.142
 7841SOL     OW25481   2.721   6.960   3.740
 7841SOL    HW125482   2.675   6.975   3.828
 7841SOL    HW225483   2.765   7.045   3.710
 7842SOL     OW25484   2.523   7.376   4.677
 7842SOL    HW125485   2.477   7.464   4.664
 7842SOL    HW225486   2.622   7.388   4.670
 7843SOL     OW25487   3.270   7.437   5.444
 7843SOL    HW125488   3.174   7.426   5.417
 7843SOL    HW225489   3.326   7.370   5.396
 7844SOL     OW25490   2.721   6.542   4.585
 7844SOL    HW125491   2.775   6.473   4.633
 7844SOL    HW225492   2.689   6.611   4.651
 7845SOL     OW25493   2.945   6.570   3.811
 7845SOL    HW125494   2.922   6.623   3.729
 7845SOL    HW225495   3.026   6.514   3.792
 7846SOL     OW25496   3.723   7.155   4.575
 7846SOL    HW125497   3.652   7.143   4.505
 7846SOL    HW225498   3.724   7.076   4.635
 7847SOL     OW25499   2.083   6.900   5.568
 7847SOL    HW125500   2.018   6.827   5.547
 7847SOL    HW225501   2.087   6.914   5.666
 7848SOL     OW25502   1.941   6.826   4.377
 7848SOL    HW125503   1.940   6.779   4.465
 7848SOL    HW225504   2.023   6.798   4.326
 7849SOL     OW25505   2.534   6.977   5.348
 7849SOL    HW125506   2.456   6.927   5.386
 7849SOL    HW225507   2.531   7.072   5.379
 7850SOL     OW25508   3.686   5.778   4.951
 7850SOL    HW125509   3.682   5.688   4.995
 7850SOL    HW225510   3.689   5.767   4.852
 7851SOL     OW25511   2.290   6.010   4.244
 7851SOL    HW125512   2.320   5.938   4.182
 7851SOL    HW225513   2.251   5.970   4.327
 7852SOL     OW25514   3.567   7.073   4.828
 7852SOL    HW125515   3.474   7.048   4.801
 7852SOL    HW225516   3.593   7.023   4.910
 7853SOL     OW25517   2.179   6.133   5.004
 7853SOL    HW125518   2.217   6.074   5.076
 7853SOL    HW225519   2.219   6.107   4.916
 7854SOL     OW25520   2.674   7.172   4.411
 7854SOL    HW125521   2.706   7.182   4.317
 7854SOL    HW225522   2.595   7.110   4.413
 7855SOL     OW25523   3.286   5.800   4.836
 7855SOL    HW125524   3.338   5.735   4.891
 7855SOL    HW225525   3.237   5.863   4.897
 7856SOL     OW25526   2.632   6.916   4.025
 7856SOL    HW125527   2.586   6.829   4.042
 7856SOL    HW225528   2.723   6.913   4.066
 7857SOL     OW25529   2.480   7.153   5.008
 7857SOL    HW125530   2.475   7.235   5.065
 7857SOL    HW225531   2.569   7.150   4.963
 7858SOL     OW25532   3.214   5.638   3.892
 7858SOL    HW125533   3.249   5.597   3.808
 7858SOL    HW225534   3.124   5.600   3.912
 7859SOL     OW25535   3.455   5.807   4.606
 7859SOL    HW125536   3.371   5.806   4.660
 7859SOL    HW225537   3.457   5.890   4.550
 7860SOL     OW25538   1.901   6.663   4.024
 7860SOL    HW125539   2.000   6.652   4.015
 7860SOL    HW225540   1.861   6.577   4.056
 7861SOL     OW25541   2.737   7.232   4.061
 7861SOL    HW125542   2.660   7.197   4.007
 7861SOL    HW225543   2.705   7.303   4.123
 7862SOL     OW25544   2.092   6.214   5.699
 7862SOL    HW125545   1.999   6.212   5.736
 7862SOL    HW225546   2.093   6.175   5.607
 7863SOL     OW25547   2.087   5.861   6.582
 7863SOL    HW125548   2.122   5.844   6.674
 7863SOL    HW225549   1.999   5.816   6.570
 7864SOL     OW25550   1.881   5.954   6.233
 7864SOL    HW125551   1.799   5.997   6.272
 7864SOL    HW225552   1.853   5.881   6.170
 7865SOL     OW25553   3.417   7.097   6.289
 7865SOL    HW125554   3.360   7.081   6.370
 7865SOL    HW225555   3.358   7.107   6.209
 7866SOL     OW25556   3.605   6.204   6.442
 7866SOL    HW125557   3.638   6.298   6.442
 7866SOL    HW225558   3.656   6.150   6.508
 7867SOL     OW25559   3.617   6.193   5.817
 7867SOL    HW125560   3.605   6.180   5.718
 7867SOL    HW225561   3.587   6.112   5.866
 7868SOL     OW25562   2.547   6.598   6.251
 7868SOL    HW125563   2.616   6.582   6.321
 7868SOL    HW225564   2.474   6.655   6.289
 7869SOL     OW25565   2.548   6.747   7.389
 7869SOL    HW125566   2.608   6.826   7.403
 7869SOL    HW225567   2.462   6.778   7.348
 7870SOL     OW25568   2.197   7.021   6.647
 7870SOL    HW125569   2.119   6.990   6.594
 7870SOL    HW225570   2.255   7.079   6.590
 7871SOL     OW25571   3.322   7.091   6.925
 7871SOL    HW125572   3.346   7.185   6.951
 7871SOL    HW225573   3.306   7.037   7.007
 7872SOL     OW25574   2.300   5.978   7.085
 7872SOL    HW125575   2.382   5.922   7.094
 7872SOL    HW225576   2.219   5.920   7.089
 7873SOL     OW25577   3.465   6.033   6.323
 7873SOL    HW125578   3.391   6.079   6.273
 7873SOL    HW225579   3.516   6.101   6.376
 7874SOL     OW25580   2.093   7.299   6.069
 7874SOL    HW125581   2.127   7.376   6.123
 7874SOL    HW225582   2.137   7.299   5.979
 7875SOL     OW25583   2.989   6.927   7.276
 7875SOL    HW125584   3.036   6.927   7.364
 7875SOL    HW225585   2.941   6.840   7.265
 7876SOL     OW25586   2.092   7.020   6.124
 7876SOL    HW125587   2.066   7.116   6.124
 7876SOL    HW225588   2.021   6.966   6.169
 7877SOL     OW25589   2.102   6.677   6.472
 7877SOL    HW125590   2.116   6.593   6.524
 7877SOL    HW225591   2.047   6.741   6.527
 7878SOL     OW25592   2.482   7.372   7.025
 7878SOL    HW125593   2.390   7.355   7.060
 7878SOL    HW225594   2.510   7.464   7.051
 7879SOL     OW25595   2.468   6.550   5.709
 7879SOL    HW125596   2.475   6.634   5.655
 7879SOL    HW225597   2.514   6.563   5.797
 7880SOL     OW25598   3.456   5.700   7.066
 7880SOL    HW125599   3.438   5.767   6.994
 7880SOL    HW225600   3.453   5.746   7.155
 7881SOL     OW25601   1.984   6.229   6.149
 7881SOL    HW125602   1.939   6.141   6.166
 7881SOL    HW225603   1.983   6.283   6.233
 7882SOL     OW25604   3.704   7.353   5.945
 7882SOL    HW125605   3.758   7.324   6.025
 7882SOL    HW225606   3.734   7.443   5.916
 7883SOL     OW25607   1.889   7.182   5.703
 7883SOL    HW125608   1.870   7.086   5.724
 7883SOL    HW225609   1.856   7.240   5.778
 7884SOL     OW25610   3.551   6.508   6.198
 7884SOL    HW125611   3.646   6.479   6.206
 7884SOL    HW225612   3.543   6.573   6.123
 7885SOL     OW25613   3.503   6.694   6.018
 7885SOL    HW125614   3.589   6.696   5.966
 7885SOL    HW225615   3.517   6.741   6.106
 7886SOL     OW25616   1.975   6.323   7.183
 7886SOL    HW125617   2.063   6.310   7.228
 7886SOL    HW225618   1.962   6.420   7.161
 7887SOL     OW25619   2.475   6.951   6.312
 7887SOL    HW125620   2.426   6.864   6.321
 7887SOL    HW225621   2.452   6.994   6.225
 7888SOL     OW25622   3.155   6.814   7.009
 7888SOL    HW125623   3.192   6.741   6.951
 7888SOL    HW225624   3.207   6.819   7.094
 7889SOL     OW25625   2.671   5.590   6.088
 7889SOL    HW125626   2.711   5.681   6.079
 7889SOL    HW225627   2.571   5.598   6.094
 7890SOL     OW25628   2.059   6.562   6.850
 7890SOL    HW125629   2.148   6.517   6.836
 7890SOL    HW225630   1.986   6.497   6.831
 7891SOL     OW25631   3.387   6.585   5.776
 7891SOL    HW125632   3.324   6.509   5.789
 7891SOL    HW225633   3.435   6.603   5.862
 7892SOL     OW25634   3.049   7.378   7.202
 7892SOL    HW125635   3.073   7.438   7.126
 7892SOL    HW225636   3.056   7.283   7.172
 7893SOL     OW25637   2.179   5.837   7.387
 7893SOL    HW125638   2.250   5.908   7.393
 7893SOL    HW225639   2.091   5.876   7.415
 7894SOL     OW25640   3.328   7.003   6.539
 7894SOL    HW125641   3.269   7.009   6.619
 7894SOL    HW225642   3.313   6.915   6.493
 7895SOL     OW25643   3.529   7.300   6.158
 7895SOL    HW125644   3.488   7.277   6.070
 7895SOL    HW225645   3.511   7.226   6.223
 7896SOL     OW25646   2.460   6.315   5.856
 7896SOL    HW125647   2.484   6.384   5.788
 7896SOL    HW225648   2.382   6.348   5.910
 7897SOL     OW25649   3.143   5.931   6.530
 7897SOL    HW125650   3.057   5.881   6.517
 7897SOL    HW225651   3.205   5.877   6.586
 7898SOL     OW25652   3.438   7.248   5.893
 7898SOL    HW125653   3.527   7.294   5.896
 7898SOL    HW225654   3.417   7.224   5.798
 7899SOL     OW25655   2.669   6.191   7.051
 7899SOL    HW125656   2.622   6.188   7.140
 7899SOL    HW225657   2.618   6.136   6.985
 7900SOL     OW25658   3.256   6.055   7.260
 7900SOL    HW125659   3.236   6.098   7.348
 7900SOL    HW225660   3.334   5.993   7.269
 7901SOL     OW25661   1.938   6.397   6.375
 7901SOL    HW125662   2.037   6.385   6.384
 7901SOL    HW225663   1.914   6.492   6.396
 7902SOL     OW25664   1.992   7.407   7.157
 7902SOL    HW125665   1.982   7.392   7.256
 7902SOL    HW225666   1.906   7.443   7.121
 7903SOL     OW25667   3.581   6.171   7.417
 7903SOL    HW125668   3.555   6.260   7.381
 7903SOL    HW225669   3.579   6.103   7.344
 7904SOL     OW25670   2.412   5.782   6.471
 7904SOL    HW125671   2.407   5.777   6.571
 7904SOL    HW225672   2.414   5.878   6.442
 7905SOL     OW25673   2.870   7.042   6.063
 7905SOL    HW125674   2.824   7.114   6.011
 7905SOL    HW225675   2.866   7.062   6.161
 7906SOL     OW25676   2.213   7.387   6.439
 7906SOL    HW125677   2.263   7.301   6.445
 7906SOL    HW225678   2.278   7.464   6.436
 7907SOL     OW25679   3.657   6.652   6.459
 7907SOL    HW125680   3.595   6.637   6.383
 7907SOL    HW225681   3.605   6.663   6.544
 7908SOL     OW25682   3.089   7.136   7.092
 7908SOL    HW125683   3.095   7.059   7.156
 7908SOL    HW225684   3.037   7.110   7.012
 7909SOL     OW25685   2.183   6.529   5.828
 7909SOL    HW125686   2.265   6.568   5.786
 7909SOL    HW225687   2.156   6.447   5.779
 7910SOL     OW25688   3.320   6.321   6.314
 7910SOL    HW125689   3.315   6.256   6.389
 7910SOL    HW225690   3.400   6.380   6.327
 7911SOL     OW25691   2.323   6.852   7.313
 7911SOL    HW125692   2.273   6.853   7.227
 7911SOL    HW225693   2.260   6.834   7.389
 7912SOL     OW25694   2.973   7.362   5.823
 7912SOL    HW125695   2.913   7.300   5.873
 7912SOL    HW225696   3.004   7.318   5.738
 7913SOL     OW25697   2.064   5.871   7.084
 7913SOL    HW125698   1.984   5.931   7.071
 7913SOL    HW225699   2.054   5.822   7.170
 7914SOL     OW25700   3.494   6.963   5.667
 7914SOL    HW125701   3.462   7.057   5.657
 7914SOL    HW225702   3.418   6.900   5.655
 7915SOL     OW25703   2.326   7.329   5.909
 7915SOL    HW125704   2.359   7.368   5.995
 7915SOL    HW225705   2.402   7.322   5.844
 7916SOL     OW25706   3.262   5.693   6.012
 7916SOL    HW125707   3.238   5.656   5.922
 7916SOL    HW225708   3.361   5.709   6.016
 7917SOL     OW25709   2.111   7.371   6.827
 7917SOL    HW125710   2.168   7.306   6.877
 7917SOL    HW225711   2.095   7.338   6.734
 7918SOL     OW25712   2.802   7.284   6.490
 7918SOL    HW125713   2.882   7.227   6.511
 7918SOL    HW225714   2.753   7.244   6.413
 7919SOL     OW25715   3.409   5.808   7.315
 7919SOL    HW125716   3.404   5.845   7.407
 7919SOL    HW225717   3.337   5.739   7.303
 7920SOL     OW25718   2.476   5.708   5.703
 7920SOL    HW125719   2.574   5.686   5.710
 7920SOL    HW225720   2.445   5.691   5.610
 7921SOL     OW25721   2.643   5.850   7.335
 7921SOL    HW125722   2.710   5.789   7.378
 7921SOL    HW225723   2.570   5.869   7.400
 7922SOL     OW25724   2.750   7.100   6.781
 7922SOL    HW125725   2.727   7.075   6.687
 7922SOL    HW225726   2.811   7.031   6.820
 7923SOL     OW25727   3.213   6.176   7.019
 7923SOL    HW125728   3.241   6.133   7.104
 7923SOL    HW225729   3.238   6.272   7.020
 7924SOL     OW25730   2.665   6.988   6.510
 7924SOL    HW125731   2.755   7.002   6.468
 7924SOL    HW225732   2.594   6.990   6.439
 7925SOL     OW25733   2.784   6.089   6.485
 7925SOL    HW125734   2.759   6.080   6.389
 7925SOL    HW225735   2.832   6.007   6.516
 7926SOL     OW25736   2.401   5.650   6.098
 7926SOL    HW125737   2.320   5.651   6.156
 7926SOL    HW225738   2.404   5.733   6.043
 7927SOL     OW25739   3.296   6.774   5.627
 7927SOL    HW125740   3.328   6.698   5.684
 7927SOL    HW225741   3.204   6.801   5.657
 7928SOL     OW25742   2.159   5.621   5.757
 7928SOL    HW125743   2.208   5.705   5.736
 7928SOL    HW225744   2.221   5.556   5.802
 7929SOL     OW25745   2.938   6.269   7.050
 7929SOL    HW125746   2.858   6.208   7.053
 7929SOL    HW225747   3.019   6.216   7.026
 7930SOL     OW25748   3.089   7.156   6.379
 7930SOL    HW125749   3.110   7.230   6.314
 7930SOL    HW225750   3.157   7.156   6.452
 7931SOL     OW25751   2.321   6.738   6.327
 7931SOL    HW125752   2.250   6.711   6.392
 7931SOL    HW225753   2.295   6.710   6.234
 7932SOL     OW25754   3.133   7.383   6.177
 7932SOL    HW125755   3.177   7.447   6.113
 7932SOL    HW225756   3.083   7.435   6.247
 7933SOL     OW25757   1.940   6.142   6.972
 7933SOL    HW125758   2.032   6.141   6.931
 7933SOL    HW225759   1.934   6.216   7.039
 7934SOL     OW25760   2.423   5.808   6.733
 7934SOL    HW125761   2.461   5.724   6.770
 7934SOL    HW225762   2.335   5.827   6.777
 7935SOL     OW25763   2.879   5.625   6.339
 7935SOL    HW125764   2.807   5.630   6.270
 7935SOL    HW225765   2.855   5.556   6.408
 7936SOL     OW25766   3.328   6.176   6.578
 7936SOL    HW125767   3.298   6.081   6.585
 7936SOL    HW225768   3.401   6.192   6.644
 7937SOL     OW25769   3.719   6.419   5.963
 7937SOL    HW125770   3.761   6.355   6.027
 7937SOL    HW225771   3.681   6.368   5.885
 7938SOL     OW25772   2.350   6.971   5.760
 7938SOL    HW125773   2.263   6.956   5.807
 7938SOL    HW225774   2.333   6.997   5.665
 7939SOL     OW25775   3.526   6.866   6.243
 7939SOL    HW125776   3.625   6.874   6.257
 7939SOL    HW225777   3.481   6.950   6.274
 7940SOL     OW25778   2.389   5.842   5.914
 7940SOL    HW125779   2.416   5.783   5.839
 7940SOL    HW225780   2.389   5.937   5.883
 7941SOL     OW25781   3.616   6.809   7.174
 7941SOL    HW125782   3.707   6.770   7.161
 7941SOL    HW225783   3.624   6.905   7.198
 7942SOL     OW25784   2.926   6.933   6.926
 7942SOL    HW125785   2.846   6.910   6.981
 7942SOL    HW225786   3.009   6.907   6.975
 7943SOL     OW25787   3.454   7.215   7.211
 7943SOL    HW125788   3.481   7.249   7.121
 7943SOL    HW225789   3.533   7.177   7.257
 7944SOL     OW25790   3.500   6.685   6.665
 7944SOL    HW125791   3.505   6.766   6.724
 7944SOL    HW225792   3.414   6.687   6.614
 7945SOL     OW25793   2.777   5.675   6.988
 7945SOL    HW125794   2.802   5.655   6.893
 7945SOL    HW225795   2.849   5.731   7.030
 7946SOL     OW25796   2.567   6.636   5.954
 7946SOL    HW125797   2.553   6.643   6.053
 7946SOL    HW225798   2.651   6.585   5.936
 7947SOL     OW25799   2.272   6.399   6.837
 7947SOL    HW125800   2.358   6.411   6.887
 7947SOL    HW225801   2.230   6.312   6.864
 7948SOL     OW25802   3.136   5.972   6.848
 7948SOL    HW125803   3.157   6.046   6.912
 7948SOL    HW225804   3.047   5.989   6.805
 7949SOL     OW25805   1.926   7.150   6.917
 7949SOL    HW125806   1.880   7.232   6.883
 7949SOL    HW225807   2.024   7.169   6.926
 7950SOL     OW25808   2.229   6.686   6.087
 7950SOL    HW125809   2.222   6.769   6.031
 7950SOL    HW225810   2.233   6.606   6.027
 7951SOL     OW25811   3.114   6.934   5.974
 7951SOL    HW125812   3.164   7.011   6.014
 7951SOL    HW225813   3.019   6.936   6.006
 7952SOL     OW25814   3.134   7.031   6.728
 7952SOL    HW125815   3.181   7.044   6.815
 7952SOL    HW225816   3.068   6.957   6.737
 7953SOL     OW25817   3.444   6.225   6.058
 7953SOL    HW125818   3.413   6.286   6.131
 7953SOL    HW225819   3.494   6.277   5.989
 7954SOL     OW25820   2.216   7.096   6.915
 7954SOL    HW125821   2.195   7.052   6.828
 7954SOL    HW225822   2.313   7.122   6.918
 7955SOL     OW25823   2.875   5.691   7.356
 7955SOL    HW125824   2.881   5.776   7.304
 7955SOL    HW225825   2.907   5.615   7.299
 7956SOL     OW25826   2.366   5.636   7.326
 7956SOL    HW125827   2.324   5.579   7.256
 7956SOL    HW225828   2.300   5.705   7.358
 7957SOL     OW25829   2.435   6.456   6.615
 7957SOL    HW125830   2.479   6.545   6.606
 7957SOL    HW225831   2.372   6.456   6.692
 7958SOL     OW25832   2.169   5.799   6.817
 7958SOL    HW125833   2.146   5.836   6.907
 7958SOL    HW225834   2.139   5.704   6.811
 7959SOL     OW25835   1.899   6.896   6.868
 7959SOL    HW125836   1.952   6.847   6.936
 7959SOL    HW225837   1.921   6.994   6.873
 7960SOL     OW25838   2.594   6.220   6.650
 7960SOL    HW125839   2.653   6.194   6.574
 7960SOL    HW225840   2.566   6.316   6.639
 7961SOL     OW25841   3.590   6.521   7.440
 7961SOL    HW125842   3.544   6.514   7.351
 7961SOL    HW225843   3.528   6.565   7.506
 7962SOL     OW25844   2.169   5.649   6.204
 7962SOL    HW125845   2.158   5.743   6.237
 7962SOL    HW225846   2.164   5.586   6.281
 7963SOL     OW25847   3.484   5.953   5.960
 7963SOL    HW125848   3.486   5.877   6.024
 7963SOL    HW225849   3.436   6.030   6.000
 7964SOL     OW25850   2.842   7.159   7.286
 7964SOL    HW125851   2.822   7.203   7.198
 7964SOL    HW225852   2.881   7.068   7.270
 7965SOL     OW25853   3.721   7.104   7.191
 7965SOL    HW125854   3.735   7.131   7.096
 7965SOL    HW225855   3.804   7.126   7.244
 7966SOL     OW25856   2.212   6.484   7.390
 7966SOL    HW125857   2.288   6.528   7.438
 7966SOL    HW225858   2.247   6.437   7.308
 7967SOL     OW25859   3.402   5.860   5.711
 7967SOL    HW125860   3.341   5.785   5.734
 7967SOL    HW225861   3.424   5.912   5.794
 7968SOL     OW25862   2.930   6.919   6.435
 7968SOL    HW125863   2.937   6.835   6.380
 7968SOL    HW225864   2.992   6.988   6.399
 7969SOL     OW25865   2.181   6.396   6.535
 7969SOL    HW125866   2.274   6.432   6.540
 7969SOL    HW225867   2.175   6.311   6.587
 7970SOL     OW25868   2.201   6.095   6.592
 7970SOL    HW125869   2.149   6.012   6.575
 7970SOL    HW225870   2.278   6.100   6.528
 7971SOL     OW25871   3.000   5.966   7.264
 7971SOL    HW125872   2.955   6.029   7.328
 7971SOL    HW225873   3.093   5.997   7.247
 7972SOL     OW25874   3.022   5.793   7.063
 7972SOL    HW125875   3.022   5.857   7.140
 7972SOL    HW225876   3.050   5.841   6.980
 7973SOL     OW25877   1.870   6.912   5.786
 7973SOL    HW125878   1.777   6.933   5.755
 7973SOL    HW225879   1.880   6.813   5.799
 7974SOL     OW25880   1.950   7.387   6.513
 7974SOL    HW125881   1.908   7.301   6.486
 7974SOL    HW225882   2.044   7.390   6.479
 7975SOL     OW25883   2.366   7.154   6.496
 7975SOL    HW125884   2.432   7.228   6.505
 7975SOL    HW225885   2.410   7.075   6.454
 7976SOL     OW25886   1.902   6.130   6.700
 7976SOL    HW125887   1.987   6.097   6.659
 7976SOL    HW225888   1.915   6.145   6.798
 7977SOL     OW25889   2.051   6.106   7.308
 7977SOL    HW125890   2.110   6.066   7.238
 7977SOL    HW225891   1.993   6.177   7.267
 7978SOL     OW25892   3.519   6.190   6.792
 7978SOL    HW125893   3.481   6.121   6.854
 7978SOL    HW225894   3.601   6.154   6.748
 7979SOL     OW25895   2.114   7.150   7.330
 7979SOL    HW125896   2.084   7.207   7.406
 7979SOL    HW225897   2.107   7.053   7.356
 7980SOL     OW25898   2.533   6.050   6.855
 7980SOL    HW125899   2.499   5.961   6.825
 7980SOL    HW225900   2.559   6.104   6.775
 7981SOL     OW25901   2.792   7.264   7.051
 7981SOL    HW125902   2.768   7.246   6.956
 7981SOL    HW225903   2.822   7.358   7.061
 7982SOL     OW25904   2.335   6.086   5.777
 7982SOL    HW125905   2.396   6.166   5.781
 7982SOL    HW225906   2.240   6.117   5.784
 7983SOL     OW25907   2.021   6.723   7.052
 7983SOL    HW125908   2.043   6.662   7.128
 7983SOL    HW225909   2.031   6.674   6.966
 7984SOL     OW25910   3.209   6.645   6.820
 7984SOL    HW125911   3.233   6.582   6.746
 7984SOL    HW225912   3.119   6.685   6.802
 7985SOL     OW25913   3.164   6.441   5.895
 7985SOL    HW125914   3.078   6.410   5.937
 7985SOL    HW225915   3.160   6.427   5.796
 7986SOL     OW25916   3.621   7.333   6.740
 7986SOL    HW125917   3.682   7.363   6.667
 7986SOL    HW225918   3.583   7.244   6.718
 7987SOL     OW25919   3.114   7.317   6.714
 7987SOL    HW125920   3.198   7.322   6.660
 7987SOL    HW225921   3.091   7.221   6.732
 7988SOL     OW25922   1.945   6.844   6.608
 7988SOL    HW125923   1.940   6.843   6.708
 7988SOL    HW225924   1.862   6.803   6.570
 7989SOL     OW25925   2.550   7.248   7.302
 7989SOL    HW125926   2.494   7.329   7.311
 7989SOL    HW225927   2.602   7.252   7.216
 7990SOL     OW25928   2.765   5.672   5.719
 7990SOL    HW125929   2.816   5.673   5.633
 7990SOL    HW225930   2.821   5.630   5.790
 7991SOL     OW25931   3.588   5.721   6.109
 7991SOL    HW125932   3.661   5.704   6.042
 7991SOL    HW225933   3.557   5.634   6.147
 7992SOL     OW25934   3.250   7.159   6.063
 7992SOL    HW125935   3.317   7.171   5.989
 7992SOL    HW225936   3.210   7.248   6.086
 7993SOL     OW25937   1.992   7.380   7.437
 7993SOL    HW125938   1.951   7.306   7.490
 7993SOL    HW225939   2.056   7.431   7.495
 7994SOL     OW25940   2.534   7.202   5.740
 7994SOL    HW125941   2.543   7.212   5.641
 7994SOL    HW225942   2.494   7.113   5.761
 7995SOL     OW25943   3.512   7.306   6.980
 7995SOL    HW125944   3.565   7.316   6.896
 7995SOL    HW225945   3.485   7.396   7.014
 7996SOL     OW25946   3.703   5.761   6.549
 7996SOL    HW125947   3.742   5.676   6.513
 7996SOL    HW225948   3.605   5.763   6.530
 7997SOL     OW25949   2.125   5.912   6.306
 7997SOL    HW125950   2.046   5.963   6.272
 7997SOL    HW225951   2.116   5.897   6.404
 7998SOL     OW25952   3.056   7.198   5.617
 7998SOL    HW125953   3.062   7.105   5.654
 7998SOL    HW225954   2.997   7.198   5.537
 7999SOL     OW25955   3.366   7.193   5.630
 7999SOL    HW125956   3.274   7.230   5.637
 7999SOL    HW225957   3.404   7.213   5.540
 8000SOL     OW25958   2.234   6.874   7.076
 8000SOL    HW125959   2.221   6.967   7.042
 8000SOL    HW225960   2.150   6.822   7.063
 8001SOL     OW25961   3.476   6.878   6.875
 8001SOL    HW125962   3.536   6.881   6.955
 8001SOL    HW225963   3.401   6.942   6.888
 8002SOL     OW25964   2.901   6.684   6.282
 8002SOL    HW125965   2.831   6.637   6.336
 8002SOL    HW225966   2.960   6.616   6.239
 8003SOL     OW25967   2.876   5.822   6.557
 8003SOL    HW125968   2.868   5.786   6.464
 8003SOL    HW225969   2.874   5.746   6.622
 8004SOL     OW25970   2.452   7.073   6.077
 8004SOL    HW125971   2.494   7.015   6.007
 8004SOL    HW225972   2.408   7.152   6.033
 8005SOL     OW25973   3.571   5.971   6.967
 8005SOL    HW125974   3.644   6.040   6.971
 8005SOL    HW225975   3.599   5.896   6.908
 8006SOL     OW25976   2.117   6.934   5.876
 8006SOL    HW125977   2.021   6.935   5.849
 8006SOL    HW225978   2.129   6.987   5.960
 8007SOL     OW25979   1.967   6.599   7.312
 8007SOL    HW125980   1.890   6.566   7.366
 8007SOL    HW225981   2.052   6.569   7.354
 8008SOL     OW25982   2.534   5.789   7.075
 8008SOL    HW125983   2.624   5.773   7.035
 8008SOL    HW225984   2.542   5.794   7.174
 8009SOL     OW25985   1.937   5.931   5.619
 8009SOL    HW125986   1.845   5.903   5.590
 8009SOL    HW225987   1.968   6.008   5.563
 8010SOL     OW25988   1.934   5.752   5.904
 8010SOL    HW125989   1.917   5.835   5.850
 8010SOL    HW225990   2.024   5.715   5.882
 8011SOL     OW25991   3.045   6.921   5.705
 8011SOL    HW125992   2.946   6.910   5.707
 8011SOL    HW225993   3.079   6.936   5.798
 8012SOL     OW25994   3.355   7.353   6.545
 8012SOL    HW125995   3.388   7.417   6.476
 8012SOL    HW225996   3.421   7.347   6.620
 8013SOL     OW25997   3.312   6.806   7.219
 8013SOL    HW125998   3.303   6.796   7.318
 8013SOL    HW225999   3.408   6.799   7.193
 8014SOL     OW26000   2.252   7.327   7.146
 8014SOL    HW126001   2.161   7.368   7.144
 8014SOL    HW226002   2.245   7.233   7.178
 8015SOL     OW26003   3.536   6.469   6.840
 8015SOL    HW126004   3.509   6.380   6.803
 8015SOL    HW226005   3.537   6.537   6.767
 8016SOL     OW26006   3.639   5.928   7.228
 8016SOL    HW126007   3.622   5.959   7.134
 8016SOL    HW226008   3.555   5.891   7.266
 8017SOL     OW26009   3.592   6.520   7.103
 8017SOL    HW126010   3.630   6.611   7.118
 8017SOL    HW226011   3.584   6.503   7.004
 8018SOL     OW26012   2.721   6.960   5.602
 8018SOL    HW126013   2.675   6.975   5.690
 8018SOL    HW226014   2.765   7.045   5.572
 8019SOL     OW26015   2.523   7.376   6.539
 8019SOL    HW126016   2.477   7.464   6.526
 8019SOL    HW226017   2.622   7.388   6.532
 8020SOL     OW26018   3.270   7.437   7.306
 8020SOL    HW126019   3.174   7.426   7.279
 8020SOL    HW226020   3.326   7.370   7.258
 8021SOL     OW26021   2.721   6.542   6.447
 8021SOL    HW126022   2.775   6.473   6.495
 8021SOL    HW226023   2.689   6.611   6.513
 8022SOL     OW26024   2.945   6.570   5.673
 8022SOL    HW126025   2.922   6.623   5.591
 8022SOL    HW226026   3.026   6.514   5.654
 8023SOL     OW26027   3.723   7.155   6.437
 8023SOL    HW126028   3.652   7.143   6.367
 8023SOL    HW226029   3.724   7.076   6.497
 8024SOL     OW26030   2.083   6.900   7.430
 8024SOL    HW126031   2.018   6.827   7.409
 8024SOL    HW226032   2.087   6.914   7.528
 8025SOL     OW26033   1.941   6.826   6.239
 8025SOL    HW126034   1.940   6.779   6.327
 8025SOL    HW226035   2.023   6.798   6.188
 8026SOL     OW26036   2.534   6.977   7.210
 8026SOL    HW126037   2.456   6.927   7.248
 8026SOL    HW226038   2.531   7.072   7.241
 8027SOL     OW26039   3.686   5.778   6.813
 8027SOL    HW126040   3.682   5.688   6.857
 8027SOL    HW226041   3.689   5.767   6.714
 8028SOL     OW26042   2.290   6.010   6.106
 8028SOL    HW126043   2.320   5.938   6.044
 8028SOL    HW226044   2.251   5.970   6.189
 8029SOL     OW26045   3.567   7.073   6.690
 8029SOL    HW126046   3.474   7.048   6.663
 8029SOL    HW226047   3.593   7.023   6.772
 8030SOL     OW26048   2.179   6.133   6.866
 8030SOL    HW126049   2.217   6.074   6.938
 8030SOL    HW226050   2.219   6.107   6.778
 8031SOL     OW26051   2.674   7.172   6.273
 8031SOL    HW126052   2.706   7.182   6.179
 8031SOL    HW226053   2.595   7.110   6.275
 8032SOL     OW26054   3.286   5.800   6.698
 8032SOL    HW126055   3.338   5.735   6.753
 8032SOL    HW226056   3.237   5.863   6.759
 8033SOL     OW26057   2.863   5.620   6.740
 8033SOL    HW126058   2.800   5.548   6.709
 8033SOL    HW226059   2.956   5.584   6.740
 8034SOL     OW26060   2.632   6.916   5.887
 8034SOL    HW126061   2.586   6.829   5.904
 8034SOL    HW226062   2.723   6.913   5.928
 8035SOL     OW26063   2.480   7.153   6.870
 8035SOL    HW126064   2.475   7.235   6.927
 8035SOL    HW226065   2.569   7.150   6.825
 8036SOL     OW26066   3.214   5.638   5.754
 8036SOL    HW126067   3.249   5.597   5.670
 8036SOL    HW226068   3.124   5.600   5.774
 8037SOL     OW26069   3.455   5.807   6.468
 8037SOL    HW126070   3.371   5.806   6.522
 8037SOL    HW226071   3.457   5.890   6.412
 8038SOL     OW26072   1.901   6.663   5.886
 8038SOL    HW126073   2.000   6.652   5.877
 8038SOL    HW226074   1.861   6.577   5.918
 8039SOL     OW26075   2.737   7.232   5.923
 8039SOL    HW126076   2.660   7.197   5.869
 8039SOL    HW226077   2.705   7.303   5.985
 8040SOL     OW26078   2.092   6.214   7.561
 8040SOL    HW126079   1.999   6.212   7.598
 8040SOL    HW226080   2.093   6.175   7.469
 8041SOL     OW26081   2.087   5.861   8.444
 8041SOL    HW126082   2.122   5.844   8.536
 8041SOL    HW226083   1.999   5.816   8.432
 8042SOL     OW26084   1.881   5.954   8.095
 8042SOL    HW126085   1.799   5.997   8.134
 8042SOL    HW226086   1.853   5.881   8.032
 8043SOL     OW26087   2.431   6.861   8.613
 8043SOL    HW126088   2.338   6.854   8.576
 8043SOL    HW226089   2.442   6.950   8.657
 8044SOL     OW26090   3.417   7.097   8.151
 8044SOL    HW126091   3.360   7.081   8.232
 8044SOL    HW226092   3.358   7.107   8.071
 8045SOL     OW26093   3.605   6.204   8.304
 8045SOL    HW126094   3.638   6.298   8.304
 8045SOL    HW226095   3.656   6.150   8.370
 8046SOL     OW26096   3.617   6.193   7.679
 8046SOL    HW126097   3.605   6.180   7.580
 8046SOL    HW226098   3.587   6.112   7.728
 8047SOL     OW26099   2.630   6.730   8.471
 8047SOL    HW126100   2.552   6.747   8.531
 8047SOL    HW226101   2.664   6.817   8.435
 8048SOL     OW26102   2.547   6.598   8.113
 8048SOL    HW126103   2.616   6.582   8.183
 8048SOL    HW226104   2.474   6.655   8.151
 8049SOL     OW26105   2.197   7.021   8.509
 8049SOL    HW126106   2.119   6.990   8.456
 8049SOL    HW226107   2.255   7.079   8.452
 8050SOL     OW26108   3.322   7.091   8.787
 8050SOL    HW126109   3.346   7.185   8.813
 8050SOL    HW226110   3.306   7.037   8.869
 8051SOL     OW26111   2.300   5.978   8.947
 8051SOL    HW126112   2.382   5.922   8.956
 8051SOL    HW226113   2.219   5.920   8.951
 8052SOL     OW26114   3.465   6.033   8.185
 8052SOL    HW126115   3.391   6.079   8.135
 8052SOL    HW226116   3.516   6.101   8.238
 8053SOL     OW26117   2.093   7.299   7.931
 8053SOL    HW126118   2.127   7.376   7.985
 8053SOL    HW226119   2.137   7.299   7.841
 8054SOL     OW26120   2.092   7.020   7.986
 8054SOL    HW126121   2.066   7.116   7.986
 8054SOL    HW226122   2.021   6.966   8.031
 8055SOL     OW26123   2.102   6.677   8.334
 8055SOL    HW126124   2.116   6.593   8.386
 8055SOL    HW226125   2.047   6.741   8.389
 8056SOL     OW26126   2.482   7.372   8.887
 8056SOL    HW126127   2.390   7.355   8.922
 8056SOL    HW226128   2.510   7.464   8.913
 8057SOL     OW26129   3.456   5.700   8.928
 8057SOL    HW126130   3.438   5.767   8.856
 8057SOL    HW226131   3.453   5.746   9.017
 8058SOL     OW26132   1.984   6.229   8.011
 8058SOL    HW126133   1.939   6.141   8.028
 8058SOL    HW226134   1.983   6.283   8.095
 8059SOL     OW26135   3.704   7.353   7.807
 8059SOL    HW126136   3.758   7.324   7.887
 8059SOL    HW226137   3.734   7.443   7.778
 8060SOL     OW26138   1.889   7.182   7.565
 8060SOL    HW126139   1.870   7.086   7.586
 8060SOL    HW226140   1.856   7.240   7.640
 8061SOL     OW26141   3.551   6.508   8.060
 8061SOL    HW126142   3.646   6.479   8.068
 8061SOL    HW226143   3.543   6.573   7.985
 8062SOL     OW26144   3.503   6.694   7.880
 8062SOL    HW126145   3.589   6.696   7.828
 8062SOL    HW226146   3.517   6.741   7.968
 8063SOL     OW26147   2.475   6.951   8.174
 8063SOL    HW126148   2.426   6.864   8.183
 8063SOL    HW226149   2.452   6.994   8.087
 8064SOL     OW26150   2.671   5.590   7.950
 8064SOL    HW126151   2.711   5.681   7.941
 8064SOL    HW226152   2.571   5.598   7.956
 8065SOL     OW26153   2.059   6.562   8.712
 8065SOL    HW126154   2.148   6.517   8.698
 8065SOL    HW226155   1.986   6.497   8.693
 8066SOL     OW26156   3.387   6.585   7.638
 8066SOL    HW126157   3.324   6.509   7.651
 8066SOL    HW226158   3.435   6.603   7.724
 8067SOL     OW26159   3.328   7.003   8.401
 8067SOL    HW126160   3.269   7.009   8.481
 8067SOL    HW226161   3.313   6.915   8.355
 8068SOL     OW26162   3.529   7.300   8.020
 8068SOL    HW126163   3.488   7.277   7.932
 8068SOL    HW226164   3.511   7.226   8.085
 8069SOL     OW26165   3.143   5.931   8.392
 8069SOL    HW126166   3.057   5.881   8.379
 8069SOL    HW226167   3.205   5.877   8.448
 8070SOL     OW26168   3.438   7.248   7.755
 8070SOL    HW126169   3.527   7.294   7.758
 8070SOL    HW226170   3.417   7.224   7.660
 8071SOL     OW26171   2.669   6.191   8.913
 8071SOL    HW126172   2.622   6.188   9.002
 8071SOL    HW226173   2.618   6.136   8.847
 8072SOL     OW26174   2.853   5.996   8.690
 8072SOL    HW126175   2.776   6.030   8.744
 8072SOL    HW226176   2.819   5.945   8.611
 8073SOL     OW26177   1.938   6.397   8.237
 8073SOL    HW126178   2.037   6.385   8.246
 8073SOL    HW226179   1.914   6.492   8.258
 8074SOL     OW26180   1.992   7.407   0.019
 8074SOL    HW126181   1.982   7.392   0.118
 8074SOL    HW226182   1.906   7.443  -0.017
 8075SOL     OW26183   2.727   5.934   7.643
 8075SOL    HW126184   2.786   5.997   7.594
 8075SOL    HW226185   2.746   5.840   7.614
 8076SOL     OW26186   3.224   6.730   7.993
 8076SOL    HW126187   3.307   6.701   7.945
 8076SOL    HW226188   3.175   6.797   7.937
 8077SOL     OW26189   2.412   5.782   8.333
 8077SOL    HW126190   2.407   5.777   8.433
 8077SOL    HW226191   2.414   5.878   8.304
 8078SOL     OW26192   2.870   7.042   7.925
 8078SOL    HW126193   2.824   7.114   7.873
 8078SOL    HW226194   2.866   7.062   8.023
 8079SOL     OW26195   2.213   7.387   8.301
 8079SOL    HW126196   2.263   7.301   8.307
 8079SOL    HW226197   2.278   7.464   8.298
 8080SOL     OW26198   3.657   6.652   8.321
 8080SOL    HW126199   3.595   6.637   8.245
 8080SOL    HW226200   3.605   6.663   8.406
 8081SOL     OW26201   2.183   6.529   7.690
 8081SOL    HW126202   2.265   6.568   7.648
 8081SOL    HW226203   2.156   6.447   7.641
 8082SOL     OW26204   3.320   6.321   8.176
 8082SOL    HW126205   3.315   6.256   8.251
 8082SOL    HW226206   3.400   6.380   8.189
 8083SOL     OW26207   2.973   7.362   7.685
 8083SOL    HW126208   2.913   7.300   7.735
 8083SOL    HW226209   3.004   7.318   7.600
 8084SOL     OW26210   2.064   5.871   8.946
 8084SOL    HW126211   1.984   5.931   8.933
 8084SOL    HW226212   2.054   5.822   9.032
 8085SOL     OW26213   3.494   6.963   7.529
 8085SOL    HW126214   3.462   7.057   7.519
 8085SOL    HW226215   3.418   6.900   7.517
 8086SOL     OW26216   2.326   7.329   7.771
 8086SOL    HW126217   2.359   7.368   7.857
 8086SOL    HW226218   2.402   7.322   7.706
 8087SOL     OW26219   3.262   5.693   7.874
 8087SOL    HW126220   3.238   5.656   7.784
 8087SOL    HW226221   3.361   5.709   7.878
 8088SOL     OW26222   2.111   7.371   8.689
 8088SOL    HW126223   2.168   7.306   8.739
 8088SOL    HW226224   2.095   7.338   8.596
 8089SOL     OW26225   2.802   7.284   8.352
 8089SOL    HW126226   2.882   7.227   8.373
 8089SOL    HW226227   2.753   7.244   8.275
 8090SOL     OW26228   2.476   5.708   7.565
 8090SOL    HW126229   2.574   5.686   7.572
 8090SOL    HW226230   2.445   5.691   7.472
 8091SOL     OW26231   2.750   7.100   8.643
 8091SOL    HW126232   2.727   7.075   8.549
 8091SOL    HW226233   2.811   7.031   8.682
 8092SOL     OW26234   2.665   6.988   8.372
 8092SOL    HW126235   2.755   7.002   8.330
 8092SOL    HW226236   2.594   6.990   8.301
 8093SOL     OW26237   2.401   5.650   7.960
 8093SOL    HW126238   2.320   5.651   8.018
 8093SOL    HW226239   2.404   5.733   7.905
 8094SOL     OW26240   3.296   6.774   7.489
 8094SOL    HW126241   3.328   6.698   7.546
 8094SOL    HW226242   3.204   6.801   7.519
 8095SOL     OW26243   2.159   5.621   7.619
 8095SOL    HW126244   2.208   5.705   7.598
 8095SOL    HW226245   2.221   5.556   7.664
 8096SOL     OW26246   2.797   5.822   7.928
 8096SOL    HW126247   2.749   5.863   7.850
 8096SOL    HW226248   2.896   5.820   7.909
 8097SOL     OW26249   3.089   7.156   8.241
 8097SOL    HW126250   3.110   7.230   8.176
 8097SOL    HW226251   3.157   7.156   8.314
 8098SOL     OW26252   2.321   6.738   8.189
 8098SOL    HW126253   2.250   6.711   8.254
 8098SOL    HW226254   2.295   6.710   8.096
 8099SOL     OW26255   3.133   7.383   8.039
 8099SOL    HW126256   3.177   7.447   7.975
 8099SOL    HW226257   3.083   7.435   8.109
 8100SOL     OW26258   1.940   6.142   8.834
 8100SOL    HW126259   2.032   6.141   8.793
 8100SOL    HW226260   1.934   6.216   8.901
 8101SOL     OW26261   2.423   5.808   8.595
 8101SOL    HW126262   2.461   5.724   8.632
 8101SOL    HW226263   2.335   5.827   8.639
 8102SOL     OW26264   2.879   5.625   8.201
 8102SOL    HW126265   2.807   5.630   8.132
 8102SOL    HW226266   2.855   5.556   8.270
 8103SOL     OW26267   3.291   6.759   8.315
 8103SOL    HW126268   3.236   6.675   8.308
 8103SOL    HW226269   3.317   6.788   8.223
 8104SOL     OW26270   3.328   6.176   8.440
 8104SOL    HW126271   3.298   6.081   8.447
 8104SOL    HW226272   3.401   6.192   8.506
 8105SOL     OW26273   3.719   6.419   7.825
 8105SOL    HW126274   3.761   6.355   7.889
 8105SOL    HW226275   3.681   6.368   7.747
 8106SOL     OW26276   2.350   6.971   7.622
 8106SOL    HW126277   2.263   6.956   7.669
 8106SOL    HW226278   2.333   6.997   7.527
 8107SOL     OW26279   3.526   6.866   8.105
 8107SOL    HW126280   3.625   6.874   8.119
 8107SOL    HW226281   3.481   6.950   8.136
 8108SOL     OW26282   2.389   5.842   7.776
 8108SOL    HW126283   2.416   5.783   7.701
 8108SOL    HW226284   2.389   5.937   7.745
 8109SOL     OW26285   2.926   6.933   8.788
 8109SOL    HW126286   2.846   6.910   8.843
 8109SOL    HW226287   3.009   6.907   8.837
 8110SOL     OW26288   2.973   6.781   8.548
 8110SOL    HW126289   2.933   6.825   8.629
 8110SOL    HW226290   2.932   6.818   8.465
 8111SOL     OW26291   3.500   6.685   8.527
 8111SOL    HW126292   3.505   6.766   8.586
 8111SOL    HW226293   3.414   6.687   8.476
 8112SOL     OW26294   2.777   5.675   8.850
 8112SOL    HW126295   2.802   5.655   8.755
 8112SOL    HW226296   2.849   5.731   8.892
 8113SOL     OW26297   2.272   6.399   8.699
 8113SOL    HW126298   2.358   6.411   8.749
 8113SOL    HW226299   2.230   6.312   8.726
 8114SOL     OW26300   3.136   5.972   8.710
 8114SOL    HW126301   3.157   6.046   8.774
 8114SOL    HW226302   3.047   5.989   8.667
 8115SOL     OW26303   1.926   7.150   8.779
 8115SOL    HW126304   1.880   7.232   8.745
 8115SOL    HW226305   2.024   7.169   8.788
 8116SOL     OW26306   2.229   6.686   7.949
 8116SOL    HW126307   2.222   6.769   7.893
 8116SOL    HW226308   2.233   6.606   7.889
 8117SOL     OW26309   2.428   6.123   8.313
 8117SOL    HW126310   2.440   6.189   8.239
 8117SOL    HW226311   2.474   6.157   8.396
 8118SOL     OW26312   3.114   6.934   7.836
 8118SOL    HW126313   3.164   7.011   7.876
 8118SOL    HW226314   3.019   6.936   7.868
 8119SOL     OW26315   3.134   7.031   8.590
 8119SOL    HW126316   3.181   7.044   8.677
 8119SOL    HW226317   3.068   6.957   8.599
 8120SOL     OW26318   3.444   6.225   7.920
 8120SOL    HW126319   3.413   6.286   7.993
 8120SOL    HW226320   3.494   6.277   7.851
 8121SOL     OW26321   2.216   7.096   8.777
 8121SOL    HW126322   2.195   7.052   8.690
 8121SOL    HW226323   2.313   7.122   8.780
 8122SOL     OW26324   2.264   6.337   0.046
 8122SOL    HW126325   2.332   6.392  -0.001
 8122SOL    HW226326   2.304   6.249   0.073
 8123SOL     OW26327   3.449   6.365   0.118
 8123SOL    HW126328   3.357   6.403   0.113
 8123SOL    HW226329   3.509   6.412   0.053
 8124SOL     OW26330   2.435   6.456   8.477
 8124SOL    HW126331   2.479   6.545   8.468
 8124SOL    HW226332   2.372   6.456   8.554
 8125SOL     OW26333   3.222   6.448   8.493
 8125SOL    HW126334   3.147   6.448   8.427
 8125SOL    HW226335   3.259   6.356   8.502
 8126SOL     OW26336   2.169   5.799   8.679
 8126SOL    HW126337   2.146   5.836   8.769
 8126SOL    HW226338   2.139   5.704   8.673
 8127SOL     OW26339   1.899   6.896   8.730
 8127SOL    HW126340   1.952   6.847   8.798
 8127SOL    HW226341   1.921   6.994   8.735
 8128SOL     OW26342   2.594   6.220   8.512
 8128SOL    HW126343   2.653   6.194   8.436
 8128SOL    HW226344   2.566   6.316   8.501
 8129SOL     OW26345   2.169   5.649   8.066
 8129SOL    HW126346   2.158   5.743   8.099
 8129SOL    HW226347   2.164   5.586   8.143
 8130SOL     OW26348   3.484   5.953   7.822
 8130SOL    HW126349   3.486   5.877   7.886
 8130SOL    HW226350   3.436   6.030   7.862
 8131SOL     OW26351   2.885   6.352   8.414
 8131SOL    HW126352   2.900   6.373   8.510
 8131SOL    HW226353   2.855   6.257   8.405
 8132SOL     OW26354   2.842   7.159   0.148
 8132SOL    HW126355   2.822   7.203   0.060
 8132SOL    HW226356   2.881   7.068   0.132
 8133SOL     OW26357   3.721   7.104   0.053
 8133SOL    HW126358   3.735   7.131  -0.042
 8133SOL    HW226359   3.804   7.126   0.106
 8134SOL     OW26360   3.402   5.860   7.573
 8134SOL    HW126361   3.341   5.785   7.596
 8134SOL    HW226362   3.424   5.912   7.656
 8135SOL     OW26363   2.930   6.919   8.297
 8135SOL    HW126364   2.937   6.835   8.242
 8135SOL    HW226365   2.992   6.988   8.261
 8136SOL     OW26366   2.181   6.396   8.397
 8136SOL    HW126367   2.274   6.432   8.402
 8136SOL    HW226368   2.175   6.311   8.449
 8137SOL     OW26369   2.201   6.095   8.454
 8137SOL    HW126370   2.149   6.012   8.437
 8137SOL    HW226371   2.278   6.100   8.390
 8138SOL     OW26372   3.000   5.966   0.126
 8138SOL    HW126373   2.955   6.029   0.190
 8138SOL    HW226374   3.093   5.997   0.109
 8139SOL     OW26375   3.022   5.793   8.925
 8139SOL    HW126376   3.022   5.857   9.002
 8139SOL    HW226377   3.050   5.841   8.842
 8140SOL     OW26378   1.870   6.912   7.648
 8140SOL    HW126379   1.777   6.933   7.617
 8140SOL    HW226380   1.880   6.813   7.661
 8141SOL     OW26381   1.950   7.387   8.375
 8141SOL    HW126382   1.908   7.301   8.348
 8141SOL    HW226383   2.044   7.390   8.341
 8142SOL     OW26384   2.366   7.154   8.358
 8142SOL    HW126385   2.432   7.228   8.367
 8142SOL    HW226386   2.410   7.075   8.316
 8143SOL     OW26387   2.864   6.382   8.686
 8143SOL    HW126388   2.905   6.350   8.772
 8143SOL    HW226389   2.768   6.355   8.683
 8144SOL     OW26390   1.902   6.130   8.562
 8144SOL    HW126391   1.987   6.097   8.521
 8144SOL    HW226392   1.915   6.145   8.660
 8145SOL     OW26393   3.519   6.190   8.654
 8145SOL    HW126394   3.481   6.121   8.716
 8145SOL    HW226395   3.601   6.154   8.610
 8146SOL     OW26396   2.533   6.050   8.717
 8146SOL    HW126397   2.499   5.961   8.687
 8146SOL    HW226398   2.559   6.104   8.637
 8147SOL     OW26399   2.792   7.264   8.913
 8147SOL    HW126400   2.768   7.246   8.818
 8147SOL    HW226401   2.822   7.358   8.923
 8148SOL     OW26402   2.335   6.086   7.639
 8148SOL    HW126403   2.396   6.166   7.643
 8148SOL    HW226404   2.240   6.117   7.646
 8149SOL     OW26405   2.021   6.723   8.914
 8149SOL    HW126406   2.043   6.662   8.990
 8149SOL    HW226407   2.031   6.674   8.828
 8150SOL     OW26408   3.209   6.645   8.682
 8150SOL    HW126409   3.233   6.582   8.608
 8150SOL    HW226410   3.119   6.685   8.664
 8151SOL     OW26411   3.621   7.333   8.602
 8151SOL    HW126412   3.682   7.363   8.529
 8151SOL    HW226413   3.583   7.244   8.580
 8152SOL     OW26414   3.114   7.317   8.576
 8152SOL    HW126415   3.198   7.322   8.522
 8152SOL    HW226416   3.091   7.221   8.594
 8153SOL     OW26417   1.945   6.844   8.470
 8153SOL    HW126418   1.940   6.843   8.570
 8153SOL    HW226419   1.862   6.803   8.432
 8154SOL     OW26420   2.765   5.672   7.581
 8154SOL    HW126421   2.816   5.673   7.495
 8154SOL    HW226422   2.821   5.630   7.652
 8155SOL     OW26423   3.588   5.721   7.971
 8155SOL    HW126424   3.661   5.704   7.904
 8155SOL    HW226425   3.557   5.634   8.009
 8156SOL     OW26426   3.250   7.159   7.925
 8156SOL    HW126427   3.317   7.171   7.851
 8156SOL    HW226428   3.210   7.248   7.948
 8157SOL     OW26429   3.142   6.513   8.120
 8157SOL    HW126430   3.202   6.432   8.122
 8157SOL    HW226431   3.182   6.582   8.060
 8158SOL     OW26432   2.534   7.202   7.602
 8158SOL    HW126433   2.543   7.212   7.503
 8158SOL    HW226434   2.494   7.113   7.623
 8159SOL     OW26435   3.512   7.306   8.842
 8159SOL    HW126436   3.565   7.316   8.758
 8159SOL    HW226437   3.485   7.396   8.876
 8160SOL     OW26438   3.703   5.761   8.411
 8160SOL    HW126439   3.742   5.676   8.375
 8160SOL    HW226440   3.605   5.763   8.392
 8161SOL     OW26441   2.125   5.912   8.168
 8161SOL    HW126442   2.046   5.963   8.134
 8161SOL    HW226443   2.116   5.897   8.266
 8162SOL     OW26444   3.056   7.198   7.479
 8162SOL    HW126445   3.062   7.105   7.516
 8162SOL    HW226446   2.997   7.198   7.399
 8163SOL     OW26447   2.684   6.588   8.820
 8163SOL    HW126448   2.724   6.587   8.728
 8163SOL    HW226449   2.694   6.680   8.860
 8164SOL     OW26450   3.366   7.193   7.492
 8164SOL    HW126451   3.274   7.230   7.499
 8164SOL    HW226452   3.404   7.213   7.402
 8165SOL     OW26453   2.234   6.874   8.938
 8165SOL    HW126454   2.221   6.967   8.904
 8165SOL    HW226455   2.150   6.822   8.925
 8166SOL     OW26456   3.476   6.878   8.737
 8166SOL    HW126457   3.536   6.881   8.817
 8166SOL    HW226458   3.401   6.942   8.750
 8167SOL     OW26459   2.901   6.684   8.144
 8167SOL    HW126460   2.831   6.637   8.198
 8167SOL    HW226461   2.960   6.616   8.101
 8168SOL     OW26462   2.876   5.822   8.419
 8168SOL    HW126463   2.868   5.786   8.326
 8168SOL    HW226464   2.874   5.746   8.484
 8169SOL     OW26465   2.452   7.073   7.939
 8169SOL    HW126466   2.494   7.015   7.869
 8169SOL    HW226467   2.408   7.152   7.895
 8170SOL     OW26468   3.571   5.971   8.829
 8170SOL    HW126469   3.644   6.040   8.833
 8170SOL    HW226470   3.599   5.896   8.770
 8171SOL     OW26471   2.117   6.934   7.738
 8171SOL    HW126472   2.021   6.935   7.711
 8171SOL    HW226473   2.129   6.987   7.822
 8172SOL     OW26474   1.937   5.931   7.481
 8172SOL    HW126475   1.845   5.903   7.452
 8172SOL    HW226476   1.968   6.008   7.425
 8173SOL     OW26477   3.302   6.442   8.846
 8173SOL    HW126478   3.245   6.494   8.783
 8173SOL    HW226479   3.398   6.454   8.822
 8174SOL     OW26480   1.934   5.752   7.766
 8174SOL    HW126481   1.917   5.835   7.712
 8174SOL    HW226482   2.024   5.715   7.744
 8175SOL     OW26483   2.475   6.428   8.879
 8175SOL    HW126484   2.531   6.509   8.862
 8175SOL    HW226485   2.534   6.348   8.882
 8176SOL     OW26486   3.355   7.353   8.407
 8176SOL    HW126487   3.388   7.417   8.338
 8176SOL    HW226488   3.421   7.347   8.482
 8177SOL     OW26489   2.252   7.327   0.008
 8177SOL    HW126490   2.161   7.368   0.006
 8177SOL    HW226491   2.245   7.233   0.040
 8178SOL     OW26492   3.536   6.469   8.702
 8178SOL    HW126493   3.509   6.380   8.665
 8178SOL    HW226494   3.537   6.537   8.629
 8179SOL     OW26495   3.087   5.911   7.897
 8179SOL    HW126496   3.152   5.837   7.886
 8179SOL    HW226497   3.107   5.961   7.981
 8180SOL     OW26498   3.639   5.928   0.090
 8180SOL    HW126499   3.622   5.959  -0.004
 8180SOL    HW226500   3.555   5.891   0.128
 8181SOL     OW26501   3.592   6.520   8.965
 8181SOL    HW126502   3.630   6.611   8.980
 8181SOL    HW226503   3.584   6.503   8.866
 8182SOL     OW26504   2.523   7.376   8.401
 8182SOL    HW126505   2.477   7.464   8.388
 8182SOL    HW226506   2.622   7.388   8.394
 8183SOL     OW26507   3.270   7.437   0.168
 8183SOL    HW126508   3.174   7.426   0.141
 8183SOL    HW226509   3.326   7.370   0.120
 8184SOL     OW26510   2.721   6.542   8.309
 8184SOL    HW126511   2.775   6.473   8.357
 8184SOL    HW226512   2.689   6.611   8.375
 8185SOL     OW26513   2.945   6.570   7.535
 8185SOL    HW126514   2.922   6.623   7.453
 8185SOL    HW226515   3.026   6.514   7.516
 8186SOL     OW26516   3.723   7.155   8.299
 8186SOL    HW126517   3.652   7.143   8.229
 8186SOL    HW226518   3.724   7.076   8.359
 8187SOL     OW26519   1.941   6.826   8.101
 8187SOL    HW126520   1.940   6.779   8.189
 8187SOL    HW226521   2.023   6.798   8.050
 8188SOL     OW26522   3.686   5.778   8.675
 8188SOL    HW126523   3.682   5.688   8.719
 8188SOL    HW226524   3.689   5.767   8.576
 8189SOL     OW26525   2.290   6.010   7.968
 8189SOL    HW126526   2.320   5.938   7.906
 8189SOL    HW226527   2.251   5.970   8.051
 8190SOL     OW26528   3.567   7.073   8.552
 8190SOL    HW126529   3.474   7.048   8.525
 8190SOL    HW226530   3.593   7.023   8.634
 8191SOL     OW26531   2.179   6.133   8.728
 8191SOL    HW126532   2.217   6.074   8.800
 8191SOL    HW226533   2.219   6.107   8.640
 8192SOL     OW26534   2.674   7.172   8.135
 8192SOL    HW126535   2.706   7.182   8.041
 8192SOL    HW226536   2.595   7.110   8.137
 8193SOL     OW26537   3.286   5.800   8.560
 8193SOL    HW126538   3.338   5.735   8.615
 8193SOL    HW226539   3.237   5.863   8.621
 8194SOL     OW26540   2.863   5.620   8.602
 8194SOL    HW126541   2.800   5.548   8.571
 8194SOL    HW226542   2.956   5.584   8.602
 8195SOL     OW26543   2.632   6.916   7.749
 8195SOL    HW126544   2.586   6.829   7.766
 8195SOL    HW226545   2.723   6.913   7.790
 8196SOL     OW26546   2.480   7.153   8.732
 8196SOL    HW126547   2.475   7.235   8.789
 8196SOL    HW226548   2.569   7.150   8.687
 8197SOL     OW26549   3.214   5.638   7.616
 8197SOL    HW126550   3.249   5.597   7.532
 8197SOL    HW226551   3.124   5.600   7.636
 8198SOL     OW26552   3.455   5.807   8.330
 8198SOL    HW126553   3.371   5.806   8.384
 8198SOL    HW226554   3.457   5.890   8.274
 8199SOL     OW26555   1.901   6.663   7.748
 8199SOL    HW126556   2.000   6.652   7.739
 8199SOL    HW226557   1.861   6.577   7.780
 8200SOL     OW26558   2.737   7.232   7.785
 8200SOL    HW126559   2.660   7.197   7.731
 8200SOL    HW226560   2.705   7.303   7.847
 8201SOL     OW26561   2.092   8.076   0.113
 8201SOL    HW126562   1.999   8.074   0.150
 8201SOL    HW226563   2.093   8.037   0.021
 8202SOL     OW26564   2.087   7.723   0.996
 8202SOL    HW126565   2.122   7.706   1.088
 8202SOL    HW226566   1.999   7.678   0.984
 8203SOL     OW26567   1.881   7.816   0.647
 8203SOL    HW126568   1.799   7.859   0.686
 8203SOL    HW226569   1.853   7.743   0.584
 8204SOL     OW26570   2.431   8.723   1.165
 8204SOL    HW126571   2.338   8.716   1.128
 8204SOL    HW226572   2.442   8.812   1.209
 8205SOL     OW26573   3.417   8.959   0.703
 8205SOL    HW126574   3.360   8.943   0.784
 8205SOL    HW226575   3.358   8.969   0.623
 8206SOL     OW26576   3.605   8.066   0.856
 8206SOL    HW126577   3.638   8.160   0.856
 8206SOL    HW226578   3.656   8.012   0.922
 8207SOL     OW26579   2.997   8.151   0.717
 8207SOL    HW126580   3.054   8.229   0.692
 8207SOL    HW226581   2.937   8.177   0.793
 8208SOL     OW26582   3.617   8.055   0.231
 8208SOL    HW126583   3.605   8.042   0.132
 8208SOL    HW226584   3.587   7.974   0.280
 8209SOL     OW26585   2.630   8.592   1.023
 8209SOL    HW126586   2.552   8.609   1.083
 8209SOL    HW226587   2.664   8.679   0.987
 8210SOL     OW26588   2.712   8.246   1.823
 8210SOL    HW126589   2.708   8.322   1.888
 8210SOL    HW226590   2.734   8.282   1.732
 8211SOL     OW26591   2.547   8.460   0.665
 8211SOL    HW126592   2.616   8.444   0.735
 8211SOL    HW226593   2.474   8.517   0.703
 8212SOL     OW26594   2.548   8.609   1.803
 8212SOL    HW126595   2.608   8.688   1.817
 8212SOL    HW226596   2.462   8.640   1.762
 8213SOL     OW26597   2.197   8.883   1.061
 8213SOL    HW126598   2.119   8.852   1.008
 8213SOL    HW226599   2.255   8.941   1.004
 8214SOL     OW26600   3.322   8.953   1.339
 8214SOL    HW126601   3.346   9.047   1.365
 8214SOL    HW226602   3.306   8.899   1.421
 8215SOL     OW26603   2.300   7.840   1.499
 8215SOL    HW126604   2.382   7.784   1.508
 8215SOL    HW226605   2.219   7.782   1.503
 8216SOL     OW26606   3.465   7.895   0.737
 8216SOL    HW126607   3.391   7.941   0.687
 8216SOL    HW226608   3.516   7.963   0.790
 8217SOL     OW26609   2.093   0.161   0.483
 8217SOL    HW126610   2.127   0.238   0.537
 8217SOL    HW226611   2.137   0.161   0.393
 8218SOL     OW26612   2.989   8.789   1.690
 8218SOL    HW126613   3.036   8.789   1.778
 8218SOL    HW226614   2.941   8.702   1.679
 8219SOL     OW26615   2.092   8.882   0.538
 8219SOL    HW126616   2.066   8.978   0.538
 8219SOL    HW226617   2.021   8.828   0.583
 8220SOL     OW26618   2.102   8.539   0.886
 8220SOL    HW126619   2.116   8.455   0.938
 8220SOL    HW226620   2.047   8.603   0.941
 8221SOL     OW26621   2.468   8.412   0.123
 8221SOL    HW126622   2.475   8.496   0.069
 8221SOL    HW226623   2.514   8.425   0.211
 8222SOL     OW26624   3.456   7.562   1.480
 8222SOL    HW126625   3.438   7.629   1.408
 8222SOL    HW226626   3.453   7.608   1.569
 8223SOL     OW26627   1.984   8.091   0.563
 8223SOL    HW126628   1.939   8.003   0.580
 8223SOL    HW226629   1.983   8.145   0.647
 8224SOL     OW26630   3.551   8.370   0.612
 8224SOL    HW126631   3.646   8.341   0.620
 8224SOL    HW226632   3.543   8.435   0.537
 8225SOL     OW26633   3.503   8.556   0.432
 8225SOL    HW126634   3.589   8.558   0.380
 8225SOL    HW226635   3.517   8.603   0.520
 8226SOL     OW26636   1.975   8.185   1.597
 8226SOL    HW126637   2.063   8.172   1.642
 8226SOL    HW226638   1.962   8.282   1.575
 8227SOL     OW26639   2.475   8.813   0.726
 8227SOL    HW126640   2.426   8.726   0.735
 8227SOL    HW226641   2.452   8.856   0.639
 8228SOL     OW26642   3.155   8.676   1.423
 8228SOL    HW126643   3.192   8.603   1.365
 8228SOL    HW226644   3.207   8.681   1.508
 8229SOL     OW26645   2.671   7.452   0.502
 8229SOL    HW126646   2.711   7.543   0.493
 8229SOL    HW226647   2.571   7.460   0.508
 8230SOL     OW26648   2.059   8.424   1.264
 8230SOL    HW126649   2.148   8.379   1.250
 8230SOL    HW226650   1.986   8.359   1.245
 8231SOL     OW26651   3.387   8.447   0.190
 8231SOL    HW126652   3.324   8.371   0.203
 8231SOL    HW226653   3.435   8.465   0.276
 8232SOL     OW26654   2.179   7.699   1.801
 8232SOL    HW126655   2.250   7.770   1.807
 8232SOL    HW226656   2.091   7.738   1.829
 8233SOL     OW26657   3.328   8.865   0.953
 8233SOL    HW126658   3.269   8.871   1.033
 8233SOL    HW226659   3.313   8.777   0.907
 8234SOL     OW26660   2.460   8.177   0.270
 8234SOL    HW126661   2.484   8.246   0.202
 8234SOL    HW226662   2.382   8.210   0.324
 8235SOL     OW26663   3.143   7.793   0.944
 8235SOL    HW126664   3.057   7.743   0.931
 8235SOL    HW226665   3.205   7.739   1.000
 8236SOL     OW26666   2.669   8.053   1.465
 8236SOL    HW126667   2.622   8.050   1.554
 8236SOL    HW226668   2.618   7.998   1.399
 8237SOL     OW26669   3.256   7.917   1.674
 8237SOL    HW126670   3.236   7.960   1.762
 8237SOL    HW226671   3.334   7.855   1.683
 8238SOL     OW26672   2.835   8.338   1.572
 8238SOL    HW126673   2.881   8.254   1.543
 8238SOL    HW226674   2.779   8.372   1.497
 8239SOL     OW26675   2.853   7.858   1.242
 8239SOL    HW126676   2.776   7.892   1.296
 8239SOL    HW226677   2.819   7.807   1.163
 8240SOL     OW26678   2.903   8.149   0.429
 8240SOL    HW126679   2.929   8.145   0.525
 8240SOL    HW226680   2.818   8.098   0.415
 8241SOL     OW26681   1.938   8.259   0.789
 8241SOL    HW126682   2.037   8.247   0.798
 8241SOL    HW226683   1.914   8.354   0.810
 8242SOL     OW26684   2.727   7.796   0.195
 8242SOL    HW126685   2.786   7.859   0.146
 8242SOL    HW226686   2.746   7.702   0.166
 8243SOL     OW26687   3.581   8.033   1.831
 8243SOL    HW126688   3.555   8.122   1.795
 8243SOL    HW226689   3.579   7.965   1.758
 8244SOL     OW26690   3.224   8.592   0.545
 8244SOL    HW126691   3.307   8.563   0.497
 8244SOL    HW226692   3.175   8.659   0.489
 8245SOL     OW26693   2.412   7.644   0.885
 8245SOL    HW126694   2.407   7.639   0.985
 8245SOL    HW226695   2.414   7.740   0.856
 8246SOL     OW26696   2.870   8.904   0.477
 8246SOL    HW126697   2.824   8.976   0.425
 8246SOL    HW226698   2.866   8.924   0.575
 8247SOL     OW26699   3.657   8.514   0.873
 8247SOL    HW126700   3.595   8.499   0.797
 8247SOL    HW226701   3.605   8.525   0.958
 8248SOL     OW26702   3.089   8.998   1.506
 8248SOL    HW126703   3.095   8.921   1.570
 8248SOL    HW226704   3.037   8.972   1.426
 8249SOL     OW26705   2.183   8.391   0.242
 8249SOL    HW126706   2.265   8.430   0.200
 8249SOL    HW226707   2.156   8.309   0.193
 8250SOL     OW26708   3.320   8.183   0.728
 8250SOL    HW126709   3.315   8.118   0.803
 8250SOL    HW226710   3.400   8.242   0.741
 8251SOL     OW26711   2.323   8.714   1.727
 8251SOL    HW126712   2.273   8.715   1.641
 8251SOL    HW226713   2.260   8.696   1.803
 8252SOL     OW26714   2.973   0.224   0.237
 8252SOL    HW126715   2.913   0.162   0.287
 8252SOL    HW226716   3.004   0.180   0.152
 8253SOL     OW26717   2.064   7.733   1.498
 8253SOL    HW126718   1.984   7.793   1.485
 8253SOL    HW226719   2.054   7.684   1.584
 8254SOL     OW26720   3.494   8.825   0.081
 8254SOL    HW126721   3.462   8.919   0.071
 8254SOL    HW226722   3.418   8.762   0.069
 8255SOL     OW26723   3.262   7.555   0.426
 8255SOL    HW126724   3.238   7.518   0.336
 8255SOL    HW226725   3.361   7.571   0.430
 8256SOL     OW26726   2.244   8.148   0.480
 8256SOL    HW126727   2.289   8.058   0.477
 8256SOL    HW226728   2.150   8.137   0.513
 8257SOL     OW26729   3.409   7.670   1.729
 8257SOL    HW126730   3.404   7.707   1.821
 8257SOL    HW226731   3.337   7.601   1.717
 8258SOL     OW26732   2.476   7.570   0.117
 8258SOL    HW126733   2.574   7.548   0.124
 8258SOL    HW226734   2.445   7.553   0.024
 8259SOL     OW26735   2.643   7.712   1.749
 8259SOL    HW126736   2.710   7.651   1.792
 8259SOL    HW226737   2.570   7.731   1.814
 8260SOL     OW26738   3.213   8.038   1.433
 8260SOL    HW126739   3.241   7.995   1.518
 8260SOL    HW226740   3.238   8.134   1.434
 8261SOL     OW26741   2.665   8.850   0.924
 8261SOL    HW126742   2.755   8.864   0.882
 8261SOL    HW226743   2.594   8.852   0.853
 8262SOL     OW26744   2.784   7.951   0.899
 8262SOL    HW126745   2.759   7.942   0.803
 8262SOL    HW226746   2.832   7.869   0.930
 8263SOL     OW26747   2.401   7.512   0.512
 8263SOL    HW126748   2.320   7.513   0.570
 8263SOL    HW226749   2.404   7.595   0.457
 8264SOL     OW26750   3.296   8.636   0.041
 8264SOL    HW126751   3.328   8.560   0.098
 8264SOL    HW226752   3.204   8.663   0.071
 8265SOL     OW26753   2.159   7.483   0.171
 8265SOL    HW126754   2.208   7.567   0.150
 8265SOL    HW226755   2.221   7.418   0.216
 8266SOL     OW26756   2.797   7.684   0.480
 8266SOL    HW126757   2.749   7.725   0.402
 8266SOL    HW226758   2.896   7.682   0.461
 8267SOL     OW26759   2.938   8.131   1.464
 8267SOL    HW126760   2.858   8.070   1.467
 8267SOL    HW226761   3.019   8.078   1.440
 8268SOL     OW26762   3.089   0.018   0.793
 8268SOL    HW126763   3.110   0.092   0.728
 8268SOL    HW226764   3.157   0.018   0.866
 8269SOL     OW26765   2.321   8.600   0.741
 8269SOL    HW126766   2.250   8.573   0.806
 8269SOL    HW226767   2.295   8.572   0.648
 8270SOL     OW26768   2.894   7.997   0.016
 8270SOL    HW126769   2.853   8.079  -0.023
 8270SOL    HW226770   2.958   8.023   0.089
 8271SOL     OW26771   1.940   8.004   1.386
 8271SOL    HW126772   2.032   8.003   1.345
 8271SOL    HW226773   1.934   8.078   1.453
 8272SOL     OW26774   2.423   7.670   1.147
 8272SOL    HW126775   2.461   7.586   1.184
 8272SOL    HW226776   2.335   7.689   1.191
 8273SOL     OW26777   2.728   7.902   0.642
 8273SOL    HW126778   2.696   7.974   0.580
 8273SOL    HW226779   2.752   7.821   0.589
 8274SOL     OW26780   2.879   7.487   0.753
 8274SOL    HW126781   2.807   7.492   0.684
 8274SOL    HW226782   2.855   7.418   0.822
 8275SOL     OW26783   3.291   8.621   0.867
 8275SOL    HW126784   3.236   8.537   0.860
 8275SOL    HW226785   3.317   8.650   0.775
 8276SOL     OW26786   3.328   8.038   0.992
 8276SOL    HW126787   3.298   7.943   0.999
 8276SOL    HW226788   3.401   8.054   1.058
 8277SOL     OW26789   3.719   8.281   0.377
 8277SOL    HW126790   3.761   8.217   0.441
 8277SOL    HW226791   3.681   8.230   0.299
 8278SOL     OW26792   2.350   8.833   0.174
 8278SOL    HW126793   2.263   8.818   0.221
 8278SOL    HW226794   2.333   8.859   0.079
 8279SOL     OW26795   3.526   8.728   0.657
 8279SOL    HW126796   3.625   8.736   0.671
 8279SOL    HW226797   3.481   8.812   0.688
 8280SOL     OW26798   3.252   8.023   0.078
 8280SOL    HW126799   3.198   8.002   0.159
 8280SOL    HW226800   3.343   7.982   0.087
 8281SOL     OW26801   2.389   7.704   0.328
 8281SOL    HW126802   2.416   7.645   0.253
 8281SOL    HW226803   2.389   7.799   0.297
 8282SOL     OW26804   3.616   8.671   1.588
 8282SOL    HW126805   3.707   8.632   1.575
 8282SOL    HW226806   3.624   8.767   1.612
 8283SOL     OW26807   2.926   8.795   1.340
 8283SOL    HW126808   2.846   8.772   1.395
 8283SOL    HW226809   3.009   8.769   1.389
 8284SOL     OW26810   2.973   8.643   1.100
 8284SOL    HW126811   2.933   8.687   1.181
 8284SOL    HW226812   2.932   8.680   1.017
 8285SOL     OW26813   3.500   8.547   1.079
 8285SOL    HW126814   3.505   8.628   1.138
 8285SOL    HW226815   3.414   8.549   1.028
 8286SOL     OW26816   2.777   7.537   1.402
 8286SOL    HW126817   2.802   7.517   1.307
 8286SOL    HW226818   2.849   7.593   1.444
 8287SOL     OW26819   2.842   8.564   1.719
 8287SOL    HW126820   2.743   8.570   1.729
 8287SOL    HW226821   2.865   8.484   1.663
 8288SOL     OW26822   2.567   8.498   0.368
 8288SOL    HW126823   2.553   8.505   0.467
 8288SOL    HW226824   2.651   8.447   0.350
 8289SOL     OW26825   2.272   8.261   1.251
 8289SOL    HW126826   2.358   8.273   1.301
 8289SOL    HW226827   2.230   8.174   1.278
 8290SOL     OW26828   3.136   7.834   1.262
 8290SOL    HW126829   3.157   7.908   1.326
 8290SOL    HW226830   3.047   7.851   1.219
 8291SOL     OW26831   2.229   8.548   0.501
 8291SOL    HW126832   2.222   8.631   0.445
 8291SOL    HW226833   2.233   8.468   0.441
 8292SOL     OW26834   2.428   7.985   0.865
 8292SOL    HW126835   2.440   8.051   0.791
 8292SOL    HW226836   2.474   8.019   0.948
 8293SOL     OW26837   3.114   8.796   0.388
 8293SOL    HW126838   3.164   8.873   0.428
 8293SOL    HW226839   3.019   8.798   0.420
 8294SOL     OW26840   3.134   8.893   1.142
 8294SOL    HW126841   3.181   8.906   1.229
 8294SOL    HW226842   3.068   8.819   1.151
 8295SOL     OW26843   3.444   8.087   0.472
 8295SOL    HW126844   3.413   8.148   0.545
 8295SOL    HW226845   3.494   8.139   0.403
 8296SOL     OW26846   2.216   8.958   1.329
 8296SOL    HW126847   2.195   8.914   1.242
 8296SOL    HW226848   2.313   8.984   1.332
 8297SOL     OW26849   2.264   8.199   1.598
 8297SOL    HW126850   2.332   8.254   1.551
 8297SOL    HW226851   2.304   8.111   1.625
 8298SOL     OW26852   3.449   8.227   1.670
 8298SOL    HW126853   3.357   8.265   1.665
 8298SOL    HW226854   3.509   8.274   1.605
 8299SOL     OW26855   2.875   7.553   1.770
 8299SOL    HW126856   2.881   7.638   1.718
 8299SOL    HW226857   2.907   7.477   1.713
 8300SOL     OW26858   2.366   7.498   1.740
 8300SOL    HW126859   2.324   7.441   1.670
 8300SOL    HW226860   2.300   7.567   1.772
 8301SOL     OW26861   2.435   8.318   1.029
 8301SOL    HW126862   2.479   8.407   1.020
 8301SOL    HW226863   2.372   8.318   1.106
 8302SOL     OW26864   3.222   8.310   1.045
 8302SOL    HW126865   3.147   8.310   0.979
 8302SOL    HW226866   3.259   8.218   1.054
 8303SOL     OW26867   3.071   7.973   0.275
 8303SOL    HW126868   3.084   7.889   0.329
 8303SOL    HW226869   3.042   8.047   0.335
 8304SOL     OW26870   2.169   7.661   1.231
 8304SOL    HW126871   2.146   7.698   1.321
 8304SOL    HW226872   2.139   7.566   1.225
 8305SOL     OW26873   1.899   8.758   1.282
 8305SOL    HW126874   1.952   8.709   1.350
 8305SOL    HW226875   1.921   8.856   1.287
 8306SOL     OW26876   2.594   8.082   1.064
 8306SOL    HW126877   2.653   8.056   0.988
 8306SOL    HW226878   2.566   8.178   1.053
 8307SOL     OW26879   3.590   8.383   1.854
 8307SOL    HW126880   3.544   8.376   1.765
 8307SOL    HW226881   3.528   8.427   1.920
 8308SOL     OW26882   2.169   7.511   0.618
 8308SOL    HW126883   2.158   7.605   0.651
 8308SOL    HW226884   2.164   7.448   0.695
 8309SOL     OW26885   3.484   7.815   0.374
 8309SOL    HW126886   3.486   7.739   0.438
 8309SOL    HW226887   3.436   7.892   0.414
 8310SOL     OW26888   2.885   8.214   0.966
 8310SOL    HW126889   2.900   8.235   1.062
 8310SOL    HW226890   2.855   8.119   0.957
 8311SOL     OW26891   3.721   8.966   1.605
 8311SOL    HW126892   3.735   8.993   1.510
 8311SOL    HW226893   3.804   8.988   1.658
 8312SOL     OW26894   2.212   8.346   1.804
 8312SOL    HW126895   2.288   8.390   1.852
 8312SOL    HW226896   2.247   8.299   1.722
 8313SOL     OW26897   3.402   7.722   0.125
 8313SOL    HW126898   3.341   7.647   0.148
 8313SOL    HW226899   3.424   7.774   0.208
 8314SOL     OW26900   3.165   8.286   0.042
 8314SOL    HW126901   3.199   8.193   0.057
 8314SOL    HW226902   3.183   8.313  -0.053
 8315SOL     OW26903   2.930   8.781   0.849
 8315SOL    HW126904   2.937   8.697   0.794
 8315SOL    HW226905   2.992   8.850   0.813
 8316SOL     OW26906   2.181   8.258   0.949
 8316SOL    HW126907   2.274   8.294   0.954
 8316SOL    HW226908   2.175   8.173   1.001
 8317SOL     OW26909   2.201   7.957   1.006
 8317SOL    HW126910   2.149   7.874   0.989
 8317SOL    HW226911   2.278   7.962   0.942
 8318SOL     OW26912   2.373   7.863   1.808
 8318SOL    HW126913   2.355   7.908   1.896
 8318SOL    HW226914   2.415   7.928   1.745
 8319SOL     OW26915   3.000   7.828   1.678
 8319SOL    HW126916   2.955   7.891   1.742
 8319SOL    HW226917   3.093   7.859   1.661
 8320SOL     OW26918   3.022   7.655   1.477
 8320SOL    HW126919   3.022   7.719   1.554
 8320SOL    HW226920   3.050   7.703   1.394
 8321SOL     OW26921   1.870   8.774   0.200
 8321SOL    HW126922   1.777   8.795   0.169
 8321SOL    HW226923   1.880   8.675   0.213
 8322SOL     OW26924   2.864   8.244   1.238
 8322SOL    HW126925   2.905   8.212   1.324
 8322SOL    HW226926   2.768   8.217   1.235
 8323SOL     OW26927   1.902   7.992   1.114
 8323SOL    HW126928   1.987   7.959   1.073
 8323SOL    HW226929   1.915   8.007   1.212
 8324SOL     OW26930   2.051   7.968   1.722
 8324SOL    HW126931   2.110   7.928   1.652
 8324SOL    HW226932   1.993   8.039   1.681
 8325SOL     OW26933   3.231   8.398   1.660
 8325SOL    HW126934   3.270   8.487   1.680
 8325SOL    HW226935   3.241   8.378   1.563
 8326SOL     OW26936   2.677   8.020   0.325
 8326SOL    HW126937   2.684   7.931   0.279
 8326SOL    HW226938   2.583   8.054   0.317
 8327SOL     OW26939   3.519   8.052   1.206
 8327SOL    HW126940   3.481   7.983   1.268
 8327SOL    HW226941   3.601   8.016   1.162
 8328SOL     OW26942   2.114   0.012   1.744
 8328SOL    HW126943   2.084   0.069   1.820
 8328SOL    HW226944   2.107  -0.085   1.770
 8329SOL     OW26945   2.533   7.912   1.269
 8329SOL    HW126946   2.499   7.823   1.239
 8329SOL    HW226947   2.559   7.966   1.189
 8330SOL     OW26948   2.335   7.948   0.191
 8330SOL    HW126949   2.396   8.028   0.195
 8330SOL    HW226950   2.240   7.979   0.198
 8331SOL     OW26951   2.021   8.585   1.466
 8331SOL    HW126952   2.043   8.524   1.542
 8331SOL    HW226953   2.031   8.536   1.380
 8332SOL     OW26954   3.209   8.507   1.234
 8332SOL    HW126955   3.233   8.444   1.160
 8332SOL    HW226956   3.119   8.547   1.216
 8333SOL     OW26957   3.164   8.303   0.309
 8333SOL    HW126958   3.078   8.272   0.351
 8333SOL    HW226959   3.160   8.289   0.210
 8334SOL     OW26960   1.945   8.706   1.022
 8334SOL    HW126961   1.940   8.705   1.122
 8334SOL    HW226962   1.862   8.665   0.984
 8335SOL     OW26963   2.765   7.534   0.133
 8335SOL    HW126964   2.816   7.535   0.047
 8335SOL    HW226965   2.821   7.492   0.204
 8336SOL     OW26966   3.588   7.583   0.523
 8336SOL    HW126967   3.661   7.566   0.456
 8336SOL    HW226968   3.557   7.496   0.561
 8337SOL     OW26969   3.142   8.375   0.672
 8337SOL    HW126970   3.202   8.294   0.674
 8337SOL    HW226971   3.182   8.444   0.612
 8338SOL     OW26972   2.692   8.721   1.422
 8338SOL    HW126973   2.687   8.754   1.517
 8338SOL    HW226974   2.606   8.740   1.376
 8339SOL     OW26975   3.703   7.623   0.963
 8339SOL    HW126976   3.742   7.538   0.927
 8339SOL    HW226977   3.605   7.625   0.944
 8340SOL     OW26978   2.125   7.774   0.720
 8340SOL    HW126979   2.046   7.825   0.686
 8340SOL    HW226980   2.116   7.759   0.818
 8341SOL     OW26981   2.684   8.450   1.372
 8341SOL    HW126982   2.724   8.449   1.280
 8341SOL    HW226983   2.694   8.542   1.412
 8342SOL     OW26984   2.778   8.358   0.291
 8342SOL    HW126985   2.841   8.396   0.223
 8342SOL    HW226986   2.818   8.275   0.330
 8343SOL     OW26987   2.234   8.736   1.490
 8343SOL    HW126988   2.221   8.829   1.456
 8343SOL    HW226989   2.150   8.684   1.477
 8344SOL     OW26990   3.476   8.740   1.289
 8344SOL    HW126991   3.536   8.743   1.369
 8344SOL    HW226992   3.401   8.804   1.302
 8345SOL     OW26993   2.901   8.546   0.696
 8345SOL    HW126994   2.831   8.499   0.750
 8345SOL    HW226995   2.960   8.478   0.653
 8346SOL     OW26996   2.876   7.684   0.971
 8346SOL    HW126997   2.868   7.648   0.878
 8346SOL    HW226998   2.874   7.608   1.036
 8347SOL     OW26999   3.571   7.833   1.381
 8347SOL    HW127000   3.644   7.902   1.385
 8347SOL    HW227001   3.599   7.758   1.322
 8348SOL     OW27002   2.117   8.796   0.290
 8348SOL    HW127003   2.021   8.797   0.263
 8348SOL    HW227004   2.129   8.849   0.374
 8349SOL     OW27005   1.967   8.461   1.726
 8349SOL    HW127006   1.890   8.428   1.780
 8349SOL    HW227007   2.052   8.431   1.768
 8350SOL     OW27008   2.534   7.651   1.489
 8350SOL    HW127009   2.624   7.635   1.449
 8350SOL    HW227010   2.542   7.656   1.588
 8351SOL     OW27011   3.302   8.304   1.398
 8351SOL    HW127012   3.245   8.356   1.335
 8351SOL    HW227013   3.398   8.316   1.374
 8352SOL     OW27014   1.934   7.614   0.318
 8352SOL    HW127015   1.917   7.697   0.264
 8352SOL    HW227016   2.024   7.577   0.296
 8353SOL     OW27017   3.045   8.783   0.119
 8353SOL    HW127018   2.946   8.772   0.121
 8353SOL    HW227019   3.079   8.798   0.212
 8354SOL     OW27020   2.475   8.290   1.431
 8354SOL    HW127021   2.531   8.371   1.414
 8354SOL    HW227022   2.534   8.210   1.434
 8355SOL     OW27023   2.578   8.013   1.708
 8355SOL    HW127024   2.597   8.078   1.782
 8355SOL    HW227025   2.638   7.933   1.717
 8356SOL     OW27026   3.312   8.668   1.633
 8356SOL    HW127027   3.303   8.658   1.732
 8356SOL    HW227028   3.408   8.661   1.607
 8357SOL     OW27029   3.536   8.331   1.254
 8357SOL    HW127030   3.509   8.242   1.217
 8357SOL    HW227031   3.537   8.399   1.181
 8358SOL     OW27032   3.087   7.773   0.449
 8358SOL    HW127033   3.152   7.699   0.438
 8358SOL    HW227034   3.107   7.823   0.533
 8359SOL     OW27035   2.456   8.193   0.652
 8359SOL    HW127036   2.506   8.278   0.633
 8359SOL    HW227037   2.368   8.195   0.604
 8360SOL     OW27038   3.639   7.790   1.642
 8360SOL    HW127039   3.622   7.821   1.548
 8360SOL    HW227040   3.555   7.753   1.680
 8361SOL     OW27041   3.592   8.382   1.517
 8361SOL    HW127042   3.630   8.473   1.532
 8361SOL    HW227043   3.584   8.365   1.418
 8362SOL     OW27044   2.721   8.822   0.016
 8362SOL    HW127045   2.675   8.837   0.104
 8362SOL    HW227046   2.765   8.907  -0.014
 8363SOL     OW27047   2.721   8.404   0.861
 8363SOL    HW127048   2.775   8.335   0.909
 8363SOL    HW227049   2.689   8.473   0.927
 8364SOL     OW27050   2.945   8.432   0.087
 8364SOL    HW127051   2.922   8.485   0.005
 8364SOL    HW227052   3.026   8.376   0.068
 8365SOL     OW27053   2.083   8.762   1.844
 8365SOL    HW127054   2.018   8.689   1.823
 8365SOL    HW227055   2.087   8.776   1.942
 8366SOL     OW27056   1.941   8.688   0.653
 8366SOL    HW127057   1.940   8.641   0.741
 8366SOL    HW227058   2.023   8.660   0.602
 8367SOL     OW27059   2.534   8.839   1.624
 8367SOL    HW127060   2.456   8.789   1.662
 8367SOL    HW227061   2.531   8.934   1.655
 8368SOL     OW27062   3.686   7.640   1.227
 8368SOL    HW127063   3.682   7.550   1.271
 8368SOL    HW227064   3.689   7.629   1.128
 8369SOL     OW27065   2.290   7.872   0.520
 8369SOL    HW127066   2.320   7.800   0.458
 8369SOL    HW227067   2.251   7.832   0.603
 8370SOL     OW27068   3.567   8.935   1.104
 8370SOL    HW127069   3.474   8.910   1.077
 8370SOL    HW227070   3.593   8.885   1.186
 8371SOL     OW27071   2.179   7.995   1.280
 8371SOL    HW127072   2.217   7.936   1.352
 8371SOL    HW227073   2.219   7.969   1.192
 8372SOL     OW27074   3.286   7.662   1.112
 8372SOL    HW127075   3.338   7.597   1.167
 8372SOL    HW227076   3.237   7.725   1.173
 8373SOL     OW27077   2.863   7.482   1.154
 8373SOL    HW127078   2.800   7.410   1.123
 8373SOL    HW227079   2.956   7.446   1.154
 8374SOL     OW27080   2.632   8.778   0.301
 8374SOL    HW127081   2.586   8.691   0.318
 8374SOL    HW227082   2.723   8.775   0.342
 8375SOL     OW27083   2.480   0.015   1.284
 8375SOL    HW127084   2.475   0.097   1.341
 8375SOL    HW227085   2.569   0.012   1.239
 8376SOL     OW27086   3.162   7.901   0.691
 8376SOL    HW127087   3.103   7.981   0.695
 8376SOL    HW227088   3.177   7.866   0.784
 8377SOL     OW27089   3.455   7.669   0.882
 8377SOL    HW127090   3.371   7.668   0.936
 8377SOL    HW227091   3.457   7.752   0.826
 8378SOL     OW27092   1.901   8.525   0.300
 8378SOL    HW127093   2.000   8.514   0.291
 8378SOL    HW227094   1.861   8.439   0.332
 8379SOL     OW27095   2.092   8.076   1.975
 8379SOL    HW127096   1.999   8.074   2.012
 8379SOL    HW227097   2.093   8.037   1.883
 8380SOL     OW27098   2.087   7.723   2.858
 8380SOL    HW127099   2.122   7.706   2.950
 8380SOL    HW227100   1.999   7.678   2.846
 8381SOL     OW27101   1.881   7.816   2.509
 8381SOL    HW127102   1.799   7.859   2.548
 8381SOL    HW227103   1.853   7.743   2.446
 8382SOL     OW27104   2.431   8.723   3.027
 8382SOL    HW127105   2.338   8.716   2.990
 8382SOL    HW227106   2.442   8.812   3.071
 8383SOL     OW27107   3.417   8.959   2.565
 8383SOL    HW127108   3.360   8.943   2.646
 8383SOL    HW227109   3.358   8.969   2.485
 8384SOL     OW27110   3.605   8.066   2.718
 8384SOL    HW127111   3.638   8.160   2.718
 8384SOL    HW227112   3.656   8.012   2.784
 8385SOL     OW27113   2.997   8.151   2.579
 8385SOL    HW127114   3.054   8.229   2.554
 8385SOL    HW227115   2.937   8.177   2.655
 8386SOL     OW27116   3.617   8.055   2.093
 8386SOL    HW127117   3.605   8.042   1.994
 8386SOL    HW227118   3.587   7.974   2.142
 8387SOL     OW27119   2.630   8.592   2.885
 8387SOL    HW127120   2.552   8.609   2.945
 8387SOL    HW227121   2.664   8.679   2.849
 8388SOL     OW27122   2.712   8.246   3.685
 8388SOL    HW127123   2.708   8.322   3.750
 8388SOL    HW227124   2.734   8.282   3.594
 8389SOL     OW27125   2.547   8.460   2.527
 8389SOL    HW127126   2.616   8.444   2.597
 8389SOL    HW227127   2.474   8.517   2.565
 8390SOL     OW27128   2.548   8.609   3.665
 8390SOL    HW127129   2.608   8.688   3.679
 8390SOL    HW227130   2.462   8.640   3.624
 8391SOL     OW27131   2.197   8.883   2.923
 8391SOL    HW127132   2.119   8.852   2.870
 8391SOL    HW227133   2.255   8.941   2.866
 8392SOL     OW27134   3.322   8.953   3.201
 8392SOL    HW127135   3.346   9.047   3.227
 8392SOL    HW227136   3.306   8.899   3.283
 8393SOL     OW27137   2.300   7.840   3.361
 8393SOL    HW127138   2.382   7.784   3.370
 8393SOL    HW227139   2.219   7.782   3.365
 8394SOL     OW27140   3.465   7.895   2.599
 8394SOL    HW127141   3.391   7.941   2.549
 8394SOL    HW227142   3.516   7.963   2.652
 8395SOL     OW27143   2.093   0.161   2.345
 8395SOL    HW127144   2.127   0.238   2.399
 8395SOL    HW227145   2.137   0.161   2.255
 8396SOL     OW27146   2.989   8.789   3.552
 8396SOL    HW127147   3.036   8.789   3.640
 8396SOL    HW227148   2.941   8.702   3.541
 8397SOL     OW27149   2.092   8.882   2.400
 8397SOL    HW127150   2.066   8.978   2.400
 8397SOL    HW227151   2.021   8.828   2.445
 8398SOL     OW27152   2.102   8.539   2.748
 8398SOL    HW127153   2.116   8.455   2.800
 8398SOL    HW227154   2.047   8.603   2.803
 8399SOL     OW27155   2.468   8.412   1.985
 8399SOL    HW127156   2.475   8.496   1.931
 8399SOL    HW227157   2.514   8.425   2.073
 8400SOL     OW27158   3.456   7.562   3.342
 8400SOL    HW127159   3.438   7.629   3.270
 8400SOL    HW227160   3.453   7.608   3.431
 8401SOL     OW27161   1.984   8.091   2.425
 8401SOL    HW127162   1.939   8.003   2.442
 8401SOL    HW227163   1.983   8.145   2.509
 8402SOL     OW27164   1.889   0.044   1.979
 8402SOL    HW127165   1.870  -0.052   2.000
 8402SOL    HW227166   1.856   0.102   2.054
 8403SOL     OW27167   3.551   8.370   2.474
 8403SOL    HW127168   3.646   8.341   2.482
 8403SOL    HW227169   3.543   8.435   2.399
 8404SOL     OW27170   3.503   8.556   2.294
 8404SOL    HW127171   3.589   8.558   2.242
 8404SOL    HW227172   3.517   8.603   2.382
 8405SOL     OW27173   1.975   8.185   3.459
 8405SOL    HW127174   2.063   8.172   3.504
 8405SOL    HW227175   1.962   8.282   3.437
 8406SOL     OW27176   2.475   8.813   2.588
 8406SOL    HW127177   2.426   8.726   2.597
 8406SOL    HW227178   2.452   8.856   2.501
 8407SOL     OW27179   3.155   8.676   3.285
 8407SOL    HW127180   3.192   8.603   3.227
 8407SOL    HW227181   3.207   8.681   3.370
 8408SOL     OW27182   2.671   7.452   2.364
 8408SOL    HW127183   2.711   7.543   2.355
 8408SOL    HW227184   2.571   7.460   2.370
 8409SOL     OW27185   2.059   8.424   3.126
 8409SOL    HW127186   2.148   8.379   3.112
 8409SOL    HW227187   1.986   8.359   3.107
 8410SOL     OW27188   3.387   8.447   2.052
 8410SOL    HW127189   3.324   8.371   2.065
 8410SOL    HW227190   3.435   8.465   2.138
 8411SOL     OW27191   2.179   7.699   3.663
 8411SOL    HW127192   2.250   7.770   3.669
 8411SOL    HW227193   2.091   7.738   3.691
 8412SOL     OW27194   3.328   8.865   2.815
 8412SOL    HW127195   3.269   8.871   2.895
 8412SOL    HW227196   3.313   8.777   2.769
 8413SOL     OW27197   2.460   8.177   2.132
 8413SOL    HW127198   2.484   8.246   2.064
 8413SOL    HW227199   2.382   8.210   2.186
 8414SOL     OW27200   3.143   7.793   2.806
 8414SOL    HW127201   3.057   7.743   2.793
 8414SOL    HW227202   3.205   7.739   2.862
 8415SOL     OW27203   2.669   8.053   3.327
 8415SOL    HW127204   2.622   8.050   3.416
 8415SOL    HW227205   2.618   7.998   3.261
 8416SOL     OW27206   3.256   7.917   3.536
 8416SOL    HW127207   3.236   7.960   3.624
 8416SOL    HW227208   3.334   7.855   3.545
 8417SOL     OW27209   2.835   8.338   3.434
 8417SOL    HW127210   2.881   8.254   3.405
 8417SOL    HW227211   2.779   8.372   3.359
 8418SOL     OW27212   2.853   7.858   3.104
 8418SOL    HW127213   2.776   7.892   3.158
 8418SOL    HW227214   2.819   7.807   3.025
 8419SOL     OW27215   2.903   8.149   2.291
 8419SOL    HW127216   2.929   8.145   2.387
 8419SOL    HW227217   2.818   8.098   2.277
 8420SOL     OW27218   1.938   8.259   2.651
 8420SOL    HW127219   2.037   8.247   2.660
 8420SOL    HW227220   1.914   8.354   2.672
 8421SOL     OW27221   2.727   7.796   2.057
 8421SOL    HW127222   2.786   7.859   2.008
 8421SOL    HW227223   2.746   7.702   2.028
 8422SOL     OW27224   3.581   8.033   3.693
 8422SOL    HW127225   3.555   8.122   3.657
 8422SOL    HW227226   3.579   7.965   3.620
 8423SOL     OW27227   3.224   8.592   2.407
 8423SOL    HW127228   3.307   8.563   2.359
 8423SOL    HW227229   3.175   8.659   2.351
 8424SOL     OW27230   2.412   7.644   2.747
 8424SOL    HW127231   2.407   7.639   2.847
 8424SOL    HW227232   2.414   7.740   2.718
 8425SOL     OW27233   2.870   8.904   2.339
 8425SOL    HW127234   2.824   8.976   2.287
 8425SOL    HW227235   2.866   8.924   2.437
 8426SOL     OW27236   3.657   8.514   2.735
 8426SOL    HW127237   3.595   8.499   2.659
 8426SOL    HW227238   3.605   8.525   2.820
 8427SOL     OW27239   3.089   8.998   3.368
 8427SOL    HW127240   3.095   8.921   3.432
 8427SOL    HW227241   3.037   8.972   3.288
 8428SOL     OW27242   2.183   8.391   2.104
 8428SOL    HW127243   2.265   8.430   2.062
 8428SOL    HW227244   2.156   8.309   2.055
 8429SOL     OW27245   3.320   8.183   2.590
 8429SOL    HW127246   3.315   8.118   2.665
 8429SOL    HW227247   3.400   8.242   2.603
 8430SOL     OW27248   2.323   8.714   3.589
 8430SOL    HW127249   2.273   8.715   3.503
 8430SOL    HW227250   2.260   8.696   3.665
 8431SOL     OW27251   2.973   0.224   2.099
 8431SOL    HW127252   2.913   0.162   2.149
 8431SOL    HW227253   3.004   0.180   2.014
 8432SOL     OW27254   2.064   7.733   3.360
 8432SOL    HW127255   1.984   7.793   3.347
 8432SOL    HW227256   2.054   7.684   3.446
 8433SOL     OW27257   3.494   8.825   1.943
 8433SOL    HW127258   3.462   8.919   1.933
 8433SOL    HW227259   3.418   8.762   1.931
 8434SOL     OW27260   3.262   7.555   2.288
 8434SOL    HW127261   3.238   7.518   2.198
 8434SOL    HW227262   3.361   7.571   2.292
 8435SOL     OW27263   2.244   8.148   2.342
 8435SOL    HW127264   2.289   8.058   2.339
 8435SOL    HW227265   2.150   8.137   2.375
 8436SOL     OW27266   3.409   7.670   3.591
 8436SOL    HW127267   3.404   7.707   3.683
 8436SOL    HW227268   3.337   7.601   3.579
 8437SOL     OW27269   2.476   7.570   1.979
 8437SOL    HW127270   2.574   7.548   1.986
 8437SOL    HW227271   2.445   7.553   1.886
 8438SOL     OW27272   2.643   7.712   3.611
 8438SOL    HW127273   2.710   7.651   3.654
 8438SOL    HW227274   2.570   7.731   3.676
 8439SOL     OW27275   3.213   8.038   3.295
 8439SOL    HW127276   3.241   7.995   3.380
 8439SOL    HW227277   3.238   8.134   3.296
 8440SOL     OW27278   2.665   8.850   2.786
 8440SOL    HW127279   2.755   8.864   2.744
 8440SOL    HW227280   2.594   8.852   2.715
 8441SOL     OW27281   2.784   7.951   2.761
 8441SOL    HW127282   2.759   7.942   2.665
 8441SOL    HW227283   2.832   7.869   2.792
 8442SOL     OW27284   2.401   7.512   2.374
 8442SOL    HW127285   2.320   7.513   2.432
 8442SOL    HW227286   2.404   7.595   2.319
 8443SOL     OW27287   3.296   8.636   1.903
 8443SOL    HW127288   3.328   8.560   1.960
 8443SOL    HW227289   3.204   8.663   1.933
 8444SOL     OW27290   2.159   7.483   2.033
 8444SOL    HW127291   2.208   7.567   2.012
 8444SOL    HW227292   2.221   7.418   2.078
 8445SOL     OW27293   2.797   7.684   2.342
 8445SOL    HW127294   2.749   7.725   2.264
 8445SOL    HW227295   2.896   7.682   2.323
 8446SOL     OW27296   2.938   8.131   3.326
 8446SOL    HW127297   2.858   8.070   3.329
 8446SOL    HW227298   3.019   8.078   3.302
 8447SOL     OW27299   3.089   0.018   2.655
 8447SOL    HW127300   3.110   0.092   2.590
 8447SOL    HW227301   3.157   0.018   2.728
 8448SOL     OW27302   2.321   8.600   2.603
 8448SOL    HW127303   2.250   8.573   2.668
 8448SOL    HW227304   2.295   8.572   2.510
 8449SOL     OW27305   2.894   7.997   1.878
 8449SOL    HW127306   2.853   8.079   1.839
 8449SOL    HW227307   2.958   8.023   1.951
 8450SOL     OW27308   1.940   8.004   3.248
 8450SOL    HW127309   2.032   8.003   3.207
 8450SOL    HW227310   1.934   8.078   3.315
 8451SOL     OW27311   2.423   7.670   3.009
 8451SOL    HW127312   2.461   7.586   3.046
 8451SOL    HW227313   2.335   7.689   3.053
 8452SOL     OW27314   2.728   7.902   2.504
 8452SOL    HW127315   2.696   7.974   2.442
 8452SOL    HW227316   2.752   7.821   2.451
 8453SOL     OW27317   2.879   7.487   2.615
 8453SOL    HW127318   2.807   7.492   2.546
 8453SOL    HW227319   2.855   7.418   2.684
 8454SOL     OW27320   3.291   8.621   2.729
 8454SOL    HW127321   3.236   8.537   2.722
 8454SOL    HW227322   3.317   8.650   2.637
 8455SOL     OW27323   3.328   8.038   2.854
 8455SOL    HW127324   3.298   7.943   2.861
 8455SOL    HW227325   3.401   8.054   2.920
 8456SOL     OW27326   3.719   8.281   2.239
 8456SOL    HW127327   3.761   8.217   2.303
 8456SOL    HW227328   3.681   8.230   2.161
 8457SOL     OW27329   2.350   8.833   2.036
 8457SOL    HW127330   2.263   8.818   2.083
 8457SOL    HW227331   2.333   8.859   1.941
 8458SOL     OW27332   3.526   8.728   2.519
 8458SOL    HW127333   3.625   8.736   2.533
 8458SOL    HW227334   3.481   8.812   2.550
 8459SOL     OW27335   3.252   8.023   1.940
 8459SOL    HW127336   3.198   8.002   2.021
 8459SOL    HW227337   3.343   7.982   1.949
 8460SOL     OW27338   2.389   7.704   2.190
 8460SOL    HW127339   2.416   7.645   2.115
 8460SOL    HW227340   2.389   7.799   2.159
 8461SOL     OW27341   3.616   8.671   3.450
 8461SOL    HW127342   3.707   8.632   3.437
 8461SOL    HW227343   3.624   8.767   3.474
 8462SOL     OW27344   2.926   8.795   3.202
 8462SOL    HW127345   2.846   8.772   3.257
 8462SOL    HW227346   3.009   8.769   3.251
 8463SOL     OW27347   2.973   8.643   2.962
 8463SOL    HW127348   2.933   8.687   3.043
 8463SOL    HW227349   2.932   8.680   2.879
 8464SOL     OW27350   3.500   8.547   2.941
 8464SOL    HW127351   3.505   8.628   3.000
 8464SOL    HW227352   3.414   8.549   2.890
 8465SOL     OW27353   2.777   7.537   3.264
 8465SOL    HW127354   2.802   7.517   3.169
 8465SOL    HW227355   2.849   7.593   3.306
 8466SOL     OW27356   2.842   8.564   3.581
 8466SOL    HW127357   2.743   8.570   3.591
 8466SOL    HW227358   2.865   8.484   3.525
 8467SOL     OW27359   2.567   8.498   2.230
 8467SOL    HW127360   2.553   8.505   2.329
 8467SOL    HW227361   2.651   8.447   2.212
 8468SOL     OW27362   2.272   8.261   3.113
 8468SOL    HW127363   2.358   8.273   3.163
 8468SOL    HW227364   2.230   8.174   3.140
 8469SOL     OW27365   3.136   7.834   3.124
 8469SOL    HW127366   3.157   7.908   3.188
 8469SOL    HW227367   3.047   7.851   3.081
 8470SOL     OW27368   2.229   8.548   2.363
 8470SOL    HW127369   2.222   8.631   2.307
 8470SOL    HW227370   2.233   8.468   2.303
 8471SOL     OW27371   2.428   7.985   2.727
 8471SOL    HW127372   2.440   8.051   2.653
 8471SOL    HW227373   2.474   8.019   2.810
 8472SOL     OW27374   3.114   8.796   2.250
 8472SOL    HW127375   3.164   8.873   2.290
 8472SOL    HW227376   3.019   8.798   2.282
 8473SOL     OW27377   3.134   8.893   3.004
 8473SOL    HW127378   3.181   8.906   3.091
 8473SOL    HW227379   3.068   8.819   3.013
 8474SOL     OW27380   3.444   8.087   2.334
 8474SOL    HW127381   3.413   8.148   2.407
 8474SOL    HW227382   3.494   8.139   2.265
 8475SOL     OW27383   2.216   8.958   3.191
 8475SOL    HW127384   2.195   8.914   3.104
 8475SOL    HW227385   2.313   8.984   3.194
 8476SOL     OW27386   2.264   8.199   3.460
 8476SOL    HW127387   2.332   8.254   3.413
 8476SOL    HW227388   2.304   8.111   3.487
 8477SOL     OW27389   3.449   8.227   3.532
 8477SOL    HW127390   3.357   8.265   3.527
 8477SOL    HW227391   3.509   8.274   3.467
 8478SOL     OW27392   2.875   7.553   3.632
 8478SOL    HW127393   2.881   7.638   3.580
 8478SOL    HW227394   2.907   7.477   3.575
 8479SOL     OW27395   2.366   7.498   3.602
 8479SOL    HW127396   2.324   7.441   3.532
 8479SOL    HW227397   2.300   7.567   3.634
 8480SOL     OW27398   2.435   8.318   2.891
 8480SOL    HW127399   2.479   8.407   2.882
 8480SOL    HW227400   2.372   8.318   2.968
 8481SOL     OW27401   3.222   8.310   2.907
 8481SOL    HW127402   3.147   8.310   2.841
 8481SOL    HW227403   3.259   8.218   2.916
 8482SOL     OW27404   3.071   7.973   2.137
 8482SOL    HW127405   3.084   7.889   2.191
 8482SOL    HW227406   3.042   8.047   2.197
 8483SOL     OW27407   2.169   7.661   3.093
 8483SOL    HW127408   2.146   7.698   3.183
 8483SOL    HW227409   2.139   7.566   3.087
 8484SOL     OW27410   1.899   8.758   3.144
 8484SOL    HW127411   1.952   8.709   3.212
 8484SOL    HW227412   1.921   8.856   3.149
 8485SOL     OW27413   2.594   8.082   2.926
 8485SOL    HW127414   2.653   8.056   2.850
 8485SOL    HW227415   2.566   8.178   2.915
 8486SOL     OW27416   3.590   8.383   3.716
 8486SOL    HW127417   3.544   8.376   3.627
 8486SOL    HW227418   3.528   8.427   3.782
 8487SOL     OW27419   2.169   7.511   2.480
 8487SOL    HW127420   2.158   7.605   2.513
 8487SOL    HW227421   2.164   7.448   2.557
 8488SOL     OW27422   3.484   7.815   2.236
 8488SOL    HW127423   3.486   7.739   2.300
 8488SOL    HW227424   3.436   7.892   2.276
 8489SOL     OW27425   2.885   8.214   2.828
 8489SOL    HW127426   2.900   8.235   2.924
 8489SOL    HW227427   2.855   8.119   2.819
 8490SOL     OW27428   3.721   8.966   3.467
 8490SOL    HW127429   3.735   8.993   3.372
 8490SOL    HW227430   3.804   8.988   3.520
 8491SOL     OW27431   2.212   8.346   3.666
 8491SOL    HW127432   2.288   8.390   3.714
 8491SOL    HW227433   2.247   8.299   3.584
 8492SOL     OW27434   3.402   7.722   1.987
 8492SOL    HW127435   3.341   7.647   2.010
 8492SOL    HW227436   3.424   7.774   2.070
 8493SOL     OW27437   3.165   8.286   1.904
 8493SOL    HW127438   3.199   8.193   1.919
 8493SOL    HW227439   3.183   8.313   1.809
 8494SOL     OW27440   2.930   8.781   2.711
 8494SOL    HW127441   2.937   8.697   2.656
 8494SOL    HW227442   2.992   8.850   2.675
 8495SOL     OW27443   2.181   8.258   2.811
 8495SOL    HW127444   2.274   8.294   2.816
 8495SOL    HW227445   2.175   8.173   2.863
 8496SOL     OW27446   2.201   7.957   2.868
 8496SOL    HW127447   2.149   7.874   2.851
 8496SOL    HW227448   2.278   7.962   2.804
 8497SOL     OW27449   2.373   7.863   3.670
 8497SOL    HW127450   2.355   7.908   3.758
 8497SOL    HW227451   2.415   7.928   3.607
 8498SOL     OW27452   3.000   7.828   3.540
 8498SOL    HW127453   2.955   7.891   3.604
 8498SOL    HW227454   3.093   7.859   3.523
 8499SOL     OW27455   3.022   7.655   3.339
 8499SOL    HW127456   3.022   7.719   3.416
 8499SOL    HW227457   3.050   7.703   3.256
 8500SOL     OW27458   1.870   8.774   2.062
 8500SOL    HW127459   1.777   8.795   2.031
 8500SOL    HW227460   1.880   8.675   2.075
 8501SOL     OW27461   2.864   8.244   3.100
 8501SOL    HW127462   2.905   8.212   3.186
 8501SOL    HW227463   2.768   8.217   3.097
 8502SOL     OW27464   1.902   7.992   2.976
 8502SOL    HW127465   1.987   7.959   2.935
 8502SOL    HW227466   1.915   8.007   3.074
 8503SOL     OW27467   2.051   7.968   3.584
 8503SOL    HW127468   2.110   7.928   3.514
 8503SOL    HW227469   1.993   8.039   3.543
 8504SOL     OW27470   3.231   8.398   3.522
 8504SOL    HW127471   3.270   8.487   3.542
 8504SOL    HW227472   3.241   8.378   3.425
 8505SOL     OW27473   2.677   8.020   2.187
 8505SOL    HW127474   2.684   7.931   2.141
 8505SOL    HW227475   2.583   8.054   2.179
 8506SOL     OW27476   3.519   8.052   3.068
 8506SOL    HW127477   3.481   7.983   3.130
 8506SOL    HW227478   3.601   8.016   3.024
 8507SOL     OW27479   2.114   0.012   3.606
 8507SOL    HW127480   2.084   0.069   3.682
 8507SOL    HW227481   2.107  -0.085   3.632
 8508SOL     OW27482   2.533   7.912   3.131
 8508SOL    HW127483   2.499   7.823   3.101
 8508SOL    HW227484   2.559   7.966   3.051
 8509SOL     OW27485   2.335   7.948   2.053
 8509SOL    HW127486   2.396   8.028   2.057
 8509SOL    HW227487   2.240   7.979   2.060
 8510SOL     OW27488   2.021   8.585   3.328
 8510SOL    HW127489   2.043   8.524   3.404
 8510SOL    HW227490   2.031   8.536   3.242
 8511SOL     OW27491   3.209   8.507   3.096
 8511SOL    HW127492   3.233   8.444   3.022
 8511SOL    HW227493   3.119   8.547   3.078
 8512SOL     OW27494   3.164   8.303   2.171
 8512SOL    HW127495   3.078   8.272   2.213
 8512SOL    HW227496   3.160   8.289   2.072
 8513SOL     OW27497   1.945   8.706   2.884
 8513SOL    HW127498   1.940   8.705   2.984
 8513SOL    HW227499   1.862   8.665   2.846
 8514SOL     OW27500   2.765   7.534   1.995
 8514SOL    HW127501   2.816   7.535   1.909
 8514SOL    HW227502   2.821   7.492   2.066
 8515SOL     OW27503   3.588   7.583   2.385
 8515SOL    HW127504   3.661   7.566   2.318
 8515SOL    HW227505   3.557   7.496   2.423
 8516SOL     OW27506   3.142   8.375   2.534
 8516SOL    HW127507   3.202   8.294   2.536
 8516SOL    HW227508   3.182   8.444   2.474
 8517SOL     OW27509   2.692   8.721   3.284
 8517SOL    HW127510   2.687   8.754   3.379
 8517SOL    HW227511   2.606   8.740   3.238
 8518SOL     OW27512   3.703   7.623   2.825
 8518SOL    HW127513   3.742   7.538   2.789
 8518SOL    HW227514   3.605   7.625   2.806
 8519SOL     OW27515   2.125   7.774   2.582
 8519SOL    HW127516   2.046   7.825   2.548
 8519SOL    HW227517   2.116   7.759   2.680
 8520SOL     OW27518   2.684   8.450   3.234
 8520SOL    HW127519   2.724   8.449   3.142
 8520SOL    HW227520   2.694   8.542   3.274
 8521SOL     OW27521   2.778   8.358   2.153
 8521SOL    HW127522   2.841   8.396   2.085
 8521SOL    HW227523   2.818   8.275   2.192
 8522SOL     OW27524   2.234   8.736   3.352
 8522SOL    HW127525   2.221   8.829   3.318
 8522SOL    HW227526   2.150   8.684   3.339
 8523SOL     OW27527   3.476   8.740   3.151
 8523SOL    HW127528   3.536   8.743   3.231
 8523SOL    HW227529   3.401   8.804   3.164
 8524SOL     OW27530   2.901   8.546   2.558
 8524SOL    HW127531   2.831   8.499   2.612
 8524SOL    HW227532   2.960   8.478   2.515
 8525SOL     OW27533   2.876   7.684   2.833
 8525SOL    HW127534   2.868   7.648   2.740
 8525SOL    HW227535   2.874   7.608   2.898
 8526SOL     OW27536   3.571   7.833   3.243
 8526SOL    HW127537   3.644   7.902   3.247
 8526SOL    HW227538   3.599   7.758   3.184
 8527SOL     OW27539   2.117   8.796   2.152
 8527SOL    HW127540   2.021   8.797   2.125
 8527SOL    HW227541   2.129   8.849   2.236
 8528SOL     OW27542   1.967   8.461   3.588
 8528SOL    HW127543   1.890   8.428   3.642
 8528SOL    HW227544   2.052   8.431   3.630
 8529SOL     OW27545   2.534   7.651   3.351
 8529SOL    HW127546   2.624   7.635   3.311
 8529SOL    HW227547   2.542   7.656   3.450
 8530SOL     OW27548   1.937   7.793   1.895
 8530SOL    HW127549   1.845   7.765   1.866
 8530SOL    HW227550   1.968   7.870   1.839
 8531SOL     OW27551   3.302   8.304   3.260
 8531SOL    HW127552   3.245   8.356   3.197
 8531SOL    HW227553   3.398   8.316   3.236
 8532SOL     OW27554   1.934   7.614   2.180
 8532SOL    HW127555   1.917   7.697   2.126
 8532SOL    HW227556   2.024   7.577   2.158
 8533SOL     OW27557   3.045   8.783   1.981
 8533SOL    HW127558   2.946   8.772   1.983
 8533SOL    HW227559   3.079   8.798   2.074
 8534SOL     OW27560   2.475   8.290   3.293
 8534SOL    HW127561   2.531   8.371   3.276
 8534SOL    HW227562   2.534   8.210   3.296
 8535SOL     OW27563   2.578   8.013   3.570
 8535SOL    HW127564   2.597   8.078   3.644
 8535SOL    HW227565   2.638   7.933   3.579
 8536SOL     OW27566   3.312   8.668   3.495
 8536SOL    HW127567   3.303   8.658   3.594
 8536SOL    HW227568   3.408   8.661   3.469
 8537SOL     OW27569   3.536   8.331   3.116
 8537SOL    HW127570   3.509   8.242   3.079
 8537SOL    HW227571   3.537   8.399   3.043
 8538SOL     OW27572   3.087   7.773   2.311
 8538SOL    HW127573   3.152   7.699   2.300
 8538SOL    HW227574   3.107   7.823   2.395
 8539SOL     OW27575   2.456   8.193   2.514
 8539SOL    HW127576   2.506   8.278   2.495
 8539SOL    HW227577   2.368   8.195   2.466
 8540SOL     OW27578   3.639   7.790   3.504
 8540SOL    HW127579   3.622   7.821   3.410
 8540SOL    HW227580   3.555   7.753   3.542
 8541SOL     OW27581   3.592   8.382   3.379
 8541SOL    HW127582   3.630   8.473   3.394
 8541SOL    HW227583   3.584   8.365   3.280
 8542SOL     OW27584   2.721   8.822   1.878
 8542SOL    HW127585   2.675   8.837   1.966
 8542SOL    HW227586   2.765   8.907   1.848
 8543SOL     OW27587   2.721   8.404   2.723
 8543SOL    HW127588   2.775   8.335   2.771
 8543SOL    HW227589   2.689   8.473   2.789
 8544SOL     OW27590   2.945   8.432   1.949
 8544SOL    HW127591   2.922   8.485   1.867
 8544SOL    HW227592   3.026   8.376   1.930
 8545SOL     OW27593   2.083   8.762   3.706
 8545SOL    HW127594   2.018   8.689   3.685
 8545SOL    HW227595   2.087   8.776   3.804
 8546SOL     OW27596   1.941   8.688   2.515
 8546SOL    HW127597   1.940   8.641   2.603
 8546SOL    HW227598   2.023   8.660   2.464
 8547SOL     OW27599   2.534   8.839   3.486
 8547SOL    HW127600   2.456   8.789   3.524
 8547SOL    HW227601   2.531   8.934   3.517
 8548SOL     OW27602   3.686   7.640   3.089
 8548SOL    HW127603   3.682   7.550   3.133
 8548SOL    HW227604   3.689   7.629   2.990
 8549SOL     OW27605   2.290   7.872   2.382
 8549SOL    HW127606   2.320   7.800   2.320
 8549SOL    HW227607   2.251   7.832   2.465
 8550SOL     OW27608   3.567   8.935   2.966
 8550SOL    HW127609   3.474   8.910   2.939
 8550SOL    HW227610   3.593   8.885   3.048
 8551SOL     OW27611   2.179   7.995   3.142
 8551SOL    HW127612   2.217   7.936   3.214
 8551SOL    HW227613   2.219   7.969   3.054
 8552SOL     OW27614   3.286   7.662   2.974
 8552SOL    HW127615   3.338   7.597   3.029
 8552SOL    HW227616   3.237   7.725   3.035
 8553SOL     OW27617   2.863   7.482   3.016
 8553SOL    HW127618   2.800   7.410   2.985
 8553SOL    HW227619   2.956   7.446   3.016
 8554SOL     OW27620   2.632   8.778   2.163
 8554SOL    HW127621   2.586   8.691   2.180
 8554SOL    HW227622   2.723   8.775   2.204
 8555SOL     OW27623   2.480   0.015   3.146
 8555SOL    HW127624   2.475   0.097   3.203
 8555SOL    HW227625   2.569   0.012   3.101
 8556SOL     OW27626   3.214   7.500   2.030
 8556SOL    HW127627   3.249   7.459   1.946
 8556SOL    HW227628   3.124   7.462   2.050
 8557SOL     OW27629   3.162   7.901   2.553
 8557SOL    HW127630   3.103   7.981   2.557
 8557SOL    HW227631   3.177   7.866   2.646
 8558SOL     OW27632   3.455   7.669   2.744
 8558SOL    HW127633   3.371   7.668   2.798
 8558SOL    HW227634   3.457   7.752   2.688
 8559SOL     OW27635   1.901   8.525   2.162
 8559SOL    HW127636   2.000   8.514   2.153
 8559SOL    HW227637   1.861   8.439   2.194
 8560SOL     OW27638   2.092   8.076   3.837
 8560SOL    HW127639   1.999   8.074   3.874
 8560SOL    HW227640   2.093   8.037   3.745
 8561SOL     OW27641   2.087   7.723   4.720
 8561SOL    HW127642   2.122   7.706   4.812
 8561SOL    HW227643   1.999   7.678   4.708
 8562SOL     OW27644   1.881   7.816   4.371
 8562SOL    HW127645   1.799   7.859   4.410
 8562SOL    HW227646   1.853   7.743   4.308
 8563SOL     OW27647   2.431   8.723   4.889
 8563SOL    HW127648   2.338   8.716   4.852
 8563SOL    HW227649   2.442   8.812   4.933
 8564SOL     OW27650   3.417   8.959   4.427
 8564SOL    HW127651   3.360   8.943   4.508
 8564SOL    HW227652   3.358   8.969   4.347
 8565SOL     OW27653   3.605   8.066   4.580
 8565SOL    HW127654   3.638   8.160   4.580
 8565SOL    HW227655   3.656   8.012   4.646
 8566SOL     OW27656   2.997   8.151   4.441
 8566SOL    HW127657   3.054   8.229   4.416
 8566SOL    HW227658   2.937   8.177   4.517
 8567SOL     OW27659   3.617   8.055   3.955
 8567SOL    HW127660   3.605   8.042   3.856
 8567SOL    HW227661   3.587   7.974   4.004
 8568SOL     OW27662   2.630   8.592   4.747
 8568SOL    HW127663   2.552   8.609   4.807
 8568SOL    HW227664   2.664   8.679   4.711
 8569SOL     OW27665   2.712   8.246   5.547
 8569SOL    HW127666   2.708   8.322   5.612
 8569SOL    HW227667   2.734   8.282   5.456
 8570SOL     OW27668   2.547   8.460   4.389
 8570SOL    HW127669   2.616   8.444   4.459
 8570SOL    HW227670   2.474   8.517   4.427
 8571SOL     OW27671   2.548   8.609   5.527
 8571SOL    HW127672   2.608   8.688   5.541
 8571SOL    HW227673   2.462   8.640   5.486
 8572SOL     OW27674   2.197   8.883   4.785
 8572SOL    HW127675   2.119   8.852   4.732
 8572SOL    HW227676   2.255   8.941   4.728
 8573SOL     OW27677   3.322   8.953   5.063
 8573SOL    HW127678   3.346   9.047   5.089
 8573SOL    HW227679   3.306   8.899   5.145
 8574SOL     OW27680   2.300   7.840   5.223
 8574SOL    HW127681   2.382   7.784   5.232
 8574SOL    HW227682   2.219   7.782   5.227
 8575SOL     OW27683   3.465   7.895   4.461
 8575SOL    HW127684   3.391   7.941   4.411
 8575SOL    HW227685   3.516   7.963   4.514
 8576SOL     OW27686   2.093   0.161   4.207
 8576SOL    HW127687   2.127   0.238   4.261
 8576SOL    HW227688   2.137   0.161   4.117
 8577SOL     OW27689   2.989   8.789   5.414
 8577SOL    HW127690   3.036   8.789   5.502
 8577SOL    HW227691   2.941   8.702   5.403
 8578SOL     OW27692   2.092   8.882   4.262
 8578SOL    HW127693   2.066   8.978   4.262
 8578SOL    HW227694   2.021   8.828   4.307
 8579SOL     OW27695   2.102   8.539   4.610
 8579SOL    HW127696   2.116   8.455   4.662
 8579SOL    HW227697   2.047   8.603   4.665
 8580SOL     OW27698   2.468   8.412   3.847
 8580SOL    HW127699   2.475   8.496   3.793
 8580SOL    HW227700   2.514   8.425   3.935
 8581SOL     OW27701   3.456   7.562   5.204
 8581SOL    HW127702   3.438   7.629   5.132
 8581SOL    HW227703   3.453   7.608   5.293
 8582SOL     OW27704   1.984   8.091   4.287
 8582SOL    HW127705   1.939   8.003   4.304
 8582SOL    HW227706   1.983   8.145   4.371
 8583SOL     OW27707   1.889   0.044   3.841
 8583SOL    HW127708   1.870  -0.052   3.862
 8583SOL    HW227709   1.856   0.102   3.916
 8584SOL     OW27710   3.551   8.370   4.336
 8584SOL    HW127711   3.646   8.341   4.344
 8584SOL    HW227712   3.543   8.435   4.261
 8585SOL     OW27713   3.503   8.556   4.156
 8585SOL    HW127714   3.589   8.558   4.104
 8585SOL    HW227715   3.517   8.603   4.244
 8586SOL     OW27716   1.975   8.185   5.321
 8586SOL    HW127717   2.063   8.172   5.366
 8586SOL    HW227718   1.962   8.282   5.299
 8587SOL     OW27719   2.475   8.813   4.450
 8587SOL    HW127720   2.426   8.726   4.459
 8587SOL    HW227721   2.452   8.856   4.363
 8588SOL     OW27722   3.155   8.676   5.147
 8588SOL    HW127723   3.192   8.603   5.089
 8588SOL    HW227724   3.207   8.681   5.232
 8589SOL     OW27725   2.671   7.452   4.226
 8589SOL    HW127726   2.711   7.543   4.217
 8589SOL    HW227727   2.571   7.460   4.232
 8590SOL     OW27728   2.059   8.424   4.988
 8590SOL    HW127729   2.148   8.379   4.974
 8590SOL    HW227730   1.986   8.359   4.969
 8591SOL     OW27731   3.387   8.447   3.914
 8591SOL    HW127732   3.324   8.371   3.927
 8591SOL    HW227733   3.435   8.465   4.000
 8592SOL     OW27734   2.179   7.699   5.525
 8592SOL    HW127735   2.250   7.770   5.531
 8592SOL    HW227736   2.091   7.738   5.553
 8593SOL     OW27737   3.328   8.865   4.677
 8593SOL    HW127738   3.269   8.871   4.757
 8593SOL    HW227739   3.313   8.777   4.631
 8594SOL     OW27740   2.460   8.177   3.994
 8594SOL    HW127741   2.484   8.246   3.926
 8594SOL    HW227742   2.382   8.210   4.048
 8595SOL     OW27743   3.143   7.793   4.668
 8595SOL    HW127744   3.057   7.743   4.655
 8595SOL    HW227745   3.205   7.739   4.724
 8596SOL     OW27746   2.669   8.053   5.189
 8596SOL    HW127747   2.622   8.050   5.278
 8596SOL    HW227748   2.618   7.998   5.123
 8597SOL     OW27749   3.256   7.917   5.398
 8597SOL    HW127750   3.236   7.960   5.486
 8597SOL    HW227751   3.334   7.855   5.407
 8598SOL     OW27752   2.835   8.338   5.296
 8598SOL    HW127753   2.881   8.254   5.267
 8598SOL    HW227754   2.779   8.372   5.221
 8599SOL     OW27755   2.853   7.858   4.966
 8599SOL    HW127756   2.776   7.892   5.020
 8599SOL    HW227757   2.819   7.807   4.887
 8600SOL     OW27758   2.903   8.149   4.153
 8600SOL    HW127759   2.929   8.145   4.249
 8600SOL    HW227760   2.818   8.098   4.139
 8601SOL     OW27761   1.938   8.259   4.513
 8601SOL    HW127762   2.037   8.247   4.522
 8601SOL    HW227763   1.914   8.354   4.534
 8602SOL     OW27764   2.727   7.796   3.919
 8602SOL    HW127765   2.786   7.859   3.870
 8602SOL    HW227766   2.746   7.702   3.890
 8603SOL     OW27767   3.581   8.033   5.555
 8603SOL    HW127768   3.555   8.122   5.519
 8603SOL    HW227769   3.579   7.965   5.482
 8604SOL     OW27770   3.224   8.592   4.269
 8604SOL    HW127771   3.307   8.563   4.221
 8604SOL    HW227772   3.175   8.659   4.213
 8605SOL     OW27773   2.412   7.644   4.609
 8605SOL    HW127774   2.407   7.639   4.709
 8605SOL    HW227775   2.414   7.740   4.580
 8606SOL     OW27776   2.870   8.904   4.201
 8606SOL    HW127777   2.824   8.976   4.149
 8606SOL    HW227778   2.866   8.924   4.299
 8607SOL     OW27779   3.657   8.514   4.597
 8607SOL    HW127780   3.595   8.499   4.521
 8607SOL    HW227781   3.605   8.525   4.682
 8608SOL     OW27782   3.089   8.998   5.230
 8608SOL    HW127783   3.095   8.921   5.294
 8608SOL    HW227784   3.037   8.972   5.150
 8609SOL     OW27785   2.183   8.391   3.966
 8609SOL    HW127786   2.265   8.430   3.924
 8609SOL    HW227787   2.156   8.309   3.917
 8610SOL     OW27788   3.320   8.183   4.452
 8610SOL    HW127789   3.315   8.118   4.527
 8610SOL    HW227790   3.400   8.242   4.465
 8611SOL     OW27791   2.323   8.714   5.451
 8611SOL    HW127792   2.273   8.715   5.365
 8611SOL    HW227793   2.260   8.696   5.527
 8612SOL     OW27794   2.973   0.224   3.961
 8612SOL    HW127795   2.913   0.162   4.011
 8612SOL    HW227796   3.004   0.180   3.876
 8613SOL     OW27797   2.064   7.733   5.222
 8613SOL    HW127798   1.984   7.793   5.209
 8613SOL    HW227799   2.054   7.684   5.308
 8614SOL     OW27800   3.494   8.825   3.805
 8614SOL    HW127801   3.462   8.919   3.795
 8614SOL    HW227802   3.418   8.762   3.793
 8615SOL     OW27803   3.262   7.555   4.150
 8615SOL    HW127804   3.238   7.518   4.060
 8615SOL    HW227805   3.361   7.571   4.154
 8616SOL     OW27806   2.244   8.148   4.204
 8616SOL    HW127807   2.289   8.058   4.201
 8616SOL    HW227808   2.150   8.137   4.237
 8617SOL     OW27809   3.409   7.670   5.453
 8617SOL    HW127810   3.404   7.707   5.545
 8617SOL    HW227811   3.337   7.601   5.441
 8618SOL     OW27812   2.476   7.570   3.841
 8618SOL    HW127813   2.574   7.548   3.848
 8618SOL    HW227814   2.445   7.553   3.748
 8619SOL     OW27815   2.643   7.712   5.473
 8619SOL    HW127816   2.710   7.651   5.516
 8619SOL    HW227817   2.570   7.731   5.538
 8620SOL     OW27818   3.213   8.038   5.157
 8620SOL    HW127819   3.241   7.995   5.242
 8620SOL    HW227820   3.238   8.134   5.158
 8621SOL     OW27821   2.665   8.850   4.648
 8621SOL    HW127822   2.755   8.864   4.606
 8621SOL    HW227823   2.594   8.852   4.577
 8622SOL     OW27824   2.784   7.951   4.623
 8622SOL    HW127825   2.759   7.942   4.527
 8622SOL    HW227826   2.832   7.869   4.654
 8623SOL     OW27827   2.401   7.512   4.236
 8623SOL    HW127828   2.320   7.513   4.294
 8623SOL    HW227829   2.404   7.595   4.181
 8624SOL     OW27830   3.296   8.636   3.765
 8624SOL    HW127831   3.328   8.560   3.822
 8624SOL    HW227832   3.204   8.663   3.795
 8625SOL     OW27833   2.159   7.483   3.895
 8625SOL    HW127834   2.208   7.567   3.874
 8625SOL    HW227835   2.221   7.418   3.940
 8626SOL     OW27836   2.797   7.684   4.204
 8626SOL    HW127837   2.749   7.725   4.126
 8626SOL    HW227838   2.896   7.682   4.185
 8627SOL     OW27839   2.938   8.131   5.188
 8627SOL    HW127840   2.858   8.070   5.191
 8627SOL    HW227841   3.019   8.078   5.164
 8628SOL     OW27842   3.089   0.018   4.517
 8628SOL    HW127843   3.110   0.092   4.452
 8628SOL    HW227844   3.157   0.018   4.590
 8629SOL     OW27845   2.321   8.600   4.465
 8629SOL    HW127846   2.250   8.573   4.530
 8629SOL    HW227847   2.295   8.572   4.372
 8630SOL     OW27848   2.894   7.997   3.740
 8630SOL    HW127849   2.853   8.079   3.701
 8630SOL    HW227850   2.958   8.023   3.813
 8631SOL     OW27851   1.940   8.004   5.110
 8631SOL    HW127852   2.032   8.003   5.069
 8631SOL    HW227853   1.934   8.078   5.177
 8632SOL     OW27854   2.423   7.670   4.871
 8632SOL    HW127855   2.461   7.586   4.908
 8632SOL    HW227856   2.335   7.689   4.915
 8633SOL     OW27857   2.728   7.902   4.366
 8633SOL    HW127858   2.696   7.974   4.304
 8633SOL    HW227859   2.752   7.821   4.313
 8634SOL     OW27860   2.879   7.487   4.477
 8634SOL    HW127861   2.807   7.492   4.408
 8634SOL    HW227862   2.855   7.418   4.546
 8635SOL     OW27863   3.291   8.621   4.591
 8635SOL    HW127864   3.236   8.537   4.584
 8635SOL    HW227865   3.317   8.650   4.499
 8636SOL     OW27866   3.328   8.038   4.716
 8636SOL    HW127867   3.298   7.943   4.723
 8636SOL    HW227868   3.401   8.054   4.782
 8637SOL     OW27869   3.719   8.281   4.101
 8637SOL    HW127870   3.761   8.217   4.165
 8637SOL    HW227871   3.681   8.230   4.023
 8638SOL     OW27872   2.350   8.833   3.898
 8638SOL    HW127873   2.263   8.818   3.945
 8638SOL    HW227874   2.333   8.859   3.803
 8639SOL     OW27875   3.526   8.728   4.381
 8639SOL    HW127876   3.625   8.736   4.395
 8639SOL    HW227877   3.481   8.812   4.412
 8640SOL     OW27878   3.252   8.023   3.802
 8640SOL    HW127879   3.198   8.002   3.883
 8640SOL    HW227880   3.343   7.982   3.811
 8641SOL     OW27881   2.389   7.704   4.052
 8641SOL    HW127882   2.416   7.645   3.977
 8641SOL    HW227883   2.389   7.799   4.021
 8642SOL     OW27884   3.616   8.671   5.312
 8642SOL    HW127885   3.707   8.632   5.299
 8642SOL    HW227886   3.624   8.767   5.336
 8643SOL     OW27887   2.926   8.795   5.064
 8643SOL    HW127888   2.846   8.772   5.119
 8643SOL    HW227889   3.009   8.769   5.113
 8644SOL     OW27890   2.973   8.643   4.824
 8644SOL    HW127891   2.933   8.687   4.905
 8644SOL    HW227892   2.932   8.680   4.741
 8645SOL     OW27893   3.500   8.547   4.803
 8645SOL    HW127894   3.505   8.628   4.862
 8645SOL    HW227895   3.414   8.549   4.752
 8646SOL     OW27896   2.777   7.537   5.126
 8646SOL    HW127897   2.802   7.517   5.031
 8646SOL    HW227898   2.849   7.593   5.168
 8647SOL     OW27899   2.842   8.564   5.443
 8647SOL    HW127900   2.743   8.570   5.453
 8647SOL    HW227901   2.865   8.484   5.387
 8648SOL     OW27902   2.567   8.498   4.092
 8648SOL    HW127903   2.553   8.505   4.191
 8648SOL    HW227904   2.651   8.447   4.074
 8649SOL     OW27905   2.272   8.261   4.975
 8649SOL    HW127906   2.358   8.273   5.025
 8649SOL    HW227907   2.230   8.174   5.002
 8650SOL     OW27908   3.136   7.834   4.986
 8650SOL    HW127909   3.157   7.908   5.050
 8650SOL    HW227910   3.047   7.851   4.943
 8651SOL     OW27911   2.229   8.548   4.225
 8651SOL    HW127912   2.222   8.631   4.169
 8651SOL    HW227913   2.233   8.468   4.165
 8652SOL     OW27914   2.428   7.985   4.589
 8652SOL    HW127915   2.440   8.051   4.515
 8652SOL    HW227916   2.474   8.019   4.672
 8653SOL     OW27917   3.114   8.796   4.112
 8653SOL    HW127918   3.164   8.873   4.152
 8653SOL    HW227919   3.019   8.798   4.144
 8654SOL     OW27920   3.134   8.893   4.866
 8654SOL    HW127921   3.181   8.906   4.953
 8654SOL    HW227922   3.068   8.819   4.875
 8655SOL     OW27923   3.444   8.087   4.196
 8655SOL    HW127924   3.413   8.148   4.269
 8655SOL    HW227925   3.494   8.139   4.127
 8656SOL     OW27926   2.216   8.958   5.053
 8656SOL    HW127927   2.195   8.914   4.966
 8656SOL    HW227928   2.313   8.984   5.056
 8657SOL     OW27929   2.264   8.199   5.322
 8657SOL    HW127930   2.332   8.254   5.275
 8657SOL    HW227931   2.304   8.111   5.349
 8658SOL     OW27932   3.449   8.227   5.394
 8658SOL    HW127933   3.357   8.265   5.389
 8658SOL    HW227934   3.509   8.274   5.329
 8659SOL     OW27935   2.875   7.553   5.494
 8659SOL    HW127936   2.881   7.638   5.442
 8659SOL    HW227937   2.907   7.477   5.437
 8660SOL     OW27938   2.366   7.498   5.464
 8660SOL    HW127939   2.324   7.441   5.394
 8660SOL    HW227940   2.300   7.567   5.496
 8661SOL     OW27941   2.435   8.318   4.753
 8661SOL    HW127942   2.479   8.407   4.744
 8661SOL    HW227943   2.372   8.318   4.830
 8662SOL     OW27944   3.222   8.310   4.769
 8662SOL    HW127945   3.147   8.310   4.703
 8662SOL    HW227946   3.259   8.218   4.778
 8663SOL     OW27947   3.071   7.973   3.999
 8663SOL    HW127948   3.084   7.889   4.053
 8663SOL    HW227949   3.042   8.047   4.059
 8664SOL     OW27950   2.169   7.661   4.955
 8664SOL    HW127951   2.146   7.698   5.045
 8664SOL    HW227952   2.139   7.566   4.949
 8665SOL     OW27953   1.899   8.758   5.006
 8665SOL    HW127954   1.952   8.709   5.074
 8665SOL    HW227955   1.921   8.856   5.011
 8666SOL     OW27956   2.594   8.082   4.788
 8666SOL    HW127957   2.653   8.056   4.712
 8666SOL    HW227958   2.566   8.178   4.777
 8667SOL     OW27959   3.590   8.383   5.578
 8667SOL    HW127960   3.544   8.376   5.489
 8667SOL    HW227961   3.528   8.427   5.644
 8668SOL     OW27962   2.169   7.511   4.342
 8668SOL    HW127963   2.158   7.605   4.375
 8668SOL    HW227964   2.164   7.448   4.419
 8669SOL     OW27965   3.484   7.815   4.098
 8669SOL    HW127966   3.486   7.739   4.162
 8669SOL    HW227967   3.436   7.892   4.138
 8670SOL     OW27968   2.885   8.214   4.690
 8670SOL    HW127969   2.900   8.235   4.786
 8670SOL    HW227970   2.855   8.119   4.681
 8671SOL     OW27971   3.721   8.966   5.329
 8671SOL    HW127972   3.735   8.993   5.234
 8671SOL    HW227973   3.804   8.988   5.382
 8672SOL     OW27974   2.212   8.346   5.528
 8672SOL    HW127975   2.288   8.390   5.576
 8672SOL    HW227976   2.247   8.299   5.446
 8673SOL     OW27977   3.402   7.722   3.849
 8673SOL    HW127978   3.341   7.647   3.872
 8673SOL    HW227979   3.424   7.774   3.932
 8674SOL     OW27980   3.165   8.286   3.766
 8674SOL    HW127981   3.199   8.193   3.781
 8674SOL    HW227982   3.183   8.313   3.671
 8675SOL     OW27983   2.930   8.781   4.573
 8675SOL    HW127984   2.937   8.697   4.518
 8675SOL    HW227985   2.992   8.850   4.537
 8676SOL     OW27986   2.181   8.258   4.673
 8676SOL    HW127987   2.274   8.294   4.678
 8676SOL    HW227988   2.175   8.173   4.725
 8677SOL     OW27989   2.201   7.957   4.730
 8677SOL    HW127990   2.149   7.874   4.713
 8677SOL    HW227991   2.278   7.962   4.666
 8678SOL     OW27992   2.373   7.863   5.532
 8678SOL    HW127993   2.355   7.908   5.620
 8678SOL    HW227994   2.415   7.928   5.469
 8679SOL     OW27995   3.000   7.828   5.402
 8679SOL    HW127996   2.955   7.891   5.466
 8679SOL    HW227997   3.093   7.859   5.385
 8680SOL     OW27998   3.022   7.655   5.201
 8680SOL    HW127999   3.022   7.719   5.278
 8680SOL    HW228000   3.050   7.703   5.118
 8681SOL     OW28001   1.870   8.774   3.924
 8681SOL    HW128002   1.777   8.795   3.893
 8681SOL    HW228003   1.880   8.675   3.937
 8682SOL     OW28004   2.864   8.244   4.962
 8682SOL    HW128005   2.905   8.212   5.048
 8682SOL    HW228006   2.768   8.217   4.959
 8683SOL     OW28007   1.902   7.992   4.838
 8683SOL    HW128008   1.987   7.959   4.797
 8683SOL    HW228009   1.915   8.007   4.936
 8684SOL     OW28010   2.051   7.968   5.446
 8684SOL    HW128011   2.110   7.928   5.376
 8684SOL    HW228012   1.993   8.039   5.405
 8685SOL     OW28013   3.231   8.398   5.384
 8685SOL    HW128014   3.270   8.487   5.404
 8685SOL    HW228015   3.241   8.378   5.287
 8686SOL     OW28016   2.677   8.020   4.049
 8686SOL    HW128017   2.684   7.931   4.003
 8686SOL    HW228018   2.583   8.054   4.041
 8687SOL     OW28019   3.519   8.052   4.930
 8687SOL    HW128020   3.481   7.983   4.992
 8687SOL    HW228021   3.601   8.016   4.886
 8688SOL     OW28022   2.114   0.012   5.468
 8688SOL    HW128023   2.084   0.069   5.544
 8688SOL    HW228024   2.107  -0.085   5.494
 8689SOL     OW28025   2.533   7.912   4.993
 8689SOL    HW128026   2.499   7.823   4.963
 8689SOL    HW228027   2.559   7.966   4.913
 8690SOL     OW28028   2.335   7.948   3.915
 8690SOL    HW128029   2.396   8.028   3.919
 8690SOL    HW228030   2.240   7.979   3.922
 8691SOL     OW28031   2.021   8.585   5.190
 8691SOL    HW128032   2.043   8.524   5.266
 8691SOL    HW228033   2.031   8.536   5.104
 8692SOL     OW28034   3.209   8.507   4.958
 8692SOL    HW128035   3.233   8.444   4.884
 8692SOL    HW228036   3.119   8.547   4.940
 8693SOL     OW28037   3.164   8.303   4.033
 8693SOL    HW128038   3.078   8.272   4.075
 8693SOL    HW228039   3.160   8.289   3.934
 8694SOL     OW28040   1.945   8.706   4.746
 8694SOL    HW128041   1.940   8.705   4.846
 8694SOL    HW228042   1.862   8.665   4.708
 8695SOL     OW28043   2.765   7.534   3.857
 8695SOL    HW128044   2.816   7.535   3.771
 8695SOL    HW228045   2.821   7.492   3.928
 8696SOL     OW28046   3.588   7.583   4.247
 8696SOL    HW128047   3.661   7.566   4.180
 8696SOL    HW228048   3.557   7.496   4.285
 8697SOL     OW28049   3.142   8.375   4.396
 8697SOL    HW128050   3.202   8.294   4.398
 8697SOL    HW228051   3.182   8.444   4.336
 8698SOL     OW28052   2.692   8.721   5.146
 8698SOL    HW128053   2.687   8.754   5.241
 8698SOL    HW228054   2.606   8.740   5.100
 8699SOL     OW28055   3.703   7.623   4.687
 8699SOL    HW128056   3.742   7.538   4.651
 8699SOL    HW228057   3.605   7.625   4.668
 8700SOL     OW28058   2.125   7.774   4.444
 8700SOL    HW128059   2.046   7.825   4.410
 8700SOL    HW228060   2.116   7.759   4.542
 8701SOL     OW28061   2.684   8.450   5.096
 8701SOL    HW128062   2.724   8.449   5.004
 8701SOL    HW228063   2.694   8.542   5.136
 8702SOL     OW28064   2.778   8.358   4.015
 8702SOL    HW128065   2.841   8.396   3.947
 8702SOL    HW228066   2.818   8.275   4.054
 8703SOL     OW28067   2.234   8.736   5.214
 8703SOL    HW128068   2.221   8.829   5.180
 8703SOL    HW228069   2.150   8.684   5.201
 8704SOL     OW28070   3.476   8.740   5.013
 8704SOL    HW128071   3.536   8.743   5.093
 8704SOL    HW228072   3.401   8.804   5.026
 8705SOL     OW28073   2.901   8.546   4.420
 8705SOL    HW128074   2.831   8.499   4.474
 8705SOL    HW228075   2.960   8.478   4.377
 8706SOL     OW28076   2.876   7.684   4.695
 8706SOL    HW128077   2.868   7.648   4.602
 8706SOL    HW228078   2.874   7.608   4.760
 8707SOL     OW28079   3.571   7.833   5.105
 8707SOL    HW128080   3.644   7.902   5.109
 8707SOL    HW228081   3.599   7.758   5.046
 8708SOL     OW28082   2.117   8.796   4.014
 8708SOL    HW128083   2.021   8.797   3.987
 8708SOL    HW228084   2.129   8.849   4.098
 8709SOL     OW28085   1.967   8.461   5.450
 8709SOL    HW128086   1.890   8.428   5.504
 8709SOL    HW228087   2.052   8.431   5.492
 8710SOL     OW28088   2.534   7.651   5.213
 8710SOL    HW128089   2.624   7.635   5.173
 8710SOL    HW228090   2.542   7.656   5.312
 8711SOL     OW28091   1.937   7.793   3.757
 8711SOL    HW128092   1.845   7.765   3.728
 8711SOL    HW228093   1.968   7.870   3.701
 8712SOL     OW28094   3.302   8.304   5.122
 8712SOL    HW128095   3.245   8.356   5.059
 8712SOL    HW228096   3.398   8.316   5.098
 8713SOL     OW28097   1.934   7.614   4.042
 8713SOL    HW128098   1.917   7.697   3.988
 8713SOL    HW228099   2.024   7.577   4.020
 8714SOL     OW28100   3.045   8.783   3.843
 8714SOL    HW128101   2.946   8.772   3.845
 8714SOL    HW228102   3.079   8.798   3.936
 8715SOL     OW28103   2.475   8.290   5.155
 8715SOL    HW128104   2.531   8.371   5.138
 8715SOL    HW228105   2.534   8.210   5.158
 8716SOL     OW28106   2.578   8.013   5.432
 8716SOL    HW128107   2.597   8.078   5.506
 8716SOL    HW228108   2.638   7.933   5.441
 8717SOL     OW28109   3.312   8.668   5.357
 8717SOL    HW128110   3.303   8.658   5.456
 8717SOL    HW228111   3.408   8.661   5.331
 8718SOL     OW28112   3.536   8.331   4.978
 8718SOL    HW128113   3.509   8.242   4.941
 8718SOL    HW228114   3.537   8.399   4.905
 8719SOL     OW28115   3.087   7.773   4.173
 8719SOL    HW128116   3.152   7.699   4.162
 8719SOL    HW228117   3.107   7.823   4.257
 8720SOL     OW28118   2.456   8.193   4.376
 8720SOL    HW128119   2.506   8.278   4.357
 8720SOL    HW228120   2.368   8.195   4.328
 8721SOL     OW28121   3.639   7.790   5.366
 8721SOL    HW128122   3.622   7.821   5.272
 8721SOL    HW228123   3.555   7.753   5.404
 8722SOL     OW28124   3.592   8.382   5.241
 8722SOL    HW128125   3.630   8.473   5.256
 8722SOL    HW228126   3.584   8.365   5.142
 8723SOL     OW28127   2.721   8.822   3.740
 8723SOL    HW128128   2.675   8.837   3.828
 8723SOL    HW228129   2.765   8.907   3.710
 8724SOL     OW28130   2.721   8.404   4.585
 8724SOL    HW128131   2.775   8.335   4.633
 8724SOL    HW228132   2.689   8.473   4.651
 8725SOL     OW28133   2.945   8.432   3.811
 8725SOL    HW128134   2.922   8.485   3.729
 8725SOL    HW228135   3.026   8.376   3.792
 8726SOL     OW28136   2.083   8.762   5.568
 8726SOL    HW128137   2.018   8.689   5.547
 8726SOL    HW228138   2.087   8.776   5.666
 8727SOL     OW28139   1.941   8.688   4.377
 8727SOL    HW128140   1.940   8.641   4.465
 8727SOL    HW228141   2.023   8.660   4.326
 8728SOL     OW28142   2.534   8.839   5.348
 8728SOL    HW128143   2.456   8.789   5.386
 8728SOL    HW228144   2.531   8.934   5.379
 8729SOL     OW28145   3.686   7.640   4.951
 8729SOL    HW128146   3.682   7.550   4.995
 8729SOL    HW228147   3.689   7.629   4.852
 8730SOL     OW28148   2.290   7.872   4.244
 8730SOL    HW128149   2.320   7.800   4.182
 8730SOL    HW228150   2.251   7.832   4.327
 8731SOL     OW28151   3.567   8.935   4.828
 8731SOL    HW128152   3.474   8.910   4.801
 8731SOL    HW228153   3.593   8.885   4.910
 8732SOL     OW28154   2.179   7.995   5.004
 8732SOL    HW128155   2.217   7.936   5.076
 8732SOL    HW228156   2.219   7.969   4.916
 8733SOL     OW28157   3.286   7.662   4.836
 8733SOL    HW128158   3.338   7.597   4.891
 8733SOL    HW228159   3.237   7.725   4.897
 8734SOL     OW28160   2.863   7.482   4.878
 8734SOL    HW128161   2.800   7.410   4.847
 8734SOL    HW228162   2.956   7.446   4.878
 8735SOL     OW28163   2.632   8.778   4.025
 8735SOL    HW128164   2.586   8.691   4.042
 8735SOL    HW228165   2.723   8.775   4.066
 8736SOL     OW28166   2.480   0.015   5.008
 8736SOL    HW128167   2.475   0.097   5.065
 8736SOL    HW228168   2.569   0.012   4.963
 8737SOL     OW28169   3.214   7.500   3.892
 8737SOL    HW128170   3.249   7.459   3.808
 8737SOL    HW228171   3.124   7.462   3.912
 8738SOL     OW28172   3.162   7.901   4.415
 8738SOL    HW128173   3.103   7.981   4.419
 8738SOL    HW228174   3.177   7.866   4.508
 8739SOL     OW28175   3.455   7.669   4.606
 8739SOL    HW128176   3.371   7.668   4.660
 8739SOL    HW228177   3.457   7.752   4.550
 8740SOL     OW28178   1.901   8.525   4.024
 8740SOL    HW128179   2.000   8.514   4.015
 8740SOL    HW228180   1.861   8.439   4.056
 8741SOL     OW28181   2.092   8.076   5.699
 8741SOL    HW128182   1.999   8.074   5.736
 8741SOL    HW228183   2.093   8.037   5.607
 8742SOL     OW28184   2.087   7.723   6.582
 8742SOL    HW128185   2.122   7.706   6.674
 8742SOL    HW228186   1.999   7.678   6.570
 8743SOL     OW28187   1.881   7.816   6.233
 8743SOL    HW128188   1.799   7.859   6.272
 8743SOL    HW228189   1.853   7.743   6.170
 8744SOL     OW28190   2.431   8.723   6.751
 8744SOL    HW128191   2.338   8.716   6.714
 8744SOL    HW228192   2.442   8.812   6.795
 8745SOL     OW28193   3.417   8.959   6.289
 8745SOL    HW128194   3.360   8.943   6.370
 8745SOL    HW228195   3.358   8.969   6.209
 8746SOL     OW28196   3.605   8.066   6.442
 8746SOL    HW128197   3.638   8.160   6.442
 8746SOL    HW228198   3.656   8.012   6.508
 8747SOL     OW28199   2.997   8.151   6.303
 8747SOL    HW128200   3.054   8.229   6.278
 8747SOL    HW228201   2.937   8.177   6.379
 8748SOL     OW28202   3.617   8.055   5.817
 8748SOL    HW128203   3.605   8.042   5.718
 8748SOL    HW228204   3.587   7.974   5.866
 8749SOL     OW28205   2.630   8.592   6.609
 8749SOL    HW128206   2.552   8.609   6.669
 8749SOL    HW228207   2.664   8.679   6.573
 8750SOL     OW28208   2.712   8.246   7.409
 8750SOL    HW128209   2.708   8.322   7.474
 8750SOL    HW228210   2.734   8.282   7.318
 8751SOL     OW28211   2.547   8.460   6.251
 8751SOL    HW128212   2.616   8.444   6.321
 8751SOL    HW228213   2.474   8.517   6.289
 8752SOL     OW28214   2.548   8.609   7.389
 8752SOL    HW128215   2.608   8.688   7.403
 8752SOL    HW228216   2.462   8.640   7.348
 8753SOL     OW28217   2.197   8.883   6.647
 8753SOL    HW128218   2.119   8.852   6.594
 8753SOL    HW228219   2.255   8.941   6.590
 8754SOL     OW28220   3.322   8.953   6.925
 8754SOL    HW128221   3.346   9.047   6.951
 8754SOL    HW228222   3.306   8.899   7.007
 8755SOL     OW28223   2.300   7.840   7.085
 8755SOL    HW128224   2.382   7.784   7.094
 8755SOL    HW228225   2.219   7.782   7.089
 8756SOL     OW28226   3.465   7.895   6.323
 8756SOL    HW128227   3.391   7.941   6.273
 8756SOL    HW228228   3.516   7.963   6.376
 8757SOL     OW28229   2.093   0.161   6.069
 8757SOL    HW128230   2.127   0.238   6.123
 8757SOL    HW228231   2.137   0.161   5.979
 8758SOL     OW28232   2.989   8.789   7.276
 8758SOL    HW128233   3.036   8.789   7.364
 8758SOL    HW228234   2.941   8.702   7.265
 8759SOL     OW28235   2.092   8.882   6.124
 8759SOL    HW128236   2.066   8.978   6.124
 8759SOL    HW228237   2.021   8.828   6.169
 8760SOL     OW28238   2.102   8.539   6.472
 8760SOL    HW128239   2.116   8.455   6.524
 8760SOL    HW228240   2.047   8.603   6.527
 8761SOL     OW28241   2.468   8.412   5.709
 8761SOL    HW128242   2.475   8.496   5.655
 8761SOL    HW228243   2.514   8.425   5.797
 8762SOL     OW28244   3.456   7.562   7.066
 8762SOL    HW128245   3.438   7.629   6.994
 8762SOL    HW228246   3.453   7.608   7.155
 8763SOL     OW28247   1.984   8.091   6.149
 8763SOL    HW128248   1.939   8.003   6.166
 8763SOL    HW228249   1.983   8.145   6.233
 8764SOL     OW28250   1.889   0.044   5.703
 8764SOL    HW128251   1.870  -0.052   5.724
 8764SOL    HW228252   1.856   0.102   5.778
 8765SOL     OW28253   3.551   8.370   6.198
 8765SOL    HW128254   3.646   8.341   6.206
 8765SOL    HW228255   3.543   8.435   6.123
 8766SOL     OW28256   3.503   8.556   6.018
 8766SOL    HW128257   3.589   8.558   5.966
 8766SOL    HW228258   3.517   8.603   6.106
 8767SOL     OW28259   1.975   8.185   7.183
 8767SOL    HW128260   2.063   8.172   7.228
 8767SOL    HW228261   1.962   8.282   7.161
 8768SOL     OW28262   2.475   8.813   6.312
 8768SOL    HW128263   2.426   8.726   6.321
 8768SOL    HW228264   2.452   8.856   6.225
 8769SOL     OW28265   3.155   8.676   7.009
 8769SOL    HW128266   3.192   8.603   6.951
 8769SOL    HW228267   3.207   8.681   7.094
 8770SOL     OW28268   2.671   7.452   6.088
 8770SOL    HW128269   2.711   7.543   6.079
 8770SOL    HW228270   2.571   7.460   6.094
 8771SOL     OW28271   2.059   8.424   6.850
 8771SOL    HW128272   2.148   8.379   6.836
 8771SOL    HW228273   1.986   8.359   6.831
 8772SOL     OW28274   3.387   8.447   5.776
 8772SOL    HW128275   3.324   8.371   5.789
 8772SOL    HW228276   3.435   8.465   5.862
 8773SOL     OW28277   2.179   7.699   7.387
 8773SOL    HW128278   2.250   7.770   7.393
 8773SOL    HW228279   2.091   7.738   7.415
 8774SOL     OW28280   3.328   8.865   6.539
 8774SOL    HW128281   3.269   8.871   6.619
 8774SOL    HW228282   3.313   8.777   6.493
 8775SOL     OW28283   2.460   8.177   5.856
 8775SOL    HW128284   2.484   8.246   5.788
 8775SOL    HW228285   2.382   8.210   5.910
 8776SOL     OW28286   3.143   7.793   6.530
 8776SOL    HW128287   3.057   7.743   6.517
 8776SOL    HW228288   3.205   7.739   6.586
 8777SOL     OW28289   2.669   8.053   7.051
 8777SOL    HW128290   2.622   8.050   7.140
 8777SOL    HW228291   2.618   7.998   6.985
 8778SOL     OW28292   3.256   7.917   7.260
 8778SOL    HW128293   3.236   7.960   7.348
 8778SOL    HW228294   3.334   7.855   7.269
 8779SOL     OW28295   2.835   8.338   7.158
 8779SOL    HW128296   2.881   8.254   7.129
 8779SOL    HW228297   2.779   8.372   7.083
 8780SOL     OW28298   2.853   7.858   6.828
 8780SOL    HW128299   2.776   7.892   6.882
 8780SOL    HW228300   2.819   7.807   6.749
 8781SOL     OW28301   2.903   8.149   6.015
 8781SOL    HW128302   2.929   8.145   6.111
 8781SOL    HW228303   2.818   8.098   6.001
 8782SOL     OW28304   1.938   8.259   6.375
 8782SOL    HW128305   2.037   8.247   6.384
 8782SOL    HW228306   1.914   8.354   6.396
 8783SOL     OW28307   2.727   7.796   5.781
 8783SOL    HW128308   2.786   7.859   5.732
 8783SOL    HW228309   2.746   7.702   5.752
 8784SOL     OW28310   3.581   8.033   7.417
 8784SOL    HW128311   3.555   8.122   7.381
 8784SOL    HW228312   3.579   7.965   7.344
 8785SOL     OW28313   3.224   8.592   6.131
 8785SOL    HW128314   3.307   8.563   6.083
 8785SOL    HW228315   3.175   8.659   6.075
 8786SOL     OW28316   2.412   7.644   6.471
 8786SOL    HW128317   2.407   7.639   6.571
 8786SOL    HW228318   2.414   7.740   6.442
 8787SOL     OW28319   2.870   8.904   6.063
 8787SOL    HW128320   2.824   8.976   6.011
 8787SOL    HW228321   2.866   8.924   6.161
 8788SOL     OW28322   3.657   8.514   6.459
 8788SOL    HW128323   3.595   8.499   6.383
 8788SOL    HW228324   3.605   8.525   6.544
 8789SOL     OW28325   3.089   8.998   7.092
 8789SOL    HW128326   3.095   8.921   7.156
 8789SOL    HW228327   3.037   8.972   7.012
 8790SOL     OW28328   2.183   8.391   5.828
 8790SOL    HW128329   2.265   8.430   5.786
 8790SOL    HW228330   2.156   8.309   5.779
 8791SOL     OW28331   3.320   8.183   6.314
 8791SOL    HW128332   3.315   8.118   6.389
 8791SOL    HW228333   3.400   8.242   6.327
 8792SOL     OW28334   2.323   8.714   7.313
 8792SOL    HW128335   2.273   8.715   7.227
 8792SOL    HW228336   2.260   8.696   7.389
 8793SOL     OW28337   2.973   0.224   5.823
 8793SOL    HW128338   2.913   0.162   5.873
 8793SOL    HW228339   3.004   0.180   5.738
 8794SOL     OW28340   2.064   7.733   7.084
 8794SOL    HW128341   1.984   7.793   7.071
 8794SOL    HW228342   2.054   7.684   7.170
 8795SOL     OW28343   3.494   8.825   5.667
 8795SOL    HW128344   3.462   8.919   5.657
 8795SOL    HW228345   3.418   8.762   5.655
 8796SOL     OW28346   3.262   7.555   6.012
 8796SOL    HW128347   3.238   7.518   5.922
 8796SOL    HW228348   3.361   7.571   6.016
 8797SOL     OW28349   2.244   8.148   6.066
 8797SOL    HW128350   2.289   8.058   6.063
 8797SOL    HW228351   2.150   8.137   6.099
 8798SOL     OW28352   3.409   7.670   7.315
 8798SOL    HW128353   3.404   7.707   7.407
 8798SOL    HW228354   3.337   7.601   7.303
 8799SOL     OW28355   2.476   7.570   5.703
 8799SOL    HW128356   2.574   7.548   5.710
 8799SOL    HW228357   2.445   7.553   5.610
 8800SOL     OW28358   2.643   7.712   7.335
 8800SOL    HW128359   2.710   7.651   7.378
 8800SOL    HW228360   2.570   7.731   7.400
 8801SOL     OW28361   3.213   8.038   7.019
 8801SOL    HW128362   3.241   7.995   7.104
 8801SOL    HW228363   3.238   8.134   7.020
 8802SOL     OW28364   2.665   8.850   6.510
 8802SOL    HW128365   2.755   8.864   6.468
 8802SOL    HW228366   2.594   8.852   6.439
 8803SOL     OW28367   2.784   7.951   6.485
 8803SOL    HW128368   2.759   7.942   6.389
 8803SOL    HW228369   2.832   7.869   6.516
 8804SOL     OW28370   2.401   7.512   6.098
 8804SOL    HW128371   2.320   7.513   6.156
 8804SOL    HW228372   2.404   7.595   6.043
 8805SOL     OW28373   3.296   8.636   5.627
 8805SOL    HW128374   3.328   8.560   5.684
 8805SOL    HW228375   3.204   8.663   5.657
 8806SOL     OW28376   2.159   7.483   5.757
 8806SOL    HW128377   2.208   7.567   5.736
 8806SOL    HW228378   2.221   7.418   5.802
 8807SOL     OW28379   2.797   7.684   6.066
 8807SOL    HW128380   2.749   7.725   5.988
 8807SOL    HW228381   2.896   7.682   6.047
 8808SOL     OW28382   2.938   8.131   7.050
 8808SOL    HW128383   2.858   8.070   7.053
 8808SOL    HW228384   3.019   8.078   7.026
 8809SOL     OW28385   3.089   0.018   6.379
 8809SOL    HW128386   3.110   0.092   6.314
 8809SOL    HW228387   3.157   0.018   6.452
 8810SOL     OW28388   2.321   8.600   6.327
 8810SOL    HW128389   2.250   8.573   6.392
 8810SOL    HW228390   2.295   8.572   6.234
 8811SOL     OW28391   2.894   7.997   5.602
 8811SOL    HW128392   2.853   8.079   5.563
 8811SOL    HW228393   2.958   8.023   5.675
 8812SOL     OW28394   1.940   8.004   6.972
 8812SOL    HW128395   2.032   8.003   6.931
 8812SOL    HW228396   1.934   8.078   7.039
 8813SOL     OW28397   2.423   7.670   6.733
 8813SOL    HW128398   2.461   7.586   6.770
 8813SOL    HW228399   2.335   7.689   6.777
 8814SOL     OW28400   2.728   7.902   6.228
 8814SOL    HW128401   2.696   7.974   6.166
 8814SOL    HW228402   2.752   7.821   6.175
 8815SOL     OW28403   2.879   7.487   6.339
 8815SOL    HW128404   2.807   7.492   6.270
 8815SOL    HW228405   2.855   7.418   6.408
 8816SOL     OW28406   3.291   8.621   6.453
 8816SOL    HW128407   3.236   8.537   6.446
 8816SOL    HW228408   3.317   8.650   6.361
 8817SOL     OW28409   3.328   8.038   6.578
 8817SOL    HW128410   3.298   7.943   6.585
 8817SOL    HW228411   3.401   8.054   6.644
 8818SOL     OW28412   3.719   8.281   5.963
 8818SOL    HW128413   3.761   8.217   6.027
 8818SOL    HW228414   3.681   8.230   5.885
 8819SOL     OW28415   2.350   8.833   5.760
 8819SOL    HW128416   2.263   8.818   5.807
 8819SOL    HW228417   2.333   8.859   5.665
 8820SOL     OW28418   3.526   8.728   6.243
 8820SOL    HW128419   3.625   8.736   6.257
 8820SOL    HW228420   3.481   8.812   6.274
 8821SOL     OW28421   3.252   8.023   5.664
 8821SOL    HW128422   3.198   8.002   5.745
 8821SOL    HW228423   3.343   7.982   5.673
 8822SOL     OW28424   2.389   7.704   5.914
 8822SOL    HW128425   2.416   7.645   5.839
 8822SOL    HW228426   2.389   7.799   5.883
 8823SOL     OW28427   3.616   8.671   7.174
 8823SOL    HW128428   3.707   8.632   7.161
 8823SOL    HW228429   3.624   8.767   7.198
 8824SOL     OW28430   2.926   8.795   6.926
 8824SOL    HW128431   2.846   8.772   6.981
 8824SOL    HW228432   3.009   8.769   6.975
 8825SOL     OW28433   2.973   8.643   6.686
 8825SOL    HW128434   2.933   8.687   6.767
 8825SOL    HW228435   2.932   8.680   6.603
 8826SOL     OW28436   3.500   8.547   6.665
 8826SOL    HW128437   3.505   8.628   6.724
 8826SOL    HW228438   3.414   8.549   6.614
 8827SOL     OW28439   2.777   7.537   6.988
 8827SOL    HW128440   2.802   7.517   6.893
 8827SOL    HW228441   2.849   7.593   7.030
 8828SOL     OW28442   2.842   8.564   7.305
 8828SOL    HW128443   2.743   8.570   7.315
 8828SOL    HW228444   2.865   8.484   7.249
 8829SOL     OW28445   2.567   8.498   5.954
 8829SOL    HW128446   2.553   8.505   6.053
 8829SOL    HW228447   2.651   8.447   5.936
 8830SOL     OW28448   2.272   8.261   6.837
 8830SOL    HW128449   2.358   8.273   6.887
 8830SOL    HW228450   2.230   8.174   6.864
 8831SOL     OW28451   3.136   7.834   6.848
 8831SOL    HW128452   3.157   7.908   6.912
 8831SOL    HW228453   3.047   7.851   6.805
 8832SOL     OW28454   2.229   8.548   6.087
 8832SOL    HW128455   2.222   8.631   6.031
 8832SOL    HW228456   2.233   8.468   6.027
 8833SOL     OW28457   2.428   7.985   6.451
 8833SOL    HW128458   2.440   8.051   6.377
 8833SOL    HW228459   2.474   8.019   6.534
 8834SOL     OW28460   3.114   8.796   5.974
 8834SOL    HW128461   3.164   8.873   6.014
 8834SOL    HW228462   3.019   8.798   6.006
 8835SOL     OW28463   3.134   8.893   6.728
 8835SOL    HW128464   3.181   8.906   6.815
 8835SOL    HW228465   3.068   8.819   6.737
 8836SOL     OW28466   3.444   8.087   6.058
 8836SOL    HW128467   3.413   8.148   6.131
 8836SOL    HW228468   3.494   8.139   5.989
 8837SOL     OW28469   2.216   8.958   6.915
 8837SOL    HW128470   2.195   8.914   6.828
 8837SOL    HW228471   2.313   8.984   6.918
 8838SOL     OW28472   2.264   8.199   7.184
 8838SOL    HW128473   2.332   8.254   7.137
 8838SOL    HW228474   2.304   8.111   7.211
 8839SOL     OW28475   3.449   8.227   7.256
 8839SOL    HW128476   3.357   8.265   7.251
 8839SOL    HW228477   3.509   8.274   7.191
 8840SOL     OW28478   2.875   7.553   7.356
 8840SOL    HW128479   2.881   7.638   7.304
 8840SOL    HW228480   2.907   7.477   7.299
 8841SOL     OW28481   2.366   7.498   7.326
 8841SOL    HW128482   2.324   7.441   7.256
 8841SOL    HW228483   2.300   7.567   7.358
 8842SOL     OW28484   2.435   8.318   6.615
 8842SOL    HW128485   2.479   8.407   6.606
 8842SOL    HW228486   2.372   8.318   6.692
 8843SOL     OW28487   3.222   8.310   6.631
 8843SOL    HW128488   3.147   8.310   6.565
 8843SOL    HW228489   3.259   8.218   6.640
 8844SOL     OW28490   3.071   7.973   5.861
 8844SOL    HW128491   3.084   7.889   5.915
 8844SOL    HW228492   3.042   8.047   5.921
 8845SOL     OW28493   2.169   7.661   6.817
 8845SOL    HW128494   2.146   7.698   6.907
 8845SOL    HW228495   2.139   7.566   6.811
 8846SOL     OW28496   1.899   8.758   6.868
 8846SOL    HW128497   1.952   8.709   6.936
 8846SOL    HW228498   1.921   8.856   6.873
 8847SOL     OW28499   2.594   8.082   6.650
 8847SOL    HW128500   2.653   8.056   6.574
 8847SOL    HW228501   2.566   8.178   6.639
 8848SOL     OW28502   3.590   8.383   7.440
 8848SOL    HW128503   3.544   8.376   7.351
 8848SOL    HW228504   3.528   8.427   7.506
 8849SOL     OW28505   2.169   7.511   6.204
 8849SOL    HW128506   2.158   7.605   6.237
 8849SOL    HW228507   2.164   7.448   6.281
 8850SOL     OW28508   3.484   7.815   5.960
 8850SOL    HW128509   3.486   7.739   6.024
 8850SOL    HW228510   3.436   7.892   6.000
 8851SOL     OW28511   2.885   8.214   6.552
 8851SOL    HW128512   2.900   8.235   6.648
 8851SOL    HW228513   2.855   8.119   6.543
 8852SOL     OW28514   3.721   8.966   7.191
 8852SOL    HW128515   3.735   8.993   7.096
 8852SOL    HW228516   3.804   8.988   7.244
 8853SOL     OW28517   2.212   8.346   7.390
 8853SOL    HW128518   2.288   8.390   7.438
 8853SOL    HW228519   2.247   8.299   7.308
 8854SOL     OW28520   3.402   7.722   5.711
 8854SOL    HW128521   3.341   7.647   5.734
 8854SOL    HW228522   3.424   7.774   5.794
 8855SOL     OW28523   3.165   8.286   5.628
 8855SOL    HW128524   3.199   8.193   5.643
 8855SOL    HW228525   3.183   8.313   5.533
 8856SOL     OW28526   2.930   8.781   6.435
 8856SOL    HW128527   2.937   8.697   6.380
 8856SOL    HW228528   2.992   8.850   6.399
 8857SOL     OW28529   2.181   8.258   6.535
 8857SOL    HW128530   2.274   8.294   6.540
 8857SOL    HW228531   2.175   8.173   6.587
 8858SOL     OW28532   2.201   7.957   6.592
 8858SOL    HW128533   2.149   7.874   6.575
 8858SOL    HW228534   2.278   7.962   6.528
 8859SOL     OW28535   2.373   7.863   7.394
 8859SOL    HW128536   2.355   7.908   7.482
 8859SOL    HW228537   2.415   7.928   7.331
 8860SOL     OW28538   3.000   7.828   7.264
 8860SOL    HW128539   2.955   7.891   7.328
 8860SOL    HW228540   3.093   7.859   7.247
 8861SOL     OW28541   3.022   7.655   7.063
 8861SOL    HW128542   3.022   7.719   7.140
 8861SOL    HW228543   3.050   7.703   6.980
 8862SOL     OW28544   1.870   8.774   5.786
 8862SOL    HW128545   1.777   8.795   5.755
 8862SOL    HW228546   1.880   8.675   5.799
 8863SOL     OW28547   2.864   8.244   6.824
 8863SOL    HW128548   2.905   8.212   6.910
 8863SOL    HW228549   2.768   8.217   6.821
 8864SOL     OW28550   1.902   7.992   6.700
 8864SOL    HW128551   1.987   7.959   6.659
 8864SOL    HW228552   1.915   8.007   6.798
 8865SOL     OW28553   2.051   7.968   7.308
 8865SOL    HW128554   2.110   7.928   7.238
 8865SOL    HW228555   1.993   8.039   7.267
 8866SOL     OW28556   3.231   8.398   7.246
 8866SOL    HW128557   3.270   8.487   7.266
 8866SOL    HW228558   3.241   8.378   7.149
 8867SOL     OW28559   2.677   8.020   5.911
 8867SOL    HW128560   2.684   7.931   5.865
 8867SOL    HW228561   2.583   8.054   5.903
 8868SOL     OW28562   3.519   8.052   6.792
 8868SOL    HW128563   3.481   7.983   6.854
 8868SOL    HW228564   3.601   8.016   6.748
 8869SOL     OW28565   2.114   0.012   7.330
 8869SOL    HW128566   2.084   0.069   7.406
 8869SOL    HW228567   2.107  -0.085   7.356
 8870SOL     OW28568   2.533   7.912   6.855
 8870SOL    HW128569   2.499   7.823   6.825
 8870SOL    HW228570   2.559   7.966   6.775
 8871SOL     OW28571   2.335   7.948   5.777
 8871SOL    HW128572   2.396   8.028   5.781
 8871SOL    HW228573   2.240   7.979   5.784
 8872SOL     OW28574   2.021   8.585   7.052
 8872SOL    HW128575   2.043   8.524   7.128
 8872SOL    HW228576   2.031   8.536   6.966
 8873SOL     OW28577   3.209   8.507   6.820
 8873SOL    HW128578   3.233   8.444   6.746
 8873SOL    HW228579   3.119   8.547   6.802
 8874SOL     OW28580   3.164   8.303   5.895
 8874SOL    HW128581   3.078   8.272   5.937
 8874SOL    HW228582   3.160   8.289   5.796
 8875SOL     OW28583   1.945   8.706   6.608
 8875SOL    HW128584   1.940   8.705   6.708
 8875SOL    HW228585   1.862   8.665   6.570
 8876SOL     OW28586   2.765   7.534   5.719
 8876SOL    HW128587   2.816   7.535   5.633
 8876SOL    HW228588   2.821   7.492   5.790
 8877SOL     OW28589   3.588   7.583   6.109
 8877SOL    HW128590   3.661   7.566   6.042
 8877SOL    HW228591   3.557   7.496   6.147
 8878SOL     OW28592   3.142   8.375   6.258
 8878SOL    HW128593   3.202   8.294   6.260
 8878SOL    HW228594   3.182   8.444   6.198
 8879SOL     OW28595   2.692   8.721   7.008
 8879SOL    HW128596   2.687   8.754   7.103
 8879SOL    HW228597   2.606   8.740   6.962
 8880SOL     OW28598   3.703   7.623   6.549
 8880SOL    HW128599   3.742   7.538   6.513
 8880SOL    HW228600   3.605   7.625   6.530
 8881SOL     OW28601   2.125   7.774   6.306
 8881SOL    HW128602   2.046   7.825   6.272
 8881SOL    HW228603   2.116   7.759   6.404
 8882SOL     OW28604   2.684   8.450   6.958
 8882SOL    HW128605   2.724   8.449   6.866
 8882SOL    HW228606   2.694   8.542   6.998
 8883SOL     OW28607   2.778   8.358   5.877
 8883SOL    HW128608   2.841   8.396   5.809
 8883SOL    HW228609   2.818   8.275   5.916
 8884SOL     OW28610   2.234   8.736   7.076
 8884SOL    HW128611   2.221   8.829   7.042
 8884SOL    HW228612   2.150   8.684   7.063
 8885SOL     OW28613   3.476   8.740   6.875
 8885SOL    HW128614   3.536   8.743   6.955
 8885SOL    HW228615   3.401   8.804   6.888
 8886SOL     OW28616   2.901   8.546   6.282
 8886SOL    HW128617   2.831   8.499   6.336
 8886SOL    HW228618   2.960   8.478   6.239
 8887SOL     OW28619   2.876   7.684   6.557
 8887SOL    HW128620   2.868   7.648   6.464
 8887SOL    HW228621   2.874   7.608   6.622
 8888SOL     OW28622   3.571   7.833   6.967
 8888SOL    HW128623   3.644   7.902   6.971
 8888SOL    HW228624   3.599   7.758   6.908
 8889SOL     OW28625   2.117   8.796   5.876
 8889SOL    HW128626   2.021   8.797   5.849
 8889SOL    HW228627   2.129   8.849   5.960
 8890SOL     OW28628   1.967   8.461   7.312
 8890SOL    HW128629   1.890   8.428   7.366
 8890SOL    HW228630   2.052   8.431   7.354
 8891SOL     OW28631   2.534   7.651   7.075
 8891SOL    HW128632   2.624   7.635   7.035
 8891SOL    HW228633   2.542   7.656   7.174
 8892SOL     OW28634   1.937   7.793   5.619
 8892SOL    HW128635   1.845   7.765   5.590
 8892SOL    HW228636   1.968   7.870   5.563
 8893SOL     OW28637   3.302   8.304   6.984
 8893SOL    HW128638   3.245   8.356   6.921
 8893SOL    HW228639   3.398   8.316   6.960
 8894SOL     OW28640   1.934   7.614   5.904
 8894SOL    HW128641   1.917   7.697   5.850
 8894SOL    HW228642   2.024   7.577   5.882
 8895SOL     OW28643   3.045   8.783   5.705
 8895SOL    HW128644   2.946   8.772   5.707
 8895SOL    HW228645   3.079   8.798   5.798
 8896SOL     OW28646   2.475   8.290   7.017
 8896SOL    HW128647   2.531   8.371   7.000
 8896SOL    HW228648   2.534   8.210   7.020
 8897SOL     OW28649   2.578   8.013   7.294
 8897SOL    HW128650   2.597   8.078   7.368
 8897SOL    HW228651   2.638   7.933   7.303
 8898SOL     OW28652   3.312   8.668   7.219
 8898SOL    HW128653   3.303   8.658   7.318
 8898SOL    HW228654   3.408   8.661   7.193
 8899SOL     OW28655   3.536   8.331   6.840
 8899SOL    HW128656   3.509   8.242   6.803
 8899SOL    HW228657   3.537   8.399   6.767
 8900SOL     OW28658   3.087   7.773   6.035
 8900SOL    HW128659   3.152   7.699   6.024
 8900SOL    HW228660   3.107   7.823   6.119
 8901SOL     OW28661   2.456   8.193   6.238
 8901SOL    HW128662   2.506   8.278   6.219
 8901SOL    HW228663   2.368   8.195   6.190
 8902SOL     OW28664   3.639   7.790   7.228
 8902SOL    HW128665   3.622   7.821   7.134
 8902SOL    HW228666   3.555   7.753   7.266
 8903SOL     OW28667   3.592   8.382   7.103
 8903SOL    HW128668   3.630   8.473   7.118
 8903SOL    HW228669   3.584   8.365   7.004
 8904SOL     OW28670   2.721   8.822   5.602
 8904SOL    HW128671   2.675   8.837   5.690
 8904SOL    HW228672   2.765   8.907   5.572
 8905SOL     OW28673   2.721   8.404   6.447
 8905SOL    HW128674   2.775   8.335   6.495
 8905SOL    HW228675   2.689   8.473   6.513
 8906SOL     OW28676   2.945   8.432   5.673
 8906SOL    HW128677   2.922   8.485   5.591
 8906SOL    HW228678   3.026   8.376   5.654
 8907SOL     OW28679   2.083   8.762   7.430
 8907SOL    HW128680   2.018   8.689   7.409
 8907SOL    HW228681   2.087   8.776   7.528
 8908SOL     OW28682   1.941   8.688   6.239
 8908SOL    HW128683   1.940   8.641   6.327
 8908SOL    HW228684   2.023   8.660   6.188
 8909SOL     OW28685   2.534   8.839   7.210
 8909SOL    HW128686   2.456   8.789   7.248
 8909SOL    HW228687   2.531   8.934   7.241
 8910SOL     OW28688   3.686   7.640   6.813
 8910SOL    HW128689   3.682   7.550   6.857
 8910SOL    HW228690   3.689   7.629   6.714
 8911SOL     OW28691   2.290   7.872   6.106
 8911SOL    HW128692   2.320   7.800   6.044
 8911SOL    HW228693   2.251   7.832   6.189
 8912SOL     OW28694   3.567   8.935   6.690
 8912SOL    HW128695   3.474   8.910   6.663
 8912SOL    HW228696   3.593   8.885   6.772
 8913SOL     OW28697   2.179   7.995   6.866
 8913SOL    HW128698   2.217   7.936   6.938
 8913SOL    HW228699   2.219   7.969   6.778
 8914SOL     OW28700   3.286   7.662   6.698
 8914SOL    HW128701   3.338   7.597   6.753
 8914SOL    HW228702   3.237   7.725   6.759
 8915SOL     OW28703   2.863   7.482   6.740
 8915SOL    HW128704   2.800   7.410   6.709
 8915SOL    HW228705   2.956   7.446   6.740
 8916SOL     OW28706   2.632   8.778   5.887
 8916SOL    HW128707   2.586   8.691   5.904
 8916SOL    HW228708   2.723   8.775   5.928
 8917SOL     OW28709   2.480   0.015   6.870
 8917SOL    HW128710   2.475   0.097   6.927
 8917SOL    HW228711   2.569   0.012   6.825
 8918SOL     OW28712   3.214   7.500   5.754
 8918SOL    HW128713   3.249   7.459   5.670
 8918SOL    HW228714   3.124   7.462   5.774
 8919SOL     OW28715   3.162   7.901   6.277
 8919SOL    HW128716   3.103   7.981   6.281
 8919SOL    HW228717   3.177   7.866   6.370
 8920SOL     OW28718   3.455   7.669   6.468
 8920SOL    HW128719   3.371   7.668   6.522
 8920SOL    HW228720   3.457   7.752   6.412
 8921SOL     OW28721   1.901   8.525   5.886
 8921SOL    HW128722   2.000   8.514   5.877
 8921SOL    HW228723   1.861   8.439   5.918
 8922SOL     OW28724   2.092   8.076   7.561
 8922SOL    HW128725   1.999   8.074   7.598
 8922SOL    HW228726   2.093   8.037   7.469
 8923SOL     OW28727   2.087   7.723   8.444
 8923SOL    HW128728   2.122   7.706   8.536
 8923SOL    HW228729   1.999   7.678   8.432
 8924SOL     OW28730   1.881   7.816   8.095
 8924SOL    HW128731   1.799   7.859   8.134
 8924SOL    HW228732   1.853   7.743   8.032
 8925SOL     OW28733   2.431   8.723   8.613
 8925SOL    HW128734   2.338   8.716   8.576
 8925SOL    HW228735   2.442   8.812   8.657
 8926SOL     OW28736   3.417   8.959   8.151
 8926SOL    HW128737   3.360   8.943   8.232
 8926SOL    HW228738   3.358   8.969   8.071
 8927SOL     OW28739   3.605   8.066   8.304
 8927SOL    HW128740   3.638   8.160   8.304
 8927SOL    HW228741   3.656   8.012   8.370
 8928SOL     OW28742   2.997   8.151   8.165
 8928SOL    HW128743   3.054   8.229   8.140
 8928SOL    HW228744   2.937   8.177   8.241
 8929SOL     OW28745   3.617   8.055   7.679
 8929SOL    HW128746   3.605   8.042   7.580
 8929SOL    HW228747   3.587   7.974   7.728
 8930SOL     OW28748   2.630   8.592   8.471
 8930SOL    HW128749   2.552   8.609   8.531
 8930SOL    HW228750   2.664   8.679   8.435
 8931SOL     OW28751   2.547   8.460   8.113
 8931SOL    HW128752   2.616   8.444   8.183
 8931SOL    HW228753   2.474   8.517   8.151
 8932SOL     OW28754   2.197   8.883   8.509
 8932SOL    HW128755   2.119   8.852   8.456
 8932SOL    HW228756   2.255   8.941   8.452
 8933SOL     OW28757   3.322   8.953   8.787
 8933SOL    HW128758   3.346   9.047   8.813
 8933SOL    HW228759   3.306   8.899   8.869
 8934SOL     OW28760   2.300   7.840   8.947
 8934SOL    HW128761   2.382   7.784   8.956
 8934SOL    HW228762   2.219   7.782   8.951
 8935SOL     OW28763   3.465   7.895   8.185
 8935SOL    HW128764   3.391   7.941   8.135
 8935SOL    HW228765   3.516   7.963   8.238
 8936SOL     OW28766   2.093   0.161   7.931
 8936SOL    HW128767   2.127   0.238   7.985
 8936SOL    HW228768   2.137   0.161   7.841
 8937SOL     OW28769   2.092   8.882   7.986
 8937SOL    HW128770   2.066   8.978   7.986
 8937SOL    HW228771   2.021   8.828   8.031
 8938SOL     OW28772   2.102   8.539   8.334
 8938SOL    HW128773   2.116   8.455   8.386
 8938SOL    HW228774   2.047   8.603   8.389
 8939SOL     OW28775   2.468   8.412   7.571
 8939SOL    HW128776   2.475   8.496   7.517
 8939SOL    HW228777   2.514   8.425   7.659
 8940SOL     OW28778   3.456   7.562   8.928
 8940SOL    HW128779   3.438   7.629   8.856
 8940SOL    HW228780   3.453   7.608   9.017
 8941SOL     OW28781   1.984   8.091   8.011
 8941SOL    HW128782   1.939   8.003   8.028
 8941SOL    HW228783   1.983   8.145   8.095
 8942SOL     OW28784   1.889   0.044   7.565
 8942SOL    HW128785   1.870  -0.052   7.586
 8942SOL    HW228786   1.856   0.102   7.640
 8943SOL     OW28787   3.551   8.370   8.060
 8943SOL    HW128788   3.646   8.341   8.068
 8943SOL    HW228789   3.543   8.435   7.985
 8944SOL     OW28790   3.503   8.556   7.880
 8944SOL    HW128791   3.589   8.558   7.828
 8944SOL    HW228792   3.517   8.603   7.968
 8945SOL     OW28793   2.475   8.813   8.174
 8945SOL    HW128794   2.426   8.726   8.183
 8945SOL    HW228795   2.452   8.856   8.087
 8946SOL     OW28796   2.671   7.452   7.950
 8946SOL    HW128797   2.711   7.543   7.941
 8946SOL    HW228798   2.571   7.460   7.956
 8947SOL     OW28799   2.059   8.424   8.712
 8947SOL    HW128800   2.148   8.379   8.698
 8947SOL    HW228801   1.986   8.359   8.693
 8948SOL     OW28802   3.387   8.447   7.638
 8948SOL    HW128803   3.324   8.371   7.651
 8948SOL    HW228804   3.435   8.465   7.724
 8949SOL     OW28805   3.328   8.865   8.401
 8949SOL    HW128806   3.269   8.871   8.481
 8949SOL    HW228807   3.313   8.777   8.355
 8950SOL     OW28808   2.460   8.177   7.718
 8950SOL    HW128809   2.484   8.246   7.650
 8950SOL    HW228810   2.382   8.210   7.772
 8951SOL     OW28811   3.143   7.793   8.392
 8951SOL    HW128812   3.057   7.743   8.379
 8951SOL    HW228813   3.205   7.739   8.448
 8952SOL     OW28814   2.669   8.053   8.913
 8952SOL    HW128815   2.622   8.050   9.002
 8952SOL    HW228816   2.618   7.998   8.847
 8953SOL     OW28817   2.853   7.858   8.690
 8953SOL    HW128818   2.776   7.892   8.744
 8953SOL    HW228819   2.819   7.807   8.611
 8954SOL     OW28820   2.903   8.149   7.877
 8954SOL    HW128821   2.929   8.145   7.973
 8954SOL    HW228822   2.818   8.098   7.863
 8955SOL     OW28823   1.938   8.259   8.237
 8955SOL    HW128824   2.037   8.247   8.246
 8955SOL    HW228825   1.914   8.354   8.258
 8956SOL     OW28826   2.727   7.796   7.643
 8956SOL    HW128827   2.786   7.859   7.594
 8956SOL    HW228828   2.746   7.702   7.614
 8957SOL     OW28829   3.224   8.592   7.993
 8957SOL    HW128830   3.307   8.563   7.945
 8957SOL    HW228831   3.175   8.659   7.937
 8958SOL     OW28832   2.412   7.644   8.333
 8958SOL    HW128833   2.407   7.639   8.433
 8958SOL    HW228834   2.414   7.740   8.304
 8959SOL     OW28835   2.870   8.904   7.925
 8959SOL    HW128836   2.824   8.976   7.873
 8959SOL    HW228837   2.866   8.924   8.023
 8960SOL     OW28838   3.657   8.514   8.321
 8960SOL    HW128839   3.595   8.499   8.245
 8960SOL    HW228840   3.605   8.525   8.406
 8961SOL     OW28841   3.089   8.998   8.954
 8961SOL    HW128842   3.095   8.921   9.018
 8961SOL    HW228843   3.037   8.972   8.874
 8962SOL     OW28844   2.183   8.391   7.690
 8962SOL    HW128845   2.265   8.430   7.648
 8962SOL    HW228846   2.156   8.309   7.641
 8963SOL     OW28847   3.320   8.183   8.176
 8963SOL    HW128848   3.315   8.118   8.251
 8963SOL    HW228849   3.400   8.242   8.189
 8964SOL     OW28850   2.973   0.224   7.685
 8964SOL    HW128851   2.913   0.162   7.735
 8964SOL    HW228852   3.004   0.180   7.600
 8965SOL     OW28853   2.064   7.733   8.946
 8965SOL    HW128854   1.984   7.793   8.933
 8965SOL    HW228855   2.054   7.684   9.032
 8966SOL     OW28856   3.494   8.825   7.529
 8966SOL    HW128857   3.462   8.919   7.519
 8966SOL    HW228858   3.418   8.762   7.517
 8967SOL     OW28859   3.262   7.555   7.874
 8967SOL    HW128860   3.238   7.518   7.784
 8967SOL    HW228861   3.361   7.571   7.878
 8968SOL     OW28862   2.244   8.148   7.928
 8968SOL    HW128863   2.289   8.058   7.925
 8968SOL    HW228864   2.150   8.137   7.961
 8969SOL     OW28865   2.476   7.570   7.565
 8969SOL    HW128866   2.574   7.548   7.572
 8969SOL    HW228867   2.445   7.553   7.472
 8970SOL     OW28868   2.665   8.850   8.372
 8970SOL    HW128869   2.755   8.864   8.330
 8970SOL    HW228870   2.594   8.852   8.301
 8971SOL     OW28871   2.784   7.951   8.347
 8971SOL    HW128872   2.759   7.942   8.251
 8971SOL    HW228873   2.832   7.869   8.378
 8972SOL     OW28874   2.401   7.512   7.960
 8972SOL    HW128875   2.320   7.513   8.018
 8972SOL    HW228876   2.404   7.595   7.905
 8973SOL     OW28877   3.296   8.636   7.489
 8973SOL    HW128878   3.328   8.560   7.546
 8973SOL    HW228879   3.204   8.663   7.519
 8974SOL     OW28880   2.159   7.483   7.619
 8974SOL    HW128881   2.208   7.567   7.598
 8974SOL    HW228882   2.221   7.418   7.664
 8975SOL     OW28883   2.797   7.684   7.928
 8975SOL    HW128884   2.749   7.725   7.850
 8975SOL    HW228885   2.896   7.682   7.909
 8976SOL     OW28886   3.089   0.018   8.241
 8976SOL    HW128887   3.110   0.092   8.176
 8976SOL    HW228888   3.157   0.018   8.314
 8977SOL     OW28889   2.321   8.600   8.189
 8977SOL    HW128890   2.250   8.573   8.254
 8977SOL    HW228891   2.295   8.572   8.096
 8978SOL     OW28892   2.894   7.997   7.464
 8978SOL    HW128893   2.853   8.079   7.425
 8978SOL    HW228894   2.958   8.023   7.537
 8979SOL     OW28895   1.940   8.004   8.834
 8979SOL    HW128896   2.032   8.003   8.793
 8979SOL    HW228897   1.934   8.078   8.901
 8980SOL     OW28898   2.423   7.670   8.595
 8980SOL    HW128899   2.461   7.586   8.632
 8980SOL    HW228900   2.335   7.689   8.639
 8981SOL     OW28901   2.728   7.902   8.090
 8981SOL    HW128902   2.696   7.974   8.028
 8981SOL    HW228903   2.752   7.821   8.037
 8982SOL     OW28904   2.879   7.487   8.201
 8982SOL    HW128905   2.807   7.492   8.132
 8982SOL    HW228906   2.855   7.418   8.270
 8983SOL     OW28907   3.291   8.621   8.315
 8983SOL    HW128908   3.236   8.537   8.308
 8983SOL    HW228909   3.317   8.650   8.223
 8984SOL     OW28910   3.328   8.038   8.440
 8984SOL    HW128911   3.298   7.943   8.447
 8984SOL    HW228912   3.401   8.054   8.506
 8985SOL     OW28913   3.719   8.281   7.825
 8985SOL    HW128914   3.761   8.217   7.889
 8985SOL    HW228915   3.681   8.230   7.747
 8986SOL     OW28916   2.350   8.833   7.622
 8986SOL    HW128917   2.263   8.818   7.669
 8986SOL    HW228918   2.333   8.859   7.527
 8987SOL     OW28919   3.526   8.728   8.105
 8987SOL    HW128920   3.625   8.736   8.119
 8987SOL    HW228921   3.481   8.812   8.136
 8988SOL     OW28922   3.252   8.023   7.526
 8988SOL    HW128923   3.198   8.002   7.607
 8988SOL    HW228924   3.343   7.982   7.535
 8989SOL     OW28925   2.389   7.704   7.776
 8989SOL    HW128926   2.416   7.645   7.701
 8989SOL    HW228927   2.389   7.799   7.745
 8990SOL     OW28928   2.926   8.795   8.788
 8990SOL    HW128929   2.846   8.772   8.843
 8990SOL    HW228930   3.009   8.769   8.837
 8991SOL     OW28931   2.973   8.643   8.548
 8991SOL    HW128932   2.933   8.687   8.629
 8991SOL    HW228933   2.932   8.680   8.465
 8992SOL     OW28934   3.500   8.547   8.527
 8992SOL    HW128935   3.505   8.628   8.586
 8992SOL    HW228936   3.414   8.549   8.476
 8993SOL     OW28937   2.777   7.537   8.850
 8993SOL    HW128938   2.802   7.517   8.755
 8993SOL    HW228939   2.849   7.593   8.892
 8994SOL     OW28940   2.567   8.498   7.816
 8994SOL    HW128941   2.553   8.505   7.915
 8994SOL    HW228942   2.651   8.447   7.798
 8995SOL     OW28943   2.272   8.261   8.699
 8995SOL    HW128944   2.358   8.273   8.749
 8995SOL    HW228945   2.230   8.174   8.726
 8996SOL     OW28946   3.136   7.834   8.710
 8996SOL    HW128947   3.157   7.908   8.774
 8996SOL    HW228948   3.047   7.851   8.667
 8997SOL     OW28949   2.229   8.548   7.949
 8997SOL    HW128950   2.222   8.631   7.893
 8997SOL    HW228951   2.233   8.468   7.889
 8998SOL     OW28952   2.428   7.985   8.313
 8998SOL    HW128953   2.440   8.051   8.239
 8998SOL    HW228954   2.474   8.019   8.396
 8999SOL     OW28955   3.114   8.796   7.836
 8999SOL    HW128956   3.164   8.873   7.876
 8999SOL    HW228957   3.019   8.798   7.868
 9000SOL     OW28958   3.134   8.893   8.590
 9000SOL    HW128959   3.181   8.906   8.677
 9000SOL    HW228960   3.068   8.819   8.599
 9001SOL     OW28961   3.444   8.087   7.920
 9001SOL    HW128962   3.413   8.148   7.993
 9001SOL    HW228963   3.494   8.139   7.851
 9002SOL     OW28964   2.216   8.958   8.777
 9002SOL    HW128965   2.195   8.914   8.690
 9002SOL    HW228966   2.313   8.984   8.780
 9003SOL     OW28967   2.264   8.199   0.046
 9003SOL    HW128968   2.332   8.254  -0.001
 9003SOL    HW228969   2.304   8.111   0.073
 9004SOL     OW28970   3.449   8.227   0.118
 9004SOL    HW128971   3.357   8.265   0.113
 9004SOL    HW228972   3.509   8.274   0.053
 9005SOL     OW28973   2.435   8.318   8.477
 9005SOL    HW128974   2.479   8.407   8.468
 9005SOL    HW228975   2.372   8.318   8.554
 9006SOL     OW28976   3.222   8.310   8.493
 9006SOL    HW128977   3.147   8.310   8.427
 9006SOL    HW228978   3.259   8.218   8.502
 9007SOL     OW28979   3.071   7.973   7.723
 9007SOL    HW128980   3.084   7.889   7.777
 9007SOL    HW228981   3.042   8.047   7.783
 9008SOL     OW28982   2.169   7.661   8.679
 9008SOL    HW128983   2.146   7.698   8.769
 9008SOL    HW228984   2.139   7.566   8.673
 9009SOL     OW28985   1.899   8.758   8.730
 9009SOL    HW128986   1.952   8.709   8.798
 9009SOL    HW228987   1.921   8.856   8.735
 9010SOL     OW28988   2.594   8.082   8.512
 9010SOL    HW128989   2.653   8.056   8.436
 9010SOL    HW228990   2.566   8.178   8.501
 9011SOL     OW28991   2.169   7.511   8.066
 9011SOL    HW128992   2.158   7.605   8.099
 9011SOL    HW228993   2.164   7.448   8.143
 9012SOL     OW28994   3.484   7.815   7.822
 9012SOL    HW128995   3.486   7.739   7.886
 9012SOL    HW228996   3.436   7.892   7.862
 9013SOL     OW28997   2.885   8.214   8.414
 9013SOL    HW128998   2.900   8.235   8.510
 9013SOL    HW228999   2.855   8.119   8.405
 9014SOL     OW29000   3.721   8.966   0.053
 9014SOL    HW129001   3.735   8.993  -0.042
 9014SOL    HW229002   3.804   8.988   0.106
 9015SOL     OW29003   3.402   7.722   7.573
 9015SOL    HW129004   3.341   7.647   7.596
 9015SOL    HW229005   3.424   7.774   7.656
 9016SOL     OW29006   3.165   8.286   7.490
 9016SOL    HW129007   3.199   8.193   7.505
 9016SOL    HW229008   3.183   8.313   7.395
 9017SOL     OW29009   2.930   8.781   8.297
 9017SOL    HW129010   2.937   8.697   8.242
 9017SOL    HW229011   2.992   8.850   8.261
 9018SOL     OW29012   2.181   8.258   8.397
 9018SOL    HW129013   2.274   8.294   8.402
 9018SOL    HW229014   2.175   8.173   8.449
 9019SOL     OW29015   2.201   7.957   8.454
 9019SOL    HW129016   2.149   7.874   8.437
 9019SOL    HW229017   2.278   7.962   8.390
 9020SOL     OW29018   3.000   7.828   0.126
 9020SOL    HW129019   2.955   7.891   0.190
 9020SOL    HW229020   3.093   7.859   0.109
 9021SOL     OW29021   3.022   7.655   8.925
 9021SOL    HW129022   3.022   7.719   9.002
 9021SOL    HW229023   3.050   7.703   8.842
 9022SOL     OW29024   1.870   8.774   7.648
 9022SOL    HW129025   1.777   8.795   7.617
 9022SOL    HW229026   1.880   8.675   7.661
 9023SOL     OW29027   2.864   8.244   8.686
 9023SOL    HW129028   2.905   8.212   8.772
 9023SOL    HW229029   2.768   8.217   8.683
 9024SOL     OW29030   1.902   7.992   8.562
 9024SOL    HW129031   1.987   7.959   8.521
 9024SOL    HW229032   1.915   8.007   8.660
 9025SOL     OW29033   2.677   8.020   7.773
 9025SOL    HW129034   2.684   7.931   7.727
 9025SOL    HW229035   2.583   8.054   7.765
 9026SOL     OW29036   3.519   8.052   8.654
 9026SOL    HW129037   3.481   7.983   8.716
 9026SOL    HW229038   3.601   8.016   8.610
 9027SOL     OW29039   2.533   7.912   8.717
 9027SOL    HW129040   2.499   7.823   8.687
 9027SOL    HW229041   2.559   7.966   8.637
 9028SOL     OW29042   2.335   7.948   7.639
 9028SOL    HW129043   2.396   8.028   7.643
 9028SOL    HW229044   2.240   7.979   7.646
 9029SOL     OW29045   2.021   8.585   8.914
 9029SOL    HW129046   2.043   8.524   8.990
 9029SOL    HW229047   2.031   8.536   8.828
 9030SOL     OW29048   3.209   8.507   8.682
 9030SOL    HW129049   3.233   8.444   8.608
 9030SOL    HW229050   3.119   8.547   8.664
 9031SOL     OW29051   3.164   8.303   7.757
 9031SOL    HW129052   3.078   8.272   7.799
 9031SOL    HW229053   3.160   8.289   7.658
 9032SOL     OW29054   1.945   8.706   8.470
 9032SOL    HW129055   1.940   8.705   8.570
 9032SOL    HW229056   1.862   8.665   8.432
 9033SOL     OW29057   2.765   7.534   7.581
 9033SOL    HW129058   2.816   7.535   7.495
 9033SOL    HW229059   2.821   7.492   7.652
 9034SOL     OW29060   3.588   7.583   7.971
 9034SOL    HW129061   3.661   7.566   7.904
 9034SOL    HW229062   3.557   7.496   8.009
 9035SOL     OW29063   3.142   8.375   8.120
 9035SOL    HW129064   3.202   8.294   8.122
 9035SOL    HW229065   3.182   8.444   8.060
 9036SOL     OW29066   3.703   7.623   8.411
 9036SOL    HW129067   3.742   7.538   8.375
 9036SOL    HW229068   3.605   7.625   8.392
 9037SOL     OW29069   2.125   7.774   8.168
 9037SOL    HW129070   2.046   7.825   8.134
 9037SOL    HW229071   2.116   7.759   8.266
 9038SOL     OW29072   2.684   8.450   8.820
 9038SOL    HW129073   2.724   8.449   8.728
 9038SOL    HW229074   2.694   8.542   8.860
 9039SOL     OW29075   2.778   8.358   7.739
 9039SOL    HW129076   2.841   8.396   7.671
 9039SOL    HW229077   2.818   8.275   7.778
 9040SOL     OW29078   2.234   8.736   8.938
 9040SOL    HW129079   2.221   8.829   8.904
 9040SOL    HW229080   2.150   8.684   8.925
 9041SOL     OW29081   3.476   8.740   8.737
 9041SOL    HW129082   3.536   8.743   8.817
 9041SOL    HW229083   3.401   8.804   8.750
 9042SOL     OW29084   2.901   8.546   8.144
 9042SOL    HW129085   2.831   8.499   8.198
 9042SOL    HW229086   2.960   8.478   8.101
 9043SOL     OW29087   2.876   7.684   8.419
 9043SOL    HW129088   2.868   7.648   8.326
 9043SOL    HW229089   2.874   7.608   8.484
 9044SOL     OW29090   3.571   7.833   8.829
 9044SOL    HW129091   3.644   7.902   8.833
 9044SOL    HW229092   3.599   7.758   8.770
 9045SOL     OW29093   2.117   8.796   7.738
 9045SOL    HW129094   2.021   8.797   7.711
 9045SOL    HW229095   2.129   8.849   7.822
 9046SOL     OW29096   1.937   7.793   7.481
 9046SOL    HW129097   1.845   7.765   7.452
 9046SOL    HW229098   1.968   7.870   7.425
 9047SOL     OW29099   3.302   8.304   8.846
 9047SOL    HW129100   3.245   8.356   8.783
 9047SOL    HW229101   3.398   8.316   8.822
 9048SOL     OW29102   1.934   7.614   7.766
 9048SOL    HW129103   1.917   7.697   7.712
 9048SOL    HW229104   2.024   7.577   7.744
 9049SOL     OW29105   3.045   8.783   7.567
 9049SOL    HW129106   2.946   8.772   7.569
 9049SOL    HW229107   3.079   8.798   7.660
 9050SOL     OW29108   2.475   8.290   8.879
 9050SOL    HW129109   2.531   8.371   8.862
 9050SOL    HW229110   2.534   8.210   8.882
 9051SOL     OW29111   3.536   8.331   8.702
 9051SOL    HW129112   3.509   8.242   8.665
 9051SOL    HW229113   3.537   8.399   8.629
 9052SOL     OW29114   3.087   7.773   7.897
 9052SOL    HW129115   3.152   7.699   7.886
 9052SOL    HW229116   3.107   7.823   7.981
 9053SOL     OW29117   2.456   8.193   8.100
 9053SOL    HW129118   2.506   8.278   8.081
 9053SOL    HW229119   2.368   8.195   8.052
 9054SOL     OW29120   3.639   7.790   0.090
 9054SOL    HW129121   3.622   7.821  -0.004
 9054SOL    HW229122   3.555   7.753   0.128
 9055SOL     OW29123   3.592   8.382   8.965
 9055SOL    HW129124   3.630   8.473   8.980
 9055SOL    HW229125   3.584   8.365   8.866
 9056SOL     OW29126   2.721   8.822   7.464
 9056SOL    HW129127   2.675   8.837   7.552
 9056SOL    HW229128   2.765   8.907   7.434
 9057SOL     OW29129   2.721   8.404   8.309
 9057SOL    HW129130   2.775   8.335   8.357
 9057SOL    HW229131   2.689   8.473   8.375
 9058SOL     OW29132   2.945   8.432   7.535
 9058SOL    HW129133   2.922   8.485   7.453
 9058SOL    HW229134   3.026   8.376   7.516
 9059SOL     OW29135   1.941   8.688   8.101
 9059SOL    HW129136   1.940   8.641   8.189
 9059SOL    HW229137   2.023   8.660   8.050
 9060SOL     OW29138   3.686   7.640   8.675
 9060SOL    HW129139   3.682   7.550   8.719
 9060SOL    HW229140   3.689   7.629   8.576
 9061SOL     OW29141   2.290   7.872   7.968
 9061SOL    HW129142   2.320   7.800   7.906
 9061SOL    HW229143   2.251   7.832   8.051
 9062SOL     OW29144   3.567   8.935   8.552
 9062SOL    HW129145   3.474   8.910   8.525
 9062SOL    HW229146   3.593   8.885   8.634
 9063SOL     OW29147   2.179   7.995   8.728
 9063SOL    HW129148   2.217   7.936   8.800
 9063SOL    HW229149   2.219   7.969   8.640
 9064SOL     OW29150   3.286   7.662   8.560
 9064SOL    HW129151   3.338   7.597   8.615
 9064SOL    HW229152   3.237   7.725   8.621
 9065SOL     OW29153   2.863   7.482   8.602
 9065SOL    HW129154   2.800   7.410   8.571
 9065SOL    HW229155   2.956   7.446   8.602
 9066SOL     OW29156   2.632   8.778   7.749
 9066SOL    HW129157   2.586   8.691   7.766
 9066SOL    HW229158   2.723   8.775   7.790
 9067SOL     OW29159   2.480   0.015   8.732
 9067SOL    HW129160   2.475   0.097   8.789
 9067SOL    HW229161   2.569   0.012   8.687
 9068SOL     OW29162   3.214   7.500   7.616
 9068SOL    HW129163   3.249   7.459   7.532
 9068SOL    HW229164   3.124   7.462   7.636
 9069SOL     OW29165   3.162   7.901   8.139
 9069SOL    HW129166   3.103   7.981   8.143
 9069SOL    HW229167   3.177   7.866   8.232
 9070SOL     OW29168   3.455   7.669   8.330
 9070SOL    HW129169   3.371   7.668   8.384
 9070SOL    HW229170   3.457   7.752   8.274
 9071SOL     OW29171   1.901   8.525   7.748
 9071SOL    HW129172   2.000   8.514   7.739
 9071SOL    HW229173   1.861   8.439   7.780
 9072SOL     OW29174   3.954   0.628   0.113
 9072SOL    HW129175   3.861   0.626   0.150
 9072SOL    HW229176   3.955   0.589   0.021
 9073SOL     OW29177   3.949   0.275   0.996
 9073SOL    HW129178   3.984   0.258   1.088
 9073SOL    HW229179   3.861   0.230   0.984
 9074SOL     OW29180   3.743   0.368   0.647
 9074SOL    HW129181   3.661   0.411   0.686
 9074SOL    HW229182   3.715   0.295   0.584
 9075SOL     OW29183   4.293   1.275   1.165
 9075SOL    HW129184   4.200   1.268   1.128
 9075SOL    HW229185   4.304   1.364   1.209
 9076SOL     OW29186   5.279   1.511   0.703
 9076SOL    HW129187   5.222   1.495   0.784
 9076SOL    HW229188   5.220   1.521   0.623
 9077SOL     OW29189   5.467   0.618   0.856
 9077SOL    HW129190   5.500   0.712   0.856
 9077SOL    HW229191   5.518   0.564   0.922
 9078SOL     OW29192   4.859   0.703   0.717
 9078SOL    HW129193   4.916   0.781   0.692
 9078SOL    HW229194   4.799   0.729   0.793
 9079SOL     OW29195   5.479   0.607   0.231
 9079SOL    HW129196   5.467   0.594   0.132
 9079SOL    HW229197   5.449   0.526   0.280
 9080SOL     OW29198   4.492   1.144   1.023
 9080SOL    HW129199   4.414   1.161   1.083
 9080SOL    HW229200   4.526   1.231   0.987
 9081SOL     OW29201   4.574   0.798   1.823
 9081SOL    HW129202   4.570   0.874   1.888
 9081SOL    HW229203   4.596   0.834   1.732
 9082SOL     OW29204   4.409   1.012   0.665
 9082SOL    HW129205   4.478   0.996   0.735
 9082SOL    HW229206   4.336   1.069   0.703
 9083SOL     OW29207   4.410   1.161   1.803
 9083SOL    HW129208   4.470   1.240   1.817
 9083SOL    HW229209   4.324   1.192   1.762
 9084SOL     OW29210   4.059   1.435   1.061
 9084SOL    HW129211   3.981   1.404   1.008
 9084SOL    HW229212   4.117   1.493   1.004
 9085SOL     OW29213   5.184   1.505   1.339
 9085SOL    HW129214   5.208   1.599   1.365
 9085SOL    HW229215   5.168   1.451   1.421
 9086SOL     OW29216   4.162   0.392   1.499
 9086SOL    HW129217   4.244   0.336   1.508
 9086SOL    HW229218   4.081   0.334   1.503
 9087SOL     OW29219   5.327   0.447   0.737
 9087SOL    HW129220   5.253   0.493   0.687
 9087SOL    HW229221   5.378   0.515   0.790
 9088SOL     OW29222   3.955   1.713   0.483
 9088SOL    HW129223   3.989   1.790   0.537
 9088SOL    HW229224   3.999   1.713   0.393
 9089SOL     OW29225   4.851   1.341   1.690
 9089SOL    HW129226   4.898   1.341   1.778
 9089SOL    HW229227   4.803   1.254   1.679
 9090SOL     OW29228   3.954   1.434   0.538
 9090SOL    HW129229   3.928   1.530   0.538
 9090SOL    HW229230   3.883   1.380   0.583
 9091SOL     OW29231   3.964   1.091   0.886
 9091SOL    HW129232   3.978   1.007   0.938
 9091SOL    HW229233   3.909   1.155   0.941
 9092SOL     OW29234   4.344   1.786   1.439
 9092SOL    HW129235   4.252   1.769   1.474
 9092SOL    HW229236   4.372   1.878   1.465
 9093SOL     OW29237   4.330   0.964   0.123
 9093SOL    HW129238   4.337   1.048   0.069
 9093SOL    HW229239   4.376   0.977   0.211
 9094SOL     OW29240   5.318   0.114   1.480
 9094SOL    HW129241   5.300   0.181   1.408
 9094SOL    HW229242   5.315   0.160   1.569
 9095SOL     OW29243   3.846   0.643   0.563
 9095SOL    HW129244   3.801   0.555   0.580
 9095SOL    HW229245   3.845   0.697   0.647
 9096SOL     OW29246   5.566   1.767   0.359
 9096SOL    HW129247   5.620   1.738   0.439
 9096SOL    HW229248   5.596   1.857   0.330
 9097SOL     OW29249   5.413   0.922   0.612
 9097SOL    HW129250   5.508   0.893   0.620
 9097SOL    HW229251   5.405   0.987   0.537
 9098SOL     OW29252   5.365   1.108   0.432
 9098SOL    HW129253   5.451   1.110   0.380
 9098SOL    HW229254   5.379   1.155   0.520
 9099SOL     OW29255   3.837   0.737   1.597
 9099SOL    HW129256   3.925   0.724   1.642
 9099SOL    HW229257   3.824   0.834   1.575
 9100SOL     OW29258   4.337   1.365   0.726
 9100SOL    HW129259   4.288   1.278   0.735
 9100SOL    HW229260   4.314   1.408   0.639
 9101SOL     OW29261   5.017   1.228   1.423
 9101SOL    HW129262   5.054   1.155   1.365
 9101SOL    HW229263   5.069   1.233   1.508
 9102SOL     OW29264   4.533   0.004   0.502
 9102SOL    HW129265   4.573   0.095   0.493
 9102SOL    HW229266   4.433   0.012   0.508
 9103SOL     OW29267   3.921   0.976   1.264
 9103SOL    HW129268   4.010   0.931   1.250
 9103SOL    HW229269   3.848   0.911   1.245
 9104SOL     OW29270   5.249   0.999   0.190
 9104SOL    HW129271   5.186   0.923   0.203
 9104SOL    HW229272   5.297   1.017   0.276
 9105SOL     OW29273   4.911   1.792   1.616
 9105SOL    HW129274   4.935   1.852   1.540
 9105SOL    HW229275   4.918   1.697   1.586
 9106SOL     OW29276   4.041   0.251   1.801
 9106SOL    HW129277   4.112   0.322   1.807
 9106SOL    HW229278   3.953   0.290   1.829
 9107SOL     OW29279   5.190   1.417   0.953
 9107SOL    HW129280   5.131   1.423   1.033
 9107SOL    HW229281   5.175   1.329   0.907
 9108SOL     OW29282   5.391   1.714   0.572
 9108SOL    HW129283   5.350   1.691   0.484
 9108SOL    HW229284   5.373   1.640   0.637
 9109SOL     OW29285   4.322   0.729   0.270
 9109SOL    HW129286   4.346   0.798   0.202
 9109SOL    HW229287   4.244   0.762   0.324
 9110SOL     OW29288   5.005   0.345   0.944
 9110SOL    HW129289   4.919   0.295   0.931
 9110SOL    HW229290   5.067   0.291   1.000
 9111SOL     OW29291   5.300   1.662   0.307
 9111SOL    HW129292   5.389   1.708   0.310
 9111SOL    HW229293   5.279   1.638   0.212
 9112SOL     OW29294   4.531   0.605   1.465
 9112SOL    HW129295   4.484   0.602   1.554
 9112SOL    HW229296   4.480   0.550   1.399
 9113SOL     OW29297   5.118   0.469   1.674
 9113SOL    HW129298   5.098   0.512   1.762
 9113SOL    HW229299   5.196   0.407   1.683
 9114SOL     OW29300   4.697   0.890   1.572
 9114SOL    HW129301   4.743   0.806   1.543
 9114SOL    HW229302   4.641   0.924   1.497
 9115SOL     OW29303   4.715   0.410   1.242
 9115SOL    HW129304   4.638   0.444   1.296
 9115SOL    HW229305   4.681   0.359   1.163
 9116SOL     OW29306   4.765   0.701   0.429
 9116SOL    HW129307   4.791   0.697   0.525
 9116SOL    HW229308   4.680   0.650   0.415
 9117SOL     OW29309   3.800   0.811   0.789
 9117SOL    HW129310   3.899   0.799   0.798
 9117SOL    HW229311   3.776   0.906   0.810
 9118SOL     OW29312   3.854   1.821   1.571
 9118SOL    HW129313   3.844   1.806   1.670
 9118SOL    HW229314   3.768   1.857   1.535
 9119SOL     OW29315   4.589   0.348   0.195
 9119SOL    HW129316   4.648   0.411   0.146
 9119SOL    HW229317   4.608   0.254   0.166
 9120SOL     OW29318   5.443   0.585   1.831
 9120SOL    HW129319   5.417   0.674   1.795
 9120SOL    HW229320   5.441   0.517   1.758
 9121SOL     OW29321   5.086   1.144   0.545
 9121SOL    HW129322   5.169   1.115   0.497
 9121SOL    HW229323   5.037   1.211   0.489
 9122SOL     OW29324   4.274   0.196   0.885
 9122SOL    HW129325   4.269   0.191   0.985
 9122SOL    HW229326   4.276   0.292   0.856
 9123SOL     OW29327   4.732   1.456   0.477
 9123SOL    HW129328   4.686   1.528   0.425
 9123SOL    HW229329   4.728   1.476   0.575
 9124SOL     OW29330   4.075   1.801   0.853
 9124SOL    HW129331   4.125   1.715   0.859
 9124SOL    HW229332   4.140   1.878   0.850
 9125SOL     OW29333   5.519   1.066   0.873
 9125SOL    HW129334   5.457   1.051   0.797
 9125SOL    HW229335   5.467   1.077   0.958
 9126SOL     OW29336   4.951   1.550   1.506
 9126SOL    HW129337   4.957   1.473   1.570
 9126SOL    HW229338   4.899   1.524   1.426
 9127SOL     OW29339   4.045   0.943   0.242
 9127SOL    HW129340   4.127   0.982   0.200
 9127SOL    HW229341   4.018   0.861   0.193
 9128SOL     OW29342   5.182   0.735   0.728
 9128SOL    HW129343   5.177   0.670   0.803
 9128SOL    HW229344   5.262   0.794   0.741
 9129SOL     OW29345   4.185   1.266   1.727
 9129SOL    HW129346   4.135   1.267   1.641
 9129SOL    HW229347   4.122   1.248   1.803
 9130SOL     OW29348   4.835   1.776   0.237
 9130SOL    HW129349   4.775   1.714   0.287
 9130SOL    HW229350   4.866   1.732   0.152
 9131SOL     OW29351   3.926   0.285   1.498
 9131SOL    HW129352   3.846   0.345   1.485
 9131SOL    HW229353   3.916   0.236   1.584
 9132SOL     OW29354   5.356   1.377   0.081
 9132SOL    HW129355   5.324   1.471   0.071
 9132SOL    HW229356   5.280   1.314   0.069
 9133SOL     OW29357   4.188   1.743   0.323
 9133SOL    HW129358   4.221   1.782   0.409
 9133SOL    HW229359   4.264   1.736   0.258
 9134SOL     OW29360   5.124   0.107   0.426
 9134SOL    HW129361   5.100   0.070   0.336
 9134SOL    HW229362   5.223   0.123   0.430
 9135SOL     OW29363   3.973   1.785   1.241
 9135SOL    HW129364   4.030   1.720   1.291
 9135SOL    HW229365   3.957   1.752   1.148
 9136SOL     OW29366   4.664   1.698   0.904
 9136SOL    HW129367   4.744   1.641   0.925
 9136SOL    HW229368   4.615   1.658   0.827
 9137SOL     OW29369   4.106   0.700   0.480
 9137SOL    HW129370   4.151   0.610   0.477
 9137SOL    HW229371   4.012   0.689   0.513
 9138SOL     OW29372   5.271   0.222   1.729
 9138SOL    HW129373   5.266   0.259   1.821
 9138SOL    HW229374   5.199   0.153   1.717
 9139SOL     OW29375   4.338   0.122   0.117
 9139SOL    HW129376   4.436   0.100   0.124
 9139SOL    HW229377   4.307   0.105   0.024
 9140SOL     OW29378   4.505   0.264   1.749
 9140SOL    HW129379   4.572   0.203   1.792
 9140SOL    HW229380   4.432   0.283   1.814
 9141SOL     OW29381   4.612   1.514   1.195
 9141SOL    HW129382   4.589   1.489   1.101
 9141SOL    HW229383   4.673   1.445   1.234
 9142SOL     OW29384   5.075   0.590   1.433
 9142SOL    HW129385   5.103   0.547   1.518
 9142SOL    HW229386   5.100   0.686   1.434
 9143SOL     OW29387   4.527   1.402   0.924
 9143SOL    HW129388   4.617   1.416   0.882
 9143SOL    HW229389   4.456   1.404   0.853
 9144SOL     OW29390   4.646   0.503   0.899
 9144SOL    HW129391   4.621   0.494   0.803
 9144SOL    HW229392   4.694   0.421   0.930
 9145SOL     OW29393   4.263   0.064   0.512
 9145SOL    HW129394   4.182   0.065   0.570
 9145SOL    HW229395   4.266   0.147   0.457
 9146SOL     OW29396   5.158   1.188   0.041
 9146SOL    HW129397   5.190   1.112   0.098
 9146SOL    HW229398   5.066   1.215   0.071
 9147SOL     OW29399   4.021   0.035   0.171
 9147SOL    HW129400   4.070   0.119   0.150
 9147SOL    HW229401   4.083  -0.030   0.216
 9148SOL     OW29402   4.659   0.236   0.480
 9148SOL    HW129403   4.611   0.277   0.402
 9148SOL    HW229404   4.758   0.234   0.461
 9149SOL     OW29405   4.800   0.683   1.464
 9149SOL    HW129406   4.720   0.622   1.467
 9149SOL    HW229407   4.881   0.630   1.440
 9150SOL     OW29408   4.951   1.570   0.793
 9150SOL    HW129409   4.972   1.644   0.728
 9150SOL    HW229410   5.019   1.570   0.866
 9151SOL     OW29411   4.183   1.152   0.741
 9151SOL    HW129412   4.112   1.125   0.806
 9151SOL    HW229413   4.157   1.124   0.648
 9152SOL     OW29414   4.995   1.797   0.591
 9152SOL    HW129415   5.039   1.861   0.527
 9152SOL    HW229416   4.945   1.849   0.661
 9153SOL     OW29417   4.756   0.549   0.016
 9153SOL    HW129418   4.715   0.631  -0.023
 9153SOL    HW229419   4.820   0.575   0.089
 9154SOL     OW29420   3.802   0.556   1.386
 9154SOL    HW129421   3.894   0.555   1.345
 9154SOL    HW229422   3.796   0.630   1.453
 9155SOL     OW29423   4.285   0.222   1.147
 9155SOL    HW129424   4.323   0.138   1.184
 9155SOL    HW229425   4.197   0.241   1.191
 9156SOL     OW29426   4.590   0.454   0.642
 9156SOL    HW129427   4.558   0.526   0.580
 9156SOL    HW229428   4.614   0.373   0.589
 9157SOL     OW29429   4.741   0.039   0.753
 9157SOL    HW129430   4.669   0.044   0.684
 9157SOL    HW229431   4.717  -0.030   0.822
 9158SOL     OW29432   5.153   1.173   0.867
 9158SOL    HW129433   5.098   1.089   0.860
 9158SOL    HW229434   5.179   1.202   0.775
 9159SOL     OW29435   5.190   0.590   0.992
 9159SOL    HW129436   5.160   0.495   0.999
 9159SOL    HW229437   5.263   0.606   1.058
 9160SOL     OW29438   5.581   0.833   0.377
 9160SOL    HW129439   5.623   0.769   0.441
 9160SOL    HW229440   5.543   0.782   0.299
 9161SOL     OW29441   4.212   1.385   0.174
 9161SOL    HW129442   4.125   1.370   0.221
 9161SOL    HW229443   4.195   1.411   0.079
 9162SOL     OW29444   5.388   1.280   0.657
 9162SOL    HW129445   5.487   1.288   0.671
 9162SOL    HW229446   5.343   1.364   0.688
 9163SOL     OW29447   5.114   0.575   0.078
 9163SOL    HW129448   5.060   0.554   0.159
 9163SOL    HW229449   5.205   0.534   0.087
 9164SOL     OW29450   4.251   0.256   0.328
 9164SOL    HW129451   4.278   0.197   0.253
 9164SOL    HW229452   4.251   0.351   0.297
 9165SOL     OW29453   5.478   1.223   1.588
 9165SOL    HW129454   5.569   1.184   1.575
 9165SOL    HW229455   5.486   1.319   1.612
 9166SOL     OW29456   4.788   1.347   1.340
 9166SOL    HW129457   4.708   1.324   1.395
 9166SOL    HW229458   4.871   1.321   1.389
 9167SOL     OW29459   5.316   1.629   1.625
 9167SOL    HW129460   5.343   1.663   1.535
 9167SOL    HW229461   5.395   1.591   1.671
 9168SOL     OW29462   4.835   1.195   1.100
 9168SOL    HW129463   4.795   1.239   1.181
 9168SOL    HW229464   4.794   1.232   1.017
 9169SOL     OW29465   5.362   1.099   1.079
 9169SOL    HW129466   5.367   1.180   1.138
 9169SOL    HW229467   5.276   1.101   1.028
 9170SOL     OW29468   4.639   0.089   1.402
 9170SOL    HW129469   4.664   0.069   1.307
 9170SOL    HW229470   4.711   0.145   1.444
 9171SOL     OW29471   4.704   1.116   1.719
 9171SOL    HW129472   4.605   1.122   1.729
 9171SOL    HW229473   4.727   1.036   1.663
 9172SOL     OW29474   4.429   1.050   0.368
 9172SOL    HW129475   4.415   1.057   0.467
 9172SOL    HW229476   4.513   0.999   0.350
 9173SOL     OW29477   4.134   0.813   1.251
 9173SOL    HW129478   4.220   0.825   1.301
 9173SOL    HW229479   4.092   0.726   1.278
 9174SOL     OW29480   4.998   0.386   1.262
 9174SOL    HW129481   5.019   0.460   1.326
 9174SOL    HW229482   4.909   0.403   1.219
 9175SOL     OW29483   3.788   1.564   1.331
 9175SOL    HW129484   3.742   1.646   1.297
 9175SOL    HW229485   3.886   1.583   1.340
 9176SOL     OW29486   4.091   1.100   0.501
 9176SOL    HW129487   4.084   1.183   0.445
 9176SOL    HW229488   4.095   1.020   0.441
 9177SOL     OW29489   4.290   0.537   0.865
 9177SOL    HW129490   4.302   0.603   0.791
 9177SOL    HW229491   4.336   0.571   0.948
 9178SOL     OW29492   4.976   1.348   0.388
 9178SOL    HW129493   5.026   1.425   0.428
 9178SOL    HW229494   4.881   1.350   0.420
 9179SOL     OW29495   4.996   1.445   1.142
 9179SOL    HW129496   5.043   1.458   1.229
 9179SOL    HW229497   4.930   1.371   1.151
 9180SOL     OW29498   5.306   0.639   0.472
 9180SOL    HW129499   5.275   0.700   0.545
 9180SOL    HW229500   5.356   0.691   0.403
 9181SOL     OW29501   4.078   1.510   1.329
 9181SOL    HW129502   4.057   1.466   1.242
 9181SOL    HW229503   4.175   1.536   1.332
 9182SOL     OW29504   4.126   0.751   1.598
 9182SOL    HW129505   4.194   0.806   1.551
 9182SOL    HW229506   4.166   0.663   1.625
 9183SOL     OW29507   5.311   0.779   1.670
 9183SOL    HW129508   5.219   0.817   1.665
 9183SOL    HW229509   5.371   0.826   1.605
 9184SOL     OW29510   4.737   0.105   1.770
 9184SOL    HW129511   4.743   0.190   1.718
 9184SOL    HW229512   4.769   0.029   1.713
 9185SOL     OW29513   4.228   0.050   1.740
 9185SOL    HW129514   4.186  -0.007   1.670
 9185SOL    HW229515   4.162   0.119   1.772
 9186SOL     OW29516   4.297   0.870   1.029
 9186SOL    HW129517   4.341   0.959   1.020
 9186SOL    HW229518   4.234   0.870   1.106
 9187SOL     OW29519   5.084   0.862   1.045
 9187SOL    HW129520   5.009   0.862   0.979
 9187SOL    HW229521   5.121   0.770   1.054
 9188SOL     OW29522   4.933   0.525   0.275
 9188SOL    HW129523   4.946   0.441   0.329
 9188SOL    HW229524   4.904   0.599   0.335
 9189SOL     OW29525   4.031   0.213   1.231
 9189SOL    HW129526   4.008   0.250   1.321
 9189SOL    HW229527   4.001   0.118   1.225
 9190SOL     OW29528   3.761   1.310   1.282
 9190SOL    HW129529   3.814   1.261   1.350
 9190SOL    HW229530   3.783   1.408   1.287
 9191SOL     OW29531   4.456   0.634   1.064
 9191SOL    HW129532   4.515   0.608   0.988
 9191SOL    HW229533   4.428   0.730   1.053
 9192SOL     OW29534   5.452   0.935   1.854
 9192SOL    HW129535   5.406   0.928   1.765
 9192SOL    HW229536   5.390   0.979   1.920
 9193SOL     OW29537   4.031   0.063   0.618
 9193SOL    HW129538   4.020   0.157   0.651
 9193SOL    HW229539   4.026   0.000   0.695
 9194SOL     OW29540   5.346   0.367   0.374
 9194SOL    HW129541   5.348   0.291   0.438
 9194SOL    HW229542   5.298   0.444   0.414
 9195SOL     OW29543   4.747   0.766   0.966
 9195SOL    HW129544   4.762   0.787   1.062
 9195SOL    HW229545   4.717   0.671   0.957
 9196SOL     OW29546   4.704   1.573   1.700
 9196SOL    HW129547   4.684   1.617   1.612
 9196SOL    HW229548   4.743   1.482   1.684
 9197SOL     OW29549   5.583   1.518   1.605
 9197SOL    HW129550   5.597   1.545   1.510
 9197SOL    HW229551   5.666   1.540   1.658
 9198SOL     OW29552   4.074   0.898   1.804
 9198SOL    HW129553   4.150   0.942   1.852
 9198SOL    HW229554   4.109   0.851   1.722
 9199SOL     OW29555   5.264   0.274   0.125
 9199SOL    HW129556   5.203   0.199   0.148
 9199SOL    HW229557   5.286   0.326   0.208
 9200SOL     OW29558   5.027   0.838   0.042
 9200SOL    HW129559   5.061   0.745   0.057
 9200SOL    HW229560   5.045   0.865  -0.053
 9201SOL     OW29561   4.792   1.333   0.849
 9201SOL    HW129562   4.799   1.249   0.794
 9201SOL    HW229563   4.854   1.402   0.813
 9202SOL     OW29564   4.043   0.810   0.949
 9202SOL    HW129565   4.136   0.846   0.954
 9202SOL    HW229566   4.037   0.725   1.001
 9203SOL     OW29567   4.063   0.509   1.006
 9203SOL    HW129568   4.011   0.426   0.989
 9203SOL    HW229569   4.140   0.514   0.942
 9204SOL     OW29570   4.862   0.380   1.678
 9204SOL    HW129571   4.817   0.443   1.742
 9204SOL    HW229572   4.955   0.411   1.661
 9205SOL     OW29573   4.884   0.207   1.477
 9205SOL    HW129574   4.884   0.271   1.554
 9205SOL    HW229575   4.912   0.255   1.394
 9206SOL     OW29576   3.732   1.326   0.200
 9206SOL    HW129577   3.639   1.347   0.169
 9206SOL    HW229578   3.742   1.227   0.213
 9207SOL     OW29579   3.812   1.801   0.927
 9207SOL    HW129580   3.770   1.715   0.900
 9207SOL    HW229581   3.906   1.804   0.893
 9208SOL     OW29582   4.228   1.568   0.910
 9208SOL    HW129583   4.294   1.642   0.919
 9208SOL    HW229584   4.272   1.489   0.868
 9209SOL     OW29585   4.726   0.796   1.238
 9209SOL    HW129586   4.767   0.764   1.324
 9209SOL    HW229587   4.630   0.769   1.235
 9210SOL     OW29588   3.764   0.544   1.114
 9210SOL    HW129589   3.849   0.511   1.073
 9210SOL    HW229590   3.777   0.559   1.212
 9211SOL     OW29591   3.913   0.520   1.722
 9211SOL    HW129592   3.972   0.480   1.652
 9211SOL    HW229593   3.855   0.591   1.681
 9212SOL     OW29594   5.093   0.950   1.660
 9212SOL    HW129595   5.132   1.039   1.680
 9212SOL    HW229596   5.103   0.930   1.563
 9213SOL     OW29597   4.539   0.572   0.325
 9213SOL    HW129598   4.546   0.483   0.279
 9213SOL    HW229599   4.445   0.606   0.317
 9214SOL     OW29600   5.381   0.604   1.206
 9214SOL    HW129601   5.343   0.535   1.268
 9214SOL    HW229602   5.463   0.568   1.162
 9215SOL     OW29603   3.976   1.564   1.744
 9215SOL    HW129604   3.946   1.621   1.820
 9215SOL    HW229605   3.969   1.467   1.770
 9216SOL     OW29606   4.395   0.464   1.269
 9216SOL    HW129607   4.361   0.375   1.239
 9216SOL    HW229608   4.421   0.518   1.189
 9217SOL     OW29609   4.654   1.678   1.465
 9217SOL    HW129610   4.630   1.660   1.370
 9217SOL    HW229611   4.684   1.772   1.475
 9218SOL     OW29612   4.197   0.500   0.191
 9218SOL    HW129613   4.258   0.580   0.195
 9218SOL    HW229614   4.102   0.531   0.198
 9219SOL     OW29615   3.883   1.137   1.466
 9219SOL    HW129616   3.905   1.076   1.542
 9219SOL    HW229617   3.893   1.088   1.380
 9220SOL     OW29618   5.071   1.059   1.234
 9220SOL    HW129619   5.095   0.996   1.160
 9220SOL    HW229620   4.981   1.099   1.216
 9221SOL     OW29621   5.026   0.855   0.309
 9221SOL    HW129622   4.940   0.824   0.351
 9221SOL    HW229623   5.022   0.841   0.210
 9222SOL     OW29624   5.483   1.747   1.154
 9222SOL    HW129625   5.544   1.777   1.081
 9222SOL    HW229626   5.445   1.658   1.132
 9223SOL     OW29627   4.976   1.731   1.128
 9223SOL    HW129628   5.060   1.736   1.074
 9223SOL    HW229629   4.953   1.635   1.146
 9224SOL     OW29630   3.807   1.258   1.022
 9224SOL    HW129631   3.802   1.257   1.122
 9224SOL    HW229632   3.724   1.217   0.984
 9225SOL     OW29633   4.412   1.662   1.716
 9225SOL    HW129634   4.356   1.743   1.725
 9225SOL    HW229635   4.464   1.666   1.630
 9226SOL     OW29636   4.627   0.086   0.133
 9226SOL    HW129637   4.678   0.087   0.047
 9226SOL    HW229638   4.683   0.044   0.204
 9227SOL     OW29639   5.450   0.135   0.523
 9227SOL    HW129640   5.523   0.118   0.456
 9227SOL    HW229641   5.419   0.048   0.561
 9228SOL     OW29642   5.112   1.573   0.477
 9228SOL    HW129643   5.179   1.585   0.403
 9228SOL    HW229644   5.072   1.662   0.500
 9229SOL     OW29645   3.854   1.794   1.851
 9229SOL    HW129646   3.813   1.720   1.904
 9229SOL    HW229647   3.918   1.845   1.909
 9230SOL     OW29648   5.004   0.927   0.672
 9230SOL    HW129649   5.064   0.846   0.674
 9230SOL    HW229650   5.044   0.996   0.612
 9231SOL     OW29651   4.554   1.273   1.422
 9231SOL    HW129652   4.549   1.306   1.517
 9231SOL    HW229653   4.468   1.292   1.376
 9232SOL     OW29654   4.396   1.616   0.154
 9232SOL    HW129655   4.405   1.626   0.055
 9232SOL    HW229656   4.356   1.527   0.175
 9233SOL     OW29657   5.374   1.720   1.394
 9233SOL    HW129658   5.427   1.730   1.310
 9233SOL    HW229659   5.347   1.810   1.428
 9234SOL     OW29660   5.565   0.175   0.963
 9234SOL    HW129661   5.604   0.090   0.927
 9234SOL    HW229662   5.467   0.177   0.944
 9235SOL     OW29663   3.987   0.326   0.720
 9235SOL    HW129664   3.908   0.377   0.686
 9235SOL    HW229665   3.978   0.311   0.818
 9236SOL     OW29666   4.918   1.612   0.031
 9236SOL    HW129667   4.924   1.519   0.068
 9236SOL    HW229668   4.859   1.612  -0.049
 9237SOL     OW29669   4.546   1.002   1.372
 9237SOL    HW129670   4.586   1.001   1.280
 9237SOL    HW229671   4.556   1.094   1.412
 9238SOL     OW29672   4.640   0.910   0.291
 9238SOL    HW129673   4.703   0.948   0.223
 9238SOL    HW229674   4.680   0.827   0.330
 9239SOL     OW29675   5.228   1.607   0.044
 9239SOL    HW129676   5.136   1.644   0.051
 9239SOL    HW229677   5.266   1.627  -0.046
 9240SOL     OW29678   4.096   1.288   1.490
 9240SOL    HW129679   4.083   1.381   1.456
 9240SOL    HW229680   4.012   1.236   1.477
 9241SOL     OW29681   5.338   1.292   1.289
 9241SOL    HW129682   5.398   1.295   1.369
 9241SOL    HW229683   5.263   1.356   1.302
 9242SOL     OW29684   4.763   1.098   0.696
 9242SOL    HW129685   4.693   1.051   0.750
 9242SOL    HW229686   4.822   1.030   0.653
 9243SOL     OW29687   4.738   0.236   0.971
 9243SOL    HW129688   4.730   0.200   0.878
 9243SOL    HW229689   4.736   0.160   1.036
 9244SOL     OW29690   4.314   1.487   0.491
 9244SOL    HW129691   4.356   1.429   0.421
 9244SOL    HW229692   4.270   1.566   0.447
 9245SOL     OW29693   5.433   0.385   1.381
 9245SOL    HW129694   5.506   0.454   1.385
 9245SOL    HW229695   5.461   0.310   1.322
 9246SOL     OW29696   3.979   1.348   0.290
 9246SOL    HW129697   3.883   1.349   0.263
 9246SOL    HW229698   3.991   1.401   0.374
 9247SOL     OW29699   3.829   1.013   1.726
 9247SOL    HW129700   3.752   0.980   1.780
 9247SOL    HW229701   3.914   0.983   1.768
 9248SOL     OW29702   4.396   0.203   1.489
 9248SOL    HW129703   4.486   0.187   1.449
 9248SOL    HW229704   4.404   0.208   1.588
 9249SOL     OW29705   5.164   0.856   1.398
 9249SOL    HW129706   5.107   0.908   1.335
 9249SOL    HW229707   5.260   0.868   1.374
 9250SOL     OW29708   3.796   0.166   0.318
 9250SOL    HW129709   3.779   0.249   0.264
 9250SOL    HW229710   3.886   0.129   0.296
 9251SOL     OW29711   4.907   1.335   0.119
 9251SOL    HW129712   4.808   1.324   0.121
 9251SOL    HW229713   4.941   1.350   0.212
 9252SOL     OW29714   4.337   0.842   1.431
 9252SOL    HW129715   4.393   0.923   1.414
 9252SOL    HW229716   4.396   0.762   1.434
 9253SOL     OW29717   5.217   1.767   0.959
 9253SOL    HW129718   5.250   1.831   0.890
 9253SOL    HW229719   5.283   1.761   1.034
 9254SOL     OW29720   4.440   0.565   1.708
 9254SOL    HW129721   4.459   0.630   1.782
 9254SOL    HW229722   4.500   0.485   1.717
 9255SOL     OW29723   5.174   1.220   1.633
 9255SOL    HW129724   5.165   1.210   1.732
 9255SOL    HW229725   5.270   1.213   1.607
 9256SOL     OW29726   4.114   1.741   1.560
 9256SOL    HW129727   4.023   1.782   1.558
 9256SOL    HW229728   4.107   1.647   1.592
 9257SOL     OW29729   5.398   0.883   1.254
 9257SOL    HW129730   5.371   0.794   1.217
 9257SOL    HW229731   5.399   0.951   1.181
 9258SOL     OW29732   4.949   0.325   0.449
 9258SOL    HW129733   5.014   0.251   0.438
 9258SOL    HW229734   4.969   0.375   0.533
 9259SOL     OW29735   4.318   0.745   0.652
 9259SOL    HW129736   4.368   0.830   0.633
 9259SOL    HW229737   4.230   0.747   0.604
 9260SOL     OW29738   5.501   0.342   1.642
 9260SOL    HW129739   5.484   0.373   1.548
 9260SOL    HW229740   5.417   0.305   1.680
 9261SOL     OW29741   5.454   0.934   1.517
 9261SOL    HW129742   5.492   1.025   1.532
 9261SOL    HW229743   5.446   0.917   1.418
 9262SOL     OW29744   4.583   1.374   0.016
 9262SOL    HW129745   4.537   1.389   0.104
 9262SOL    HW229746   4.627   1.459  -0.014
 9263SOL     OW29747   4.385   1.790   0.953
 9263SOL    HW129748   4.339   1.878   0.940
 9263SOL    HW229749   4.484   1.802   0.946
 9264SOL     OW29750   5.132   1.851   1.720
 9264SOL    HW129751   5.036   1.840   1.693
 9264SOL    HW229752   5.188   1.784   1.672
 9265SOL     OW29753   4.583   0.956   0.861
 9265SOL    HW129754   4.637   0.887   0.909
 9265SOL    HW229755   4.551   1.025   0.927
 9266SOL     OW29756   4.807   0.984   0.087
 9266SOL    HW129757   4.784   1.037   0.005
 9266SOL    HW229758   4.888   0.928   0.068
 9267SOL     OW29759   5.585   1.569   0.851
 9267SOL    HW129760   5.514   1.557   0.781
 9267SOL    HW229761   5.586   1.490   0.911
 9268SOL     OW29762   3.945   1.314   1.844
 9268SOL    HW129763   3.880   1.241   1.823
 9268SOL    HW229764   3.949   1.328   1.942
 9269SOL     OW29765   3.803   1.240   0.653
 9269SOL    HW129766   3.802   1.193   0.741
 9269SOL    HW229767   3.885   1.212   0.602
 9270SOL     OW29768   4.396   1.391   1.624
 9270SOL    HW129769   4.318   1.341   1.662
 9270SOL    HW229770   4.393   1.486   1.655
 9271SOL     OW29771   5.548   0.192   1.227
 9271SOL    HW129772   5.544   0.102   1.271
 9271SOL    HW229773   5.551   0.181   1.128
 9272SOL     OW29774   4.152   0.424   0.520
 9272SOL    HW129775   4.182   0.352   0.458
 9272SOL    HW229776   4.113   0.384   0.603
 9273SOL     OW29777   5.429   1.487   1.104
 9273SOL    HW129778   5.336   1.462   1.077
 9273SOL    HW229779   5.455   1.437   1.186
 9274SOL     OW29780   4.041   0.547   1.280
 9274SOL    HW129781   4.079   0.488   1.352
 9274SOL    HW229782   4.081   0.521   1.192
 9275SOL     OW29783   4.536   1.586   0.687
 9275SOL    HW129784   4.568   1.596   0.593
 9275SOL    HW229785   4.457   1.524   0.689
 9276SOL     OW29786   5.148   0.214   1.112
 9276SOL    HW129787   5.200   0.149   1.167
 9276SOL    HW229788   5.099   0.277   1.173
 9277SOL     OW29789   4.725   0.034   1.154
 9277SOL    HW129790   4.662  -0.038   1.123
 9277SOL    HW229791   4.818  -0.002   1.154
 9278SOL     OW29792   4.494   1.330   0.301
 9278SOL    HW129793   4.448   1.243   0.318
 9278SOL    HW229794   4.585   1.327   0.342
 9279SOL     OW29795   4.342   1.567   1.284
 9279SOL    HW129796   4.337   1.649   1.341
 9279SOL    HW229797   4.431   1.564   1.239
 9280SOL     OW29798   5.076   0.052   0.168
 9280SOL    HW129799   5.111   0.011   0.084
 9280SOL    HW229800   4.986   0.014   0.188
 9281SOL     OW29801   5.024   0.453   0.691
 9281SOL    HW129802   4.965   0.533   0.695
 9281SOL    HW229803   5.039   0.418   0.784
 9282SOL     OW29804   5.317   0.221   0.882
 9282SOL    HW129805   5.233   0.220   0.936
 9282SOL    HW229806   5.319   0.304   0.826
 9283SOL     OW29807   3.763   1.077   0.300
 9283SOL    HW129808   3.862   1.066   0.291
 9283SOL    HW229809   3.723   0.991   0.332
 9284SOL     OW29810   4.599   1.646   0.337
 9284SOL    HW129811   4.522   1.611   0.283
 9284SOL    HW229812   4.567   1.717   0.399
 9285SOL     OW29813   3.954   0.628   1.975
 9285SOL    HW129814   3.861   0.626   2.012
 9285SOL    HW229815   3.955   0.589   1.883
 9286SOL     OW29816   3.949   0.275   2.858
 9286SOL    HW129817   3.984   0.258   2.950
 9286SOL    HW229818   3.861   0.230   2.846
 9287SOL     OW29819   3.743   0.368   2.509
 9287SOL    HW129820   3.661   0.411   2.548
 9287SOL    HW229821   3.715   0.295   2.446
 9288SOL     OW29822   4.293   1.275   3.027
 9288SOL    HW129823   4.200   1.268   2.990
 9288SOL    HW229824   4.304   1.364   3.071
 9289SOL     OW29825   5.279   1.511   2.565
 9289SOL    HW129826   5.222   1.495   2.646
 9289SOL    HW229827   5.220   1.521   2.485
 9290SOL     OW29828   5.467   0.618   2.718
 9290SOL    HW129829   5.500   0.712   2.718
 9290SOL    HW229830   5.518   0.564   2.784
 9291SOL     OW29831   4.859   0.703   2.579
 9291SOL    HW129832   4.916   0.781   2.554
 9291SOL    HW229833   4.799   0.729   2.655
 9292SOL     OW29834   5.479   0.607   2.093
 9292SOL    HW129835   5.467   0.594   1.994
 9292SOL    HW229836   5.449   0.526   2.142
 9293SOL     OW29837   4.492   1.144   2.885
 9293SOL    HW129838   4.414   1.161   2.945
 9293SOL    HW229839   4.526   1.231   2.849
 9294SOL     OW29840   4.574   0.798   3.685
 9294SOL    HW129841   4.570   0.874   3.750
 9294SOL    HW229842   4.596   0.834   3.594
 9295SOL     OW29843   4.409   1.012   2.527
 9295SOL    HW129844   4.478   0.996   2.597
 9295SOL    HW229845   4.336   1.069   2.565
 9296SOL     OW29846   4.410   1.161   3.665
 9296SOL    HW129847   4.470   1.240   3.679
 9296SOL    HW229848   4.324   1.192   3.624
 9297SOL     OW29849   4.059   1.435   2.923
 9297SOL    HW129850   3.981   1.404   2.870
 9297SOL    HW229851   4.117   1.493   2.866
 9298SOL     OW29852   5.184   1.505   3.201
 9298SOL    HW129853   5.208   1.599   3.227
 9298SOL    HW229854   5.168   1.451   3.283
 9299SOL     OW29855   4.162   0.392   3.361
 9299SOL    HW129856   4.244   0.336   3.370
 9299SOL    HW229857   4.081   0.334   3.365
 9300SOL     OW29858   5.327   0.447   2.599
 9300SOL    HW129859   5.253   0.493   2.549
 9300SOL    HW229860   5.378   0.515   2.652
 9301SOL     OW29861   3.955   1.713   2.345
 9301SOL    HW129862   3.989   1.790   2.399
 9301SOL    HW229863   3.999   1.713   2.255
 9302SOL     OW29864   4.851   1.341   3.552
 9302SOL    HW129865   4.898   1.341   3.640
 9302SOL    HW229866   4.803   1.254   3.541
 9303SOL     OW29867   3.954   1.434   2.400
 9303SOL    HW129868   3.928   1.530   2.400
 9303SOL    HW229869   3.883   1.380   2.445
 9304SOL     OW29870   3.964   1.091   2.748
 9304SOL    HW129871   3.978   1.007   2.800
 9304SOL    HW229872   3.909   1.155   2.803
 9305SOL     OW29873   4.344   1.786   3.301
 9305SOL    HW129874   4.252   1.769   3.336
 9305SOL    HW229875   4.372   1.878   3.327
 9306SOL     OW29876   4.330   0.964   1.985
 9306SOL    HW129877   4.337   1.048   1.931
 9306SOL    HW229878   4.376   0.977   2.073
 9307SOL     OW29879   5.318   0.114   3.342
 9307SOL    HW129880   5.300   0.181   3.270
 9307SOL    HW229881   5.315   0.160   3.431
 9308SOL     OW29882   3.846   0.643   2.425
 9308SOL    HW129883   3.801   0.555   2.442
 9308SOL    HW229884   3.845   0.697   2.509
 9309SOL     OW29885   5.566   1.767   2.221
 9309SOL    HW129886   5.620   1.738   2.301
 9309SOL    HW229887   5.596   1.857   2.192
 9310SOL     OW29888   3.751   1.596   1.979
 9310SOL    HW129889   3.732   1.500   2.000
 9310SOL    HW229890   3.718   1.654   2.054
 9311SOL     OW29891   5.413   0.922   2.474
 9311SOL    HW129892   5.508   0.893   2.482
 9311SOL    HW229893   5.405   0.987   2.399
 9312SOL     OW29894   5.365   1.108   2.294
 9312SOL    HW129895   5.451   1.110   2.242
 9312SOL    HW229896   5.379   1.155   2.382
 9313SOL     OW29897   3.837   0.737   3.459
 9313SOL    HW129898   3.925   0.724   3.504
 9313SOL    HW229899   3.824   0.834   3.437
 9314SOL     OW29900   4.337   1.365   2.588
 9314SOL    HW129901   4.288   1.278   2.597
 9314SOL    HW229902   4.314   1.408   2.501
 9315SOL     OW29903   5.017   1.228   3.285
 9315SOL    HW129904   5.054   1.155   3.227
 9315SOL    HW229905   5.069   1.233   3.370
 9316SOL     OW29906   4.533   0.004   2.364
 9316SOL    HW129907   4.573   0.095   2.355
 9316SOL    HW229908   4.433   0.012   2.370
 9317SOL     OW29909   3.921   0.976   3.126
 9317SOL    HW129910   4.010   0.931   3.112
 9317SOL    HW229911   3.848   0.911   3.107
 9318SOL     OW29912   5.249   0.999   2.052
 9318SOL    HW129913   5.186   0.923   2.065
 9318SOL    HW229914   5.297   1.017   2.138
 9319SOL     OW29915   4.911   1.792   3.478
 9319SOL    HW129916   4.935   1.852   3.402
 9319SOL    HW229917   4.918   1.697   3.448
 9320SOL     OW29918   4.041   0.251   3.663
 9320SOL    HW129919   4.112   0.322   3.669
 9320SOL    HW229920   3.953   0.290   3.691
 9321SOL     OW29921   5.190   1.417   2.815
 9321SOL    HW129922   5.131   1.423   2.895
 9321SOL    HW229923   5.175   1.329   2.769
 9322SOL     OW29924   5.391   1.714   2.434
 9322SOL    HW129925   5.350   1.691   2.346
 9322SOL    HW229926   5.373   1.640   2.499
 9323SOL     OW29927   4.322   0.729   2.132
 9323SOL    HW129928   4.346   0.798   2.064
 9323SOL    HW229929   4.244   0.762   2.186
 9324SOL     OW29930   5.005   0.345   2.806
 9324SOL    HW129931   4.919   0.295   2.793
 9324SOL    HW229932   5.067   0.291   2.862
 9325SOL     OW29933   5.300   1.662   2.169
 9325SOL    HW129934   5.389   1.708   2.172
 9325SOL    HW229935   5.279   1.638   2.074
 9326SOL     OW29936   4.531   0.605   3.327
 9326SOL    HW129937   4.484   0.602   3.416
 9326SOL    HW229938   4.480   0.550   3.261
 9327SOL     OW29939   5.118   0.469   3.536
 9327SOL    HW129940   5.098   0.512   3.624
 9327SOL    HW229941   5.196   0.407   3.545
 9328SOL     OW29942   4.697   0.890   3.434
 9328SOL    HW129943   4.743   0.806   3.405
 9328SOL    HW229944   4.641   0.924   3.359
 9329SOL     OW29945   4.715   0.410   3.104
 9329SOL    HW129946   4.638   0.444   3.158
 9329SOL    HW229947   4.681   0.359   3.025
 9330SOL     OW29948   4.765   0.701   2.291
 9330SOL    HW129949   4.791   0.697   2.387
 9330SOL    HW229950   4.680   0.650   2.277
 9331SOL     OW29951   3.800   0.811   2.651
 9331SOL    HW129952   3.899   0.799   2.660
 9331SOL    HW229953   3.776   0.906   2.672
 9332SOL     OW29954   3.854   1.821   3.433
 9332SOL    HW129955   3.844   1.806   3.532
 9332SOL    HW229956   3.768   1.857   3.397
 9333SOL     OW29957   4.589   0.348   2.057
 9333SOL    HW129958   4.648   0.411   2.008
 9333SOL    HW229959   4.608   0.254   2.028
 9334SOL     OW29960   5.443   0.585   3.693
 9334SOL    HW129961   5.417   0.674   3.657
 9334SOL    HW229962   5.441   0.517   3.620
 9335SOL     OW29963   5.086   1.144   2.407
 9335SOL    HW129964   5.169   1.115   2.359
 9335SOL    HW229965   5.037   1.211   2.351
 9336SOL     OW29966   4.274   0.196   2.747
 9336SOL    HW129967   4.269   0.191   2.847
 9336SOL    HW229968   4.276   0.292   2.718
 9337SOL     OW29969   4.732   1.456   2.339
 9337SOL    HW129970   4.686   1.528   2.287
 9337SOL    HW229971   4.728   1.476   2.437
 9338SOL     OW29972   4.075   1.801   2.715
 9338SOL    HW129973   4.125   1.715   2.721
 9338SOL    HW229974   4.140   1.878   2.712
 9339SOL     OW29975   5.519   1.066   2.735
 9339SOL    HW129976   5.457   1.051   2.659
 9339SOL    HW229977   5.467   1.077   2.820
 9340SOL     OW29978   4.951   1.550   3.368
 9340SOL    HW129979   4.957   1.473   3.432
 9340SOL    HW229980   4.899   1.524   3.288
 9341SOL     OW29981   4.045   0.943   2.104
 9341SOL    HW129982   4.127   0.982   2.062
 9341SOL    HW229983   4.018   0.861   2.055
 9342SOL     OW29984   5.182   0.735   2.590
 9342SOL    HW129985   5.177   0.670   2.665
 9342SOL    HW229986   5.262   0.794   2.603
 9343SOL     OW29987   4.185   1.266   3.589
 9343SOL    HW129988   4.135   1.267   3.503
 9343SOL    HW229989   4.122   1.248   3.665
 9344SOL     OW29990   4.835   1.776   2.099
 9344SOL    HW129991   4.775   1.714   2.149
 9344SOL    HW229992   4.866   1.732   2.014
 9345SOL     OW29993   3.926   0.285   3.360
 9345SOL    HW129994   3.846   0.345   3.347
 9345SOL    HW229995   3.916   0.236   3.446
 9346SOL     OW29996   5.356   1.377   1.943
 9346SOL    HW129997   5.324   1.471   1.933
 9346SOL    HW229998   5.280   1.314   1.931
 9347SOL     OW29999   4.188   1.743   2.185
 9347SOL    HW130000   4.221   1.782   2.271
 9347SOL    HW230001   4.264   1.736   2.120
 9348SOL     OW30002   5.124   0.107   2.288
 9348SOL    HW130003   5.100   0.070   2.198
 9348SOL    HW230004   5.223   0.123   2.292
 9349SOL     OW30005   3.973   1.785   3.103
 9349SOL    HW130006   4.030   1.720   3.153
 9349SOL    HW230007   3.957   1.752   3.010
 9350SOL     OW30008   4.664   1.698   2.766
 9350SOL    HW130009   4.744   1.641   2.787
 9350SOL    HW230010   4.615   1.658   2.689
 9351SOL     OW30011   4.106   0.700   2.342
 9351SOL    HW130012   4.151   0.610   2.339
 9351SOL    HW230013   4.012   0.689   2.375
 9352SOL     OW30014   5.271   0.222   3.591
 9352SOL    HW130015   5.266   0.259   3.683
 9352SOL    HW230016   5.199   0.153   3.579
 9353SOL     OW30017   4.338   0.122   1.979
 9353SOL    HW130018   4.436   0.100   1.986
 9353SOL    HW230019   4.307   0.105   1.886
 9354SOL     OW30020   4.505   0.264   3.611
 9354SOL    HW130021   4.572   0.203   3.654
 9354SOL    HW230022   4.432   0.283   3.676
 9355SOL     OW30023   4.612   1.514   3.057
 9355SOL    HW130024   4.589   1.489   2.963
 9355SOL    HW230025   4.673   1.445   3.096
 9356SOL     OW30026   5.075   0.590   3.295
 9356SOL    HW130027   5.103   0.547   3.380
 9356SOL    HW230028   5.100   0.686   3.296
 9357SOL     OW30029   4.527   1.402   2.786
 9357SOL    HW130030   4.617   1.416   2.744
 9357SOL    HW230031   4.456   1.404   2.715
 9358SOL     OW30032   4.646   0.503   2.761
 9358SOL    HW130033   4.621   0.494   2.665
 9358SOL    HW230034   4.694   0.421   2.792
 9359SOL     OW30035   4.263   0.064   2.374
 9359SOL    HW130036   4.182   0.065   2.432
 9359SOL    HW230037   4.266   0.147   2.319
 9360SOL     OW30038   5.158   1.188   1.903
 9360SOL    HW130039   5.190   1.112   1.960
 9360SOL    HW230040   5.066   1.215   1.933
 9361SOL     OW30041   4.021   0.035   2.033
 9361SOL    HW130042   4.070   0.119   2.012
 9361SOL    HW230043   4.083  -0.030   2.078
 9362SOL     OW30044   4.659   0.236   2.342
 9362SOL    HW130045   4.611   0.277   2.264
 9362SOL    HW230046   4.758   0.234   2.323
 9363SOL     OW30047   4.800   0.683   3.326
 9363SOL    HW130048   4.720   0.622   3.329
 9363SOL    HW230049   4.881   0.630   3.302
 9364SOL     OW30050   4.951   1.570   2.655
 9364SOL    HW130051   4.972   1.644   2.590
 9364SOL    HW230052   5.019   1.570   2.728
 9365SOL     OW30053   4.183   1.152   2.603
 9365SOL    HW130054   4.112   1.125   2.668
 9365SOL    HW230055   4.157   1.124   2.510
 9366SOL     OW30056   4.995   1.797   2.453
 9366SOL    HW130057   5.039   1.861   2.389
 9366SOL    HW230058   4.945   1.849   2.523
 9367SOL     OW30059   4.756   0.549   1.878
 9367SOL    HW130060   4.715   0.631   1.839
 9367SOL    HW230061   4.820   0.575   1.951
 9368SOL     OW30062   3.802   0.556   3.248
 9368SOL    HW130063   3.894   0.555   3.207
 9368SOL    HW230064   3.796   0.630   3.315
 9369SOL     OW30065   4.285   0.222   3.009
 9369SOL    HW130066   4.323   0.138   3.046
 9369SOL    HW230067   4.197   0.241   3.053
 9370SOL     OW30068   4.590   0.454   2.504
 9370SOL    HW130069   4.558   0.526   2.442
 9370SOL    HW230070   4.614   0.373   2.451
 9371SOL     OW30071   4.741   0.039   2.615
 9371SOL    HW130072   4.669   0.044   2.546
 9371SOL    HW230073   4.717  -0.030   2.684
 9372SOL     OW30074   5.153   1.173   2.729
 9372SOL    HW130075   5.098   1.089   2.722
 9372SOL    HW230076   5.179   1.202   2.637
 9373SOL     OW30077   5.190   0.590   2.854
 9373SOL    HW130078   5.160   0.495   2.861
 9373SOL    HW230079   5.263   0.606   2.920
 9374SOL     OW30080   5.581   0.833   2.239
 9374SOL    HW130081   5.623   0.769   2.303
 9374SOL    HW230082   5.543   0.782   2.161
 9375SOL     OW30083   4.212   1.385   2.036
 9375SOL    HW130084   4.125   1.370   2.083
 9375SOL    HW230085   4.195   1.411   1.941
 9376SOL     OW30086   5.388   1.280   2.519
 9376SOL    HW130087   5.487   1.288   2.533
 9376SOL    HW230088   5.343   1.364   2.550
 9377SOL     OW30089   5.114   0.575   1.940
 9377SOL    HW130090   5.060   0.554   2.021
 9377SOL    HW230091   5.205   0.534   1.949
 9378SOL     OW30092   4.251   0.256   2.190
 9378SOL    HW130093   4.278   0.197   2.115
 9378SOL    HW230094   4.251   0.351   2.159
 9379SOL     OW30095   5.478   1.223   3.450
 9379SOL    HW130096   5.569   1.184   3.437
 9379SOL    HW230097   5.486   1.319   3.474
 9380SOL     OW30098   4.788   1.347   3.202
 9380SOL    HW130099   4.708   1.324   3.257
 9380SOL    HW230100   4.871   1.321   3.251
 9381SOL     OW30101   5.316   1.629   3.487
 9381SOL    HW130102   5.343   1.663   3.397
 9381SOL    HW230103   5.395   1.591   3.533
 9382SOL     OW30104   4.835   1.195   2.962
 9382SOL    HW130105   4.795   1.239   3.043
 9382SOL    HW230106   4.794   1.232   2.879
 9383SOL     OW30107   5.362   1.099   2.941
 9383SOL    HW130108   5.367   1.180   3.000
 9383SOL    HW230109   5.276   1.101   2.890
 9384SOL     OW30110   4.639   0.089   3.264
 9384SOL    HW130111   4.664   0.069   3.169
 9384SOL    HW230112   4.711   0.145   3.306
 9385SOL     OW30113   4.704   1.116   3.581
 9385SOL    HW130114   4.605   1.122   3.591
 9385SOL    HW230115   4.727   1.036   3.525
 9386SOL     OW30116   4.429   1.050   2.230
 9386SOL    HW130117   4.415   1.057   2.329
 9386SOL    HW230118   4.513   0.999   2.212
 9387SOL     OW30119   4.134   0.813   3.113
 9387SOL    HW130120   4.220   0.825   3.163
 9387SOL    HW230121   4.092   0.726   3.140
 9388SOL     OW30122   4.998   0.386   3.124
 9388SOL    HW130123   5.019   0.460   3.188
 9388SOL    HW230124   4.909   0.403   3.081
 9389SOL     OW30125   3.788   1.564   3.193
 9389SOL    HW130126   3.742   1.646   3.159
 9389SOL    HW230127   3.886   1.583   3.202
 9390SOL     OW30128   4.091   1.100   2.363
 9390SOL    HW130129   4.084   1.183   2.307
 9390SOL    HW230130   4.095   1.020   2.303
 9391SOL     OW30131   4.290   0.537   2.727
 9391SOL    HW130132   4.302   0.603   2.653
 9391SOL    HW230133   4.336   0.571   2.810
 9392SOL     OW30134   4.976   1.348   2.250
 9392SOL    HW130135   5.026   1.425   2.290
 9392SOL    HW230136   4.881   1.350   2.282
 9393SOL     OW30137   4.996   1.445   3.004
 9393SOL    HW130138   5.043   1.458   3.091
 9393SOL    HW230139   4.930   1.371   3.013
 9394SOL     OW30140   5.306   0.639   2.334
 9394SOL    HW130141   5.275   0.700   2.407
 9394SOL    HW230142   5.356   0.691   2.265
 9395SOL     OW30143   4.078   1.510   3.191
 9395SOL    HW130144   4.057   1.466   3.104
 9395SOL    HW230145   4.175   1.536   3.194
 9396SOL     OW30146   4.126   0.751   3.460
 9396SOL    HW130147   4.194   0.806   3.413
 9396SOL    HW230148   4.166   0.663   3.487
 9397SOL     OW30149   5.311   0.779   3.532
 9397SOL    HW130150   5.219   0.817   3.527
 9397SOL    HW230151   5.371   0.826   3.467
 9398SOL     OW30152   4.737   0.105   3.632
 9398SOL    HW130153   4.743   0.190   3.580
 9398SOL    HW230154   4.769   0.029   3.575
 9399SOL     OW30155   4.228   0.050   3.602
 9399SOL    HW130156   4.186  -0.007   3.532
 9399SOL    HW230157   4.162   0.119   3.634
 9400SOL     OW30158   4.297   0.870   2.891
 9400SOL    HW130159   4.341   0.959   2.882
 9400SOL    HW230160   4.234   0.870   2.968
 9401SOL     OW30161   5.084   0.862   2.907
 9401SOL    HW130162   5.009   0.862   2.841
 9401SOL    HW230163   5.121   0.770   2.916
 9402SOL     OW30164   4.933   0.525   2.137
 9402SOL    HW130165   4.946   0.441   2.191
 9402SOL    HW230166   4.904   0.599   2.197
 9403SOL     OW30167   4.031   0.213   3.093
 9403SOL    HW130168   4.008   0.250   3.183
 9403SOL    HW230169   4.001   0.118   3.087
 9404SOL     OW30170   3.761   1.310   3.144
 9404SOL    HW130171   3.814   1.261   3.212
 9404SOL    HW230172   3.783   1.408   3.149
 9405SOL     OW30173   4.456   0.634   2.926
 9405SOL    HW130174   4.515   0.608   2.850
 9405SOL    HW230175   4.428   0.730   2.915
 9406SOL     OW30176   5.452   0.935   3.716
 9406SOL    HW130177   5.406   0.928   3.627
 9406SOL    HW230178   5.390   0.979   3.782
 9407SOL     OW30179   4.031   0.063   2.480
 9407SOL    HW130180   4.020   0.157   2.513
 9407SOL    HW230181   4.026   0.000   2.557
 9408SOL     OW30182   5.346   0.367   2.236
 9408SOL    HW130183   5.348   0.291   2.300
 9408SOL    HW230184   5.298   0.444   2.276
 9409SOL     OW30185   4.747   0.766   2.828
 9409SOL    HW130186   4.762   0.787   2.924
 9409SOL    HW230187   4.717   0.671   2.819
 9410SOL     OW30188   4.704   1.573   3.562
 9410SOL    HW130189   4.684   1.617   3.474
 9410SOL    HW230190   4.743   1.482   3.546
 9411SOL     OW30191   5.583   1.518   3.467
 9411SOL    HW130192   5.597   1.545   3.372
 9411SOL    HW230193   5.666   1.540   3.520
 9412SOL     OW30194   4.074   0.898   3.666
 9412SOL    HW130195   4.150   0.942   3.714
 9412SOL    HW230196   4.109   0.851   3.584
 9413SOL     OW30197   5.264   0.274   1.987
 9413SOL    HW130198   5.203   0.199   2.010
 9413SOL    HW230199   5.286   0.326   2.070
 9414SOL     OW30200   5.027   0.838   1.904
 9414SOL    HW130201   5.061   0.745   1.919
 9414SOL    HW230202   5.045   0.865   1.809
 9415SOL     OW30203   4.792   1.333   2.711
 9415SOL    HW130204   4.799   1.249   2.656
 9415SOL    HW230205   4.854   1.402   2.675
 9416SOL     OW30206   4.043   0.810   2.811
 9416SOL    HW130207   4.136   0.846   2.816
 9416SOL    HW230208   4.037   0.725   2.863
 9417SOL     OW30209   4.063   0.509   2.868
 9417SOL    HW130210   4.011   0.426   2.851
 9417SOL    HW230211   4.140   0.514   2.804
 9418SOL     OW30212   4.862   0.380   3.540
 9418SOL    HW130213   4.817   0.443   3.604
 9418SOL    HW230214   4.955   0.411   3.523
 9419SOL     OW30215   4.884   0.207   3.339
 9419SOL    HW130216   4.884   0.271   3.416
 9419SOL    HW230217   4.912   0.255   3.256
 9420SOL     OW30218   3.732   1.326   2.062
 9420SOL    HW130219   3.639   1.347   2.031
 9420SOL    HW230220   3.742   1.227   2.075
 9421SOL     OW30221   3.812   1.801   2.789
 9421SOL    HW130222   3.770   1.715   2.762
 9421SOL    HW230223   3.906   1.804   2.755
 9422SOL     OW30224   4.228   1.568   2.772
 9422SOL    HW130225   4.294   1.642   2.781
 9422SOL    HW230226   4.272   1.489   2.730
 9423SOL     OW30227   4.726   0.796   3.100
 9423SOL    HW130228   4.767   0.764   3.186
 9423SOL    HW230229   4.630   0.769   3.097
 9424SOL     OW30230   3.764   0.544   2.976
 9424SOL    HW130231   3.849   0.511   2.935
 9424SOL    HW230232   3.777   0.559   3.074
 9425SOL     OW30233   3.913   0.520   3.584
 9425SOL    HW130234   3.972   0.480   3.514
 9425SOL    HW230235   3.855   0.591   3.543
 9426SOL     OW30236   5.093   0.950   3.522
 9426SOL    HW130237   5.132   1.039   3.542
 9426SOL    HW230238   5.103   0.930   3.425
 9427SOL     OW30239   4.539   0.572   2.187
 9427SOL    HW130240   4.546   0.483   2.141
 9427SOL    HW230241   4.445   0.606   2.179
 9428SOL     OW30242   5.381   0.604   3.068
 9428SOL    HW130243   5.343   0.535   3.130
 9428SOL    HW230244   5.463   0.568   3.024
 9429SOL     OW30245   3.976   1.564   3.606
 9429SOL    HW130246   3.946   1.621   3.682
 9429SOL    HW230247   3.969   1.467   3.632
 9430SOL     OW30248   4.395   0.464   3.131
 9430SOL    HW130249   4.361   0.375   3.101
 9430SOL    HW230250   4.421   0.518   3.051
 9431SOL     OW30251   4.654   1.678   3.327
 9431SOL    HW130252   4.630   1.660   3.232
 9431SOL    HW230253   4.684   1.772   3.337
 9432SOL     OW30254   4.197   0.500   2.053
 9432SOL    HW130255   4.258   0.580   2.057
 9432SOL    HW230256   4.102   0.531   2.060
 9433SOL     OW30257   3.883   1.137   3.328
 9433SOL    HW130258   3.905   1.076   3.404
 9433SOL    HW230259   3.893   1.088   3.242
 9434SOL     OW30260   5.071   1.059   3.096
 9434SOL    HW130261   5.095   0.996   3.022
 9434SOL    HW230262   4.981   1.099   3.078
 9435SOL     OW30263   5.026   0.855   2.171
 9435SOL    HW130264   4.940   0.824   2.213
 9435SOL    HW230265   5.022   0.841   2.072
 9436SOL     OW30266   5.483   1.747   3.016
 9436SOL    HW130267   5.544   1.777   2.943
 9436SOL    HW230268   5.445   1.658   2.994
 9437SOL     OW30269   4.976   1.731   2.990
 9437SOL    HW130270   5.060   1.736   2.936
 9437SOL    HW230271   4.953   1.635   3.008
 9438SOL     OW30272   3.807   1.258   2.884
 9438SOL    HW130273   3.802   1.257   2.984
 9438SOL    HW230274   3.724   1.217   2.846
 9439SOL     OW30275   4.412   1.662   3.578
 9439SOL    HW130276   4.356   1.743   3.587
 9439SOL    HW230277   4.464   1.666   3.492
 9440SOL     OW30278   5.450   0.135   2.385
 9440SOL    HW130279   5.523   0.118   2.318
 9440SOL    HW230280   5.419   0.048   2.423
 9441SOL     OW30281   5.112   1.573   2.339
 9441SOL    HW130282   5.179   1.585   2.265
 9441SOL    HW230283   5.072   1.662   2.362
 9442SOL     OW30284   3.854   1.794   3.713
 9442SOL    HW130285   3.813   1.720   3.766
 9442SOL    HW230286   3.918   1.845   3.771
 9443SOL     OW30287   5.004   0.927   2.534
 9443SOL    HW130288   5.064   0.846   2.536
 9443SOL    HW230289   5.044   0.996   2.474
 9444SOL     OW30290   4.554   1.273   3.284
 9444SOL    HW130291   4.549   1.306   3.379
 9444SOL    HW230292   4.468   1.292   3.238
 9445SOL     OW30293   4.396   1.616   2.016
 9445SOL    HW130294   4.405   1.626   1.917
 9445SOL    HW230295   4.356   1.527   2.037
 9446SOL     OW30296   5.374   1.720   3.256
 9446SOL    HW130297   5.427   1.730   3.172
 9446SOL    HW230298   5.347   1.810   3.290
 9447SOL     OW30299   5.565   0.175   2.825
 9447SOL    HW130300   5.604   0.090   2.789
 9447SOL    HW230301   5.467   0.177   2.806
 9448SOL     OW30302   3.987   0.326   2.582
 9448SOL    HW130303   3.908   0.377   2.548
 9448SOL    HW230304   3.978   0.311   2.680
 9449SOL     OW30305   4.918   1.612   1.893
 9449SOL    HW130306   4.924   1.519   1.930
 9449SOL    HW230307   4.859   1.612   1.813
 9450SOL     OW30308   4.546   1.002   3.234
 9450SOL    HW130309   4.586   1.001   3.142
 9450SOL    HW230310   4.556   1.094   3.274
 9451SOL     OW30311   4.640   0.910   2.153
 9451SOL    HW130312   4.703   0.948   2.085
 9451SOL    HW230313   4.680   0.827   2.192
 9452SOL     OW30314   5.228   1.607   1.906
 9452SOL    HW130315   5.136   1.644   1.913
 9452SOL    HW230316   5.266   1.627   1.816
 9453SOL     OW30317   4.096   1.288   3.352
 9453SOL    HW130318   4.083   1.381   3.318
 9453SOL    HW230319   4.012   1.236   3.339
 9454SOL     OW30320   5.338   1.292   3.151
 9454SOL    HW130321   5.398   1.295   3.231
 9454SOL    HW230322   5.263   1.356   3.164
 9455SOL     OW30323   4.763   1.098   2.558
 9455SOL    HW130324   4.693   1.051   2.612
 9455SOL    HW230325   4.822   1.030   2.515
 9456SOL     OW30326   4.738   0.236   2.833
 9456SOL    HW130327   4.730   0.200   2.740
 9456SOL    HW230328   4.736   0.160   2.898
 9457SOL     OW30329   4.314   1.487   2.353
 9457SOL    HW130330   4.356   1.429   2.283
 9457SOL    HW230331   4.270   1.566   2.309
 9458SOL     OW30332   5.433   0.385   3.243
 9458SOL    HW130333   5.506   0.454   3.247
 9458SOL    HW230334   5.461   0.310   3.184
 9459SOL     OW30335   3.979   1.348   2.152
 9459SOL    HW130336   3.883   1.349   2.125
 9459SOL    HW230337   3.991   1.401   2.236
 9460SOL     OW30338   3.829   1.013   3.588
 9460SOL    HW130339   3.752   0.980   3.642
 9460SOL    HW230340   3.914   0.983   3.630
 9461SOL     OW30341   4.396   0.203   3.351
 9461SOL    HW130342   4.486   0.187   3.311
 9461SOL    HW230343   4.404   0.208   3.450
 9462SOL     OW30344   3.799   0.345   1.895
 9462SOL    HW130345   3.707   0.317   1.866
 9462SOL    HW230346   3.830   0.422   1.839
 9463SOL     OW30347   5.164   0.856   3.260
 9463SOL    HW130348   5.107   0.908   3.197
 9463SOL    HW230349   5.260   0.868   3.236
 9464SOL     OW30350   3.796   0.166   2.180
 9464SOL    HW130351   3.779   0.249   2.126
 9464SOL    HW230352   3.886   0.129   2.158
 9465SOL     OW30353   4.907   1.335   1.981
 9465SOL    HW130354   4.808   1.324   1.983
 9465SOL    HW230355   4.941   1.350   2.074
 9466SOL     OW30356   4.337   0.842   3.293
 9466SOL    HW130357   4.393   0.923   3.276
 9466SOL    HW230358   4.396   0.762   3.296
 9467SOL     OW30359   5.217   1.767   2.821
 9467SOL    HW130360   5.250   1.831   2.752
 9467SOL    HW230361   5.283   1.761   2.896
 9468SOL     OW30362   4.440   0.565   3.570
 9468SOL    HW130363   4.459   0.630   3.644
 9468SOL    HW230364   4.500   0.485   3.579
 9469SOL     OW30365   5.174   1.220   3.495
 9469SOL    HW130366   5.165   1.210   3.594
 9469SOL    HW230367   5.270   1.213   3.469
 9470SOL     OW30368   4.114   1.741   3.422
 9470SOL    HW130369   4.023   1.782   3.420
 9470SOL    HW230370   4.107   1.647   3.454
 9471SOL     OW30371   5.398   0.883   3.116
 9471SOL    HW130372   5.371   0.794   3.079
 9471SOL    HW230373   5.399   0.951   3.043
 9472SOL     OW30374   4.949   0.325   2.311
 9472SOL    HW130375   5.014   0.251   2.300
 9472SOL    HW230376   4.969   0.375   2.395
 9473SOL     OW30377   4.318   0.745   2.514
 9473SOL    HW130378   4.368   0.830   2.495
 9473SOL    HW230379   4.230   0.747   2.466
 9474SOL     OW30380   5.501   0.342   3.504
 9474SOL    HW130381   5.484   0.373   3.410
 9474SOL    HW230382   5.417   0.305   3.542
 9475SOL     OW30383   5.454   0.934   3.379
 9475SOL    HW130384   5.492   1.025   3.394
 9475SOL    HW230385   5.446   0.917   3.280
 9476SOL     OW30386   4.583   1.374   1.878
 9476SOL    HW130387   4.537   1.389   1.966
 9476SOL    HW230388   4.627   1.459   1.848
 9477SOL     OW30389   4.385   1.790   2.815
 9477SOL    HW130390   4.339   1.878   2.802
 9477SOL    HW230391   4.484   1.802   2.808
 9478SOL     OW30392   5.132   1.851   3.582
 9478SOL    HW130393   5.036   1.840   3.555
 9478SOL    HW230394   5.188   1.784   3.534
 9479SOL     OW30395   4.583   0.956   2.723
 9479SOL    HW130396   4.637   0.887   2.771
 9479SOL    HW230397   4.551   1.025   2.789
 9480SOL     OW30398   4.807   0.984   1.949
 9480SOL    HW130399   4.784   1.037   1.867
 9480SOL    HW230400   4.888   0.928   1.930
 9481SOL     OW30401   5.585   1.569   2.713
 9481SOL    HW130402   5.514   1.557   2.643
 9481SOL    HW230403   5.586   1.490   2.773
 9482SOL     OW30404   3.945   1.314   3.706
 9482SOL    HW130405   3.880   1.241   3.685
 9482SOL    HW230406   3.949   1.328   3.804
 9483SOL     OW30407   3.803   1.240   2.515
 9483SOL    HW130408   3.802   1.193   2.603
 9483SOL    HW230409   3.885   1.212   2.464
 9484SOL     OW30410   4.396   1.391   3.486
 9484SOL    HW130411   4.318   1.341   3.524
 9484SOL    HW230412   4.393   1.486   3.517
 9485SOL     OW30413   5.548   0.192   3.089
 9485SOL    HW130414   5.544   0.102   3.133
 9485SOL    HW230415   5.551   0.181   2.990
 9486SOL     OW30416   4.152   0.424   2.382
 9486SOL    HW130417   4.182   0.352   2.320
 9486SOL    HW230418   4.113   0.384   2.465
 9487SOL     OW30419   5.429   1.487   2.966
 9487SOL    HW130420   5.336   1.462   2.939
 9487SOL    HW230421   5.455   1.437   3.048
 9488SOL     OW30422   4.041   0.547   3.142
 9488SOL    HW130423   4.079   0.488   3.214
 9488SOL    HW230424   4.081   0.521   3.054
 9489SOL     OW30425   4.536   1.586   2.549
 9489SOL    HW130426   4.568   1.596   2.455
 9489SOL    HW230427   4.457   1.524   2.551
 9490SOL     OW30428   5.148   0.214   2.974
 9490SOL    HW130429   5.200   0.149   3.029
 9490SOL    HW230430   5.099   0.277   3.035
 9491SOL     OW30431   4.725   0.034   3.016
 9491SOL    HW130432   4.662  -0.038   2.985
 9491SOL    HW230433   4.818  -0.002   3.016
 9492SOL     OW30434   4.494   1.330   2.163
 9492SOL    HW130435   4.448   1.243   2.180
 9492SOL    HW230436   4.585   1.327   2.204
 9493SOL     OW30437   4.342   1.567   3.146
 9493SOL    HW130438   4.337   1.649   3.203
 9493SOL    HW230439   4.431   1.564   3.101
 9494SOL     OW30440   5.076   0.052   2.030
 9494SOL    HW130441   5.111   0.011   1.946
 9494SOL    HW230442   4.986   0.014   2.050
 9495SOL     OW30443   5.024   0.453   2.553
 9495SOL    HW130444   4.965   0.533   2.557
 9495SOL    HW230445   5.039   0.418   2.646
 9496SOL     OW30446   5.317   0.221   2.744
 9496SOL    HW130447   5.233   0.220   2.798
 9496SOL    HW230448   5.319   0.304   2.688
 9497SOL     OW30449   3.763   1.077   2.162
 9497SOL    HW130450   3.862   1.066   2.153
 9497SOL    HW230451   3.723   0.991   2.194
 9498SOL     OW30452   4.599   1.646   2.199
 9498SOL    HW130453   4.522   1.611   2.145
 9498SOL    HW230454   4.567   1.717   2.261
 9499SOL     OW30455   3.954   0.628   3.837
 9499SOL    HW130456   3.861   0.626   3.874
 9499SOL    HW230457   3.955   0.589   3.745
 9500SOL     OW30458   3.949   0.275   4.720
 9500SOL    HW130459   3.984   0.258   4.812
 9500SOL    HW230460   3.861   0.230   4.708
 9501SOL     OW30461   3.743   0.368   4.371
 9501SOL    HW130462   3.661   0.411   4.410
 9501SOL    HW230463   3.715   0.295   4.308
 9502SOL     OW30464   4.293   1.275   4.889
 9502SOL    HW130465   4.200   1.268   4.852
 9502SOL    HW230466   4.304   1.364   4.933
 9503SOL     OW30467   5.279   1.511   4.427
 9503SOL    HW130468   5.222   1.495   4.508
 9503SOL    HW230469   5.220   1.521   4.347
 9504SOL     OW30470   5.467   0.618   4.580
 9504SOL    HW130471   5.500   0.712   4.580
 9504SOL    HW230472   5.518   0.564   4.646
 9505SOL     OW30473   4.859   0.703   4.441
 9505SOL    HW130474   4.916   0.781   4.416
 9505SOL    HW230475   4.799   0.729   4.517
 9506SOL     OW30476   5.479   0.607   3.955
 9506SOL    HW130477   5.467   0.594   3.856
 9506SOL    HW230478   5.449   0.526   4.004
 9507SOL     OW30479   4.492   1.144   4.747
 9507SOL    HW130480   4.414   1.161   4.807
 9507SOL    HW230481   4.526   1.231   4.711
 9508SOL     OW30482   4.574   0.798   5.547
 9508SOL    HW130483   4.570   0.874   5.612
 9508SOL    HW230484   4.596   0.834   5.456
 9509SOL     OW30485   4.409   1.012   4.389
 9509SOL    HW130486   4.478   0.996   4.459
 9509SOL    HW230487   4.336   1.069   4.427
 9510SOL     OW30488   4.410   1.161   5.527
 9510SOL    HW130489   4.470   1.240   5.541
 9510SOL    HW230490   4.324   1.192   5.486
 9511SOL     OW30491   4.059   1.435   4.785
 9511SOL    HW130492   3.981   1.404   4.732
 9511SOL    HW230493   4.117   1.493   4.728
 9512SOL     OW30494   5.184   1.505   5.063
 9512SOL    HW130495   5.208   1.599   5.089
 9512SOL    HW230496   5.168   1.451   5.145
 9513SOL     OW30497   4.162   0.392   5.223
 9513SOL    HW130498   4.244   0.336   5.232
 9513SOL    HW230499   4.081   0.334   5.227
 9514SOL     OW30500   5.327   0.447   4.461
 9514SOL    HW130501   5.253   0.493   4.411
 9514SOL    HW230502   5.378   0.515   4.514
 9515SOL     OW30503   3.955   1.713   4.207
 9515SOL    HW130504   3.989   1.790   4.261
 9515SOL    HW230505   3.999   1.713   4.117
 9516SOL     OW30506   4.851   1.341   5.414
 9516SOL    HW130507   4.898   1.341   5.502
 9516SOL    HW230508   4.803   1.254   5.403
 9517SOL     OW30509   3.954   1.434   4.262
 9517SOL    HW130510   3.928   1.530   4.262
 9517SOL    HW230511   3.883   1.380   4.307
 9518SOL     OW30512   3.964   1.091   4.610
 9518SOL    HW130513   3.978   1.007   4.662
 9518SOL    HW230514   3.909   1.155   4.665
 9519SOL     OW30515   4.344   1.786   5.163
 9519SOL    HW130516   4.252   1.769   5.198
 9519SOL    HW230517   4.372   1.878   5.189
 9520SOL     OW30518   4.330   0.964   3.847
 9520SOL    HW130519   4.337   1.048   3.793
 9520SOL    HW230520   4.376   0.977   3.935
 9521SOL     OW30521   5.318   0.114   5.204
 9521SOL    HW130522   5.300   0.181   5.132
 9521SOL    HW230523   5.315   0.160   5.293
 9522SOL     OW30524   3.846   0.643   4.287
 9522SOL    HW130525   3.801   0.555   4.304
 9522SOL    HW230526   3.845   0.697   4.371
 9523SOL     OW30527   5.566   1.767   4.083
 9523SOL    HW130528   5.620   1.738   4.163
 9523SOL    HW230529   5.596   1.857   4.054
 9524SOL     OW30530   3.751   1.596   3.841
 9524SOL    HW130531   3.732   1.500   3.862
 9524SOL    HW230532   3.718   1.654   3.916
 9525SOL     OW30533   5.413   0.922   4.336
 9525SOL    HW130534   5.508   0.893   4.344
 9525SOL    HW230535   5.405   0.987   4.261
 9526SOL     OW30536   5.365   1.108   4.156
 9526SOL    HW130537   5.451   1.110   4.104
 9526SOL    HW230538   5.379   1.155   4.244
 9527SOL     OW30539   3.837   0.737   5.321
 9527SOL    HW130540   3.925   0.724   5.366
 9527SOL    HW230541   3.824   0.834   5.299
 9528SOL     OW30542   4.337   1.365   4.450
 9528SOL    HW130543   4.288   1.278   4.459
 9528SOL    HW230544   4.314   1.408   4.363
 9529SOL     OW30545   5.017   1.228   5.147
 9529SOL    HW130546   5.054   1.155   5.089
 9529SOL    HW230547   5.069   1.233   5.232
 9530SOL     OW30548   4.533   0.004   4.226
 9530SOL    HW130549   4.573   0.095   4.217
 9530SOL    HW230550   4.433   0.012   4.232
 9531SOL     OW30551   3.921   0.976   4.988
 9531SOL    HW130552   4.010   0.931   4.974
 9531SOL    HW230553   3.848   0.911   4.969
 9532SOL     OW30554   5.249   0.999   3.914
 9532SOL    HW130555   5.186   0.923   3.927
 9532SOL    HW230556   5.297   1.017   4.000
 9533SOL     OW30557   4.911   1.792   5.340
 9533SOL    HW130558   4.935   1.852   5.264
 9533SOL    HW230559   4.918   1.697   5.310
 9534SOL     OW30560   4.041   0.251   5.525
 9534SOL    HW130561   4.112   0.322   5.531
 9534SOL    HW230562   3.953   0.290   5.553
 9535SOL     OW30563   5.190   1.417   4.677
 9535SOL    HW130564   5.131   1.423   4.757
 9535SOL    HW230565   5.175   1.329   4.631
 9536SOL     OW30566   5.391   1.714   4.296
 9536SOL    HW130567   5.350   1.691   4.208
 9536SOL    HW230568   5.373   1.640   4.361
 9537SOL     OW30569   4.322   0.729   3.994
 9537SOL    HW130570   4.346   0.798   3.926
 9537SOL    HW230571   4.244   0.762   4.048
 9538SOL     OW30572   5.005   0.345   4.668
 9538SOL    HW130573   4.919   0.295   4.655
 9538SOL    HW230574   5.067   0.291   4.724
 9539SOL     OW30575   5.300   1.662   4.031
 9539SOL    HW130576   5.389   1.708   4.034
 9539SOL    HW230577   5.279   1.638   3.936
 9540SOL     OW30578   4.531   0.605   5.189
 9540SOL    HW130579   4.484   0.602   5.278
 9540SOL    HW230580   4.480   0.550   5.123
 9541SOL     OW30581   5.118   0.469   5.398
 9541SOL    HW130582   5.098   0.512   5.486
 9541SOL    HW230583   5.196   0.407   5.407
 9542SOL     OW30584   4.697   0.890   5.296
 9542SOL    HW130585   4.743   0.806   5.267
 9542SOL    HW230586   4.641   0.924   5.221
 9543SOL     OW30587   4.715   0.410   4.966
 9543SOL    HW130588   4.638   0.444   5.020
 9543SOL    HW230589   4.681   0.359   4.887
 9544SOL     OW30590   4.765   0.701   4.153
 9544SOL    HW130591   4.791   0.697   4.249
 9544SOL    HW230592   4.680   0.650   4.139
 9545SOL     OW30593   3.800   0.811   4.513
 9545SOL    HW130594   3.899   0.799   4.522
 9545SOL    HW230595   3.776   0.906   4.534
 9546SOL     OW30596   3.854   1.821   5.295
 9546SOL    HW130597   3.844   1.806   5.394
 9546SOL    HW230598   3.768   1.857   5.259
 9547SOL     OW30599   4.589   0.348   3.919
 9547SOL    HW130600   4.648   0.411   3.870
 9547SOL    HW230601   4.608   0.254   3.890
 9548SOL     OW30602   5.443   0.585   5.555
 9548SOL    HW130603   5.417   0.674   5.519
 9548SOL    HW230604   5.441   0.517   5.482
 9549SOL     OW30605   5.086   1.144   4.269
 9549SOL    HW130606   5.169   1.115   4.221
 9549SOL    HW230607   5.037   1.211   4.213
 9550SOL     OW30608   4.274   0.196   4.609
 9550SOL    HW130609   4.269   0.191   4.709
 9550SOL    HW230610   4.276   0.292   4.580
 9551SOL     OW30611   4.732   1.456   4.201
 9551SOL    HW130612   4.686   1.528   4.149
 9551SOL    HW230613   4.728   1.476   4.299
 9552SOL     OW30614   4.075   1.801   4.577
 9552SOL    HW130615   4.125   1.715   4.583
 9552SOL    HW230616   4.140   1.878   4.574
 9553SOL     OW30617   5.519   1.066   4.597
 9553SOL    HW130618   5.457   1.051   4.521
 9553SOL    HW230619   5.467   1.077   4.682
 9554SOL     OW30620   4.951   1.550   5.230
 9554SOL    HW130621   4.957   1.473   5.294
 9554SOL    HW230622   4.899   1.524   5.150
 9555SOL     OW30623   4.045   0.943   3.966
 9555SOL    HW130624   4.127   0.982   3.924
 9555SOL    HW230625   4.018   0.861   3.917
 9556SOL     OW30626   5.182   0.735   4.452
 9556SOL    HW130627   5.177   0.670   4.527
 9556SOL    HW230628   5.262   0.794   4.465
 9557SOL     OW30629   4.185   1.266   5.451
 9557SOL    HW130630   4.135   1.267   5.365
 9557SOL    HW230631   4.122   1.248   5.527
 9558SOL     OW30632   4.835   1.776   3.961
 9558SOL    HW130633   4.775   1.714   4.011
 9558SOL    HW230634   4.866   1.732   3.876
 9559SOL     OW30635   3.926   0.285   5.222
 9559SOL    HW130636   3.846   0.345   5.209
 9559SOL    HW230637   3.916   0.236   5.308
 9560SOL     OW30638   5.356   1.377   3.805
 9560SOL    HW130639   5.324   1.471   3.795
 9560SOL    HW230640   5.280   1.314   3.793
 9561SOL     OW30641   4.188   1.743   4.047
 9561SOL    HW130642   4.221   1.782   4.133
 9561SOL    HW230643   4.264   1.736   3.982
 9562SOL     OW30644   5.124   0.107   4.150
 9562SOL    HW130645   5.100   0.070   4.060
 9562SOL    HW230646   5.223   0.123   4.154
 9563SOL     OW30647   3.973   1.785   4.965
 9563SOL    HW130648   4.030   1.720   5.015
 9563SOL    HW230649   3.957   1.752   4.872
 9564SOL     OW30650   4.664   1.698   4.628
 9564SOL    HW130651   4.744   1.641   4.649
 9564SOL    HW230652   4.615   1.658   4.551
 9565SOL     OW30653   4.106   0.700   4.204
 9565SOL    HW130654   4.151   0.610   4.201
 9565SOL    HW230655   4.012   0.689   4.237
 9566SOL     OW30656   5.271   0.222   5.453
 9566SOL    HW130657   5.266   0.259   5.545
 9566SOL    HW230658   5.199   0.153   5.441
 9567SOL     OW30659   4.338   0.122   3.841
 9567SOL    HW130660   4.436   0.100   3.848
 9567SOL    HW230661   4.307   0.105   3.748
 9568SOL     OW30662   4.505   0.264   5.473
 9568SOL    HW130663   4.572   0.203   5.516
 9568SOL    HW230664   4.432   0.283   5.538
 9569SOL     OW30665   4.612   1.514   4.919
 9569SOL    HW130666   4.589   1.489   4.825
 9569SOL    HW230667   4.673   1.445   4.958
 9570SOL     OW30668   5.075   0.590   5.157
 9570SOL    HW130669   5.103   0.547   5.242
 9570SOL    HW230670   5.100   0.686   5.158
 9571SOL     OW30671   4.527   1.402   4.648
 9571SOL    HW130672   4.617   1.416   4.606
 9571SOL    HW230673   4.456   1.404   4.577
 9572SOL     OW30674   4.646   0.503   4.623
 9572SOL    HW130675   4.621   0.494   4.527
 9572SOL    HW230676   4.694   0.421   4.654
 9573SOL     OW30677   4.263   0.064   4.236
 9573SOL    HW130678   4.182   0.065   4.294
 9573SOL    HW230679   4.266   0.147   4.181
 9574SOL     OW30680   5.158   1.188   3.765
 9574SOL    HW130681   5.190   1.112   3.822
 9574SOL    HW230682   5.066   1.215   3.795
 9575SOL     OW30683   4.021   0.035   3.895
 9575SOL    HW130684   4.070   0.119   3.874
 9575SOL    HW230685   4.083  -0.030   3.940
 9576SOL     OW30686   4.659   0.236   4.204
 9576SOL    HW130687   4.611   0.277   4.126
 9576SOL    HW230688   4.758   0.234   4.185
 9577SOL     OW30689   4.800   0.683   5.188
 9577SOL    HW130690   4.720   0.622   5.191
 9577SOL    HW230691   4.881   0.630   5.164
 9578SOL     OW30692   4.951   1.570   4.517
 9578SOL    HW130693   4.972   1.644   4.452
 9578SOL    HW230694   5.019   1.570   4.590
 9579SOL     OW30695   4.183   1.152   4.465
 9579SOL    HW130696   4.112   1.125   4.530
 9579SOL    HW230697   4.157   1.124   4.372
 9580SOL     OW30698   4.995   1.797   4.315
 9580SOL    HW130699   5.039   1.861   4.251
 9580SOL    HW230700   4.945   1.849   4.385
 9581SOL     OW30701   4.756   0.549   3.740
 9581SOL    HW130702   4.715   0.631   3.701
 9581SOL    HW230703   4.820   0.575   3.813
 9582SOL     OW30704   3.802   0.556   5.110
 9582SOL    HW130705   3.894   0.555   5.069
 9582SOL    HW230706   3.796   0.630   5.177
 9583SOL     OW30707   4.285   0.222   4.871
 9583SOL    HW130708   4.323   0.138   4.908
 9583SOL    HW230709   4.197   0.241   4.915
 9584SOL     OW30710   4.590   0.454   4.366
 9584SOL    HW130711   4.558   0.526   4.304
 9584SOL    HW230712   4.614   0.373   4.313
 9585SOL     OW30713   4.741   0.039   4.477
 9585SOL    HW130714   4.669   0.044   4.408
 9585SOL    HW230715   4.717  -0.030   4.546
 9586SOL     OW30716   5.153   1.173   4.591
 9586SOL    HW130717   5.098   1.089   4.584
 9586SOL    HW230718   5.179   1.202   4.499
 9587SOL     OW30719   5.190   0.590   4.716
 9587SOL    HW130720   5.160   0.495   4.723
 9587SOL    HW230721   5.263   0.606   4.782
 9588SOL     OW30722   5.581   0.833   4.101
 9588SOL    HW130723   5.623   0.769   4.165
 9588SOL    HW230724   5.543   0.782   4.023
 9589SOL     OW30725   4.212   1.385   3.898
 9589SOL    HW130726   4.125   1.370   3.945
 9589SOL    HW230727   4.195   1.411   3.803
 9590SOL     OW30728   5.388   1.280   4.381
 9590SOL    HW130729   5.487   1.288   4.395
 9590SOL    HW230730   5.343   1.364   4.412
 9591SOL     OW30731   5.114   0.575   3.802
 9591SOL    HW130732   5.060   0.554   3.883
 9591SOL    HW230733   5.205   0.534   3.811
 9592SOL     OW30734   4.251   0.256   4.052
 9592SOL    HW130735   4.278   0.197   3.977
 9592SOL    HW230736   4.251   0.351   4.021
 9593SOL     OW30737   5.478   1.223   5.312
 9593SOL    HW130738   5.569   1.184   5.299
 9593SOL    HW230739   5.486   1.319   5.336
 9594SOL     OW30740   4.788   1.347   5.064
 9594SOL    HW130741   4.708   1.324   5.119
 9594SOL    HW230742   4.871   1.321   5.113
 9595SOL     OW30743   5.316   1.629   5.349
 9595SOL    HW130744   5.343   1.663   5.259
 9595SOL    HW230745   5.395   1.591   5.395
 9596SOL     OW30746   4.835   1.195   4.824
 9596SOL    HW130747   4.795   1.239   4.905
 9596SOL    HW230748   4.794   1.232   4.741
 9597SOL     OW30749   5.362   1.099   4.803
 9597SOL    HW130750   5.367   1.180   4.862
 9597SOL    HW230751   5.276   1.101   4.752
 9598SOL     OW30752   4.639   0.089   5.126
 9598SOL    HW130753   4.664   0.069   5.031
 9598SOL    HW230754   4.711   0.145   5.168
 9599SOL     OW30755   4.704   1.116   5.443
 9599SOL    HW130756   4.605   1.122   5.453
 9599SOL    HW230757   4.727   1.036   5.387
 9600SOL     OW30758   4.429   1.050   4.092
 9600SOL    HW130759   4.415   1.057   4.191
 9600SOL    HW230760   4.513   0.999   4.074
 9601SOL     OW30761   4.134   0.813   4.975
 9601SOL    HW130762   4.220   0.825   5.025
 9601SOL    HW230763   4.092   0.726   5.002
 9602SOL     OW30764   4.998   0.386   4.986
 9602SOL    HW130765   5.019   0.460   5.050
 9602SOL    HW230766   4.909   0.403   4.943
 9603SOL     OW30767   3.788   1.564   5.055
 9603SOL    HW130768   3.742   1.646   5.021
 9603SOL    HW230769   3.886   1.583   5.064
 9604SOL     OW30770   4.091   1.100   4.225
 9604SOL    HW130771   4.084   1.183   4.169
 9604SOL    HW230772   4.095   1.020   4.165
 9605SOL     OW30773   4.290   0.537   4.589
 9605SOL    HW130774   4.302   0.603   4.515
 9605SOL    HW230775   4.336   0.571   4.672
 9606SOL     OW30776   4.976   1.348   4.112
 9606SOL    HW130777   5.026   1.425   4.152
 9606SOL    HW230778   4.881   1.350   4.144
 9607SOL     OW30779   4.996   1.445   4.866
 9607SOL    HW130780   5.043   1.458   4.953
 9607SOL    HW230781   4.930   1.371   4.875
 9608SOL     OW30782   5.306   0.639   4.196
 9608SOL    HW130783   5.275   0.700   4.269
 9608SOL    HW230784   5.356   0.691   4.127
 9609SOL     OW30785   4.078   1.510   5.053
 9609SOL    HW130786   4.057   1.466   4.966
 9609SOL    HW230787   4.175   1.536   5.056
 9610SOL     OW30788   4.126   0.751   5.322
 9610SOL    HW130789   4.194   0.806   5.275
 9610SOL    HW230790   4.166   0.663   5.349
 9611SOL     OW30791   5.311   0.779   5.394
 9611SOL    HW130792   5.219   0.817   5.389
 9611SOL    HW230793   5.371   0.826   5.329
 9612SOL     OW30794   4.737   0.105   5.494
 9612SOL    HW130795   4.743   0.190   5.442
 9612SOL    HW230796   4.769   0.029   5.437
 9613SOL     OW30797   4.228   0.050   5.464
 9613SOL    HW130798   4.186  -0.007   5.394
 9613SOL    HW230799   4.162   0.119   5.496
 9614SOL     OW30800   4.297   0.870   4.753
 9614SOL    HW130801   4.341   0.959   4.744
 9614SOL    HW230802   4.234   0.870   4.830
 9615SOL     OW30803   5.084   0.862   4.769
 9615SOL    HW130804   5.009   0.862   4.703
 9615SOL    HW230805   5.121   0.770   4.778
 9616SOL     OW30806   4.933   0.525   3.999
 9616SOL    HW130807   4.946   0.441   4.053
 9616SOL    HW230808   4.904   0.599   4.059
 9617SOL     OW30809   4.031   0.213   4.955
 9617SOL    HW130810   4.008   0.250   5.045
 9617SOL    HW230811   4.001   0.118   4.949
 9618SOL     OW30812   3.761   1.310   5.006
 9618SOL    HW130813   3.814   1.261   5.074
 9618SOL    HW230814   3.783   1.408   5.011
 9619SOL     OW30815   4.456   0.634   4.788
 9619SOL    HW130816   4.515   0.608   4.712
 9619SOL    HW230817   4.428   0.730   4.777
 9620SOL     OW30818   5.452   0.935   5.578
 9620SOL    HW130819   5.406   0.928   5.489
 9620SOL    HW230820   5.390   0.979   5.644
 9621SOL     OW30821   4.031   0.063   4.342
 9621SOL    HW130822   4.020   0.157   4.375
 9621SOL    HW230823   4.026   0.000   4.419
 9622SOL     OW30824   5.346   0.367   4.098
 9622SOL    HW130825   5.348   0.291   4.162
 9622SOL    HW230826   5.298   0.444   4.138
 9623SOL     OW30827   4.747   0.766   4.690
 9623SOL    HW130828   4.762   0.787   4.786
 9623SOL    HW230829   4.717   0.671   4.681
 9624SOL     OW30830   4.704   1.573   5.424
 9624SOL    HW130831   4.684   1.617   5.336
 9624SOL    HW230832   4.743   1.482   5.408
 9625SOL     OW30833   5.583   1.518   5.329
 9625SOL    HW130834   5.597   1.545   5.234
 9625SOL    HW230835   5.666   1.540   5.382
 9626SOL     OW30836   4.074   0.898   5.528
 9626SOL    HW130837   4.150   0.942   5.576
 9626SOL    HW230838   4.109   0.851   5.446
 9627SOL     OW30839   5.264   0.274   3.849
 9627SOL    HW130840   5.203   0.199   3.872
 9627SOL    HW230841   5.286   0.326   3.932
 9628SOL     OW30842   5.027   0.838   3.766
 9628SOL    HW130843   5.061   0.745   3.781
 9628SOL    HW230844   5.045   0.865   3.671
 9629SOL     OW30845   4.792   1.333   4.573
 9629SOL    HW130846   4.799   1.249   4.518
 9629SOL    HW230847   4.854   1.402   4.537
 9630SOL     OW30848   4.043   0.810   4.673
 9630SOL    HW130849   4.136   0.846   4.678
 9630SOL    HW230850   4.037   0.725   4.725
 9631SOL     OW30851   4.063   0.509   4.730
 9631SOL    HW130852   4.011   0.426   4.713
 9631SOL    HW230853   4.140   0.514   4.666
 9632SOL     OW30854   4.862   0.380   5.402
 9632SOL    HW130855   4.817   0.443   5.466
 9632SOL    HW230856   4.955   0.411   5.385
 9633SOL     OW30857   4.884   0.207   5.201
 9633SOL    HW130858   4.884   0.271   5.278
 9633SOL    HW230859   4.912   0.255   5.118
 9634SOL     OW30860   3.732   1.326   3.924
 9634SOL    HW130861   3.639   1.347   3.893
 9634SOL    HW230862   3.742   1.227   3.937
 9635SOL     OW30863   3.812   1.801   4.651
 9635SOL    HW130864   3.770   1.715   4.624
 9635SOL    HW230865   3.906   1.804   4.617
 9636SOL     OW30866   4.228   1.568   4.634
 9636SOL    HW130867   4.294   1.642   4.643
 9636SOL    HW230868   4.272   1.489   4.592
 9637SOL     OW30869   4.726   0.796   4.962
 9637SOL    HW130870   4.767   0.764   5.048
 9637SOL    HW230871   4.630   0.769   4.959
 9638SOL     OW30872   3.764   0.544   4.838
 9638SOL    HW130873   3.849   0.511   4.797
 9638SOL    HW230874   3.777   0.559   4.936
 9639SOL     OW30875   3.913   0.520   5.446
 9639SOL    HW130876   3.972   0.480   5.376
 9639SOL    HW230877   3.855   0.591   5.405
 9640SOL     OW30878   5.093   0.950   5.384
 9640SOL    HW130879   5.132   1.039   5.404
 9640SOL    HW230880   5.103   0.930   5.287
 9641SOL     OW30881   4.539   0.572   4.049
 9641SOL    HW130882   4.546   0.483   4.003
 9641SOL    HW230883   4.445   0.606   4.041
 9642SOL     OW30884   5.381   0.604   4.930
 9642SOL    HW130885   5.343   0.535   4.992
 9642SOL    HW230886   5.463   0.568   4.886
 9643SOL     OW30887   3.976   1.564   5.468
 9643SOL    HW130888   3.946   1.621   5.544
 9643SOL    HW230889   3.969   1.467   5.494
 9644SOL     OW30890   4.395   0.464   4.993
 9644SOL    HW130891   4.361   0.375   4.963
 9644SOL    HW230892   4.421   0.518   4.913
 9645SOL     OW30893   4.654   1.678   5.189
 9645SOL    HW130894   4.630   1.660   5.094
 9645SOL    HW230895   4.684   1.772   5.199
 9646SOL     OW30896   4.197   0.500   3.915
 9646SOL    HW130897   4.258   0.580   3.919
 9646SOL    HW230898   4.102   0.531   3.922
 9647SOL     OW30899   3.883   1.137   5.190
 9647SOL    HW130900   3.905   1.076   5.266
 9647SOL    HW230901   3.893   1.088   5.104
 9648SOL     OW30902   5.071   1.059   4.958
 9648SOL    HW130903   5.095   0.996   4.884
 9648SOL    HW230904   4.981   1.099   4.940
 9649SOL     OW30905   5.026   0.855   4.033
 9649SOL    HW130906   4.940   0.824   4.075
 9649SOL    HW230907   5.022   0.841   3.934
 9650SOL     OW30908   5.483   1.747   4.878
 9650SOL    HW130909   5.544   1.777   4.805
 9650SOL    HW230910   5.445   1.658   4.856
 9651SOL     OW30911   4.976   1.731   4.852
 9651SOL    HW130912   5.060   1.736   4.798
 9651SOL    HW230913   4.953   1.635   4.870
 9652SOL     OW30914   3.807   1.258   4.746
 9652SOL    HW130915   3.802   1.257   4.846
 9652SOL    HW230916   3.724   1.217   4.708
 9653SOL     OW30917   4.412   1.662   5.440
 9653SOL    HW130918   4.356   1.743   5.449
 9653SOL    HW230919   4.464   1.666   5.354
 9654SOL     OW30920   5.450   0.135   4.247
 9654SOL    HW130921   5.523   0.118   4.180
 9654SOL    HW230922   5.419   0.048   4.285
 9655SOL     OW30923   5.112   1.573   4.201
 9655SOL    HW130924   5.179   1.585   4.127
 9655SOL    HW230925   5.072   1.662   4.224
 9656SOL     OW30926   3.854   1.794   5.575
 9656SOL    HW130927   3.813   1.720   5.628
 9656SOL    HW230928   3.918   1.845   5.633
 9657SOL     OW30929   5.004   0.927   4.396
 9657SOL    HW130930   5.064   0.846   4.398
 9657SOL    HW230931   5.044   0.996   4.336
 9658SOL     OW30932   4.554   1.273   5.146
 9658SOL    HW130933   4.549   1.306   5.241
 9658SOL    HW230934   4.468   1.292   5.100
 9659SOL     OW30935   4.396   1.616   3.878
 9659SOL    HW130936   4.405   1.626   3.779
 9659SOL    HW230937   4.356   1.527   3.899
 9660SOL     OW30938   5.374   1.720   5.118
 9660SOL    HW130939   5.427   1.730   5.034
 9660SOL    HW230940   5.347   1.810   5.152
 9661SOL     OW30941   5.565   0.175   4.687
 9661SOL    HW130942   5.604   0.090   4.651
 9661SOL    HW230943   5.467   0.177   4.668
 9662SOL     OW30944   3.987   0.326   4.444
 9662SOL    HW130945   3.908   0.377   4.410
 9662SOL    HW230946   3.978   0.311   4.542
 9663SOL     OW30947   4.918   1.612   3.755
 9663SOL    HW130948   4.924   1.519   3.792
 9663SOL    HW230949   4.859   1.612   3.675
 9664SOL     OW30950   4.546   1.002   5.096
 9664SOL    HW130951   4.586   1.001   5.004
 9664SOL    HW230952   4.556   1.094   5.136
 9665SOL     OW30953   4.640   0.910   4.015
 9665SOL    HW130954   4.703   0.948   3.947
 9665SOL    HW230955   4.680   0.827   4.054
 9666SOL     OW30956   5.228   1.607   3.768
 9666SOL    HW130957   5.136   1.644   3.775
 9666SOL    HW230958   5.266   1.627   3.678
 9667SOL     OW30959   4.096   1.288   5.214
 9667SOL    HW130960   4.083   1.381   5.180
 9667SOL    HW230961   4.012   1.236   5.201
 9668SOL     OW30962   5.338   1.292   5.013
 9668SOL    HW130963   5.398   1.295   5.093
 9668SOL    HW230964   5.263   1.356   5.026
 9669SOL     OW30965   4.763   1.098   4.420
 9669SOL    HW130966   4.693   1.051   4.474
 9669SOL    HW230967   4.822   1.030   4.377
 9670SOL     OW30968   4.738   0.236   4.695
 9670SOL    HW130969   4.730   0.200   4.602
 9670SOL    HW230970   4.736   0.160   4.760
 9671SOL     OW30971   4.314   1.487   4.215
 9671SOL    HW130972   4.356   1.429   4.145
 9671SOL    HW230973   4.270   1.566   4.171
 9672SOL     OW30974   5.433   0.385   5.105
 9672SOL    HW130975   5.506   0.454   5.109
 9672SOL    HW230976   5.461   0.310   5.046
 9673SOL     OW30977   3.979   1.348   4.014
 9673SOL    HW130978   3.883   1.349   3.987
 9673SOL    HW230979   3.991   1.401   4.098
 9674SOL     OW30980   3.829   1.013   5.450
 9674SOL    HW130981   3.752   0.980   5.504
 9674SOL    HW230982   3.914   0.983   5.492
 9675SOL     OW30983   4.396   0.203   5.213
 9675SOL    HW130984   4.486   0.187   5.173
 9675SOL    HW230985   4.404   0.208   5.312
 9676SOL     OW30986   3.799   0.345   3.757
 9676SOL    HW130987   3.707   0.317   3.728
 9676SOL    HW230988   3.830   0.422   3.701
 9677SOL     OW30989   5.164   0.856   5.122
 9677SOL    HW130990   5.107   0.908   5.059
 9677SOL    HW230991   5.260   0.868   5.098
 9678SOL     OW30992   3.796   0.166   4.042
 9678SOL    HW130993   3.779   0.249   3.988
 9678SOL    HW230994   3.886   0.129   4.020
 9679SOL     OW30995   4.907   1.335   3.843
 9679SOL    HW130996   4.808   1.324   3.845
 9679SOL    HW230997   4.941   1.350   3.936
 9680SOL     OW30998   4.337   0.842   5.155
 9680SOL    HW130999   4.393   0.923   5.138
 9680SOL    HW231000   4.396   0.762   5.158
 9681SOL     OW31001   5.217   1.767   4.683
 9681SOL    HW131002   5.250   1.831   4.614
 9681SOL    HW231003   5.283   1.761   4.758
 9682SOL     OW31004   4.440   0.565   5.432
 9682SOL    HW131005   4.459   0.630   5.506
 9682SOL    HW231006   4.500   0.485   5.441
 9683SOL     OW31007   5.174   1.220   5.357
 9683SOL    HW131008   5.165   1.210   5.456
 9683SOL    HW231009   5.270   1.213   5.331
 9684SOL     OW31010   4.114   1.741   5.284
 9684SOL    HW131011   4.023   1.782   5.282
 9684SOL    HW231012   4.107   1.647   5.316
 9685SOL     OW31013   5.398   0.883   4.978
 9685SOL    HW131014   5.371   0.794   4.941
 9685SOL    HW231015   5.399   0.951   4.905
 9686SOL     OW31016   4.949   0.325   4.173
 9686SOL    HW131017   5.014   0.251   4.162
 9686SOL    HW231018   4.969   0.375   4.257
 9687SOL     OW31019   4.318   0.745   4.376
 9687SOL    HW131020   4.368   0.830   4.357
 9687SOL    HW231021   4.230   0.747   4.328
 9688SOL     OW31022   5.501   0.342   5.366
 9688SOL    HW131023   5.484   0.373   5.272
 9688SOL    HW231024   5.417   0.305   5.404
 9689SOL     OW31025   5.454   0.934   5.241
 9689SOL    HW131026   5.492   1.025   5.256
 9689SOL    HW231027   5.446   0.917   5.142
 9690SOL     OW31028   4.583   1.374   3.740
 9690SOL    HW131029   4.537   1.389   3.828
 9690SOL    HW231030   4.627   1.459   3.710
 9691SOL     OW31031   4.385   1.790   4.677
 9691SOL    HW131032   4.339   1.878   4.664
 9691SOL    HW231033   4.484   1.802   4.670
 9692SOL     OW31034   5.132   1.851   5.444
 9692SOL    HW131035   5.036   1.840   5.417
 9692SOL    HW231036   5.188   1.784   5.396
 9693SOL     OW31037   4.583   0.956   4.585
 9693SOL    HW131038   4.637   0.887   4.633
 9693SOL    HW231039   4.551   1.025   4.651
 9694SOL     OW31040   4.807   0.984   3.811
 9694SOL    HW131041   4.784   1.037   3.729
 9694SOL    HW231042   4.888   0.928   3.792
 9695SOL     OW31043   5.585   1.569   4.575
 9695SOL    HW131044   5.514   1.557   4.505
 9695SOL    HW231045   5.586   1.490   4.635
 9696SOL     OW31046   3.945   1.314   5.568
 9696SOL    HW131047   3.880   1.241   5.547
 9696SOL    HW231048   3.949   1.328   5.666
 9697SOL     OW31049   3.803   1.240   4.377
 9697SOL    HW131050   3.802   1.193   4.465
 9697SOL    HW231051   3.885   1.212   4.326
 9698SOL     OW31052   4.396   1.391   5.348
 9698SOL    HW131053   4.318   1.341   5.386
 9698SOL    HW231054   4.393   1.486   5.379
 9699SOL     OW31055   5.548   0.192   4.951
 9699SOL    HW131056   5.544   0.102   4.995
 9699SOL    HW231057   5.551   0.181   4.852
 9700SOL     OW31058   4.152   0.424   4.244
 9700SOL    HW131059   4.182   0.352   4.182
 9700SOL    HW231060   4.113   0.384   4.327
 9701SOL     OW31061   5.429   1.487   4.828
 9701SOL    HW131062   5.336   1.462   4.801
 9701SOL    HW231063   5.455   1.437   4.910
 9702SOL     OW31064   4.041   0.547   5.004
 9702SOL    HW131065   4.079   0.488   5.076
 9702SOL    HW231066   4.081   0.521   4.916
 9703SOL     OW31067   4.536   1.586   4.411
 9703SOL    HW131068   4.568   1.596   4.317
 9703SOL    HW231069   4.457   1.524   4.413
 9704SOL     OW31070   5.148   0.214   4.836
 9704SOL    HW131071   5.200   0.149   4.891
 9704SOL    HW231072   5.099   0.277   4.897
 9705SOL     OW31073   4.725   0.034   4.878
 9705SOL    HW131074   4.662  -0.038   4.847
 9705SOL    HW231075   4.818  -0.002   4.878
 9706SOL     OW31076   4.494   1.330   4.025
 9706SOL    HW131077   4.448   1.243   4.042
 9706SOL    HW231078   4.585   1.327   4.066
 9707SOL     OW31079   4.342   1.567   5.008
 9707SOL    HW131080   4.337   1.649   5.065
 9707SOL    HW231081   4.431   1.564   4.963
 9708SOL     OW31082   5.076   0.052   3.892
 9708SOL    HW131083   5.111   0.011   3.808
 9708SOL    HW231084   4.986   0.014   3.912
 9709SOL     OW31085   5.024   0.453   4.415
 9709SOL    HW131086   4.965   0.533   4.419
 9709SOL    HW231087   5.039   0.418   4.508
 9710SOL     OW31088   5.317   0.221   4.606
 9710SOL    HW131089   5.233   0.220   4.660
 9710SOL    HW231090   5.319   0.304   4.550
 9711SOL     OW31091   3.763   1.077   4.024
 9711SOL    HW131092   3.862   1.066   4.015
 9711SOL    HW231093   3.723   0.991   4.056
 9712SOL     OW31094   4.599   1.646   4.061
 9712SOL    HW131095   4.522   1.611   4.007
 9712SOL    HW231096   4.567   1.717   4.123
 9713SOL     OW31097   3.954   0.628   5.699
 9713SOL    HW131098   3.861   0.626   5.736
 9713SOL    HW231099   3.955   0.589   5.607
 9714SOL     OW31100   3.949   0.275   6.582
 9714SOL    HW131101   3.984   0.258   6.674
 9714SOL    HW231102   3.861   0.230   6.570
 9715SOL     OW31103   3.743   0.368   6.233
 9715SOL    HW131104   3.661   0.411   6.272
 9715SOL    HW231105   3.715   0.295   6.170
 9716SOL     OW31106   4.293   1.275   6.751
 9716SOL    HW131107   4.200   1.268   6.714
 9716SOL    HW231108   4.304   1.364   6.795
 9717SOL     OW31109   5.279   1.511   6.289
 9717SOL    HW131110   5.222   1.495   6.370
 9717SOL    HW231111   5.220   1.521   6.209
 9718SOL     OW31112   5.467   0.618   6.442
 9718SOL    HW131113   5.500   0.712   6.442
 9718SOL    HW231114   5.518   0.564   6.508
 9719SOL     OW31115   4.859   0.703   6.303
 9719SOL    HW131116   4.916   0.781   6.278
 9719SOL    HW231117   4.799   0.729   6.379
 9720SOL     OW31118   5.479   0.607   5.817
 9720SOL    HW131119   5.467   0.594   5.718
 9720SOL    HW231120   5.449   0.526   5.866
 9721SOL     OW31121   4.492   1.144   6.609
 9721SOL    HW131122   4.414   1.161   6.669
 9721SOL    HW231123   4.526   1.231   6.573
 9722SOL     OW31124   4.574   0.798   7.409
 9722SOL    HW131125   4.570   0.874   7.474
 9722SOL    HW231126   4.596   0.834   7.318
 9723SOL     OW31127   4.409   1.012   6.251
 9723SOL    HW131128   4.478   0.996   6.321
 9723SOL    HW231129   4.336   1.069   6.289
 9724SOL     OW31130   4.410   1.161   7.389
 9724SOL    HW131131   4.470   1.240   7.403
 9724SOL    HW231132   4.324   1.192   7.348
 9725SOL     OW31133   4.059   1.435   6.647
 9725SOL    HW131134   3.981   1.404   6.594
 9725SOL    HW231135   4.117   1.493   6.590
 9726SOL     OW31136   5.184   1.505   6.925
 9726SOL    HW131137   5.208   1.599   6.951
 9726SOL    HW231138   5.168   1.451   7.007
 9727SOL     OW31139   4.162   0.392   7.085
 9727SOL    HW131140   4.244   0.336   7.094
 9727SOL    HW231141   4.081   0.334   7.089
 9728SOL     OW31142   5.327   0.447   6.323
 9728SOL    HW131143   5.253   0.493   6.273
 9728SOL    HW231144   5.378   0.515   6.376
 9729SOL     OW31145   3.955   1.713   6.069
 9729SOL    HW131146   3.989   1.790   6.123
 9729SOL    HW231147   3.999   1.713   5.979
 9730SOL     OW31148   4.851   1.341   7.276
 9730SOL    HW131149   4.898   1.341   7.364
 9730SOL    HW231150   4.803   1.254   7.265
 9731SOL     OW31151   3.954   1.434   6.124
 9731SOL    HW131152   3.928   1.530   6.124
 9731SOL    HW231153   3.883   1.380   6.169
 9732SOL     OW31154   3.964   1.091   6.472
 9732SOL    HW131155   3.978   1.007   6.524
 9732SOL    HW231156   3.909   1.155   6.527
 9733SOL     OW31157   4.344   1.786   7.025
 9733SOL    HW131158   4.252   1.769   7.060
 9733SOL    HW231159   4.372   1.878   7.051
 9734SOL     OW31160   4.330   0.964   5.709
 9734SOL    HW131161   4.337   1.048   5.655
 9734SOL    HW231162   4.376   0.977   5.797
 9735SOL     OW31163   5.318   0.114   7.066
 9735SOL    HW131164   5.300   0.181   6.994
 9735SOL    HW231165   5.315   0.160   7.155
 9736SOL     OW31166   3.846   0.643   6.149
 9736SOL    HW131167   3.801   0.555   6.166
 9736SOL    HW231168   3.845   0.697   6.233
 9737SOL     OW31169   5.566   1.767   5.945
 9737SOL    HW131170   5.620   1.738   6.025
 9737SOL    HW231171   5.596   1.857   5.916
 9738SOL     OW31172   3.751   1.596   5.703
 9738SOL    HW131173   3.732   1.500   5.724
 9738SOL    HW231174   3.718   1.654   5.778
 9739SOL     OW31175   5.413   0.922   6.198
 9739SOL    HW131176   5.508   0.893   6.206
 9739SOL    HW231177   5.405   0.987   6.123
 9740SOL     OW31178   5.365   1.108   6.018
 9740SOL    HW131179   5.451   1.110   5.966
 9740SOL    HW231180   5.379   1.155   6.106
 9741SOL     OW31181   3.837   0.737   7.183
 9741SOL    HW131182   3.925   0.724   7.228
 9741SOL    HW231183   3.824   0.834   7.161
 9742SOL     OW31184   4.337   1.365   6.312
 9742SOL    HW131185   4.288   1.278   6.321
 9742SOL    HW231186   4.314   1.408   6.225
 9743SOL     OW31187   5.017   1.228   7.009
 9743SOL    HW131188   5.054   1.155   6.951
 9743SOL    HW231189   5.069   1.233   7.094
 9744SOL     OW31190   4.533   0.004   6.088
 9744SOL    HW131191   4.573   0.095   6.079
 9744SOL    HW231192   4.433   0.012   6.094
 9745SOL     OW31193   3.921   0.976   6.850
 9745SOL    HW131194   4.010   0.931   6.836
 9745SOL    HW231195   3.848   0.911   6.831
 9746SOL     OW31196   5.249   0.999   5.776
 9746SOL    HW131197   5.186   0.923   5.789
 9746SOL    HW231198   5.297   1.017   5.862
 9747SOL     OW31199   4.911   1.792   7.202
 9747SOL    HW131200   4.935   1.852   7.126
 9747SOL    HW231201   4.918   1.697   7.172
 9748SOL     OW31202   4.041   0.251   7.387
 9748SOL    HW131203   4.112   0.322   7.393
 9748SOL    HW231204   3.953   0.290   7.415
 9749SOL     OW31205   5.190   1.417   6.539
 9749SOL    HW131206   5.131   1.423   6.619
 9749SOL    HW231207   5.175   1.329   6.493
 9750SOL     OW31208   5.391   1.714   6.158
 9750SOL    HW131209   5.350   1.691   6.070
 9750SOL    HW231210   5.373   1.640   6.223
 9751SOL     OW31211   4.322   0.729   5.856
 9751SOL    HW131212   4.346   0.798   5.788
 9751SOL    HW231213   4.244   0.762   5.910
 9752SOL     OW31214   5.005   0.345   6.530
 9752SOL    HW131215   4.919   0.295   6.517
 9752SOL    HW231216   5.067   0.291   6.586
 9753SOL     OW31217   5.300   1.662   5.893
 9753SOL    HW131218   5.389   1.708   5.896
 9753SOL    HW231219   5.279   1.638   5.798
 9754SOL     OW31220   4.531   0.605   7.051
 9754SOL    HW131221   4.484   0.602   7.140
 9754SOL    HW231222   4.480   0.550   6.985
 9755SOL     OW31223   5.118   0.469   7.260
 9755SOL    HW131224   5.098   0.512   7.348
 9755SOL    HW231225   5.196   0.407   7.269
 9756SOL     OW31226   4.697   0.890   7.158
 9756SOL    HW131227   4.743   0.806   7.129
 9756SOL    HW231228   4.641   0.924   7.083
 9757SOL     OW31229   4.715   0.410   6.828
 9757SOL    HW131230   4.638   0.444   6.882
 9757SOL    HW231231   4.681   0.359   6.749
 9758SOL     OW31232   4.765   0.701   6.015
 9758SOL    HW131233   4.791   0.697   6.111
 9758SOL    HW231234   4.680   0.650   6.001
 9759SOL     OW31235   3.800   0.811   6.375
 9759SOL    HW131236   3.899   0.799   6.384
 9759SOL    HW231237   3.776   0.906   6.396
 9760SOL     OW31238   3.854   1.821   7.157
 9760SOL    HW131239   3.844   1.806   7.256
 9760SOL    HW231240   3.768   1.857   7.121
 9761SOL     OW31241   4.589   0.348   5.781
 9761SOL    HW131242   4.648   0.411   5.732
 9761SOL    HW231243   4.608   0.254   5.752
 9762SOL     OW31244   5.443   0.585   7.417
 9762SOL    HW131245   5.417   0.674   7.381
 9762SOL    HW231246   5.441   0.517   7.344
 9763SOL     OW31247   5.086   1.144   6.131
 9763SOL    HW131248   5.169   1.115   6.083
 9763SOL    HW231249   5.037   1.211   6.075
 9764SOL     OW31250   4.274   0.196   6.471
 9764SOL    HW131251   4.269   0.191   6.571
 9764SOL    HW231252   4.276   0.292   6.442
 9765SOL     OW31253   4.732   1.456   6.063
 9765SOL    HW131254   4.686   1.528   6.011
 9765SOL    HW231255   4.728   1.476   6.161
 9766SOL     OW31256   4.075   1.801   6.439
 9766SOL    HW131257   4.125   1.715   6.445
 9766SOL    HW231258   4.140   1.878   6.436
 9767SOL     OW31259   5.519   1.066   6.459
 9767SOL    HW131260   5.457   1.051   6.383
 9767SOL    HW231261   5.467   1.077   6.544
 9768SOL     OW31262   4.951   1.550   7.092
 9768SOL    HW131263   4.957   1.473   7.156
 9768SOL    HW231264   4.899   1.524   7.012
 9769SOL     OW31265   4.045   0.943   5.828
 9769SOL    HW131266   4.127   0.982   5.786
 9769SOL    HW231267   4.018   0.861   5.779
 9770SOL     OW31268   5.182   0.735   6.314
 9770SOL    HW131269   5.177   0.670   6.389
 9770SOL    HW231270   5.262   0.794   6.327
 9771SOL     OW31271   4.185   1.266   7.313
 9771SOL    HW131272   4.135   1.267   7.227
 9771SOL    HW231273   4.122   1.248   7.389
 9772SOL     OW31274   4.835   1.776   5.823
 9772SOL    HW131275   4.775   1.714   5.873
 9772SOL    HW231276   4.866   1.732   5.738
 9773SOL     OW31277   3.926   0.285   7.084
 9773SOL    HW131278   3.846   0.345   7.071
 9773SOL    HW231279   3.916   0.236   7.170
 9774SOL     OW31280   5.356   1.377   5.667
 9774SOL    HW131281   5.324   1.471   5.657
 9774SOL    HW231282   5.280   1.314   5.655
 9775SOL     OW31283   4.188   1.743   5.909
 9775SOL    HW131284   4.221   1.782   5.995
 9775SOL    HW231285   4.264   1.736   5.844
 9776SOL     OW31286   5.124   0.107   6.012
 9776SOL    HW131287   5.100   0.070   5.922
 9776SOL    HW231288   5.223   0.123   6.016
 9777SOL     OW31289   3.973   1.785   6.827
 9777SOL    HW131290   4.030   1.720   6.877
 9777SOL    HW231291   3.957   1.752   6.734
 9778SOL     OW31292   4.664   1.698   6.490
 9778SOL    HW131293   4.744   1.641   6.511
 9778SOL    HW231294   4.615   1.658   6.413
 9779SOL     OW31295   4.106   0.700   6.066
 9779SOL    HW131296   4.151   0.610   6.063
 9779SOL    HW231297   4.012   0.689   6.099
 9780SOL     OW31298   5.271   0.222   7.315
 9780SOL    HW131299   5.266   0.259   7.407
 9780SOL    HW231300   5.199   0.153   7.303
 9781SOL     OW31301   4.338   0.122   5.703
 9781SOL    HW131302   4.436   0.100   5.710
 9781SOL    HW231303   4.307   0.105   5.610
 9782SOL     OW31304   4.505   0.264   7.335
 9782SOL    HW131305   4.572   0.203   7.378
 9782SOL    HW231306   4.432   0.283   7.400
 9783SOL     OW31307   4.612   1.514   6.781
 9783SOL    HW131308   4.589   1.489   6.687
 9783SOL    HW231309   4.673   1.445   6.820
 9784SOL     OW31310   5.075   0.590   7.019
 9784SOL    HW131311   5.103   0.547   7.104
 9784SOL    HW231312   5.100   0.686   7.020
 9785SOL     OW31313   4.527   1.402   6.510
 9785SOL    HW131314   4.617   1.416   6.468
 9785SOL    HW231315   4.456   1.404   6.439
 9786SOL     OW31316   4.646   0.503   6.485
 9786SOL    HW131317   4.621   0.494   6.389
 9786SOL    HW231318   4.694   0.421   6.516
 9787SOL     OW31319   4.263   0.064   6.098
 9787SOL    HW131320   4.182   0.065   6.156
 9787SOL    HW231321   4.266   0.147   6.043
 9788SOL     OW31322   5.158   1.188   5.627
 9788SOL    HW131323   5.190   1.112   5.684
 9788SOL    HW231324   5.066   1.215   5.657
 9789SOL     OW31325   4.021   0.035   5.757
 9789SOL    HW131326   4.070   0.119   5.736
 9789SOL    HW231327   4.083  -0.030   5.802
 9790SOL     OW31328   4.659   0.236   6.066
 9790SOL    HW131329   4.611   0.277   5.988
 9790SOL    HW231330   4.758   0.234   6.047
 9791SOL     OW31331   4.800   0.683   7.050
 9791SOL    HW131332   4.720   0.622   7.053
 9791SOL    HW231333   4.881   0.630   7.026
 9792SOL     OW31334   4.951   1.570   6.379
 9792SOL    HW131335   4.972   1.644   6.314
 9792SOL    HW231336   5.019   1.570   6.452
 9793SOL     OW31337   4.183   1.152   6.327
 9793SOL    HW131338   4.112   1.125   6.392
 9793SOL    HW231339   4.157   1.124   6.234
 9794SOL     OW31340   4.995   1.797   6.177
 9794SOL    HW131341   5.039   1.861   6.113
 9794SOL    HW231342   4.945   1.849   6.247
 9795SOL     OW31343   4.756   0.549   5.602
 9795SOL    HW131344   4.715   0.631   5.563
 9795SOL    HW231345   4.820   0.575   5.675
 9796SOL     OW31346   3.802   0.556   6.972
 9796SOL    HW131347   3.894   0.555   6.931
 9796SOL    HW231348   3.796   0.630   7.039
 9797SOL     OW31349   4.285   0.222   6.733
 9797SOL    HW131350   4.323   0.138   6.770
 9797SOL    HW231351   4.197   0.241   6.777
 9798SOL     OW31352   4.590   0.454   6.228
 9798SOL    HW131353   4.558   0.526   6.166
 9798SOL    HW231354   4.614   0.373   6.175
 9799SOL     OW31355   4.741   0.039   6.339
 9799SOL    HW131356   4.669   0.044   6.270
 9799SOL    HW231357   4.717  -0.030   6.408
 9800SOL     OW31358   5.153   1.173   6.453
 9800SOL    HW131359   5.098   1.089   6.446
 9800SOL    HW231360   5.179   1.202   6.361
 9801SOL     OW31361   5.190   0.590   6.578
 9801SOL    HW131362   5.160   0.495   6.585
 9801SOL    HW231363   5.263   0.606   6.644
 9802SOL     OW31364   5.581   0.833   5.963
 9802SOL    HW131365   5.623   0.769   6.027
 9802SOL    HW231366   5.543   0.782   5.885
 9803SOL     OW31367   4.212   1.385   5.760
 9803SOL    HW131368   4.125   1.370   5.807
 9803SOL    HW231369   4.195   1.411   5.665
 9804SOL     OW31370   5.388   1.280   6.243
 9804SOL    HW131371   5.487   1.288   6.257
 9804SOL    HW231372   5.343   1.364   6.274
 9805SOL     OW31373   5.114   0.575   5.664
 9805SOL    HW131374   5.060   0.554   5.745
 9805SOL    HW231375   5.205   0.534   5.673
 9806SOL     OW31376   4.251   0.256   5.914
 9806SOL    HW131377   4.278   0.197   5.839
 9806SOL    HW231378   4.251   0.351   5.883
 9807SOL     OW31379   5.478   1.223   7.174
 9807SOL    HW131380   5.569   1.184   7.161
 9807SOL    HW231381   5.486   1.319   7.198
 9808SOL     OW31382   4.788   1.347   6.926
 9808SOL    HW131383   4.708   1.324   6.981
 9808SOL    HW231384   4.871   1.321   6.975
 9809SOL     OW31385   5.316   1.629   7.211
 9809SOL    HW131386   5.343   1.663   7.121
 9809SOL    HW231387   5.395   1.591   7.257
 9810SOL     OW31388   4.835   1.195   6.686
 9810SOL    HW131389   4.795   1.239   6.767
 9810SOL    HW231390   4.794   1.232   6.603
 9811SOL     OW31391   5.362   1.099   6.665
 9811SOL    HW131392   5.367   1.180   6.724
 9811SOL    HW231393   5.276   1.101   6.614
 9812SOL     OW31394   4.639   0.089   6.988
 9812SOL    HW131395   4.664   0.069   6.893
 9812SOL    HW231396   4.711   0.145   7.030
 9813SOL     OW31397   4.704   1.116   7.305
 9813SOL    HW131398   4.605   1.122   7.315
 9813SOL    HW231399   4.727   1.036   7.249
 9814SOL     OW31400   4.429   1.050   5.954
 9814SOL    HW131401   4.415   1.057   6.053
 9814SOL    HW231402   4.513   0.999   5.936
 9815SOL     OW31403   4.134   0.813   6.837
 9815SOL    HW131404   4.220   0.825   6.887
 9815SOL    HW231405   4.092   0.726   6.864
 9816SOL     OW31406   4.998   0.386   6.848
 9816SOL    HW131407   5.019   0.460   6.912
 9816SOL    HW231408   4.909   0.403   6.805
 9817SOL     OW31409   3.788   1.564   6.917
 9817SOL    HW131410   3.742   1.646   6.883
 9817SOL    HW231411   3.886   1.583   6.926
 9818SOL     OW31412   4.091   1.100   6.087
 9818SOL    HW131413   4.084   1.183   6.031
 9818SOL    HW231414   4.095   1.020   6.027
 9819SOL     OW31415   4.290   0.537   6.451
 9819SOL    HW131416   4.302   0.603   6.377
 9819SOL    HW231417   4.336   0.571   6.534
 9820SOL     OW31418   4.976   1.348   5.974
 9820SOL    HW131419   5.026   1.425   6.014
 9820SOL    HW231420   4.881   1.350   6.006
 9821SOL     OW31421   4.996   1.445   6.728
 9821SOL    HW131422   5.043   1.458   6.815
 9821SOL    HW231423   4.930   1.371   6.737
 9822SOL     OW31424   5.306   0.639   6.058
 9822SOL    HW131425   5.275   0.700   6.131
 9822SOL    HW231426   5.356   0.691   5.989
 9823SOL     OW31427   4.078   1.510   6.915
 9823SOL    HW131428   4.057   1.466   6.828
 9823SOL    HW231429   4.175   1.536   6.918
 9824SOL     OW31430   4.126   0.751   7.184
 9824SOL    HW131431   4.194   0.806   7.137
 9824SOL    HW231432   4.166   0.663   7.211
 9825SOL     OW31433   5.311   0.779   7.256
 9825SOL    HW131434   5.219   0.817   7.251
 9825SOL    HW231435   5.371   0.826   7.191
 9826SOL     OW31436   4.737   0.105   7.356
 9826SOL    HW131437   4.743   0.190   7.304
 9826SOL    HW231438   4.769   0.029   7.299
 9827SOL     OW31439   4.228   0.050   7.326
 9827SOL    HW131440   4.186  -0.007   7.256
 9827SOL    HW231441   4.162   0.119   7.358
 9828SOL     OW31442   4.297   0.870   6.615
 9828SOL    HW131443   4.341   0.959   6.606
 9828SOL    HW231444   4.234   0.870   6.692
 9829SOL     OW31445   5.084   0.862   6.631
 9829SOL    HW131446   5.009   0.862   6.565
 9829SOL    HW231447   5.121   0.770   6.640
 9830SOL     OW31448   4.933   0.525   5.861
 9830SOL    HW131449   4.946   0.441   5.915
 9830SOL    HW231450   4.904   0.599   5.921
 9831SOL     OW31451   4.031   0.213   6.817
 9831SOL    HW131452   4.008   0.250   6.907
 9831SOL    HW231453   4.001   0.118   6.811
 9832SOL     OW31454   3.761   1.310   6.868
 9832SOL    HW131455   3.814   1.261   6.936
 9832SOL    HW231456   3.783   1.408   6.873
 9833SOL     OW31457   4.456   0.634   6.650
 9833SOL    HW131458   4.515   0.608   6.574
 9833SOL    HW231459   4.428   0.730   6.639
 9834SOL     OW31460   5.452   0.935   7.440
 9834SOL    HW131461   5.406   0.928   7.351
 9834SOL    HW231462   5.390   0.979   7.506
 9835SOL     OW31463   4.031   0.063   6.204
 9835SOL    HW131464   4.020   0.157   6.237
 9835SOL    HW231465   4.026   0.000   6.281
 9836SOL     OW31466   5.346   0.367   5.960
 9836SOL    HW131467   5.348   0.291   6.024
 9836SOL    HW231468   5.298   0.444   6.000
 9837SOL     OW31469   4.747   0.766   6.552
 9837SOL    HW131470   4.762   0.787   6.648
 9837SOL    HW231471   4.717   0.671   6.543
 9838SOL     OW31472   4.704   1.573   7.286
 9838SOL    HW131473   4.684   1.617   7.198
 9838SOL    HW231474   4.743   1.482   7.270
 9839SOL     OW31475   4.074   0.898   7.390
 9839SOL    HW131476   4.150   0.942   7.438
 9839SOL    HW231477   4.109   0.851   7.308
 9840SOL     OW31478   5.264   0.274   5.711
 9840SOL    HW131479   5.203   0.199   5.734
 9840SOL    HW231480   5.286   0.326   5.794
 9841SOL     OW31481   5.027   0.838   5.628
 9841SOL    HW131482   5.061   0.745   5.643
 9841SOL    HW231483   5.045   0.865   5.533
 9842SOL     OW31484   4.792   1.333   6.435
 9842SOL    HW131485   4.799   1.249   6.380
 9842SOL    HW231486   4.854   1.402   6.399
 9843SOL     OW31487   4.043   0.810   6.535
 9843SOL    HW131488   4.136   0.846   6.540
 9843SOL    HW231489   4.037   0.725   6.587
 9844SOL     OW31490   4.063   0.509   6.592
 9844SOL    HW131491   4.011   0.426   6.575
 9844SOL    HW231492   4.140   0.514   6.528
 9845SOL     OW31493   4.862   0.380   7.264
 9845SOL    HW131494   4.817   0.443   7.328
 9845SOL    HW231495   4.955   0.411   7.247
 9846SOL     OW31496   4.884   0.207   7.063
 9846SOL    HW131497   4.884   0.271   7.140
 9846SOL    HW231498   4.912   0.255   6.980
 9847SOL     OW31499   3.732   1.326   5.786
 9847SOL    HW131500   3.639   1.347   5.755
 9847SOL    HW231501   3.742   1.227   5.799
 9848SOL     OW31502   3.812   1.801   6.513
 9848SOL    HW131503   3.770   1.715   6.486
 9848SOL    HW231504   3.906   1.804   6.479
 9849SOL     OW31505   4.228   1.568   6.496
 9849SOL    HW131506   4.294   1.642   6.505
 9849SOL    HW231507   4.272   1.489   6.454
 9850SOL     OW31508   4.726   0.796   6.824
 9850SOL    HW131509   4.767   0.764   6.910
 9850SOL    HW231510   4.630   0.769   6.821
 9851SOL     OW31511   3.764   0.544   6.700
 9851SOL    HW131512   3.849   0.511   6.659
 9851SOL    HW231513   3.777   0.559   6.798
 9852SOL     OW31514   3.913   0.520   7.308
 9852SOL    HW131515   3.972   0.480   7.238
 9852SOL    HW231516   3.855   0.591   7.267
 9853SOL     OW31517   5.093   0.950   7.246
 9853SOL    HW131518   5.132   1.039   7.266
 9853SOL    HW231519   5.103   0.930   7.149
 9854SOL     OW31520   4.539   0.572   5.911
 9854SOL    HW131521   4.546   0.483   5.865
 9854SOL    HW231522   4.445   0.606   5.903
 9855SOL     OW31523   5.381   0.604   6.792
 9855SOL    HW131524   5.343   0.535   6.854
 9855SOL    HW231525   5.463   0.568   6.748
 9856SOL     OW31526   3.976   1.564   7.330
 9856SOL    HW131527   3.946   1.621   7.406
 9856SOL    HW231528   3.969   1.467   7.356
 9857SOL     OW31529   4.395   0.464   6.855
 9857SOL    HW131530   4.361   0.375   6.825
 9857SOL    HW231531   4.421   0.518   6.775
 9858SOL     OW31532   4.654   1.678   7.051
 9858SOL    HW131533   4.630   1.660   6.956
 9858SOL    HW231534   4.684   1.772   7.061
 9859SOL     OW31535   4.197   0.500   5.777
 9859SOL    HW131536   4.258   0.580   5.781
 9859SOL    HW231537   4.102   0.531   5.784
 9860SOL     OW31538   3.883   1.137   7.052
 9860SOL    HW131539   3.905   1.076   7.128
 9860SOL    HW231540   3.893   1.088   6.966
 9861SOL     OW31541   5.071   1.059   6.820
 9861SOL    HW131542   5.095   0.996   6.746
 9861SOL    HW231543   4.981   1.099   6.802
 9862SOL     OW31544   5.026   0.855   5.895
 9862SOL    HW131545   4.940   0.824   5.937
 9862SOL    HW231546   5.022   0.841   5.796
 9863SOL     OW31547   4.976   1.731   6.714
 9863SOL    HW131548   5.060   1.736   6.660
 9863SOL    HW231549   4.953   1.635   6.732
 9864SOL     OW31550   3.807   1.258   6.608
 9864SOL    HW131551   3.802   1.257   6.708
 9864SOL    HW231552   3.724   1.217   6.570
 9865SOL     OW31553   4.412   1.662   7.302
 9865SOL    HW131554   4.356   1.743   7.311
 9865SOL    HW231555   4.464   1.666   7.216
 9866SOL     OW31556   5.450   0.135   6.109
 9866SOL    HW131557   5.523   0.118   6.042
 9866SOL    HW231558   5.419   0.048   6.147
 9867SOL     OW31559   5.112   1.573   6.063
 9867SOL    HW131560   5.179   1.585   5.989
 9867SOL    HW231561   5.072   1.662   6.086
 9868SOL     OW31562   3.854   1.794   7.437
 9868SOL    HW131563   3.813   1.720   7.490
 9868SOL    HW231564   3.918   1.845   7.495
 9869SOL     OW31565   5.004   0.927   6.258
 9869SOL    HW131566   5.064   0.846   6.260
 9869SOL    HW231567   5.044   0.996   6.198
 9870SOL     OW31568   4.554   1.273   7.008
 9870SOL    HW131569   4.549   1.306   7.103
 9870SOL    HW231570   4.468   1.292   6.962
 9871SOL     OW31571   4.396   1.616   5.740
 9871SOL    HW131572   4.405   1.626   5.641
 9871SOL    HW231573   4.356   1.527   5.761
 9872SOL     OW31574   5.374   1.720   6.980
 9872SOL    HW131575   5.427   1.730   6.896
 9872SOL    HW231576   5.347   1.810   7.014
 9873SOL     OW31577   5.565   0.175   6.549
 9873SOL    HW131578   5.604   0.090   6.513
 9873SOL    HW231579   5.467   0.177   6.530
 9874SOL     OW31580   3.987   0.326   6.306
 9874SOL    HW131581   3.908   0.377   6.272
 9874SOL    HW231582   3.978   0.311   6.404
 9875SOL     OW31583   4.918   1.612   5.617
 9875SOL    HW131584   4.924   1.519   5.654
 9875SOL    HW231585   4.859   1.612   5.537
 9876SOL     OW31586   4.546   1.002   6.958
 9876SOL    HW131587   4.586   1.001   6.866
 9876SOL    HW231588   4.556   1.094   6.998
 9877SOL     OW31589   4.640   0.910   5.877
 9877SOL    HW131590   4.703   0.948   5.809
 9877SOL    HW231591   4.680   0.827   5.916
 9878SOL     OW31592   5.228   1.607   5.630
 9878SOL    HW131593   5.136   1.644   5.637
 9878SOL    HW231594   5.266   1.627   5.540
 9879SOL     OW31595   4.096   1.288   7.076
 9879SOL    HW131596   4.083   1.381   7.042
 9879SOL    HW231597   4.012   1.236   7.063
 9880SOL     OW31598   5.338   1.292   6.875
 9880SOL    HW131599   5.398   1.295   6.955
 9880SOL    HW231600   5.263   1.356   6.888
 9881SOL     OW31601   4.763   1.098   6.282
 9881SOL    HW131602   4.693   1.051   6.336
 9881SOL    HW231603   4.822   1.030   6.239
 9882SOL     OW31604   4.738   0.236   6.557
 9882SOL    HW131605   4.730   0.200   6.464
 9882SOL    HW231606   4.736   0.160   6.622
 9883SOL     OW31607   4.314   1.487   6.077
 9883SOL    HW131608   4.356   1.429   6.007
 9883SOL    HW231609   4.270   1.566   6.033
 9884SOL     OW31610   5.433   0.385   6.967
 9884SOL    HW131611   5.506   0.454   6.971
 9884SOL    HW231612   5.461   0.310   6.908
 9885SOL     OW31613   3.979   1.348   5.876
 9885SOL    HW131614   3.883   1.349   5.849
 9885SOL    HW231615   3.991   1.401   5.960
 9886SOL     OW31616   3.829   1.013   7.312
 9886SOL    HW131617   3.752   0.980   7.366
 9886SOL    HW231618   3.914   0.983   7.354
 9887SOL     OW31619   4.396   0.203   7.075
 9887SOL    HW131620   4.486   0.187   7.035
 9887SOL    HW231621   4.404   0.208   7.174
 9888SOL     OW31622   3.799   0.345   5.619
 9888SOL    HW131623   3.707   0.317   5.590
 9888SOL    HW231624   3.830   0.422   5.563
 9889SOL     OW31625   5.164   0.856   6.984
 9889SOL    HW131626   5.107   0.908   6.921
 9889SOL    HW231627   5.260   0.868   6.960
 9890SOL     OW31628   3.796   0.166   5.904
 9890SOL    HW131629   3.779   0.249   5.850
 9890SOL    HW231630   3.886   0.129   5.882
 9891SOL     OW31631   4.907   1.335   5.705
 9891SOL    HW131632   4.808   1.324   5.707
 9891SOL    HW231633   4.941   1.350   5.798
 9892SOL     OW31634   4.337   0.842   7.017
 9892SOL    HW131635   4.393   0.923   7.000
 9892SOL    HW231636   4.396   0.762   7.020
 9893SOL     OW31637   5.217   1.767   6.545
 9893SOL    HW131638   5.250   1.831   6.476
 9893SOL    HW231639   5.283   1.761   6.620
 9894SOL     OW31640   4.440   0.565   7.294
 9894SOL    HW131641   4.459   0.630   7.368
 9894SOL    HW231642   4.500   0.485   7.303
 9895SOL     OW31643   5.174   1.220   7.219
 9895SOL    HW131644   5.165   1.210   7.318
 9895SOL    HW231645   5.270   1.213   7.193
 9896SOL     OW31646   4.114   1.741   7.146
 9896SOL    HW131647   4.023   1.782   7.144
 9896SOL    HW231648   4.107   1.647   7.178
 9897SOL     OW31649   5.398   0.883   6.840
 9897SOL    HW131650   5.371   0.794   6.803
 9897SOL    HW231651   5.399   0.951   6.767
 9898SOL     OW31652   4.949   0.325   6.035
 9898SOL    HW131653   5.014   0.251   6.024
 9898SOL    HW231654   4.969   0.375   6.119
 9899SOL     OW31655   4.318   0.745   6.238
 9899SOL    HW131656   4.368   0.830   6.219
 9899SOL    HW231657   4.230   0.747   6.190
 9900SOL     OW31658   5.501   0.342   7.228
 9900SOL    HW131659   5.484   0.373   7.134
 9900SOL    HW231660   5.417   0.305   7.266
 9901SOL     OW31661   5.454   0.934   7.103
 9901SOL    HW131662   5.492   1.025   7.118
 9901SOL    HW231663   5.446   0.917   7.004
 9902SOL     OW31664   4.583   1.374   5.602
 9902SOL    HW131665   4.537   1.389   5.690
 9902SOL    HW231666   4.627   1.459   5.572
 9903SOL     OW31667   4.385   1.790   6.539
 9903SOL    HW131668   4.339   1.878   6.526
 9903SOL    HW231669   4.484   1.802   6.532
 9904SOL     OW31670   5.132   1.851   7.306
 9904SOL    HW131671   5.036   1.840   7.279
 9904SOL    HW231672   5.188   1.784   7.258
 9905SOL     OW31673   4.583   0.956   6.447
 9905SOL    HW131674   4.637   0.887   6.495
 9905SOL    HW231675   4.551   1.025   6.513
 9906SOL     OW31676   4.807   0.984   5.673
 9906SOL    HW131677   4.784   1.037   5.591
 9906SOL    HW231678   4.888   0.928   5.654
 9907SOL     OW31679   5.585   1.569   6.437
 9907SOL    HW131680   5.514   1.557   6.367
 9907SOL    HW231681   5.586   1.490   6.497
 9908SOL     OW31682   3.945   1.314   7.430
 9908SOL    HW131683   3.880   1.241   7.409
 9908SOL    HW231684   3.949   1.328   7.528
 9909SOL     OW31685   3.803   1.240   6.239
 9909SOL    HW131686   3.802   1.193   6.327
 9909SOL    HW231687   3.885   1.212   6.188
 9910SOL     OW31688   4.396   1.391   7.210
 9910SOL    HW131689   4.318   1.341   7.248
 9910SOL    HW231690   4.393   1.486   7.241
 9911SOL     OW31691   5.548   0.192   6.813
 9911SOL    HW131692   5.544   0.102   6.857
 9911SOL    HW231693   5.551   0.181   6.714
 9912SOL     OW31694   4.152   0.424   6.106
 9912SOL    HW131695   4.182   0.352   6.044
 9912SOL    HW231696   4.113   0.384   6.189
 9913SOL     OW31697   5.429   1.487   6.690
 9913SOL    HW131698   5.336   1.462   6.663
 9913SOL    HW231699   5.455   1.437   6.772
 9914SOL     OW31700   4.041   0.547   6.866
 9914SOL    HW131701   4.079   0.488   6.938
 9914SOL    HW231702   4.081   0.521   6.778
 9915SOL     OW31703   4.536   1.586   6.273
 9915SOL    HW131704   4.568   1.596   6.179
 9915SOL    HW231705   4.457   1.524   6.275
 9916SOL     OW31706   5.148   0.214   6.698
 9916SOL    HW131707   5.200   0.149   6.753
 9916SOL    HW231708   5.099   0.277   6.759
 9917SOL     OW31709   4.725   0.034   6.740
 9917SOL    HW131710   4.662  -0.038   6.709
 9917SOL    HW231711   4.818  -0.002   6.740
 9918SOL     OW31712   4.494   1.330   5.887
 9918SOL    HW131713   4.448   1.243   5.904
 9918SOL    HW231714   4.585   1.327   5.928
 9919SOL     OW31715   4.342   1.567   6.870
 9919SOL    HW131716   4.337   1.649   6.927
 9919SOL    HW231717   4.431   1.564   6.825
 9920SOL     OW31718   5.076   0.052   5.754
 9920SOL    HW131719   5.111   0.011   5.670
 9920SOL    HW231720   4.986   0.014   5.774
 9921SOL     OW31721   5.024   0.453   6.277
 9921SOL    HW131722   4.965   0.533   6.281
 9921SOL    HW231723   5.039   0.418   6.370
 9922SOL     OW31724   5.317   0.221   6.468
 9922SOL    HW131725   5.233   0.220   6.522
 9922SOL    HW231726   5.319   0.304   6.412
 9923SOL     OW31727   3.763   1.077   5.886
 9923SOL    HW131728   3.862   1.066   5.877
 9923SOL    HW231729   3.723   0.991   5.918
 9924SOL     OW31730   4.599   1.646   5.923
 9924SOL    HW131731   4.522   1.611   5.869
 9924SOL    HW231732   4.567   1.717   5.985
 9925SOL     OW31733   3.954   0.628   7.561
 9925SOL    HW131734   3.861   0.626   7.598
 9925SOL    HW231735   3.955   0.589   7.469
 9926SOL     OW31736   3.949   0.275   8.444
 9926SOL    HW131737   3.984   0.258   8.536
 9926SOL    HW231738   3.861   0.230   8.432
 9927SOL     OW31739   3.743   0.368   8.095
 9927SOL    HW131740   3.661   0.411   8.134
 9927SOL    HW231741   3.715   0.295   8.032
 9928SOL     OW31742   4.293   1.275   8.613
 9928SOL    HW131743   4.200   1.268   8.576
 9928SOL    HW231744   4.304   1.364   8.657
 9929SOL     OW31745   5.279   1.511   8.151
 9929SOL    HW131746   5.222   1.495   8.232
 9929SOL    HW231747   5.220   1.521   8.071
 9930SOL     OW31748   5.467   0.618   8.304
 9930SOL    HW131749   5.500   0.712   8.304
 9930SOL    HW231750   5.518   0.564   8.370
 9931SOL     OW31751   4.859   0.703   8.165
 9931SOL    HW131752   4.916   0.781   8.140
 9931SOL    HW231753   4.799   0.729   8.241
 9932SOL     OW31754   5.479   0.607   7.679
 9932SOL    HW131755   5.467   0.594   7.580
 9932SOL    HW231756   5.449   0.526   7.728
 9933SOL     OW31757   4.492   1.144   8.471
 9933SOL    HW131758   4.414   1.161   8.531
 9933SOL    HW231759   4.526   1.231   8.435
 9934SOL     OW31760   4.409   1.012   8.113
 9934SOL    HW131761   4.478   0.996   8.183
 9934SOL    HW231762   4.336   1.069   8.151
 9935SOL     OW31763   4.059   1.435   8.509
 9935SOL    HW131764   3.981   1.404   8.456
 9935SOL    HW231765   4.117   1.493   8.452
 9936SOL     OW31766   5.184   1.505   8.787
 9936SOL    HW131767   5.208   1.599   8.813
 9936SOL    HW231768   5.168   1.451   8.869
 9937SOL     OW31769   4.162   0.392   8.947
 9937SOL    HW131770   4.244   0.336   8.956
 9937SOL    HW231771   4.081   0.334   8.951
 9938SOL     OW31772   5.327   0.447   8.185
 9938SOL    HW131773   5.253   0.493   8.135
 9938SOL    HW231774   5.378   0.515   8.238
 9939SOL     OW31775   3.955   1.713   7.931
 9939SOL    HW131776   3.989   1.790   7.985
 9939SOL    HW231777   3.999   1.713   7.841
 9940SOL     OW31778   3.954   1.434   7.986
 9940SOL    HW131779   3.928   1.530   7.986
 9940SOL    HW231780   3.883   1.380   8.031
 9941SOL     OW31781   3.964   1.091   8.334
 9941SOL    HW131782   3.978   1.007   8.386
 9941SOL    HW231783   3.909   1.155   8.389
 9942SOL     OW31784   4.344   1.786   8.887
 9942SOL    HW131785   4.252   1.769   8.922
 9942SOL    HW231786   4.372   1.878   8.913
 9943SOL     OW31787   4.330   0.964   7.571
 9943SOL    HW131788   4.337   1.048   7.517
 9943SOL    HW231789   4.376   0.977   7.659
 9944SOL     OW31790   5.318   0.114   8.928
 9944SOL    HW131791   5.300   0.181   8.856
 9944SOL    HW231792   5.315   0.160   9.017
 9945SOL     OW31793   3.846   0.643   8.011
 9945SOL    HW131794   3.801   0.555   8.028
 9945SOL    HW231795   3.845   0.697   8.095
 9946SOL     OW31796   3.751   1.596   7.565
 9946SOL    HW131797   3.732   1.500   7.586
 9946SOL    HW231798   3.718   1.654   7.640
 9947SOL     OW31799   5.413   0.922   8.060
 9947SOL    HW131800   5.508   0.893   8.068
 9947SOL    HW231801   5.405   0.987   7.985
 9948SOL     OW31802   5.365   1.108   7.880
 9948SOL    HW131803   5.451   1.110   7.828
 9948SOL    HW231804   5.379   1.155   7.968
 9949SOL     OW31805   4.337   1.365   8.174
 9949SOL    HW131806   4.288   1.278   8.183
 9949SOL    HW231807   4.314   1.408   8.087
 9950SOL     OW31808   4.533   0.004   7.950
 9950SOL    HW131809   4.573   0.095   7.941
 9950SOL    HW231810   4.433   0.012   7.956
 9951SOL     OW31811   3.921   0.976   8.712
 9951SOL    HW131812   4.010   0.931   8.698
 9951SOL    HW231813   3.848   0.911   8.693
 9952SOL     OW31814   5.249   0.999   7.638
 9952SOL    HW131815   5.186   0.923   7.651
 9952SOL    HW231816   5.297   1.017   7.724
 9953SOL     OW31817   5.190   1.417   8.401
 9953SOL    HW131818   5.131   1.423   8.481
 9953SOL    HW231819   5.175   1.329   8.355
 9954SOL     OW31820   5.391   1.714   8.020
 9954SOL    HW131821   5.350   1.691   7.932
 9954SOL    HW231822   5.373   1.640   8.085
 9955SOL     OW31823   4.322   0.729   7.718
 9955SOL    HW131824   4.346   0.798   7.650
 9955SOL    HW231825   4.244   0.762   7.772
 9956SOL     OW31826   5.005   0.345   8.392
 9956SOL    HW131827   4.919   0.295   8.379
 9956SOL    HW231828   5.067   0.291   8.448
 9957SOL     OW31829   5.300   1.662   7.755
 9957SOL    HW131830   5.389   1.708   7.758
 9957SOL    HW231831   5.279   1.638   7.660
 9958SOL     OW31832   4.531   0.605   8.913
 9958SOL    HW131833   4.484   0.602   9.002
 9958SOL    HW231834   4.480   0.550   8.847
 9959SOL     OW31835   4.715   0.410   8.690
 9959SOL    HW131836   4.638   0.444   8.744
 9959SOL    HW231837   4.681   0.359   8.611
 9960SOL     OW31838   4.765   0.701   7.877
 9960SOL    HW131839   4.791   0.697   7.973
 9960SOL    HW231840   4.680   0.650   7.863
 9961SOL     OW31841   3.800   0.811   8.237
 9961SOL    HW131842   3.899   0.799   8.246
 9961SOL    HW231843   3.776   0.906   8.258
 9962SOL     OW31844   3.854   1.821   0.019
 9962SOL    HW131845   3.844   1.806   0.118
 9962SOL    HW231846   3.768   1.857  -0.017
 9963SOL     OW31847   4.589   0.348   7.643
 9963SOL    HW131848   4.648   0.411   7.594
 9963SOL    HW231849   4.608   0.254   7.614
 9964SOL     OW31850   5.086   1.144   7.993
 9964SOL    HW131851   5.169   1.115   7.945
 9964SOL    HW231852   5.037   1.211   7.937
 9965SOL     OW31853   4.274   0.196   8.333
 9965SOL    HW131854   4.269   0.191   8.433
 9965SOL    HW231855   4.276   0.292   8.304
 9966SOL     OW31856   4.732   1.456   7.925
 9966SOL    HW131857   4.686   1.528   7.873
 9966SOL    HW231858   4.728   1.476   8.023
 9967SOL     OW31859   4.075   1.801   8.301
 9967SOL    HW131860   4.125   1.715   8.307
 9967SOL    HW231861   4.140   1.878   8.298
 9968SOL     OW31862   5.519   1.066   8.321
 9968SOL    HW131863   5.457   1.051   8.245
 9968SOL    HW231864   5.467   1.077   8.406
 9969SOL     OW31865   4.045   0.943   7.690
 9969SOL    HW131866   4.127   0.982   7.648
 9969SOL    HW231867   4.018   0.861   7.641
 9970SOL     OW31868   5.182   0.735   8.176
 9970SOL    HW131869   5.177   0.670   8.251
 9970SOL    HW231870   5.262   0.794   8.189
 9971SOL     OW31871   4.835   1.776   7.685
 9971SOL    HW131872   4.775   1.714   7.735
 9971SOL    HW231873   4.866   1.732   7.600
 9972SOL     OW31874   3.926   0.285   8.946
 9972SOL    HW131875   3.846   0.345   8.933
 9972SOL    HW231876   3.916   0.236   9.032
 9973SOL     OW31877   5.356   1.377   7.529
 9973SOL    HW131878   5.324   1.471   7.519
 9973SOL    HW231879   5.280   1.314   7.517
 9974SOL     OW31880   4.188   1.743   7.771
 9974SOL    HW131881   4.221   1.782   7.857
 9974SOL    HW231882   4.264   1.736   7.706
 9975SOL     OW31883   5.124   0.107   7.874
 9975SOL    HW131884   5.100   0.070   7.784
 9975SOL    HW231885   5.223   0.123   7.878
 9976SOL     OW31886   3.973   1.785   8.689
 9976SOL    HW131887   4.030   1.720   8.739
 9976SOL    HW231888   3.957   1.752   8.596
 9977SOL     OW31889   4.664   1.698   8.352
 9977SOL    HW131890   4.744   1.641   8.373
 9977SOL    HW231891   4.615   1.658   8.275
 9978SOL     OW31892   4.106   0.700   7.928
 9978SOL    HW131893   4.151   0.610   7.925
 9978SOL    HW231894   4.012   0.689   7.961
 9979SOL     OW31895   4.338   0.122   7.565
 9979SOL    HW131896   4.436   0.100   7.572
 9979SOL    HW231897   4.307   0.105   7.472
 9980SOL     OW31898   4.612   1.514   8.643
 9980SOL    HW131899   4.589   1.489   8.549
 9980SOL    HW231900   4.673   1.445   8.682
 9981SOL     OW31901   4.527   1.402   8.372
 9981SOL    HW131902   4.617   1.416   8.330
 9981SOL    HW231903   4.456   1.404   8.301
 9982SOL     OW31904   4.646   0.503   8.347
 9982SOL    HW131905   4.621   0.494   8.251
 9982SOL    HW231906   4.694   0.421   8.378
 9983SOL     OW31907   4.263   0.064   7.960
 9983SOL    HW131908   4.182   0.065   8.018
 9983SOL    HW231909   4.266   0.147   7.905
 9984SOL     OW31910   5.158   1.188   7.489
 9984SOL    HW131911   5.190   1.112   7.546
 9984SOL    HW231912   5.066   1.215   7.519
 9985SOL     OW31913   4.021   0.035   7.619
 9985SOL    HW131914   4.070   0.119   7.598
 9985SOL    HW231915   4.083  -0.030   7.664
 9986SOL     OW31916   4.659   0.236   7.928
 9986SOL    HW131917   4.611   0.277   7.850
 9986SOL    HW231918   4.758   0.234   7.909
 9987SOL     OW31919   4.951   1.570   8.241
 9987SOL    HW131920   4.972   1.644   8.176
 9987SOL    HW231921   5.019   1.570   8.314
 9988SOL     OW31922   4.183   1.152   8.189
 9988SOL    HW131923   4.112   1.125   8.254
 9988SOL    HW231924   4.157   1.124   8.096
 9989SOL     OW31925   4.995   1.797   8.039
 9989SOL    HW131926   5.039   1.861   7.975
 9989SOL    HW231927   4.945   1.849   8.109
 9990SOL     OW31928   4.756   0.549   7.464
 9990SOL    HW131929   4.715   0.631   7.425
 9990SOL    HW231930   4.820   0.575   7.537
 9991SOL     OW31931   3.802   0.556   8.834
 9991SOL    HW131932   3.894   0.555   8.793
 9991SOL    HW231933   3.796   0.630   8.901
 9992SOL     OW31934   4.285   0.222   8.595
 9992SOL    HW131935   4.323   0.138   8.632
 9992SOL    HW231936   4.197   0.241   8.639
 9993SOL     OW31937   4.590   0.454   8.090
 9993SOL    HW131938   4.558   0.526   8.028
 9993SOL    HW231939   4.614   0.373   8.037
 9994SOL     OW31940   4.741   0.039   8.201
 9994SOL    HW131941   4.669   0.044   8.132
 9994SOL    HW231942   4.717  -0.030   8.270
 9995SOL     OW31943   5.153   1.173   8.315
 9995SOL    HW131944   5.098   1.089   8.308
 9995SOL    HW231945   5.179   1.202   8.223
 9996SOL     OW31946   5.190   0.590   8.440
 9996SOL    HW131947   5.160   0.495   8.447
 9996SOL    HW231948   5.263   0.606   8.506
 9997SOL     OW31949   5.581   0.833   7.825
 9997SOL    HW131950   5.623   0.769   7.889
 9997SOL    HW231951   5.543   0.782   7.747
 9998SOL     OW31952   4.212   1.385   7.622
 9998SOL    HW131953   4.125   1.370   7.669
 9998SOL    HW231954   4.195   1.411   7.527
 9999SOL     OW31955   5.388   1.280   8.105
 9999SOL    HW131956   5.487   1.288   8.119
 9999SOL    HW231957   5.343   1.364   8.136
10000SOL     OW31958   5.114   0.575   7.526
10000SOL    HW131959   5.060   0.554   7.607
10000SOL    HW231960   5.205   0.534   7.535
10001SOL     OW31961   4.251   0.256   7.776
10001SOL    HW131962   4.278   0.197   7.701
10001SOL    HW231963   4.251   0.351   7.745
10002SOL     OW31964   4.788   1.347   8.788
10002SOL    HW131965   4.708   1.324   8.843
10002SOL    HW231966   4.871   1.321   8.837
10003SOL     OW31967   4.835   1.195   8.548
10003SOL    HW131968   4.795   1.239   8.629
10003SOL    HW231969   4.794   1.232   8.465
10004SOL     OW31970   5.362   1.099   8.527
10004SOL    HW131971   5.367   1.180   8.586
10004SOL    HW231972   5.276   1.101   8.476
10005SOL     OW31973   4.639   0.089   8.850
10005SOL    HW131974   4.664   0.069   8.755
10005SOL    HW231975   4.711   0.145   8.892
10006SOL     OW31976   4.429   1.050   7.816
10006SOL    HW131977   4.415   1.057   7.915
10006SOL    HW231978   4.513   0.999   7.798
10007SOL     OW31979   4.134   0.813   8.699
10007SOL    HW131980   4.220   0.825   8.749
10007SOL    HW231981   4.092   0.726   8.726
10008SOL     OW31982   4.998   0.386   8.710
10008SOL    HW131983   5.019   0.460   8.774
10008SOL    HW231984   4.909   0.403   8.667
10009SOL     OW31985   3.788   1.564   8.779
10009SOL    HW131986   3.742   1.646   8.745
10009SOL    HW231987   3.886   1.583   8.788
10010SOL     OW31988   4.091   1.100   7.949
10010SOL    HW131989   4.084   1.183   7.893
10010SOL    HW231990   4.095   1.020   7.889
10011SOL     OW31991   4.290   0.537   8.313
10011SOL    HW131992   4.302   0.603   8.239
10011SOL    HW231993   4.336   0.571   8.396
10012SOL     OW31994   4.976   1.348   7.836
10012SOL    HW131995   5.026   1.425   7.876
10012SOL    HW231996   4.881   1.350   7.868
10013SOL     OW31997   4.996   1.445   8.590
10013SOL    HW131998   5.043   1.458   8.677
10013SOL    HW231999   4.930   1.371   8.599
10014SOL     OW32000   5.306   0.639   7.920
10014SOL    HW132001   5.275   0.700   7.993
10014SOL    HW232002   5.356   0.691   7.851
10015SOL     OW32003   4.078   1.510   8.777
10015SOL    HW132004   4.057   1.466   8.690
10015SOL    HW232005   4.175   1.536   8.780
10016SOL     OW32006   4.126   0.751   0.046
10016SOL    HW132007   4.194   0.806  -0.001
10016SOL    HW232008   4.166   0.663   0.073
10017SOL     OW32009   5.311   0.779   0.118
10017SOL    HW132010   5.219   0.817   0.113
10017SOL    HW232011   5.371   0.826   0.053
10018SOL     OW32012   4.297   0.870   8.477
10018SOL    HW132013   4.341   0.959   8.468
10018SOL    HW232014   4.234   0.870   8.554
10019SOL     OW32015   5.084   0.862   8.493
10019SOL    HW132016   5.009   0.862   8.427
10019SOL    HW232017   5.121   0.770   8.502
10020SOL     OW32018   4.933   0.525   7.723
10020SOL    HW132019   4.946   0.441   7.777
10020SOL    HW232020   4.904   0.599   7.783
10021SOL     OW32021   4.031   0.213   8.679
10021SOL    HW132022   4.008   0.250   8.769
10021SOL    HW232023   4.001   0.118   8.673
10022SOL     OW32024   3.761   1.310   8.730
10022SOL    HW132025   3.814   1.261   8.798
10022SOL    HW232026   3.783   1.408   8.735
10023SOL     OW32027   4.456   0.634   8.512
10023SOL    HW132028   4.515   0.608   8.436
10023SOL    HW232029   4.428   0.730   8.501
10024SOL     OW32030   4.031   0.063   8.066
10024SOL    HW132031   4.020   0.157   8.099
10024SOL    HW232032   4.026   0.000   8.143
10025SOL     OW32033   5.346   0.367   7.822
10025SOL    HW132034   5.348   0.291   7.886
10025SOL    HW232035   5.298   0.444   7.862
10026SOL     OW32036   4.747   0.766   8.414
10026SOL    HW132037   4.762   0.787   8.510
10026SOL    HW232038   4.717   0.671   8.405
10027SOL     OW32039   4.704   1.573   0.148
10027SOL    HW132040   4.684   1.617   0.060
10027SOL    HW232041   4.743   1.482   0.132
10028SOL     OW32042   5.583   1.518   0.053
10028SOL    HW132043   5.597   1.545  -0.042
10028SOL    HW232044   5.666   1.540   0.106
10029SOL     OW32045   5.264   0.274   7.573
10029SOL    HW132046   5.203   0.199   7.596
10029SOL    HW232047   5.286   0.326   7.656
10030SOL     OW32048   5.027   0.838   7.490
10030SOL    HW132049   5.061   0.745   7.505
10030SOL    HW232050   5.045   0.865   7.395
10031SOL     OW32051   4.792   1.333   8.297
10031SOL    HW132052   4.799   1.249   8.242
10031SOL    HW232053   4.854   1.402   8.261
10032SOL     OW32054   4.043   0.810   8.397
10032SOL    HW132055   4.136   0.846   8.402
10032SOL    HW232056   4.037   0.725   8.449
10033SOL     OW32057   4.063   0.509   8.454
10033SOL    HW132058   4.011   0.426   8.437
10033SOL    HW232059   4.140   0.514   8.390
10034SOL     OW32060   4.862   0.380   0.126
10034SOL    HW132061   4.817   0.443   0.190
10034SOL    HW232062   4.955   0.411   0.109
10035SOL     OW32063   4.884   0.207   8.925
10035SOL    HW132064   4.884   0.271   9.002
10035SOL    HW232065   4.912   0.255   8.842
10036SOL     OW32066   3.732   1.326   7.648
10036SOL    HW132067   3.639   1.347   7.617
10036SOL    HW232068   3.742   1.227   7.661
10037SOL     OW32069   3.812   1.801   8.375
10037SOL    HW132070   3.770   1.715   8.348
10037SOL    HW232071   3.906   1.804   8.341
10038SOL     OW32072   4.228   1.568   8.358
10038SOL    HW132073   4.294   1.642   8.367
10038SOL    HW232074   4.272   1.489   8.316
10039SOL     OW32075   4.726   0.796   8.686
10039SOL    HW132076   4.767   0.764   8.772
10039SOL    HW232077   4.630   0.769   8.683
10040SOL     OW32078   3.764   0.544   8.562
10040SOL    HW132079   3.849   0.511   8.521
10040SOL    HW232080   3.777   0.559   8.660
10041SOL     OW32081   4.539   0.572   7.773
10041SOL    HW132082   4.546   0.483   7.727
10041SOL    HW232083   4.445   0.606   7.765
10042SOL     OW32084   5.381   0.604   8.654
10042SOL    HW132085   5.343   0.535   8.716
10042SOL    HW232086   5.463   0.568   8.610
10043SOL     OW32087   4.395   0.464   8.717
10043SOL    HW132088   4.361   0.375   8.687
10043SOL    HW232089   4.421   0.518   8.637
10044SOL     OW32090   4.654   1.678   8.913
10044SOL    HW132091   4.630   1.660   8.818
10044SOL    HW232092   4.684   1.772   8.923
10045SOL     OW32093   4.197   0.500   7.639
10045SOL    HW132094   4.258   0.580   7.643
10045SOL    HW232095   4.102   0.531   7.646
10046SOL     OW32096   3.883   1.137   8.914
10046SOL    HW132097   3.905   1.076   8.990
10046SOL    HW232098   3.893   1.088   8.828
10047SOL     OW32099   5.071   1.059   8.682
10047SOL    HW132100   5.095   0.996   8.608
10047SOL    HW232101   4.981   1.099   8.664
10048SOL     OW32102   5.026   0.855   7.757
10048SOL    HW132103   4.940   0.824   7.799
10048SOL    HW232104   5.022   0.841   7.658
10049SOL     OW32105   5.483   1.747   8.602
10049SOL    HW132106   5.544   1.777   8.529
10049SOL    HW232107   5.445   1.658   8.580
10050SOL     OW32108   4.976   1.731   8.576
10050SOL    HW132109   5.060   1.736   8.522
10050SOL    HW232110   4.953   1.635   8.594
10051SOL     OW32111   3.807   1.258   8.470
10051SOL    HW132112   3.802   1.257   8.570
10051SOL    HW232113   3.724   1.217   8.432
10052SOL     OW32114   5.450   0.135   7.971
10052SOL    HW132115   5.523   0.118   7.904
10052SOL    HW232116   5.419   0.048   8.009
10053SOL     OW32117   5.112   1.573   7.925
10053SOL    HW132118   5.179   1.585   7.851
10053SOL    HW232119   5.072   1.662   7.948
10054SOL     OW32120   5.004   0.927   8.120
10054SOL    HW132121   5.064   0.846   8.122
10054SOL    HW232122   5.044   0.996   8.060
10055SOL     OW32123   4.396   1.616   7.602
10055SOL    HW132124   4.405   1.626   7.503
10055SOL    HW232125   4.356   1.527   7.623
10056SOL     OW32126   5.374   1.720   8.842
10056SOL    HW132127   5.427   1.730   8.758
10056SOL    HW232128   5.347   1.810   8.876
10057SOL     OW32129   5.565   0.175   8.411
10057SOL    HW132130   5.604   0.090   8.375
10057SOL    HW232131   5.467   0.177   8.392
10058SOL     OW32132   3.987   0.326   8.168
10058SOL    HW132133   3.908   0.377   8.134
10058SOL    HW232134   3.978   0.311   8.266
10059SOL     OW32135   4.918   1.612   7.479
10059SOL    HW132136   4.924   1.519   7.516
10059SOL    HW232137   4.859   1.612   7.399
10060SOL     OW32138   4.546   1.002   8.820
10060SOL    HW132139   4.586   1.001   8.728
10060SOL    HW232140   4.556   1.094   8.860
10061SOL     OW32141   4.640   0.910   7.739
10061SOL    HW132142   4.703   0.948   7.671
10061SOL    HW232143   4.680   0.827   7.778
10062SOL     OW32144   5.228   1.607   7.492
10062SOL    HW132145   5.136   1.644   7.499
10062SOL    HW232146   5.266   1.627   7.402
10063SOL     OW32147   4.096   1.288   8.938
10063SOL    HW132148   4.083   1.381   8.904
10063SOL    HW232149   4.012   1.236   8.925
10064SOL     OW32150   5.338   1.292   8.737
10064SOL    HW132151   5.398   1.295   8.817
10064SOL    HW232152   5.263   1.356   8.750
10065SOL     OW32153   4.763   1.098   8.144
10065SOL    HW132154   4.693   1.051   8.198
10065SOL    HW232155   4.822   1.030   8.101
10066SOL     OW32156   4.738   0.236   8.419
10066SOL    HW132157   4.730   0.200   8.326
10066SOL    HW232158   4.736   0.160   8.484
10067SOL     OW32159   4.314   1.487   7.939
10067SOL    HW132160   4.356   1.429   7.869
10067SOL    HW232161   4.270   1.566   7.895
10068SOL     OW32162   5.433   0.385   8.829
10068SOL    HW132163   5.506   0.454   8.833
10068SOL    HW232164   5.461   0.310   8.770
10069SOL     OW32165   3.979   1.348   7.738
10069SOL    HW132166   3.883   1.349   7.711
10069SOL    HW232167   3.991   1.401   7.822
10070SOL     OW32168   3.799   0.345   7.481
10070SOL    HW132169   3.707   0.317   7.452
10070SOL    HW232170   3.830   0.422   7.425
10071SOL     OW32171   5.164   0.856   8.846
10071SOL    HW132172   5.107   0.908   8.783
10071SOL    HW232173   5.260   0.868   8.822
10072SOL     OW32174   3.796   0.166   7.766
10072SOL    HW132175   3.779   0.249   7.712
10072SOL    HW232176   3.886   0.129   7.744
10073SOL     OW32177   4.907   1.335   7.567
10073SOL    HW132178   4.808   1.324   7.569
10073SOL    HW232179   4.941   1.350   7.660
10074SOL     OW32180   4.337   0.842   8.879
10074SOL    HW132181   4.393   0.923   8.862
10074SOL    HW232182   4.396   0.762   8.882
10075SOL     OW32183   5.217   1.767   8.407
10075SOL    HW132184   5.250   1.831   8.338
10075SOL    HW232185   5.283   1.761   8.482
10076SOL     OW32186   4.114   1.741   0.008
10076SOL    HW132187   4.023   1.782   0.006
10076SOL    HW232188   4.107   1.647   0.040
10077SOL     OW32189   5.398   0.883   8.702
10077SOL    HW132190   5.371   0.794   8.665
10077SOL    HW232191   5.399   0.951   8.629
10078SOL     OW32192   4.949   0.325   7.897
10078SOL    HW132193   5.014   0.251   7.886
10078SOL    HW232194   4.969   0.375   7.981
10079SOL     OW32195   4.318   0.745   8.100
10079SOL    HW132196   4.368   0.830   8.081
10079SOL    HW232197   4.230   0.747   8.052
10080SOL     OW32198   5.501   0.342   0.090
10080SOL    HW132199   5.484   0.373  -0.004
10080SOL    HW232200   5.417   0.305   0.128
10081SOL     OW32201   5.454   0.934   8.965
10081SOL    HW132202   5.492   1.025   8.980
10081SOL    HW232203   5.446   0.917   8.866
10082SOL     OW32204   4.583   1.374   7.464
10082SOL    HW132205   4.537   1.389   7.552
10082SOL    HW232206   4.627   1.459   7.434
10083SOL     OW32207   4.385   1.790   8.401
10083SOL    HW132208   4.339   1.878   8.388
10083SOL    HW232209   4.484   1.802   8.394
10084SOL     OW32210   5.132   1.851   0.168
10084SOL    HW132211   5.036   1.840   0.141
10084SOL    HW232212   5.188   1.784   0.120
10085SOL     OW32213   4.583   0.956   8.309
10085SOL    HW132214   4.637   0.887   8.357
10085SOL    HW232215   4.551   1.025   8.375
10086SOL     OW32216   4.807   0.984   7.535
10086SOL    HW132217   4.784   1.037   7.453
10086SOL    HW232218   4.888   0.928   7.516
10087SOL     OW32219   5.585   1.569   8.299
10087SOL    HW132220   5.514   1.557   8.229
10087SOL    HW232221   5.586   1.490   8.359
10088SOL     OW32222   3.803   1.240   8.101
10088SOL    HW132223   3.802   1.193   8.189
10088SOL    HW232224   3.885   1.212   8.050
10089SOL     OW32225   5.548   0.192   8.675
10089SOL    HW132226   5.544   0.102   8.719
10089SOL    HW232227   5.551   0.181   8.576
10090SOL     OW32228   4.152   0.424   7.968
10090SOL    HW132229   4.182   0.352   7.906
10090SOL    HW232230   4.113   0.384   8.051
10091SOL     OW32231   5.429   1.487   8.552
10091SOL    HW132232   5.336   1.462   8.525
10091SOL    HW232233   5.455   1.437   8.634
10092SOL     OW32234   4.041   0.547   8.728
10092SOL    HW132235   4.079   0.488   8.800
10092SOL    HW232236   4.081   0.521   8.640
10093SOL     OW32237   4.536   1.586   8.135
10093SOL    HW132238   4.568   1.596   8.041
10093SOL    HW232239   4.457   1.524   8.137
10094SOL     OW32240   5.148   0.214   8.560
10094SOL    HW132241   5.200   0.149   8.615
10094SOL    HW232242   5.099   0.277   8.621
10095SOL     OW32243   4.725   0.034   8.602
10095SOL    HW132244   4.662  -0.038   8.571
10095SOL    HW232245   4.818  -0.002   8.602
10096SOL     OW32246   4.494   1.330   7.749
10096SOL    HW132247   4.448   1.243   7.766
10096SOL    HW232248   4.585   1.327   7.790
10097SOL     OW32249   4.342   1.567   8.732
10097SOL    HW132250   4.337   1.649   8.789
10097SOL    HW232251   4.431   1.564   8.687
10098SOL     OW32252   5.076   0.052   7.616
10098SOL    HW132253   5.111   0.011   7.532
10098SOL    HW232254   4.986   0.014   7.636
10099SOL     OW32255   5.024   0.453   8.139
10099SOL    HW132256   4.965   0.533   8.143
10099SOL    HW232257   5.039   0.418   8.232
10100SOL     OW32258   5.317   0.221   8.330
10100SOL    HW132259   5.233   0.220   8.384
10100SOL    HW232260   5.319   0.304   8.274
10101SOL     OW32261   3.763   1.077   7.748
10101SOL    HW132262   3.862   1.066   7.739
10101SOL    HW232263   3.723   0.991   7.780
10102SOL     OW32264   4.599   1.646   7.785
10102SOL    HW132265   4.522   1.611   7.731
10102SOL    HW232266   4.567   1.717   7.847
10103SOL     OW32267   3.954   2.490   0.113
10103SOL    HW132268   3.861   2.488   0.150
10103SOL    HW232269   3.955   2.451   0.021
10104SOL     OW32270   3.949   2.137   0.996
10104SOL    HW132271   3.984   2.120   1.088
10104SOL    HW232272   3.861   2.092   0.984
10105SOL     OW32273   3.743   2.230   0.647
10105SOL    HW132274   3.661   2.273   0.686
10105SOL    HW232275   3.715   2.157   0.584
10106SOL     OW32276   4.293   3.137   1.165
10106SOL    HW132277   4.200   3.130   1.128
10106SOL    HW232278   4.304   3.226   1.209
10107SOL     OW32279   5.279   3.373   0.703
10107SOL    HW132280   5.222   3.357   0.784
10107SOL    HW232281   5.220   3.383   0.623
10108SOL     OW32282   5.467   2.480   0.856
10108SOL    HW132283   5.500   2.574   0.856
10108SOL    HW232284   5.518   2.426   0.922
10109SOL     OW32285   4.859   2.565   0.717
10109SOL    HW132286   4.916   2.643   0.692
10109SOL    HW232287   4.799   2.591   0.793
10110SOL     OW32288   5.479   2.469   0.231
10110SOL    HW132289   5.467   2.456   0.132
10110SOL    HW232290   5.449   2.388   0.280
10111SOL     OW32291   4.492   3.006   1.023
10111SOL    HW132292   4.414   3.023   1.083
10111SOL    HW232293   4.526   3.093   0.987
10112SOL     OW32294   4.574   2.660   1.823
10112SOL    HW132295   4.570   2.736   1.888
10112SOL    HW232296   4.596   2.696   1.732
10113SOL     OW32297   4.409   2.874   0.665
10113SOL    HW132298   4.478   2.858   0.735
10113SOL    HW232299   4.336   2.931   0.703
10114SOL     OW32300   4.410   3.023   1.803
10114SOL    HW132301   4.470   3.102   1.817
10114SOL    HW232302   4.324   3.054   1.762
10115SOL     OW32303   4.059   3.297   1.061
10115SOL    HW132304   3.981   3.266   1.008
10115SOL    HW232305   4.117   3.355   1.004
10116SOL     OW32306   5.184   3.367   1.339
10116SOL    HW132307   5.208   3.461   1.365
10116SOL    HW232308   5.168   3.313   1.421
10117SOL     OW32309   4.162   2.254   1.499
10117SOL    HW132310   4.244   2.198   1.508
10117SOL    HW232311   4.081   2.196   1.503
10118SOL     OW32312   5.327   2.309   0.737
10118SOL    HW132313   5.253   2.355   0.687
10118SOL    HW232314   5.378   2.377   0.790
10119SOL     OW32315   3.955   3.575   0.483
10119SOL    HW132316   3.989   3.652   0.537
10119SOL    HW232317   3.999   3.575   0.393
10120SOL     OW32318   4.851   3.203   1.690
10120SOL    HW132319   4.898   3.203   1.778
10120SOL    HW232320   4.803   3.116   1.679
10121SOL     OW32321   3.954   3.296   0.538
10121SOL    HW132322   3.928   3.392   0.538
10121SOL    HW232323   3.883   3.242   0.583
10122SOL     OW32324   3.964   2.953   0.886
10122SOL    HW132325   3.978   2.869   0.938
10122SOL    HW232326   3.909   3.017   0.941
10123SOL     OW32327   4.344   3.648   1.439
10123SOL    HW132328   4.252   3.631   1.474
10123SOL    HW232329   4.372   3.740   1.465
10124SOL     OW32330   4.330   2.826   0.123
10124SOL    HW132331   4.337   2.910   0.069
10124SOL    HW232332   4.376   2.839   0.211
10125SOL     OW32333   5.318   1.976   1.480
10125SOL    HW132334   5.300   2.043   1.408
10125SOL    HW232335   5.315   2.022   1.569
10126SOL     OW32336   3.846   2.505   0.563
10126SOL    HW132337   3.801   2.417   0.580
10126SOL    HW232338   3.845   2.559   0.647
10127SOL     OW32339   5.566   3.629   0.359
10127SOL    HW132340   5.620   3.600   0.439
10127SOL    HW232341   5.596   3.719   0.330
10128SOL     OW32342   5.413   2.784   0.612
10128SOL    HW132343   5.508   2.755   0.620
10128SOL    HW232344   5.405   2.849   0.537
10129SOL     OW32345   5.365   2.970   0.432
10129SOL    HW132346   5.451   2.972   0.380
10129SOL    HW232347   5.379   3.017   0.520
10130SOL     OW32348   3.837   2.599   1.597
10130SOL    HW132349   3.925   2.586   1.642
10130SOL    HW232350   3.824   2.696   1.575
10131SOL     OW32351   4.337   3.227   0.726
10131SOL    HW132352   4.288   3.140   0.735
10131SOL    HW232353   4.314   3.270   0.639
10132SOL     OW32354   5.017   3.090   1.423
10132SOL    HW132355   5.054   3.017   1.365
10132SOL    HW232356   5.069   3.095   1.508
10133SOL     OW32357   4.533   1.866   0.502
10133SOL    HW132358   4.573   1.957   0.493
10133SOL    HW232359   4.433   1.874   0.508
10134SOL     OW32360   3.921   2.838   1.264
10134SOL    HW132361   4.010   2.793   1.250
10134SOL    HW232362   3.848   2.773   1.245
10135SOL     OW32363   5.249   2.861   0.190
10135SOL    HW132364   5.186   2.785   0.203
10135SOL    HW232365   5.297   2.879   0.276
10136SOL     OW32366   4.911   3.654   1.616
10136SOL    HW132367   4.935   3.714   1.540
10136SOL    HW232368   4.918   3.559   1.586
10137SOL     OW32369   4.041   2.113   1.801
10137SOL    HW132370   4.112   2.184   1.807
10137SOL    HW232371   3.953   2.152   1.829
10138SOL     OW32372   5.190   3.279   0.953
10138SOL    HW132373   5.131   3.285   1.033
10138SOL    HW232374   5.175   3.191   0.907
10139SOL     OW32375   5.391   3.576   0.572
10139SOL    HW132376   5.350   3.553   0.484
10139SOL    HW232377   5.373   3.502   0.637
10140SOL     OW32378   4.322   2.591   0.270
10140SOL    HW132379   4.346   2.660   0.202
10140SOL    HW232380   4.244   2.624   0.324
10141SOL     OW32381   5.005   2.207   0.944
10141SOL    HW132382   4.919   2.157   0.931
10141SOL    HW232383   5.067   2.153   1.000
10142SOL     OW32384   5.300   3.524   0.307
10142SOL    HW132385   5.389   3.570   0.310
10142SOL    HW232386   5.279   3.500   0.212
10143SOL     OW32387   4.531   2.467   1.465
10143SOL    HW132388   4.484   2.464   1.554
10143SOL    HW232389   4.480   2.412   1.399
10144SOL     OW32390   5.118   2.331   1.674
10144SOL    HW132391   5.098   2.374   1.762
10144SOL    HW232392   5.196   2.269   1.683
10145SOL     OW32393   4.697   2.752   1.572
10145SOL    HW132394   4.743   2.668   1.543
10145SOL    HW232395   4.641   2.786   1.497
10146SOL     OW32396   4.715   2.272   1.242
10146SOL    HW132397   4.638   2.306   1.296
10146SOL    HW232398   4.681   2.221   1.163
10147SOL     OW32399   4.765   2.563   0.429
10147SOL    HW132400   4.791   2.559   0.525
10147SOL    HW232401   4.680   2.512   0.415
10148SOL     OW32402   3.800   2.673   0.789
10148SOL    HW132403   3.899   2.661   0.798
10148SOL    HW232404   3.776   2.768   0.810
10149SOL     OW32405   3.854   3.683   1.571
10149SOL    HW132406   3.844   3.668   1.670
10149SOL    HW232407   3.768   3.719   1.535
10150SOL     OW32408   4.589   2.210   0.195
10150SOL    HW132409   4.648   2.273   0.146
10150SOL    HW232410   4.608   2.116   0.166
10151SOL     OW32411   5.443   2.447   1.831
10151SOL    HW132412   5.417   2.536   1.795
10151SOL    HW232413   5.441   2.379   1.758
10152SOL     OW32414   5.086   3.006   0.545
10152SOL    HW132415   5.169   2.977   0.497
10152SOL    HW232416   5.037   3.073   0.489
10153SOL     OW32417   4.274   2.058   0.885
10153SOL    HW132418   4.269   2.053   0.985
10153SOL    HW232419   4.276   2.154   0.856
10154SOL     OW32420   4.732   3.318   0.477
10154SOL    HW132421   4.686   3.390   0.425
10154SOL    HW232422   4.728   3.338   0.575
10155SOL     OW32423   4.075   3.663   0.853
10155SOL    HW132424   4.125   3.577   0.859
10155SOL    HW232425   4.140   3.740   0.850
10156SOL     OW32426   5.519   2.928   0.873
10156SOL    HW132427   5.457   2.913   0.797
10156SOL    HW232428   5.467   2.939   0.958
10157SOL     OW32429   4.951   3.412   1.506
10157SOL    HW132430   4.957   3.335   1.570
10157SOL    HW232431   4.899   3.386   1.426
10158SOL     OW32432   4.045   2.805   0.242
10158SOL    HW132433   4.127   2.844   0.200
10158SOL    HW232434   4.018   2.723   0.193
10159SOL     OW32435   5.182   2.597   0.728
10159SOL    HW132436   5.177   2.532   0.803
10159SOL    HW232437   5.262   2.656   0.741
10160SOL     OW32438   4.185   3.128   1.727
10160SOL    HW132439   4.135   3.129   1.641
10160SOL    HW232440   4.122   3.110   1.803
10161SOL     OW32441   4.835   3.638   0.237
10161SOL    HW132442   4.775   3.576   0.287
10161SOL    HW232443   4.866   3.594   0.152
10162SOL     OW32444   3.926   2.147   1.498
10162SOL    HW132445   3.846   2.207   1.485
10162SOL    HW232446   3.916   2.098   1.584
10163SOL     OW32447   5.356   3.239   0.081
10163SOL    HW132448   5.324   3.333   0.071
10163SOL    HW232449   5.280   3.176   0.069
10164SOL     OW32450   4.188   3.605   0.323
10164SOL    HW132451   4.221   3.644   0.409
10164SOL    HW232452   4.264   3.598   0.258
10165SOL     OW32453   5.124   1.969   0.426
10165SOL    HW132454   5.100   1.932   0.336
10165SOL    HW232455   5.223   1.985   0.430
10166SOL     OW32456   4.664   3.560   0.904
10166SOL    HW132457   4.744   3.503   0.925
10166SOL    HW232458   4.615   3.520   0.827
10167SOL     OW32459   4.106   2.562   0.480
10167SOL    HW132460   4.151   2.472   0.477
10167SOL    HW232461   4.012   2.551   0.513
10168SOL     OW32462   5.271   2.084   1.729
10168SOL    HW132463   5.266   2.121   1.821
10168SOL    HW232464   5.199   2.015   1.717
10169SOL     OW32465   4.338   1.984   0.117
10169SOL    HW132466   4.436   1.962   0.124
10169SOL    HW232467   4.307   1.967   0.024
10170SOL     OW32468   4.505   2.126   1.749
10170SOL    HW132469   4.572   2.065   1.792
10170SOL    HW232470   4.432   2.145   1.814
10171SOL     OW32471   4.612   3.376   1.195
10171SOL    HW132472   4.589   3.351   1.101
10171SOL    HW232473   4.673   3.307   1.234
10172SOL     OW32474   5.075   2.452   1.433
10172SOL    HW132475   5.103   2.409   1.518
10172SOL    HW232476   5.100   2.548   1.434
10173SOL     OW32477   4.527   3.264   0.924
10173SOL    HW132478   4.617   3.278   0.882
10173SOL    HW232479   4.456   3.266   0.853
10174SOL     OW32480   4.646   2.365   0.899
10174SOL    HW132481   4.621   2.356   0.803
10174SOL    HW232482   4.694   2.283   0.930
10175SOL     OW32483   4.263   1.926   0.512
10175SOL    HW132484   4.182   1.927   0.570
10175SOL    HW232485   4.266   2.009   0.457
10176SOL     OW32486   5.158   3.050   0.041
10176SOL    HW132487   5.190   2.974   0.098
10176SOL    HW232488   5.066   3.077   0.071
10177SOL     OW32489   4.021   1.897   0.171
10177SOL    HW132490   4.070   1.981   0.150
10177SOL    HW232491   4.083   1.832   0.216
10178SOL     OW32492   4.659   2.098   0.480
10178SOL    HW132493   4.611   2.139   0.402
10178SOL    HW232494   4.758   2.096   0.461
10179SOL     OW32495   4.800   2.545   1.464
10179SOL    HW132496   4.720   2.484   1.467
10179SOL    HW232497   4.881   2.492   1.440
10180SOL     OW32498   4.951   3.432   0.793
10180SOL    HW132499   4.972   3.506   0.728
10180SOL    HW232500   5.019   3.432   0.866
10181SOL     OW32501   4.183   3.014   0.741
10181SOL    HW132502   4.112   2.987   0.806
10181SOL    HW232503   4.157   2.986   0.648
10182SOL     OW32504   4.995   3.659   0.591
10182SOL    HW132505   5.039   3.723   0.527
10182SOL    HW232506   4.945   3.711   0.661
10183SOL     OW32507   4.756   2.411   0.016
10183SOL    HW132508   4.715   2.493  -0.023
10183SOL    HW232509   4.820   2.437   0.089
10184SOL     OW32510   3.802   2.418   1.386
10184SOL    HW132511   3.894   2.417   1.345
10184SOL    HW232512   3.796   2.492   1.453
10185SOL     OW32513   4.285   2.084   1.147
10185SOL    HW132514   4.323   2.000   1.184
10185SOL    HW232515   4.197   2.103   1.191
10186SOL     OW32516   4.590   2.316   0.642
10186SOL    HW132517   4.558   2.388   0.580
10186SOL    HW232518   4.614   2.235   0.589
10187SOL     OW32519   4.741   1.901   0.753
10187SOL    HW132520   4.669   1.906   0.684
10187SOL    HW232521   4.717   1.832   0.822
10188SOL     OW32522   5.153   3.035   0.867
10188SOL    HW132523   5.098   2.951   0.860
10188SOL    HW232524   5.179   3.064   0.775
10189SOL     OW32525   5.190   2.452   0.992
10189SOL    HW132526   5.160   2.357   0.999
10189SOL    HW232527   5.263   2.468   1.058
10190SOL     OW32528   5.581   2.695   0.377
10190SOL    HW132529   5.623   2.631   0.441
10190SOL    HW232530   5.543   2.644   0.299
10191SOL     OW32531   4.212   3.247   0.174
10191SOL    HW132532   4.125   3.232   0.221
10191SOL    HW232533   4.195   3.273   0.079
10192SOL     OW32534   5.388   3.142   0.657
10192SOL    HW132535   5.487   3.150   0.671
10192SOL    HW232536   5.343   3.226   0.688
10193SOL     OW32537   5.114   2.437   0.078
10193SOL    HW132538   5.060   2.416   0.159
10193SOL    HW232539   5.205   2.396   0.087
10194SOL     OW32540   4.251   2.118   0.328
10194SOL    HW132541   4.278   2.059   0.253
10194SOL    HW232542   4.251   2.213   0.297
10195SOL     OW32543   5.478   3.085   1.588
10195SOL    HW132544   5.569   3.046   1.575
10195SOL    HW232545   5.486   3.181   1.612
10196SOL     OW32546   4.788   3.209   1.340
10196SOL    HW132547   4.708   3.186   1.395
10196SOL    HW232548   4.871   3.183   1.389
10197SOL     OW32549   5.316   3.491   1.625
10197SOL    HW132550   5.343   3.525   1.535
10197SOL    HW232551   5.395   3.453   1.671
10198SOL     OW32552   4.835   3.057   1.100
10198SOL    HW132553   4.795   3.101   1.181
10198SOL    HW232554   4.794   3.094   1.017
10199SOL     OW32555   5.362   2.961   1.079
10199SOL    HW132556   5.367   3.042   1.138
10199SOL    HW232557   5.276   2.963   1.028
10200SOL     OW32558   4.639   1.951   1.402
10200SOL    HW132559   4.664   1.931   1.307
10200SOL    HW232560   4.711   2.007   1.444
10201SOL     OW32561   4.704   2.978   1.719
10201SOL    HW132562   4.605   2.984   1.729
10201SOL    HW232563   4.727   2.898   1.663
10202SOL     OW32564   4.429   2.912   0.368
10202SOL    HW132565   4.415   2.919   0.467
10202SOL    HW232566   4.513   2.861   0.350
10203SOL     OW32567   4.134   2.675   1.251
10203SOL    HW132568   4.220   2.687   1.301
10203SOL    HW232569   4.092   2.588   1.278
10204SOL     OW32570   4.998   2.248   1.262
10204SOL    HW132571   5.019   2.322   1.326
10204SOL    HW232572   4.909   2.265   1.219
10205SOL     OW32573   3.788   3.426   1.331
10205SOL    HW132574   3.742   3.508   1.297
10205SOL    HW232575   3.886   3.445   1.340
10206SOL     OW32576   4.091   2.962   0.501
10206SOL    HW132577   4.084   3.045   0.445
10206SOL    HW232578   4.095   2.882   0.441
10207SOL     OW32579   4.290   2.399   0.865
10207SOL    HW132580   4.302   2.465   0.791
10207SOL    HW232581   4.336   2.433   0.948
10208SOL     OW32582   4.976   3.210   0.388
10208SOL    HW132583   5.026   3.287   0.428
10208SOL    HW232584   4.881   3.212   0.420
10209SOL     OW32585   4.996   3.307   1.142
10209SOL    HW132586   5.043   3.320   1.229
10209SOL    HW232587   4.930   3.233   1.151
10210SOL     OW32588   5.306   2.501   0.472
10210SOL    HW132589   5.275   2.562   0.545
10210SOL    HW232590   5.356   2.553   0.403
10211SOL     OW32591   4.078   3.372   1.329
10211SOL    HW132592   4.057   3.328   1.242
10211SOL    HW232593   4.175   3.398   1.332
10212SOL     OW32594   4.126   2.613   1.598
10212SOL    HW132595   4.194   2.668   1.551
10212SOL    HW232596   4.166   2.525   1.625
10213SOL     OW32597   5.311   2.641   1.670
10213SOL    HW132598   5.219   2.679   1.665
10213SOL    HW232599   5.371   2.688   1.605
10214SOL     OW32600   4.737   1.967   1.770
10214SOL    HW132601   4.743   2.052   1.718
10214SOL    HW232602   4.769   1.891   1.713
10215SOL     OW32603   4.228   1.912   1.740
10215SOL    HW132604   4.186   1.855   1.670
10215SOL    HW232605   4.162   1.981   1.772
10216SOL     OW32606   4.297   2.732   1.029
10216SOL    HW132607   4.341   2.821   1.020
10216SOL    HW232608   4.234   2.732   1.106
10217SOL     OW32609   5.084   2.724   1.045
10217SOL    HW132610   5.009   2.724   0.979
10217SOL    HW232611   5.121   2.632   1.054
10218SOL     OW32612   4.933   2.387   0.275
10218SOL    HW132613   4.946   2.303   0.329
10218SOL    HW232614   4.904   2.461   0.335
10219SOL     OW32615   4.031   2.075   1.231
10219SOL    HW132616   4.008   2.112   1.321
10219SOL    HW232617   4.001   1.980   1.225
10220SOL     OW32618   3.761   3.172   1.282
10220SOL    HW132619   3.814   3.123   1.350
10220SOL    HW232620   3.783   3.270   1.287
10221SOL     OW32621   4.456   2.496   1.064
10221SOL    HW132622   4.515   2.470   0.988
10221SOL    HW232623   4.428   2.592   1.053
10222SOL     OW32624   5.452   2.797   1.854
10222SOL    HW132625   5.406   2.790   1.765
10222SOL    HW232626   5.390   2.841   1.920
10223SOL     OW32627   4.031   1.925   0.618
10223SOL    HW132628   4.020   2.019   0.651
10223SOL    HW232629   4.026   1.862   0.695
10224SOL     OW32630   5.346   2.229   0.374
10224SOL    HW132631   5.348   2.153   0.438
10224SOL    HW232632   5.298   2.306   0.414
10225SOL     OW32633   4.747   2.628   0.966
10225SOL    HW132634   4.762   2.649   1.062
10225SOL    HW232635   4.717   2.533   0.957
10226SOL     OW32636   4.704   3.435   1.700
10226SOL    HW132637   4.684   3.479   1.612
10226SOL    HW232638   4.743   3.344   1.684
10227SOL     OW32639   5.583   3.380   1.605
10227SOL    HW132640   5.597   3.407   1.510
10227SOL    HW232641   5.666   3.402   1.658
10228SOL     OW32642   4.074   2.760   1.804
10228SOL    HW132643   4.150   2.804   1.852
10228SOL    HW232644   4.109   2.713   1.722
10229SOL     OW32645   5.264   2.136   0.125
10229SOL    HW132646   5.203   2.061   0.148
10229SOL    HW232647   5.286   2.188   0.208
10230SOL     OW32648   5.027   2.700   0.042
10230SOL    HW132649   5.061   2.607   0.057
10230SOL    HW232650   5.045   2.727  -0.053
10231SOL     OW32651   4.792   3.195   0.849
10231SOL    HW132652   4.799   3.111   0.794
10231SOL    HW232653   4.854   3.264   0.813
10232SOL     OW32654   4.043   2.672   0.949
10232SOL    HW132655   4.136   2.708   0.954
10232SOL    HW232656   4.037   2.587   1.001
10233SOL     OW32657   4.063   2.371   1.006
10233SOL    HW132658   4.011   2.288   0.989
10233SOL    HW232659   4.140   2.376   0.942
10234SOL     OW32660   4.235   2.277   1.808
10234SOL    HW132661   4.217   2.322   1.896
10234SOL    HW232662   4.277   2.342   1.745
10235SOL     OW32663   4.862   2.242   1.678
10235SOL    HW132664   4.817   2.305   1.742
10235SOL    HW232665   4.955   2.273   1.661
10236SOL     OW32666   4.884   2.069   1.477
10236SOL    HW132667   4.884   2.133   1.554
10236SOL    HW232668   4.912   2.117   1.394
10237SOL     OW32669   3.732   3.188   0.200
10237SOL    HW132670   3.639   3.209   0.169
10237SOL    HW232671   3.742   3.089   0.213
10238SOL     OW32672   3.812   3.663   0.927
10238SOL    HW132673   3.770   3.577   0.900
10238SOL    HW232674   3.906   3.666   0.893
10239SOL     OW32675   4.228   3.430   0.910
10239SOL    HW132676   4.294   3.504   0.919
10239SOL    HW232677   4.272   3.351   0.868
10240SOL     OW32678   4.726   2.658   1.238
10240SOL    HW132679   4.767   2.626   1.324
10240SOL    HW232680   4.630   2.631   1.235
10241SOL     OW32681   3.764   2.406   1.114
10241SOL    HW132682   3.849   2.373   1.073
10241SOL    HW232683   3.777   2.421   1.212
10242SOL     OW32684   3.913   2.382   1.722
10242SOL    HW132685   3.972   2.342   1.652
10242SOL    HW232686   3.855   2.453   1.681
10243SOL     OW32687   5.093   2.812   1.660
10243SOL    HW132688   5.132   2.901   1.680
10243SOL    HW232689   5.103   2.792   1.563
10244SOL     OW32690   4.539   2.434   0.325
10244SOL    HW132691   4.546   2.345   0.279
10244SOL    HW232692   4.445   2.468   0.317
10245SOL     OW32693   5.381   2.466   1.206
10245SOL    HW132694   5.343   2.397   1.268
10245SOL    HW232695   5.463   2.430   1.162
10246SOL     OW32696   3.976   3.426   1.744
10246SOL    HW132697   3.946   3.483   1.820
10246SOL    HW232698   3.969   3.329   1.770
10247SOL     OW32699   4.395   2.326   1.269
10247SOL    HW132700   4.361   2.237   1.239
10247SOL    HW232701   4.421   2.380   1.189
10248SOL     OW32702   4.654   3.540   1.465
10248SOL    HW132703   4.630   3.522   1.370
10248SOL    HW232704   4.684   3.634   1.475
10249SOL     OW32705   4.197   2.362   0.191
10249SOL    HW132706   4.258   2.442   0.195
10249SOL    HW232707   4.102   2.393   0.198
10250SOL     OW32708   3.883   2.999   1.466
10250SOL    HW132709   3.905   2.938   1.542
10250SOL    HW232710   3.893   2.950   1.380
10251SOL     OW32711   5.071   2.921   1.234
10251SOL    HW132712   5.095   2.858   1.160
10251SOL    HW232713   4.981   2.961   1.216
10252SOL     OW32714   5.026   2.717   0.309
10252SOL    HW132715   4.940   2.686   0.351
10252SOL    HW232716   5.022   2.703   0.210
10253SOL     OW32717   5.483   3.609   1.154
10253SOL    HW132718   5.544   3.639   1.081
10253SOL    HW232719   5.445   3.520   1.132
10254SOL     OW32720   4.976   3.593   1.128
10254SOL    HW132721   5.060   3.598   1.074
10254SOL    HW232722   4.953   3.497   1.146
10255SOL     OW32723   3.807   3.120   1.022
10255SOL    HW132724   3.802   3.119   1.122
10255SOL    HW232725   3.724   3.079   0.984
10256SOL     OW32726   4.412   3.524   1.716
10256SOL    HW132727   4.356   3.605   1.725
10256SOL    HW232728   4.464   3.528   1.630
10257SOL     OW32729   4.627   1.948   0.133
10257SOL    HW132730   4.678   1.949   0.047
10257SOL    HW232731   4.683   1.906   0.204
10258SOL     OW32732   5.450   1.997   0.523
10258SOL    HW132733   5.523   1.980   0.456
10258SOL    HW232734   5.419   1.910   0.561
10259SOL     OW32735   5.112   3.435   0.477
10259SOL    HW132736   5.179   3.447   0.403
10259SOL    HW232737   5.072   3.524   0.500
10260SOL     OW32738   3.854   3.656   1.851
10260SOL    HW132739   3.813   3.582   1.904
10260SOL    HW232740   3.918   3.707   1.909
10261SOL     OW32741   5.004   2.789   0.672
10261SOL    HW132742   5.064   2.708   0.674
10261SOL    HW232743   5.044   2.858   0.612
10262SOL     OW32744   4.554   3.135   1.422
10262SOL    HW132745   4.549   3.168   1.517
10262SOL    HW232746   4.468   3.154   1.376
10263SOL     OW32747   4.396   3.478   0.154
10263SOL    HW132748   4.405   3.488   0.055
10263SOL    HW232749   4.356   3.389   0.175
10264SOL     OW32750   5.374   3.582   1.394
10264SOL    HW132751   5.427   3.592   1.310
10264SOL    HW232752   5.347   3.672   1.428
10265SOL     OW32753   5.565   2.037   0.963
10265SOL    HW132754   5.604   1.952   0.927
10265SOL    HW232755   5.467   2.039   0.944
10266SOL     OW32756   3.987   2.188   0.720
10266SOL    HW132757   3.908   2.239   0.686
10266SOL    HW232758   3.978   2.173   0.818
10267SOL     OW32759   4.918   3.474   0.031
10267SOL    HW132760   4.924   3.381   0.068
10267SOL    HW232761   4.859   3.474  -0.049
10268SOL     OW32762   4.546   2.864   1.372
10268SOL    HW132763   4.586   2.863   1.280
10268SOL    HW232764   4.556   2.956   1.412
10269SOL     OW32765   4.640   2.772   0.291
10269SOL    HW132766   4.703   2.810   0.223
10269SOL    HW232767   4.680   2.689   0.330
10270SOL     OW32768   5.228   3.469   0.044
10270SOL    HW132769   5.136   3.506   0.051
10270SOL    HW232770   5.266   3.489  -0.046
10271SOL     OW32771   4.096   3.150   1.490
10271SOL    HW132772   4.083   3.243   1.456
10271SOL    HW232773   4.012   3.098   1.477
10272SOL     OW32774   5.338   3.154   1.289
10272SOL    HW132775   5.398   3.157   1.369
10272SOL    HW232776   5.263   3.218   1.302
10273SOL     OW32777   4.763   2.960   0.696
10273SOL    HW132778   4.693   2.913   0.750
10273SOL    HW232779   4.822   2.892   0.653
10274SOL     OW32780   4.738   2.098   0.971
10274SOL    HW132781   4.730   2.062   0.878
10274SOL    HW232782   4.736   2.022   1.036
10275SOL     OW32783   4.314   3.349   0.491
10275SOL    HW132784   4.356   3.291   0.421
10275SOL    HW232785   4.270   3.428   0.447
10276SOL     OW32786   5.433   2.247   1.381
10276SOL    HW132787   5.506   2.316   1.385
10276SOL    HW232788   5.461   2.172   1.322
10277SOL     OW32789   3.979   3.210   0.290
10277SOL    HW132790   3.883   3.211   0.263
10277SOL    HW232791   3.991   3.263   0.374
10278SOL     OW32792   3.829   2.875   1.726
10278SOL    HW132793   3.752   2.842   1.780
10278SOL    HW232794   3.914   2.845   1.768
10279SOL     OW32795   4.396   2.065   1.489
10279SOL    HW132796   4.486   2.049   1.449
10279SOL    HW232797   4.404   2.070   1.588
10280SOL     OW32798   5.164   2.718   1.398
10280SOL    HW132799   5.107   2.770   1.335
10280SOL    HW232800   5.260   2.730   1.374
10281SOL     OW32801   3.796   2.028   0.318
10281SOL    HW132802   3.779   2.111   0.264
10281SOL    HW232803   3.886   1.991   0.296
10282SOL     OW32804   4.907   3.197   0.119
10282SOL    HW132805   4.808   3.186   0.121
10282SOL    HW232806   4.941   3.212   0.212
10283SOL     OW32807   4.337   2.704   1.431
10283SOL    HW132808   4.393   2.785   1.414
10283SOL    HW232809   4.396   2.624   1.434
10284SOL     OW32810   5.217   3.629   0.959
10284SOL    HW132811   5.250   3.693   0.890
10284SOL    HW232812   5.283   3.623   1.034
10285SOL     OW32813   4.440   2.427   1.708
10285SOL    HW132814   4.459   2.492   1.782
10285SOL    HW232815   4.500   2.347   1.717
10286SOL     OW32816   5.174   3.082   1.633
10286SOL    HW132817   5.165   3.072   1.732
10286SOL    HW232818   5.270   3.075   1.607
10287SOL     OW32819   4.114   3.603   1.560
10287SOL    HW132820   4.023   3.644   1.558
10287SOL    HW232821   4.107   3.509   1.592
10288SOL     OW32822   5.398   2.745   1.254
10288SOL    HW132823   5.371   2.656   1.217
10288SOL    HW232824   5.399   2.813   1.181
10289SOL     OW32825   4.949   2.187   0.449
10289SOL    HW132826   5.014   2.113   0.438
10289SOL    HW232827   4.969   2.237   0.533
10290SOL     OW32828   4.318   2.607   0.652
10290SOL    HW132829   4.368   2.692   0.633
10290SOL    HW232830   4.230   2.609   0.604
10291SOL     OW32831   5.501   2.204   1.642
10291SOL    HW132832   5.484   2.235   1.548
10291SOL    HW232833   5.417   2.167   1.680
10292SOL     OW32834   5.454   2.796   1.517
10292SOL    HW132835   5.492   2.887   1.532
10292SOL    HW232836   5.446   2.779   1.418
10293SOL     OW32837   4.583   3.236   0.016
10293SOL    HW132838   4.537   3.251   0.104
10293SOL    HW232839   4.627   3.321  -0.014
10294SOL     OW32840   5.132   3.713   1.720
10294SOL    HW132841   5.036   3.702   1.693
10294SOL    HW232842   5.188   3.646   1.672
10295SOL     OW32843   4.583   2.818   0.861
10295SOL    HW132844   4.637   2.749   0.909
10295SOL    HW232845   4.551   2.887   0.927
10296SOL     OW32846   4.807   2.846   0.087
10296SOL    HW132847   4.784   2.899   0.005
10296SOL    HW232848   4.888   2.790   0.068
10297SOL     OW32849   5.585   3.431   0.851
10297SOL    HW132850   5.514   3.419   0.781
10297SOL    HW232851   5.586   3.352   0.911
10298SOL     OW32852   3.945   3.176   1.844
10298SOL    HW132853   3.880   3.103   1.823
10298SOL    HW232854   3.949   3.190   1.942
10299SOL     OW32855   3.803   3.102   0.653
10299SOL    HW132856   3.802   3.055   0.741
10299SOL    HW232857   3.885   3.074   0.602
10300SOL     OW32858   4.396   3.253   1.624
10300SOL    HW132859   4.318   3.203   1.662
10300SOL    HW232860   4.393   3.348   1.655
10301SOL     OW32861   5.548   2.054   1.227
10301SOL    HW132862   5.544   1.964   1.271
10301SOL    HW232863   5.551   2.043   1.128
10302SOL     OW32864   4.152   2.286   0.520
10302SOL    HW132865   4.182   2.214   0.458
10302SOL    HW232866   4.113   2.246   0.603
10303SOL     OW32867   5.429   3.349   1.104
10303SOL    HW132868   5.336   3.324   1.077
10303SOL    HW232869   5.455   3.299   1.186
10304SOL     OW32870   4.041   2.409   1.280
10304SOL    HW132871   4.079   2.350   1.352
10304SOL    HW232872   4.081   2.383   1.192
10305SOL     OW32873   4.536   3.448   0.687
10305SOL    HW132874   4.568   3.458   0.593
10305SOL    HW232875   4.457   3.386   0.689
10306SOL     OW32876   5.148   2.076   1.112
10306SOL    HW132877   5.200   2.011   1.167
10306SOL    HW232878   5.099   2.139   1.173
10307SOL     OW32879   4.725   1.896   1.154
10307SOL    HW132880   4.662   1.824   1.123
10307SOL    HW232881   4.818   1.860   1.154
10308SOL     OW32882   4.494   3.192   0.301
10308SOL    HW132883   4.448   3.105   0.318
10308SOL    HW232884   4.585   3.189   0.342
10309SOL     OW32885   4.342   3.429   1.284
10309SOL    HW132886   4.337   3.511   1.341
10309SOL    HW232887   4.431   3.426   1.239
10310SOL     OW32888   5.024   2.315   0.691
10310SOL    HW132889   4.965   2.395   0.695
10310SOL    HW232890   5.039   2.280   0.784
10311SOL     OW32891   5.317   2.083   0.882
10311SOL    HW132892   5.233   2.082   0.936
10311SOL    HW232893   5.319   2.166   0.826
10312SOL     OW32894   3.763   2.939   0.300
10312SOL    HW132895   3.862   2.928   0.291
10312SOL    HW232896   3.723   2.853   0.332
10313SOL     OW32897   4.599   3.508   0.337
10313SOL    HW132898   4.522   3.473   0.283
10313SOL    HW232899   4.567   3.579   0.399
10314SOL     OW32900   3.954   2.490   1.975
10314SOL    HW132901   3.861   2.488   2.012
10314SOL    HW232902   3.955   2.451   1.883
10315SOL     OW32903   3.949   2.137   2.858
10315SOL    HW132904   3.984   2.120   2.950
10315SOL    HW232905   3.861   2.092   2.846
10316SOL     OW32906   3.743   2.230   2.509
10316SOL    HW132907   3.661   2.273   2.548
10316SOL    HW232908   3.715   2.157   2.446
10317SOL     OW32909   4.293   3.137   3.027
10317SOL    HW132910   4.200   3.130   2.990
10317SOL    HW232911   4.304   3.226   3.071
10318SOL     OW32912   5.279   3.373   2.565
10318SOL    HW132913   5.222   3.357   2.646
10318SOL    HW232914   5.220   3.383   2.485
10319SOL     OW32915   5.467   2.480   2.718
10319SOL    HW132916   5.500   2.574   2.718
10319SOL    HW232917   5.518   2.426   2.784
10320SOL     OW32918   4.859   2.565   2.579
10320SOL    HW132919   4.916   2.643   2.554
10320SOL    HW232920   4.799   2.591   2.655
10321SOL     OW32921   5.479   2.469   2.093
10321SOL    HW132922   5.467   2.456   1.994
10321SOL    HW232923   5.449   2.388   2.142
10322SOL     OW32924   4.492   3.006   2.885
10322SOL    HW132925   4.414   3.023   2.945
10322SOL    HW232926   4.526   3.093   2.849
10323SOL     OW32927   4.574   2.660   3.685
10323SOL    HW132928   4.570   2.736   3.750
10323SOL    HW232929   4.596   2.696   3.594
10324SOL     OW32930   4.409   2.874   2.527
10324SOL    HW132931   4.478   2.858   2.597
10324SOL    HW232932   4.336   2.931   2.565
10325SOL     OW32933   4.059   3.297   2.923
10325SOL    HW132934   3.981   3.266   2.870
10325SOL    HW232935   4.117   3.355   2.866
10326SOL     OW32936   4.162   2.254   3.361
10326SOL    HW132937   4.244   2.198   3.370
10326SOL    HW232938   4.081   2.196   3.365
10327SOL     OW32939   5.327   2.309   2.599
10327SOL    HW132940   5.253   2.355   2.549
10327SOL    HW232941   5.378   2.377   2.652
10328SOL     OW32942   3.955   3.575   2.345
10328SOL    HW132943   3.989   3.652   2.399
10328SOL    HW232944   3.999   3.575   2.255
10329SOL     OW32945   4.851   3.203   3.552
10329SOL    HW132946   4.898   3.203   3.640
10329SOL    HW232947   4.803   3.116   3.541
10330SOL     OW32948   3.954   3.296   2.400
10330SOL    HW132949   3.928   3.392   2.400
10330SOL    HW232950   3.883   3.242   2.445
10331SOL     OW32951   3.964   2.953   2.748
10331SOL    HW132952   3.978   2.869   2.800
10331SOL    HW232953   3.909   3.017   2.803
10332SOL     OW32954   4.344   3.648   3.301
10332SOL    HW132955   4.252   3.631   3.336
10332SOL    HW232956   4.372   3.740   3.327
10333SOL     OW32957   4.330   2.826   1.985
10333SOL    HW132958   4.337   2.910   1.931
10333SOL    HW232959   4.376   2.839   2.073
10334SOL     OW32960   5.318   1.976   3.342
10334SOL    HW132961   5.300   2.043   3.270
10334SOL    HW232962   5.315   2.022   3.431
10335SOL     OW32963   3.846   2.505   2.425
10335SOL    HW132964   3.801   2.417   2.442
10335SOL    HW232965   3.845   2.559   2.509
10336SOL     OW32966   5.566   3.629   2.221
10336SOL    HW132967   5.620   3.600   2.301
10336SOL    HW232968   5.596   3.719   2.192
10337SOL     OW32969   3.751   3.458   1.979
10337SOL    HW132970   3.732   3.362   2.000
10337SOL    HW232971   3.718   3.516   2.054
10338SOL     OW32972   5.413   2.784   2.474
10338SOL    HW132973   5.508   2.755   2.482
10338SOL    HW232974   5.405   2.849   2.399
10339SOL     OW32975   5.365   2.970   2.294
10339SOL    HW132976   5.451   2.972   2.242
10339SOL    HW232977   5.379   3.017   2.382
10340SOL     OW32978   3.837   2.599   3.459
10340SOL    HW132979   3.925   2.586   3.504
10340SOL    HW232980   3.824   2.696   3.437
10341SOL     OW32981   4.337   3.227   2.588
10341SOL    HW132982   4.288   3.140   2.597
10341SOL    HW232983   4.314   3.270   2.501
10342SOL     OW32984   4.533   1.866   2.364
10342SOL    HW132985   4.573   1.957   2.355
10342SOL    HW232986   4.433   1.874   2.370
10343SOL     OW32987   3.921   2.838   3.126
10343SOL    HW132988   4.010   2.793   3.112
10343SOL    HW232989   3.848   2.773   3.107
10344SOL     OW32990   5.249   2.861   2.052
10344SOL    HW132991   5.186   2.785   2.065
10344SOL    HW232992   5.297   2.879   2.138
10345SOL     OW32993   4.041   2.113   3.663
10345SOL    HW132994   4.112   2.184   3.669
10345SOL    HW232995   3.953   2.152   3.691
10346SOL     OW32996   5.190   3.279   2.815
10346SOL    HW132997   5.131   3.285   2.895
10346SOL    HW232998   5.175   3.191   2.769
10347SOL     OW32999   5.391   3.576   2.434
10347SOL    HW133000   5.350   3.553   2.346
10347SOL    HW233001   5.373   3.502   2.499
10348SOL     OW33002   4.322   2.591   2.132
10348SOL    HW133003   4.346   2.660   2.064
10348SOL    HW233004   4.244   2.624   2.186
10349SOL     OW33005   5.005   2.207   2.806
10349SOL    HW133006   4.919   2.157   2.793
10349SOL    HW233007   5.067   2.153   2.862
10350SOL     OW33008   5.300   3.524   2.169
10350SOL    HW133009   5.389   3.570   2.172
10350SOL    HW233010   5.279   3.500   2.074
10351SOL     OW33011   4.531   2.467   3.327
10351SOL    HW133012   4.484   2.464   3.416
10351SOL    HW233013   4.480   2.412   3.261
10352SOL     OW33014   5.118   2.331   3.536
10352SOL    HW133015   5.098   2.374   3.624
10352SOL    HW233016   5.196   2.269   3.545
10353SOL     OW33017   4.697   2.752   3.434
10353SOL    HW133018   4.743   2.668   3.405
10353SOL    HW233019   4.641   2.786   3.359
10354SOL     OW33020   4.715   2.272   3.104
10354SOL    HW133021   4.638   2.306   3.158
10354SOL    HW233022   4.681   2.221   3.025
10355SOL     OW33023   4.765   2.563   2.291
10355SOL    HW133024   4.791   2.559   2.387
10355SOL    HW233025   4.680   2.512   2.277
10356SOL     OW33026   3.800   2.673   2.651
10356SOL    HW133027   3.899   2.661   2.660
10356SOL    HW233028   3.776   2.768   2.672
10357SOL     OW33029   3.854   3.683   3.433
10357SOL    HW133030   3.844   3.668   3.532
10357SOL    HW233031   3.768   3.719   3.397
10358SOL     OW33032   4.589   2.210   2.057
10358SOL    HW133033   4.648   2.273   2.008
10358SOL    HW233034   4.608   2.116   2.028
10359SOL     OW33035   5.443   2.447   3.693
10359SOL    HW133036   5.417   2.536   3.657
10359SOL    HW233037   5.441   2.379   3.620
10360SOL     OW33038   5.086   3.006   2.407
10360SOL    HW133039   5.169   2.977   2.359
10360SOL    HW233040   5.037   3.073   2.351
10361SOL     OW33041   4.274   2.058   2.747
10361SOL    HW133042   4.269   2.053   2.847
10361SOL    HW233043   4.276   2.154   2.718
10362SOL     OW33044   4.075   3.663   2.715
10362SOL    HW133045   4.125   3.577   2.721
10362SOL    HW233046   4.140   3.740   2.712
10363SOL     OW33047   5.519   2.928   2.735
10363SOL    HW133048   5.457   2.913   2.659
10363SOL    HW233049   5.467   2.939   2.820
10364SOL     OW33050   4.951   3.412   3.368
10364SOL    HW133051   4.957   3.335   3.432
10364SOL    HW233052   4.899   3.386   3.288
10365SOL     OW33053   4.045   2.805   2.104
10365SOL    HW133054   4.127   2.844   2.062
10365SOL    HW233055   4.018   2.723   2.055
10366SOL     OW33056   5.182   2.597   2.590
10366SOL    HW133057   5.177   2.532   2.665
10366SOL    HW233058   5.262   2.656   2.603
10367SOL     OW33059   4.185   3.128   3.589
10367SOL    HW133060   4.135   3.129   3.503
10367SOL    HW233061   4.122   3.110   3.665
10368SOL     OW33062   4.835   3.638   2.099
10368SOL    HW133063   4.775   3.576   2.149
10368SOL    HW233064   4.866   3.594   2.014
10369SOL     OW33065   3.926   2.147   3.360
10369SOL    HW133066   3.846   2.207   3.347
10369SOL    HW233067   3.916   2.098   3.446
10370SOL     OW33068   5.356   3.239   1.943
10370SOL    HW133069   5.324   3.333   1.933
10370SOL    HW233070   5.280   3.176   1.931
10371SOL     OW33071   4.188   3.605   2.185
10371SOL    HW133072   4.221   3.644   2.271
10371SOL    HW233073   4.264   3.598   2.120
10372SOL     OW33074   5.124   1.969   2.288
10372SOL    HW133075   5.100   1.932   2.198
10372SOL    HW233076   5.223   1.985   2.292
10373SOL     OW33077   3.973   3.647   3.103
10373SOL    HW133078   4.030   3.582   3.153
10373SOL    HW233079   3.957   3.614   3.010
10374SOL     OW33080   4.106   2.562   2.342
10374SOL    HW133081   4.151   2.472   2.339
10374SOL    HW233082   4.012   2.551   2.375
10375SOL     OW33083   5.271   2.084   3.591
10375SOL    HW133084   5.266   2.121   3.683
10375SOL    HW233085   5.199   2.015   3.579
10376SOL     OW33086   4.338   1.984   1.979
10376SOL    HW133087   4.436   1.962   1.986
10376SOL    HW233088   4.307   1.967   1.886
10377SOL     OW33089   4.505   2.126   3.611
10377SOL    HW133090   4.572   2.065   3.654
10377SOL    HW233091   4.432   2.145   3.676
10378SOL     OW33092   4.612   3.376   3.057
10378SOL    HW133093   4.589   3.351   2.963
10378SOL    HW233094   4.673   3.307   3.096
10379SOL     OW33095   5.075   2.452   3.295
10379SOL    HW133096   5.103   2.409   3.380
10379SOL    HW233097   5.100   2.548   3.296
10380SOL     OW33098   4.527   3.264   2.786
10380SOL    HW133099   4.617   3.278   2.744
10380SOL    HW233100   4.456   3.266   2.715
10381SOL     OW33101   4.646   2.365   2.761
10381SOL    HW133102   4.621   2.356   2.665
10381SOL    HW233103   4.694   2.283   2.792
10382SOL     OW33104   4.263   1.926   2.374
10382SOL    HW133105   4.182   1.927   2.432
10382SOL    HW233106   4.266   2.009   2.319
10383SOL     OW33107   5.158   3.050   1.903
10383SOL    HW133108   5.190   2.974   1.960
10383SOL    HW233109   5.066   3.077   1.933
10384SOL     OW33110   4.021   1.897   2.033
10384SOL    HW133111   4.070   1.981   2.012
10384SOL    HW233112   4.083   1.832   2.078
10385SOL     OW33113   4.659   2.098   2.342
10385SOL    HW133114   4.611   2.139   2.264
10385SOL    HW233115   4.758   2.096   2.323
10386SOL     OW33116   4.800   2.545   3.326
10386SOL    HW133117   4.720   2.484   3.329
10386SOL    HW233118   4.881   2.492   3.302
10387SOL     OW33119   4.951   3.432   2.655
10387SOL    HW133120   4.972   3.506   2.590
10387SOL    HW233121   5.019   3.432   2.728
10388SOL     OW33122   4.183   3.014   2.603
10388SOL    HW133123   4.112   2.987   2.668
10388SOL    HW233124   4.157   2.986   2.510
10389SOL     OW33125   4.995   3.659   2.453
10389SOL    HW133126   5.039   3.723   2.389
10389SOL    HW233127   4.945   3.711   2.523
10390SOL     OW33128   4.756   2.411   1.878
10390SOL    HW133129   4.715   2.493   1.839
10390SOL    HW233130   4.820   2.437   1.951
10391SOL     OW33131   3.802   2.418   3.248
10391SOL    HW133132   3.894   2.417   3.207
10391SOL    HW233133   3.796   2.492   3.315
10392SOL     OW33134   4.285   2.084   3.009
10392SOL    HW133135   4.323   2.000   3.046
10392SOL    HW233136   4.197   2.103   3.053
10393SOL     OW33137   4.590   2.316   2.504
10393SOL    HW133138   4.558   2.388   2.442
10393SOL    HW233139   4.614   2.235   2.451
10394SOL     OW33140   4.741   1.901   2.615
10394SOL    HW133141   4.669   1.906   2.546
10394SOL    HW233142   4.717   1.832   2.684
10395SOL     OW33143   5.153   3.035   2.729
10395SOL    HW133144   5.098   2.951   2.722
10395SOL    HW233145   5.179   3.064   2.637
10396SOL     OW33146   5.190   2.452   2.854
10396SOL    HW133147   5.160   2.357   2.861
10396SOL    HW233148   5.263   2.468   2.920
10397SOL     OW33149   5.581   2.695   2.239
10397SOL    HW133150   5.623   2.631   2.303
10397SOL    HW233151   5.543   2.644   2.161
10398SOL     OW33152   4.212   3.247   2.036
10398SOL    HW133153   4.125   3.232   2.083
10398SOL    HW233154   4.195   3.273   1.941
10399SOL     OW33155   5.388   3.142   2.519
10399SOL    HW133156   5.487   3.150   2.533
10399SOL    HW233157   5.343   3.226   2.550
10400SOL     OW33158   5.114   2.437   1.940
10400SOL    HW133159   5.060   2.416   2.021
10400SOL    HW233160   5.205   2.396   1.949
10401SOL     OW33161   4.251   2.118   2.190
10401SOL    HW133162   4.278   2.059   2.115
10401SOL    HW233163   4.251   2.213   2.159
10402SOL     OW33164   5.478   3.085   3.450
10402SOL    HW133165   5.569   3.046   3.437
10402SOL    HW233166   5.486   3.181   3.474
10403SOL     OW33167   4.835   3.057   2.962
10403SOL    HW133168   4.795   3.101   3.043
10403SOL    HW233169   4.794   3.094   2.879
10404SOL     OW33170   5.362   2.961   2.941
10404SOL    HW133171   5.367   3.042   3.000
10404SOL    HW233172   5.276   2.963   2.890
10405SOL     OW33173   4.639   1.951   3.264
10405SOL    HW133174   4.664   1.931   3.169
10405SOL    HW233175   4.711   2.007   3.306
10406SOL     OW33176   4.704   2.978   3.581
10406SOL    HW133177   4.605   2.984   3.591
10406SOL    HW233178   4.727   2.898   3.525
10407SOL     OW33179   4.429   2.912   2.230
10407SOL    HW133180   4.415   2.919   2.329
10407SOL    HW233181   4.513   2.861   2.212
10408SOL     OW33182   4.134   2.675   3.113
10408SOL    HW133183   4.220   2.687   3.163
10408SOL    HW233184   4.092   2.588   3.140
10409SOL     OW33185   4.998   2.248   3.124
10409SOL    HW133186   5.019   2.322   3.188
10409SOL    HW233187   4.909   2.265   3.081
10410SOL     OW33188   3.788   3.426   3.193
10410SOL    HW133189   3.742   3.508   3.159
10410SOL    HW233190   3.886   3.445   3.202
10411SOL     OW33191   4.091   2.962   2.363
10411SOL    HW133192   4.084   3.045   2.307
10411SOL    HW233193   4.095   2.882   2.303
10412SOL     OW33194   4.290   2.399   2.727
10412SOL    HW133195   4.302   2.465   2.653
10412SOL    HW233196   4.336   2.433   2.810
10413SOL     OW33197   4.976   3.210   2.250
10413SOL    HW133198   5.026   3.287   2.290
10413SOL    HW233199   4.881   3.212   2.282
10414SOL     OW33200   4.996   3.307   3.004
10414SOL    HW133201   5.043   3.320   3.091
10414SOL    HW233202   4.930   3.233   3.013
10415SOL     OW33203   5.306   2.501   2.334
10415SOL    HW133204   5.275   2.562   2.407
10415SOL    HW233205   5.356   2.553   2.265
10416SOL     OW33206   4.078   3.372   3.191
10416SOL    HW133207   4.057   3.328   3.104
10416SOL    HW233208   4.175   3.398   3.194
10417SOL     OW33209   4.126   2.613   3.460
10417SOL    HW133210   4.194   2.668   3.413
10417SOL    HW233211   4.166   2.525   3.487
10418SOL     OW33212   5.311   2.641   3.532
10418SOL    HW133213   5.219   2.679   3.527
10418SOL    HW233214   5.371   2.688   3.467
10419SOL     OW33215   4.737   1.967   3.632
10419SOL    HW133216   4.743   2.052   3.580
10419SOL    HW233217   4.769   1.891   3.575
10420SOL     OW33218   4.228   1.912   3.602
10420SOL    HW133219   4.186   1.855   3.532
10420SOL    HW233220   4.162   1.981   3.634
10421SOL     OW33221   4.297   2.732   2.891
10421SOL    HW133222   4.341   2.821   2.882
10421SOL    HW233223   4.234   2.732   2.968
10422SOL     OW33224   5.084   2.724   2.907
10422SOL    HW133225   5.009   2.724   2.841
10422SOL    HW233226   5.121   2.632   2.916
10423SOL     OW33227   4.933   2.387   2.137
10423SOL    HW133228   4.946   2.303   2.191
10423SOL    HW233229   4.904   2.461   2.197
10424SOL     OW33230   4.031   2.075   3.093
10424SOL    HW133231   4.008   2.112   3.183
10424SOL    HW233232   4.001   1.980   3.087
10425SOL     OW33233   3.761   3.172   3.144
10425SOL    HW133234   3.814   3.123   3.212
10425SOL    HW233235   3.783   3.270   3.149
10426SOL     OW33236   4.456   2.496   2.926
10426SOL    HW133237   4.515   2.470   2.850
10426SOL    HW233238   4.428   2.592   2.915
10427SOL     OW33239   5.452   2.797   3.716
10427SOL    HW133240   5.406   2.790   3.627
10427SOL    HW233241   5.390   2.841   3.782
10428SOL     OW33242   4.031   1.925   2.480
10428SOL    HW133243   4.020   2.019   2.513
10428SOL    HW233244   4.026   1.862   2.557
10429SOL     OW33245   5.346   2.229   2.236
10429SOL    HW133246   5.348   2.153   2.300
10429SOL    HW233247   5.298   2.306   2.276
10430SOL     OW33248   4.747   2.628   2.828
10430SOL    HW133249   4.762   2.649   2.924
10430SOL    HW233250   4.717   2.533   2.819
10431SOL     OW33251   4.074   2.760   3.666
10431SOL    HW133252   4.150   2.804   3.714
10431SOL    HW233253   4.109   2.713   3.584
10432SOL     OW33254   5.264   2.136   1.987
10432SOL    HW133255   5.203   2.061   2.010
10432SOL    HW233256   5.286   2.188   2.070
10433SOL     OW33257   5.027   2.700   1.904
10433SOL    HW133258   5.061   2.607   1.919
10433SOL    HW233259   5.045   2.727   1.809
10434SOL     OW33260   4.043   2.672   2.811
10434SOL    HW133261   4.136   2.708   2.816
10434SOL    HW233262   4.037   2.587   2.863
10435SOL     OW33263   4.063   2.371   2.868
10435SOL    HW133264   4.011   2.288   2.851
10435SOL    HW233265   4.140   2.376   2.804
10436SOL     OW33266   4.235   2.277   3.670
10436SOL    HW133267   4.217   2.322   3.758
10436SOL    HW233268   4.277   2.342   3.607
10437SOL     OW33269   4.862   2.242   3.540
10437SOL    HW133270   4.817   2.305   3.604
10437SOL    HW233271   4.955   2.273   3.523
10438SOL     OW33272   4.884   2.069   3.339
10438SOL    HW133273   4.884   2.133   3.416
10438SOL    HW233274   4.912   2.117   3.256
10439SOL     OW33275   3.732   3.188   2.062
10439SOL    HW133276   3.639   3.209   2.031
10439SOL    HW233277   3.742   3.089   2.075
10440SOL     OW33278   3.812   3.663   2.789
10440SOL    HW133279   3.770   3.577   2.762
10440SOL    HW233280   3.906   3.666   2.755
10441SOL     OW33281   4.228   3.430   2.772
10441SOL    HW133282   4.294   3.504   2.781
10441SOL    HW233283   4.272   3.351   2.730
10442SOL     OW33284   4.726   2.658   3.100
10442SOL    HW133285   4.767   2.626   3.186
10442SOL    HW233286   4.630   2.631   3.097
10443SOL     OW33287   3.764   2.406   2.976
10443SOL    HW133288   3.849   2.373   2.935
10443SOL    HW233289   3.777   2.421   3.074
10444SOL     OW33290   3.913   2.382   3.584
10444SOL    HW133291   3.972   2.342   3.514
10444SOL    HW233292   3.855   2.453   3.543
10445SOL     OW33293   5.093   2.812   3.522
10445SOL    HW133294   5.132   2.901   3.542
10445SOL    HW233295   5.103   2.792   3.425
10446SOL     OW33296   4.539   2.434   2.187
10446SOL    HW133297   4.546   2.345   2.141
10446SOL    HW233298   4.445   2.468   2.179
10447SOL     OW33299   5.381   2.466   3.068
10447SOL    HW133300   5.343   2.397   3.130
10447SOL    HW233301   5.463   2.430   3.024
10448SOL     OW33302   3.976   3.426   3.606
10448SOL    HW133303   3.946   3.483   3.682
10448SOL    HW233304   3.969   3.329   3.632
10449SOL     OW33305   4.395   2.326   3.131
10449SOL    HW133306   4.361   2.237   3.101
10449SOL    HW233307   4.421   2.380   3.051
10450SOL     OW33308   4.197   2.362   2.053
10450SOL    HW133309   4.258   2.442   2.057
10450SOL    HW233310   4.102   2.393   2.060
10451SOL     OW33311   3.883   2.999   3.328
10451SOL    HW133312   3.905   2.938   3.404
10451SOL    HW233313   3.893   2.950   3.242
10452SOL     OW33314   5.026   2.717   2.171
10452SOL    HW133315   4.940   2.686   2.213
10452SOL    HW233316   5.022   2.703   2.072
10453SOL     OW33317   3.807   3.120   2.884
10453SOL    HW133318   3.802   3.119   2.984
10453SOL    HW233319   3.724   3.079   2.846
10454SOL     OW33320   4.627   1.948   1.995
10454SOL    HW133321   4.678   1.949   1.909
10454SOL    HW233322   4.683   1.906   2.066
10455SOL     OW33323   5.450   1.997   2.385
10455SOL    HW133324   5.523   1.980   2.318
10455SOL    HW233325   5.419   1.910   2.423
10456SOL     OW33326   5.112   3.435   2.339
10456SOL    HW133327   5.179   3.447   2.265
10456SOL    HW233328   5.072   3.524   2.362
10457SOL     OW33329   5.004   2.789   2.534
10457SOL    HW133330   5.064   2.708   2.536
10457SOL    HW233331   5.044   2.858   2.474
10458SOL     OW33332   4.396   3.478   2.016
10458SOL    HW133333   4.405   3.488   1.917
10458SOL    HW233334   4.356   3.389   2.037
10459SOL     OW33335   5.565   2.037   2.825
10459SOL    HW133336   5.604   1.952   2.789
10459SOL    HW233337   5.467   2.039   2.806
10460SOL     OW33338   3.987   2.188   2.582
10460SOL    HW133339   3.908   2.239   2.548
10460SOL    HW233340   3.978   2.173   2.680
10461SOL     OW33341   4.918   3.474   1.893
10461SOL    HW133342   4.924   3.381   1.930
10461SOL    HW233343   4.859   3.474   1.813
10462SOL     OW33344   4.546   2.864   3.234
10462SOL    HW133345   4.586   2.863   3.142
10462SOL    HW233346   4.556   2.956   3.274
10463SOL     OW33347   4.640   2.772   2.153
10463SOL    HW133348   4.703   2.810   2.085
10463SOL    HW233349   4.680   2.689   2.192
10464SOL     OW33350   5.228   3.469   1.906
10464SOL    HW133351   5.136   3.506   1.913
10464SOL    HW233352   5.266   3.489   1.816
10465SOL     OW33353   4.096   3.150   3.352
10465SOL    HW133354   4.083   3.243   3.318
10465SOL    HW233355   4.012   3.098   3.339
10466SOL     OW33356   4.763   2.960   2.558
10466SOL    HW133357   4.693   2.913   2.612
10466SOL    HW233358   4.822   2.892   2.515
10467SOL     OW33359   4.738   2.098   2.833
10467SOL    HW133360   4.730   2.062   2.740
10467SOL    HW233361   4.736   2.022   2.898
10468SOL     OW33362   4.314   3.349   2.353
10468SOL    HW133363   4.356   3.291   2.283
10468SOL    HW233364   4.270   3.428   2.309
10469SOL     OW33365   5.433   2.247   3.243
10469SOL    HW133366   5.506   2.316   3.247
10469SOL    HW233367   5.461   2.172   3.184
10470SOL     OW33368   3.979   3.210   2.152
10470SOL    HW133369   3.883   3.211   2.125
10470SOL    HW233370   3.991   3.263   2.236
10471SOL     OW33371   3.829   2.875   3.588
10471SOL    HW133372   3.752   2.842   3.642
10471SOL    HW233373   3.914   2.845   3.630
10472SOL     OW33374   4.396   2.065   3.351
10472SOL    HW133375   4.486   2.049   3.311
10472SOL    HW233376   4.404   2.070   3.450
10473SOL     OW33377   3.799   2.207   1.895
10473SOL    HW133378   3.707   2.179   1.866
10473SOL    HW233379   3.830   2.284   1.839
10474SOL     OW33380   5.164   2.718   3.260
10474SOL    HW133381   5.107   2.770   3.197
10474SOL    HW233382   5.260   2.730   3.236
10475SOL     OW33383   3.796   2.028   2.180
10475SOL    HW133384   3.779   2.111   2.126
10475SOL    HW233385   3.886   1.991   2.158
10476SOL     OW33386   4.907   3.197   1.981
10476SOL    HW133387   4.808   3.186   1.983
10476SOL    HW233388   4.941   3.212   2.074
10477SOL     OW33389   4.337   2.704   3.293
10477SOL    HW133390   4.393   2.785   3.276
10477SOL    HW233391   4.396   2.624   3.296
10478SOL     OW33392   4.440   2.427   3.570
10478SOL    HW133393   4.459   2.492   3.644
10478SOL    HW233394   4.500   2.347   3.579
10479SOL     OW33395   5.174   3.082   3.495
10479SOL    HW133396   5.165   3.072   3.594
10479SOL    HW233397   5.270   3.075   3.469
10480SOL     OW33398   4.114   3.603   3.422
10480SOL    HW133399   4.023   3.644   3.420
10480SOL    HW233400   4.107   3.509   3.454
10481SOL     OW33401   5.398   2.745   3.116
10481SOL    HW133402   5.371   2.656   3.079
10481SOL    HW233403   5.399   2.813   3.043
10482SOL     OW33404   4.949   2.187   2.311
10482SOL    HW133405   5.014   2.113   2.300
10482SOL    HW233406   4.969   2.237   2.395
10483SOL     OW33407   4.318   2.607   2.514
10483SOL    HW133408   4.368   2.692   2.495
10483SOL    HW233409   4.230   2.609   2.466
10484SOL     OW33410   5.501   2.204   3.504
10484SOL    HW133411   5.484   2.235   3.410
10484SOL    HW233412   5.417   2.167   3.542
10485SOL     OW33413   5.454   2.796   3.379
10485SOL    HW133414   5.492   2.887   3.394
10485SOL    HW233415   5.446   2.779   3.280
10486SOL     OW33416   4.583   3.236   1.878
10486SOL    HW133417   4.537   3.251   1.966
10486SOL    HW233418   4.627   3.321   1.848
10487SOL     OW33419   4.583   2.818   2.723
10487SOL    HW133420   4.637   2.749   2.771
10487SOL    HW233421   4.551   2.887   2.789
10488SOL     OW33422   4.807   2.846   1.949
10488SOL    HW133423   4.784   2.899   1.867
10488SOL    HW233424   4.888   2.790   1.930
10489SOL     OW33425   3.945   3.176   3.706
10489SOL    HW133426   3.880   3.103   3.685
10489SOL    HW233427   3.949   3.190   3.804
10490SOL     OW33428   3.803   3.102   2.515
10490SOL    HW133429   3.802   3.055   2.603
10490SOL    HW233430   3.885   3.074   2.464
10491SOL     OW33431   5.548   2.054   3.089
10491SOL    HW133432   5.544   1.964   3.133
10491SOL    HW233433   5.551   2.043   2.990
10492SOL     OW33434   4.152   2.286   2.382
10492SOL    HW133435   4.182   2.214   2.320
10492SOL    HW233436   4.113   2.246   2.465
10493SOL     OW33437   4.041   2.409   3.142
10493SOL    HW133438   4.079   2.350   3.214
10493SOL    HW233439   4.081   2.383   3.054
10494SOL     OW33440   5.148   2.076   2.974
10494SOL    HW133441   5.200   2.011   3.029
10494SOL    HW233442   5.099   2.139   3.035
10495SOL     OW33443   4.725   1.896   3.016
10495SOL    HW133444   4.662   1.824   2.985
10495SOL    HW233445   4.818   1.860   3.016
10496SOL     OW33446   4.494   3.192   2.163
10496SOL    HW133447   4.448   3.105   2.180
10496SOL    HW233448   4.585   3.189   2.204
10497SOL     OW33449   5.076   1.914   2.030
10497SOL    HW133450   5.111   1.873   1.946
10497SOL    HW233451   4.986   1.876   2.050
10498SOL     OW33452   5.024   2.315   2.553
10498SOL    HW133453   4.965   2.395   2.557
10498SOL    HW233454   5.039   2.280   2.646
10499SOL     OW33455   5.317   2.083   2.744
10499SOL    HW133456   5.233   2.082   2.798
10499SOL    HW233457   5.319   2.166   2.688
10500SOL     OW33458   3.763   2.939   2.162
10500SOL    HW133459   3.862   2.928   2.153
10500SOL    HW233460   3.723   2.853   2.194
10501SOL     OW33461   4.599   3.508   2.199
10501SOL    HW133462   4.522   3.473   2.145
10501SOL    HW233463   4.567   3.579   2.261
10502SOL     OW33464   3.954   2.490   3.837
10502SOL    HW133465   3.861   2.488   3.874
10502SOL    HW233466   3.955   2.451   3.745
10503SOL     OW33467   3.949   2.137   4.720
10503SOL    HW133468   3.984   2.120   4.812
10503SOL    HW233469   3.861   2.092   4.708
10504SOL     OW33470   3.743   2.230   4.371
10504SOL    HW133471   3.661   2.273   4.410
10504SOL    HW233472   3.715   2.157   4.308
10505SOL     OW33473   4.293   3.137   4.889
10505SOL    HW133474   4.200   3.130   4.852
10505SOL    HW233475   4.304   3.226   4.933
10506SOL     OW33476   5.279   3.373   4.427
10506SOL    HW133477   5.222   3.357   4.508
10506SOL    HW233478   5.220   3.383   4.347
10507SOL     OW33479   5.467   2.480   4.580
10507SOL    HW133480   5.500   2.574   4.580
10507SOL    HW233481   5.518   2.426   4.646
10508SOL     OW33482   4.859   2.565   4.441
10508SOL    HW133483   4.916   2.643   4.416
10508SOL    HW233484   4.799   2.591   4.517
10509SOL     OW33485   5.479   2.469   3.955
10509SOL    HW133486   5.467   2.456   3.856
10509SOL    HW233487   5.449   2.388   4.004
10510SOL     OW33488   4.492   3.006   4.747
10510SOL    HW133489   4.414   3.023   4.807
10510SOL    HW233490   4.526   3.093   4.711
10511SOL     OW33491   4.574   2.660   5.547
10511SOL    HW133492   4.570   2.736   5.612
10511SOL    HW233493   4.596   2.696   5.456
10512SOL     OW33494   4.409   2.874   4.389
10512SOL    HW133495   4.478   2.858   4.459
10512SOL    HW233496   4.336   2.931   4.427
10513SOL     OW33497   4.410   3.023   5.527
10513SOL    HW133498   4.470   3.102   5.541
10513SOL    HW233499   4.324   3.054   5.486
10514SOL     OW33500   4.059   3.297   4.785
10514SOL    HW133501   3.981   3.266   4.732
10514SOL    HW233502   4.117   3.355   4.728
10515SOL     OW33503   5.184   3.367   5.063
10515SOL    HW133504   5.208   3.461   5.089
10515SOL    HW233505   5.168   3.313   5.145
10516SOL     OW33506   4.162   2.254   5.223
10516SOL    HW133507   4.244   2.198   5.232
10516SOL    HW233508   4.081   2.196   5.227
10517SOL     OW33509   5.327   2.309   4.461
10517SOL    HW133510   5.253   2.355   4.411
10517SOL    HW233511   5.378   2.377   4.514
10518SOL     OW33512   4.851   3.203   5.414
10518SOL    HW133513   4.898   3.203   5.502
10518SOL    HW233514   4.803   3.116   5.403
10519SOL     OW33515   3.964   2.953   4.610
10519SOL    HW133516   3.978   2.869   4.662
10519SOL    HW233517   3.909   3.017   4.665
10520SOL     OW33518   4.344   3.648   5.163
10520SOL    HW133519   4.252   3.631   5.198
10520SOL    HW233520   4.372   3.740   5.189
10521SOL     OW33521   4.330   2.826   3.847
10521SOL    HW133522   4.337   2.910   3.793
10521SOL    HW233523   4.376   2.839   3.935
10522SOL     OW33524   5.318   1.976   5.204
10522SOL    HW133525   5.300   2.043   5.132
10522SOL    HW233526   5.315   2.022   5.293
10523SOL     OW33527   3.846   2.505   4.287
10523SOL    HW133528   3.801   2.417   4.304
10523SOL    HW233529   3.845   2.559   4.371
10524SOL     OW33530   5.566   3.629   4.083
10524SOL    HW133531   5.620   3.600   4.163
10524SOL    HW233532   5.596   3.719   4.054
10525SOL     OW33533   3.751   3.458   3.841
10525SOL    HW133534   3.732   3.362   3.862
10525SOL    HW233535   3.718   3.516   3.916
10526SOL     OW33536   5.413   2.784   4.336
10526SOL    HW133537   5.508   2.755   4.344
10526SOL    HW233538   5.405   2.849   4.261
10527SOL     OW33539   5.365   2.970   4.156
10527SOL    HW133540   5.451   2.972   4.104
10527SOL    HW233541   5.379   3.017   4.244
10528SOL     OW33542   3.837   2.599   5.321
10528SOL    HW133543   3.925   2.586   5.366
10528SOL    HW233544   3.824   2.696   5.299
10529SOL     OW33545   5.017   3.090   5.147
10529SOL    HW133546   5.054   3.017   5.089
10529SOL    HW233547   5.069   3.095   5.232
10530SOL     OW33548   4.533   1.866   4.226
10530SOL    HW133549   4.573   1.957   4.217
10530SOL    HW233550   4.433   1.874   4.232
10531SOL     OW33551   3.921   2.838   4.988
10531SOL    HW133552   4.010   2.793   4.974
10531SOL    HW233553   3.848   2.773   4.969
10532SOL     OW33554   5.249   2.861   3.914
10532SOL    HW133555   5.186   2.785   3.927
10532SOL    HW233556   5.297   2.879   4.000
10533SOL     OW33557   4.911   3.654   5.340
10533SOL    HW133558   4.935   3.714   5.264
10533SOL    HW233559   4.918   3.559   5.310
10534SOL     OW33560   4.041   2.113   5.525
10534SOL    HW133561   4.112   2.184   5.531
10534SOL    HW233562   3.953   2.152   5.553
10535SOL     OW33563   5.190   3.279   4.677
10535SOL    HW133564   5.131   3.285   4.757
10535SOL    HW233565   5.175   3.191   4.631
10536SOL     OW33566   5.391   3.576   4.296
10536SOL    HW133567   5.350   3.553   4.208
10536SOL    HW233568   5.373   3.502   4.361
10537SOL     OW33569   4.322   2.591   3.994
10537SOL    HW133570   4.346   2.660   3.926
10537SOL    HW233571   4.244   2.624   4.048
10538SOL     OW33572   5.005   2.207   4.668
10538SOL    HW133573   4.919   2.157   4.655
10538SOL    HW233574   5.067   2.153   4.724
10539SOL     OW33575   5.300   3.524   4.031
10539SOL    HW133576   5.389   3.570   4.034
10539SOL    HW233577   5.279   3.500   3.936
10540SOL     OW33578   4.531   2.467   5.189
10540SOL    HW133579   4.484   2.464   5.278
10540SOL    HW233580   4.480   2.412   5.123
10541SOL     OW33581   5.118   2.331   5.398
10541SOL    HW133582   5.098   2.374   5.486
10541SOL    HW233583   5.196   2.269   5.407
10542SOL     OW33584   4.697   2.752   5.296
10542SOL    HW133585   4.743   2.668   5.267
10542SOL    HW233586   4.641   2.786   5.221
10543SOL     OW33587   4.715   2.272   4.966
10543SOL    HW133588   4.638   2.306   5.020
10543SOL    HW233589   4.681   2.221   4.887
10544SOL     OW33590   4.765   2.563   4.153
10544SOL    HW133591   4.791   2.559   4.249
10544SOL    HW233592   4.680   2.512   4.139
10545SOL     OW33593   3.800   2.673   4.513
10545SOL    HW133594   3.899   2.661   4.522
10545SOL    HW233595   3.776   2.768   4.534
10546SOL     OW33596   3.854   3.683   5.295
10546SOL    HW133597   3.844   3.668   5.394
10546SOL    HW233598   3.768   3.719   5.259
10547SOL     OW33599   4.589   2.210   3.919
10547SOL    HW133600   4.648   2.273   3.870
10547SOL    HW233601   4.608   2.116   3.890
10548SOL     OW33602   5.443   2.447   5.555
10548SOL    HW133603   5.417   2.536   5.519
10548SOL    HW233604   5.441   2.379   5.482
10549SOL     OW33605   5.086   3.006   4.269
10549SOL    HW133606   5.169   2.977   4.221
10549SOL    HW233607   5.037   3.073   4.213
10550SOL     OW33608   4.274   2.058   4.609
10550SOL    HW133609   4.269   2.053   4.709
10550SOL    HW233610   4.276   2.154   4.580
10551SOL     OW33611   4.732   3.318   4.201
10551SOL    HW133612   4.686   3.390   4.149
10551SOL    HW233613   4.728   3.338   4.299
10552SOL     OW33614   5.519   2.928   4.597
10552SOL    HW133615   5.457   2.913   4.521
10552SOL    HW233616   5.467   2.939   4.682
10553SOL     OW33617   4.951   3.412   5.230
10553SOL    HW133618   4.957   3.335   5.294
10553SOL    HW233619   4.899   3.386   5.150
10554SOL     OW33620   4.045   2.805   3.966
10554SOL    HW133621   4.127   2.844   3.924
10554SOL    HW233622   4.018   2.723   3.917
10555SOL     OW33623   5.182   2.597   4.452
10555SOL    HW133624   5.177   2.532   4.527
10555SOL    HW233625   5.262   2.656   4.465
10556SOL     OW33626   4.185   3.128   5.451
10556SOL    HW133627   4.135   3.129   5.365
10556SOL    HW233628   4.122   3.110   5.527
10557SOL     OW33629   4.835   3.638   3.961
10557SOL    HW133630   4.775   3.576   4.011
10557SOL    HW233631   4.866   3.594   3.876
10558SOL     OW33632   3.926   2.147   5.222
10558SOL    HW133633   3.846   2.207   5.209
10558SOL    HW233634   3.916   2.098   5.308
10559SOL     OW33635   5.124   1.969   4.150
10559SOL    HW133636   5.100   1.932   4.060
10559SOL    HW233637   5.223   1.985   4.154
10560SOL     OW33638   3.973   3.647   4.965
10560SOL    HW133639   4.030   3.582   5.015
10560SOL    HW233640   3.957   3.614   4.872
10561SOL     OW33641   4.106   2.562   4.204
10561SOL    HW133642   4.151   2.472   4.201
10561SOL    HW233643   4.012   2.551   4.237
10562SOL     OW33644   5.271   2.084   5.453
10562SOL    HW133645   5.266   2.121   5.545
10562SOL    HW233646   5.199   2.015   5.441
10563SOL     OW33647   4.338   1.984   3.841
10563SOL    HW133648   4.436   1.962   3.848
10563SOL    HW233649   4.307   1.967   3.748
10564SOL     OW33650   4.505   2.126   5.473
10564SOL    HW133651   4.572   2.065   5.516
10564SOL    HW233652   4.432   2.145   5.538
10565SOL     OW33653   4.612   3.376   4.919
10565SOL    HW133654   4.589   3.351   4.825
10565SOL    HW233655   4.673   3.307   4.958
10566SOL     OW33656   5.075   2.452   5.157
10566SOL    HW133657   5.103   2.409   5.242
10566SOL    HW233658   5.100   2.548   5.158
10567SOL     OW33659   4.527   3.264   4.648
10567SOL    HW133660   4.617   3.278   4.606
10567SOL    HW233661   4.456   3.266   4.577
10568SOL     OW33662   4.646   2.365   4.623
10568SOL    HW133663   4.621   2.356   4.527
10568SOL    HW233664   4.694   2.283   4.654
10569SOL     OW33665   4.263   1.926   4.236
10569SOL    HW133666   4.182   1.927   4.294
10569SOL    HW233667   4.266   2.009   4.181
10570SOL     OW33668   5.158   3.050   3.765
10570SOL    HW133669   5.190   2.974   3.822
10570SOL    HW233670   5.066   3.077   3.795
10571SOL     OW33671   4.021   1.897   3.895
10571SOL    HW133672   4.070   1.981   3.874
10571SOL    HW233673   4.083   1.832   3.940
10572SOL     OW33674   4.659   2.098   4.204
10572SOL    HW133675   4.611   2.139   4.126
10572SOL    HW233676   4.758   2.096   4.185
10573SOL     OW33677   4.800   2.545   5.188
10573SOL    HW133678   4.720   2.484   5.191
10573SOL    HW233679   4.881   2.492   5.164
10574SOL     OW33680   4.951   3.432   4.517
10574SOL    HW133681   4.972   3.506   4.452
10574SOL    HW233682   5.019   3.432   4.590
10575SOL     OW33683   4.183   3.014   4.465
10575SOL    HW133684   4.112   2.987   4.530
10575SOL    HW233685   4.157   2.986   4.372
10576SOL     OW33686   4.995   3.659   4.315
10576SOL    HW133687   5.039   3.723   4.251
10576SOL    HW233688   4.945   3.711   4.385
10577SOL     OW33689   4.756   2.411   3.740
10577SOL    HW133690   4.715   2.493   3.701
10577SOL    HW233691   4.820   2.437   3.813
10578SOL     OW33692   3.802   2.418   5.110
10578SOL    HW133693   3.894   2.417   5.069
10578SOL    HW233694   3.796   2.492   5.177
10579SOL     OW33695   4.285   2.084   4.871
10579SOL    HW133696   4.323   2.000   4.908
10579SOL    HW233697   4.197   2.103   4.915
10580SOL     OW33698   4.590   2.316   4.366
10580SOL    HW133699   4.558   2.388   4.304
10580SOL    HW233700   4.614   2.235   4.313
10581SOL     OW33701   4.741   1.901   4.477
10581SOL    HW133702   4.669   1.906   4.408
10581SOL    HW233703   4.717   1.832   4.546
10582SOL     OW33704   5.153   3.035   4.591
10582SOL    HW133705   5.098   2.951   4.584
10582SOL    HW233706   5.179   3.064   4.499
10583SOL     OW33707   5.190   2.452   4.716
10583SOL    HW133708   5.160   2.357   4.723
10583SOL    HW233709   5.263   2.468   4.782
10584SOL     OW33710   5.581   2.695   4.101
10584SOL    HW133711   5.623   2.631   4.165
10584SOL    HW233712   5.543   2.644   4.023
10585SOL     OW33713   5.388   3.142   4.381
10585SOL    HW133714   5.487   3.150   4.395
10585SOL    HW233715   5.343   3.226   4.412
10586SOL     OW33716   5.114   2.437   3.802
10586SOL    HW133717   5.060   2.416   3.883
10586SOL    HW233718   5.205   2.396   3.811
10587SOL     OW33719   4.251   2.118   4.052
10587SOL    HW133720   4.278   2.059   3.977
10587SOL    HW233721   4.251   2.213   4.021
10588SOL     OW33722   5.478   3.085   5.312
10588SOL    HW133723   5.569   3.046   5.299
10588SOL    HW233724   5.486   3.181   5.336
10589SOL     OW33725   4.788   3.209   5.064
10589SOL    HW133726   4.708   3.186   5.119
10589SOL    HW233727   4.871   3.183   5.113
10590SOL     OW33728   5.316   3.491   5.349
10590SOL    HW133729   5.343   3.525   5.259
10590SOL    HW233730   5.395   3.453   5.395
10591SOL     OW33731   4.835   3.057   4.824
10591SOL    HW133732   4.795   3.101   4.905
10591SOL    HW233733   4.794   3.094   4.741
10592SOL     OW33734   5.362   2.961   4.803
10592SOL    HW133735   5.367   3.042   4.862
10592SOL    HW233736   5.276   2.963   4.752
10593SOL     OW33737   4.639   1.951   5.126
10593SOL    HW133738   4.664   1.931   5.031
10593SOL    HW233739   4.711   2.007   5.168
10594SOL     OW33740   4.704   2.978   5.443
10594SOL    HW133741   4.605   2.984   5.453
10594SOL    HW233742   4.727   2.898   5.387
10595SOL     OW33743   4.134   2.675   4.975
10595SOL    HW133744   4.220   2.687   5.025
10595SOL    HW233745   4.092   2.588   5.002
10596SOL     OW33746   4.998   2.248   4.986
10596SOL    HW133747   5.019   2.322   5.050
10596SOL    HW233748   4.909   2.265   4.943
10597SOL     OW33749   4.091   2.962   4.225
10597SOL    HW133750   4.084   3.045   4.169
10597SOL    HW233751   4.095   2.882   4.165
10598SOL     OW33752   4.290   2.399   4.589
10598SOL    HW133753   4.302   2.465   4.515
10598SOL    HW233754   4.336   2.433   4.672
10599SOL     OW33755   4.976   3.210   4.112
10599SOL    HW133756   5.026   3.287   4.152
10599SOL    HW233757   4.881   3.212   4.144
10600SOL     OW33758   4.996   3.307   4.866
10600SOL    HW133759   5.043   3.320   4.953
10600SOL    HW233760   4.930   3.233   4.875
10601SOL     OW33761   5.306   2.501   4.196
10601SOL    HW133762   5.275   2.562   4.269
10601SOL    HW233763   5.356   2.553   4.127
10602SOL     OW33764   4.126   2.613   5.322
10602SOL    HW133765   4.194   2.668   5.275
10602SOL    HW233766   4.166   2.525   5.349
10603SOL     OW33767   5.311   2.641   5.394
10603SOL    HW133768   5.219   2.679   5.389
10603SOL    HW233769   5.371   2.688   5.329
10604SOL     OW33770   4.737   1.967   5.494
10604SOL    HW133771   4.743   2.052   5.442
10604SOL    HW233772   4.769   1.891   5.437
10605SOL     OW33773   4.228   1.912   5.464
10605SOL    HW133774   4.186   1.855   5.394
10605SOL    HW233775   4.162   1.981   5.496
10606SOL     OW33776   4.297   2.732   4.753
10606SOL    HW133777   4.341   2.821   4.744
10606SOL    HW233778   4.234   2.732   4.830
10607SOL     OW33779   5.084   2.724   4.769
10607SOL    HW133780   5.009   2.724   4.703
10607SOL    HW233781   5.121   2.632   4.778
10608SOL     OW33782   4.933   2.387   3.999
10608SOL    HW133783   4.946   2.303   4.053
10608SOL    HW233784   4.904   2.461   4.059
10609SOL     OW33785   4.031   2.075   4.955
10609SOL    HW133786   4.008   2.112   5.045
10609SOL    HW233787   4.001   1.980   4.949
10610SOL     OW33788   4.456   2.496   4.788
10610SOL    HW133789   4.515   2.470   4.712
10610SOL    HW233790   4.428   2.592   4.777
10611SOL     OW33791   5.452   2.797   5.578
10611SOL    HW133792   5.406   2.790   5.489
10611SOL    HW233793   5.390   2.841   5.644
10612SOL     OW33794   4.031   1.925   4.342
10612SOL    HW133795   4.020   2.019   4.375
10612SOL    HW233796   4.026   1.862   4.419
10613SOL     OW33797   5.346   2.229   4.098
10613SOL    HW133798   5.348   2.153   4.162
10613SOL    HW233799   5.298   2.306   4.138
10614SOL     OW33800   4.747   2.628   4.690
10614SOL    HW133801   4.762   2.649   4.786
10614SOL    HW233802   4.717   2.533   4.681
10615SOL     OW33803   4.704   3.435   5.424
10615SOL    HW133804   4.684   3.479   5.336
10615SOL    HW233805   4.743   3.344   5.408
10616SOL     OW33806   5.583   3.380   5.329
10616SOL    HW133807   5.597   3.407   5.234
10616SOL    HW233808   5.666   3.402   5.382
10617SOL     OW33809   4.074   2.760   5.528
10617SOL    HW133810   4.150   2.804   5.576
10617SOL    HW233811   4.109   2.713   5.446
10618SOL     OW33812   5.264   2.136   3.849
10618SOL    HW133813   5.203   2.061   3.872
10618SOL    HW233814   5.286   2.188   3.932
10619SOL     OW33815   5.027   2.700   3.766
10619SOL    HW133816   5.061   2.607   3.781
10619SOL    HW233817   5.045   2.727   3.671
10620SOL     OW33818   4.792   3.195   4.573
10620SOL    HW133819   4.799   3.111   4.518
10620SOL    HW233820   4.854   3.264   4.537
10621SOL     OW33821   4.043   2.672   4.673
10621SOL    HW133822   4.136   2.708   4.678
10621SOL    HW233823   4.037   2.587   4.725
10622SOL     OW33824   4.063   2.371   4.730
10622SOL    HW133825   4.011   2.288   4.713
10622SOL    HW233826   4.140   2.376   4.666
10623SOL     OW33827   4.235   2.277   5.532
10623SOL    HW133828   4.217   2.322   5.620
10623SOL    HW233829   4.277   2.342   5.469
10624SOL     OW33830   4.862   2.242   5.402
10624SOL    HW133831   4.817   2.305   5.466
10624SOL    HW233832   4.955   2.273   5.385
10625SOL     OW33833   4.884   2.069   5.201
10625SOL    HW133834   4.884   2.133   5.278
10625SOL    HW233835   4.912   2.117   5.118
10626SOL     OW33836   3.732   3.188   3.924
10626SOL    HW133837   3.639   3.209   3.893
10626SOL    HW233838   3.742   3.089   3.937
10627SOL     OW33839   4.726   2.658   4.962
10627SOL    HW133840   4.767   2.626   5.048
10627SOL    HW233841   4.630   2.631   4.959
10628SOL     OW33842   3.764   2.406   4.838
10628SOL    HW133843   3.849   2.373   4.797
10628SOL    HW233844   3.777   2.421   4.936
10629SOL     OW33845   3.913   2.382   5.446
10629SOL    HW133846   3.972   2.342   5.376
10629SOL    HW233847   3.855   2.453   5.405
10630SOL     OW33848   5.093   2.812   5.384
10630SOL    HW133849   5.132   2.901   5.404
10630SOL    HW233850   5.103   2.792   5.287
10631SOL     OW33851   4.539   2.434   4.049
10631SOL    HW133852   4.546   2.345   4.003
10631SOL    HW233853   4.445   2.468   4.041
10632SOL     OW33854   5.381   2.466   4.930
10632SOL    HW133855   5.343   2.397   4.992
10632SOL    HW233856   5.463   2.430   4.886
10633SOL     OW33857   3.976   3.426   5.468
10633SOL    HW133858   3.946   3.483   5.544
10633SOL    HW233859   3.969   3.329   5.494
10634SOL     OW33860   4.395   2.326   4.993
10634SOL    HW133861   4.361   2.237   4.963
10634SOL    HW233862   4.421   2.380   4.913
10635SOL     OW33863   4.654   3.540   5.189
10635SOL    HW133864   4.630   3.522   5.094
10635SOL    HW233865   4.684   3.634   5.199
10636SOL     OW33866   4.197   2.362   3.915
10636SOL    HW133867   4.258   2.442   3.919
10636SOL    HW233868   4.102   2.393   3.922
10637SOL     OW33869   3.883   2.999   5.190
10637SOL    HW133870   3.905   2.938   5.266
10637SOL    HW233871   3.893   2.950   5.104
10638SOL     OW33872   5.071   2.921   4.958
10638SOL    HW133873   5.095   2.858   4.884
10638SOL    HW233874   4.981   2.961   4.940
10639SOL     OW33875   5.026   2.717   4.033
10639SOL    HW133876   4.940   2.686   4.075
10639SOL    HW233877   5.022   2.703   3.934
10640SOL     OW33878   5.483   3.609   4.878
10640SOL    HW133879   5.544   3.639   4.805
10640SOL    HW233880   5.445   3.520   4.856
10641SOL     OW33881   4.976   3.593   4.852
10641SOL    HW133882   5.060   3.598   4.798
10641SOL    HW233883   4.953   3.497   4.870
10642SOL     OW33884   3.807   3.120   4.746
10642SOL    HW133885   3.802   3.119   4.846
10642SOL    HW233886   3.724   3.079   4.708
10643SOL     OW33887   4.412   3.524   5.440
10643SOL    HW133888   4.356   3.605   5.449
10643SOL    HW233889   4.464   3.528   5.354
10644SOL     OW33890   4.627   1.948   3.857
10644SOL    HW133891   4.678   1.949   3.771
10644SOL    HW233892   4.683   1.906   3.928
10645SOL     OW33893   5.450   1.997   4.247
10645SOL    HW133894   5.523   1.980   4.180
10645SOL    HW233895   5.419   1.910   4.285
10646SOL     OW33896   5.112   3.435   4.201
10646SOL    HW133897   5.179   3.447   4.127
10646SOL    HW233898   5.072   3.524   4.224
10647SOL     OW33899   3.854   3.656   5.575
10647SOL    HW133900   3.813   3.582   5.628
10647SOL    HW233901   3.918   3.707   5.633
10648SOL     OW33902   5.004   2.789   4.396
10648SOL    HW133903   5.064   2.708   4.398
10648SOL    HW233904   5.044   2.858   4.336
10649SOL     OW33905   4.554   3.135   5.146
10649SOL    HW133906   4.549   3.168   5.241
10649SOL    HW233907   4.468   3.154   5.100
10650SOL     OW33908   5.374   3.582   5.118
10650SOL    HW133909   5.427   3.592   5.034
10650SOL    HW233910   5.347   3.672   5.152
10651SOL     OW33911   5.565   2.037   4.687
10651SOL    HW133912   5.604   1.952   4.651
10651SOL    HW233913   5.467   2.039   4.668
10652SOL     OW33914   3.987   2.188   4.444
10652SOL    HW133915   3.908   2.239   4.410
10652SOL    HW233916   3.978   2.173   4.542
10653SOL     OW33917   4.546   2.864   5.096
10653SOL    HW133918   4.586   2.863   5.004
10653SOL    HW233919   4.556   2.956   5.136
10654SOL     OW33920   4.640   2.772   4.015
10654SOL    HW133921   4.703   2.810   3.947
10654SOL    HW233922   4.680   2.689   4.054
10655SOL     OW33923   4.096   3.150   5.214
10655SOL    HW133924   4.083   3.243   5.180
10655SOL    HW233925   4.012   3.098   5.201
10656SOL     OW33926   5.338   3.154   5.013
10656SOL    HW133927   5.398   3.157   5.093
10656SOL    HW233928   5.263   3.218   5.026
10657SOL     OW33929   4.763   2.960   4.420
10657SOL    HW133930   4.693   2.913   4.474
10657SOL    HW233931   4.822   2.892   4.377
10658SOL     OW33932   4.738   2.098   4.695
10658SOL    HW133933   4.730   2.062   4.602
10658SOL    HW233934   4.736   2.022   4.760
10659SOL     OW33935   5.433   2.247   5.105
10659SOL    HW133936   5.506   2.316   5.109
10659SOL    HW233937   5.461   2.172   5.046
10660SOL     OW33938   3.979   3.210   4.014
10660SOL    HW133939   3.883   3.211   3.987
10660SOL    HW233940   3.991   3.263   4.098
10661SOL     OW33941   3.829   2.875   5.450
10661SOL    HW133942   3.752   2.842   5.504
10661SOL    HW233943   3.914   2.845   5.492
10662SOL     OW33944   4.396   2.065   5.213
10662SOL    HW133945   4.486   2.049   5.173
10662SOL    HW233946   4.404   2.070   5.312
10663SOL     OW33947   3.799   2.207   3.757
10663SOL    HW133948   3.707   2.179   3.728
10663SOL    HW233949   3.830   2.284   3.701
10664SOL     OW33950   5.164   2.718   5.122
10664SOL    HW133951   5.107   2.770   5.059
10664SOL    HW233952   5.260   2.730   5.098
10665SOL     OW33953   3.796   2.028   4.042
10665SOL    HW133954   3.779   2.111   3.988
10665SOL    HW233955   3.886   1.991   4.020
10666SOL     OW33956   4.907   3.197   3.843
10666SOL    HW133957   4.808   3.186   3.845
10666SOL    HW233958   4.941   3.212   3.936
10667SOL     OW33959   4.337   2.704   5.155
10667SOL    HW133960   4.393   2.785   5.138
10667SOL    HW233961   4.396   2.624   5.158
10668SOL     OW33962   5.217   3.629   4.683
10668SOL    HW133963   5.250   3.693   4.614
10668SOL    HW233964   5.283   3.623   4.758
10669SOL     OW33965   4.440   2.427   5.432
10669SOL    HW133966   4.459   2.492   5.506
10669SOL    HW233967   4.500   2.347   5.441
10670SOL     OW33968   5.174   3.082   5.357
10670SOL    HW133969   5.165   3.072   5.456
10670SOL    HW233970   5.270   3.075   5.331
10671SOL     OW33971   4.114   3.603   5.284
10671SOL    HW133972   4.023   3.644   5.282
10671SOL    HW233973   4.107   3.509   5.316
10672SOL     OW33974   5.398   2.745   4.978
10672SOL    HW133975   5.371   2.656   4.941
10672SOL    HW233976   5.399   2.813   4.905
10673SOL     OW33977   4.949   2.187   4.173
10673SOL    HW133978   5.014   2.113   4.162
10673SOL    HW233979   4.969   2.237   4.257
10674SOL     OW33980   4.318   2.607   4.376
10674SOL    HW133981   4.368   2.692   4.357
10674SOL    HW233982   4.230   2.609   4.328
10675SOL     OW33983   5.454   2.796   5.241
10675SOL    HW133984   5.492   2.887   5.256
10675SOL    HW233985   5.446   2.779   5.142
10676SOL     OW33986   5.132   3.713   5.444
10676SOL    HW133987   5.036   3.702   5.417
10676SOL    HW233988   5.188   3.646   5.396
10677SOL     OW33989   4.583   2.818   4.585
10677SOL    HW133990   4.637   2.749   4.633
10677SOL    HW233991   4.551   2.887   4.651
10678SOL     OW33992   4.807   2.846   3.811
10678SOL    HW133993   4.784   2.899   3.729
10678SOL    HW233994   4.888   2.790   3.792
10679SOL     OW33995   5.585   3.431   4.575
10679SOL    HW133996   5.514   3.419   4.505
10679SOL    HW233997   5.586   3.352   4.635
10680SOL     OW33998   3.945   3.176   5.568
10680SOL    HW133999   3.880   3.103   5.547
10680SOL    HW234000   3.949   3.190   5.666
10681SOL     OW34001   4.396   3.253   5.348
10681SOL    HW134002   4.318   3.203   5.386
10681SOL    HW234003   4.393   3.348   5.379
10682SOL     OW34004   5.548   2.054   4.951
10682SOL    HW134005   5.544   1.964   4.995
10682SOL    HW234006   5.551   2.043   4.852
10683SOL     OW34007   4.152   2.286   4.244
10683SOL    HW134008   4.182   2.214   4.182
10683SOL    HW234009   4.113   2.246   4.327
10684SOL     OW34010   5.429   3.349   4.828
10684SOL    HW134011   5.336   3.324   4.801
10684SOL    HW234012   5.455   3.299   4.910
10685SOL     OW34013   4.041   2.409   5.004
10685SOL    HW134014   4.079   2.350   5.076
10685SOL    HW234015   4.081   2.383   4.916
10686SOL     OW34016   5.148   2.076   4.836
10686SOL    HW134017   5.200   2.011   4.891
10686SOL    HW234018   5.099   2.139   4.897
10687SOL     OW34019   4.725   1.896   4.878
10687SOL    HW134020   4.662   1.824   4.847
10687SOL    HW234021   4.818   1.860   4.878
10688SOL     OW34022   4.342   3.429   5.008
10688SOL    HW134023   4.337   3.511   5.065
10688SOL    HW234024   4.431   3.426   4.963
10689SOL     OW34025   5.076   1.914   3.892
10689SOL    HW134026   5.111   1.873   3.808
10689SOL    HW234027   4.986   1.876   3.912
10690SOL     OW34028   5.024   2.315   4.415
10690SOL    HW134029   4.965   2.395   4.419
10690SOL    HW234030   5.039   2.280   4.508
10691SOL     OW34031   5.317   2.083   4.606
10691SOL    HW134032   5.233   2.082   4.660
10691SOL    HW234033   5.319   2.166   4.550
10692SOL     OW34034   3.763   2.939   4.024
10692SOL    HW134035   3.862   2.928   4.015
10692SOL    HW234036   3.723   2.853   4.056
10693SOL     OW34037   3.954   2.490   5.699
10693SOL    HW134038   3.861   2.488   5.736
10693SOL    HW234039   3.955   2.451   5.607
10694SOL     OW34040   3.949   2.137   6.582
10694SOL    HW134041   3.984   2.120   6.674
10694SOL    HW234042   3.861   2.092   6.570
10695SOL     OW34043   3.743   2.230   6.233
10695SOL    HW134044   3.661   2.273   6.272
10695SOL    HW234045   3.715   2.157   6.170
10696SOL     OW34046   4.293   3.137   6.751
10696SOL    HW134047   4.200   3.130   6.714
10696SOL    HW234048   4.304   3.226   6.795
10697SOL     OW34049   5.279   3.373   6.289
10697SOL    HW134050   5.222   3.357   6.370
10697SOL    HW234051   5.220   3.383   6.209
10698SOL     OW34052   5.467   2.480   6.442
10698SOL    HW134053   5.500   2.574   6.442
10698SOL    HW234054   5.518   2.426   6.508
10699SOL     OW34055   4.859   2.565   6.303
10699SOL    HW134056   4.916   2.643   6.278
10699SOL    HW234057   4.799   2.591   6.379
10700SOL     OW34058   5.479   2.469   5.817
10700SOL    HW134059   5.467   2.456   5.718
10700SOL    HW234060   5.449   2.388   5.866
10701SOL     OW34061   4.492   3.006   6.609
10701SOL    HW134062   4.414   3.023   6.669
10701SOL    HW234063   4.526   3.093   6.573
10702SOL     OW34064   4.574   2.660   7.409
10702SOL    HW134065   4.570   2.736   7.474
10702SOL    HW234066   4.596   2.696   7.318
10703SOL     OW34067   4.409   2.874   6.251
10703SOL    HW134068   4.478   2.858   6.321
10703SOL    HW234069   4.336   2.931   6.289
10704SOL     OW34070   4.410   3.023   7.389
10704SOL    HW134071   4.470   3.102   7.403
10704SOL    HW234072   4.324   3.054   7.348
10705SOL     OW34073   4.059   3.297   6.647
10705SOL    HW134074   3.981   3.266   6.594
10705SOL    HW234075   4.117   3.355   6.590
10706SOL     OW34076   5.184   3.367   6.925
10706SOL    HW134077   5.208   3.461   6.951
10706SOL    HW234078   5.168   3.313   7.007
10707SOL     OW34079   4.162   2.254   7.085
10707SOL    HW134080   4.244   2.198   7.094
10707SOL    HW234081   4.081   2.196   7.089
10708SOL     OW34082   5.327   2.309   6.323
10708SOL    HW134083   5.253   2.355   6.273
10708SOL    HW234084   5.378   2.377   6.376
10709SOL     OW34085   3.955   3.575   6.069
10709SOL    HW134086   3.989   3.652   6.123
10709SOL    HW234087   3.999   3.575   5.979
10710SOL     OW34088   4.851   3.203   7.276
10710SOL    HW134089   4.898   3.203   7.364
10710SOL    HW234090   4.803   3.116   7.265
10711SOL     OW34091   3.954   3.296   6.124
10711SOL    HW134092   3.928   3.392   6.124
10711SOL    HW234093   3.883   3.242   6.169
10712SOL     OW34094   3.964   2.953   6.472
10712SOL    HW134095   3.978   2.869   6.524
10712SOL    HW234096   3.909   3.017   6.527
10713SOL     OW34097   4.344   3.648   7.025
10713SOL    HW134098   4.252   3.631   7.060
10713SOL    HW234099   4.372   3.740   7.051
10714SOL     OW34100   4.330   2.826   5.709
10714SOL    HW134101   4.337   2.910   5.655
10714SOL    HW234102   4.376   2.839   5.797
10715SOL     OW34103   5.318   1.976   7.066
10715SOL    HW134104   5.300   2.043   6.994
10715SOL    HW234105   5.315   2.022   7.155
10716SOL     OW34106   3.846   2.505   6.149
10716SOL    HW134107   3.801   2.417   6.166
10716SOL    HW234108   3.845   2.559   6.233
10717SOL     OW34109   5.566   3.629   5.945
10717SOL    HW134110   5.620   3.600   6.025
10717SOL    HW234111   5.596   3.719   5.916
10718SOL     OW34112   3.751   3.458   5.703
10718SOL    HW134113   3.732   3.362   5.724
10718SOL    HW234114   3.718   3.516   5.778
10719SOL     OW34115   5.413   2.784   6.198
10719SOL    HW134116   5.508   2.755   6.206
10719SOL    HW234117   5.405   2.849   6.123
10720SOL     OW34118   5.365   2.970   6.018
10720SOL    HW134119   5.451   2.972   5.966
10720SOL    HW234120   5.379   3.017   6.106
10721SOL     OW34121   3.837   2.599   7.183
10721SOL    HW134122   3.925   2.586   7.228
10721SOL    HW234123   3.824   2.696   7.161
10722SOL     OW34124   4.337   3.227   6.312
10722SOL    HW134125   4.288   3.140   6.321
10722SOL    HW234126   4.314   3.270   6.225
10723SOL     OW34127   5.017   3.090   7.009
10723SOL    HW134128   5.054   3.017   6.951
10723SOL    HW234129   5.069   3.095   7.094
10724SOL     OW34130   4.533   1.866   6.088
10724SOL    HW134131   4.573   1.957   6.079
10724SOL    HW234132   4.433   1.874   6.094
10725SOL     OW34133   3.921   2.838   6.850
10725SOL    HW134134   4.010   2.793   6.836
10725SOL    HW234135   3.848   2.773   6.831
10726SOL     OW34136   5.249   2.861   5.776
10726SOL    HW134137   5.186   2.785   5.789
10726SOL    HW234138   5.297   2.879   5.862
10727SOL     OW34139   4.911   3.654   7.202
10727SOL    HW134140   4.935   3.714   7.126
10727SOL    HW234141   4.918   3.559   7.172
10728SOL     OW34142   4.041   2.113   7.387
10728SOL    HW134143   4.112   2.184   7.393
10728SOL    HW234144   3.953   2.152   7.415
10729SOL     OW34145   5.190   3.279   6.539
10729SOL    HW134146   5.131   3.285   6.619
10729SOL    HW234147   5.175   3.191   6.493
10730SOL     OW34148   5.391   3.576   6.158
10730SOL    HW134149   5.350   3.553   6.070
10730SOL    HW234150   5.373   3.502   6.223
10731SOL     OW34151   4.322   2.591   5.856
10731SOL    HW134152   4.346   2.660   5.788
10731SOL    HW234153   4.244   2.624   5.910
10732SOL     OW34154   5.005   2.207   6.530
10732SOL    HW134155   4.919   2.157   6.517
10732SOL    HW234156   5.067   2.153   6.586
10733SOL     OW34157   5.300   3.524   5.893
10733SOL    HW134158   5.389   3.570   5.896
10733SOL    HW234159   5.279   3.500   5.798
10734SOL     OW34160   4.531   2.467   7.051
10734SOL    HW134161   4.484   2.464   7.140
10734SOL    HW234162   4.480   2.412   6.985
10735SOL     OW34163   5.118   2.331   7.260
10735SOL    HW134164   5.098   2.374   7.348
10735SOL    HW234165   5.196   2.269   7.269
10736SOL     OW34166   4.697   2.752   7.158
10736SOL    HW134167   4.743   2.668   7.129
10736SOL    HW234168   4.641   2.786   7.083
10737SOL     OW34169   4.715   2.272   6.828
10737SOL    HW134170   4.638   2.306   6.882
10737SOL    HW234171   4.681   2.221   6.749
10738SOL     OW34172   4.765   2.563   6.015
10738SOL    HW134173   4.791   2.559   6.111
10738SOL    HW234174   4.680   2.512   6.001
10739SOL     OW34175   3.800   2.673   6.375
10739SOL    HW134176   3.899   2.661   6.384
10739SOL    HW234177   3.776   2.768   6.396
10740SOL     OW34178   3.854   3.683   7.157
10740SOL    HW134179   3.844   3.668   7.256
10740SOL    HW234180   3.768   3.719   7.121
10741SOL     OW34181   4.589   2.210   5.781
10741SOL    HW134182   4.648   2.273   5.732
10741SOL    HW234183   4.608   2.116   5.752
10742SOL     OW34184   5.443   2.447   7.417
10742SOL    HW134185   5.417   2.536   7.381
10742SOL    HW234186   5.441   2.379   7.344
10743SOL     OW34187   5.086   3.006   6.131
10743SOL    HW134188   5.169   2.977   6.083
10743SOL    HW234189   5.037   3.073   6.075
10744SOL     OW34190   4.274   2.058   6.471
10744SOL    HW134191   4.269   2.053   6.571
10744SOL    HW234192   4.276   2.154   6.442
10745SOL     OW34193   4.732   3.318   6.063
10745SOL    HW134194   4.686   3.390   6.011
10745SOL    HW234195   4.728   3.338   6.161
10746SOL     OW34196   4.075   3.663   6.439
10746SOL    HW134197   4.125   3.577   6.445
10746SOL    HW234198   4.140   3.740   6.436
10747SOL     OW34199   5.519   2.928   6.459
10747SOL    HW134200   5.457   2.913   6.383
10747SOL    HW234201   5.467   2.939   6.544
10748SOL     OW34202   4.951   3.412   7.092
10748SOL    HW134203   4.957   3.335   7.156
10748SOL    HW234204   4.899   3.386   7.012
10749SOL     OW34205   4.045   2.805   5.828
10749SOL    HW134206   4.127   2.844   5.786
10749SOL    HW234207   4.018   2.723   5.779
10750SOL     OW34208   5.182   2.597   6.314
10750SOL    HW134209   5.177   2.532   6.389
10750SOL    HW234210   5.262   2.656   6.327
10751SOL     OW34211   4.185   3.128   7.313
10751SOL    HW134212   4.135   3.129   7.227
10751SOL    HW234213   4.122   3.110   7.389
10752SOL     OW34214   4.835   3.638   5.823
10752SOL    HW134215   4.775   3.576   5.873
10752SOL    HW234216   4.866   3.594   5.738
10753SOL     OW34217   3.926   2.147   7.084
10753SOL    HW134218   3.846   2.207   7.071
10753SOL    HW234219   3.916   2.098   7.170
10754SOL     OW34220   5.356   3.239   5.667
10754SOL    HW134221   5.324   3.333   5.657
10754SOL    HW234222   5.280   3.176   5.655
10755SOL     OW34223   4.188   3.605   5.909
10755SOL    HW134224   4.221   3.644   5.995
10755SOL    HW234225   4.264   3.598   5.844
10756SOL     OW34226   5.124   1.969   6.012
10756SOL    HW134227   5.100   1.932   5.922
10756SOL    HW234228   5.223   1.985   6.016
10757SOL     OW34229   3.973   3.647   6.827
10757SOL    HW134230   4.030   3.582   6.877
10757SOL    HW234231   3.957   3.614   6.734
10758SOL     OW34232   4.664   3.560   6.490
10758SOL    HW134233   4.744   3.503   6.511
10758SOL    HW234234   4.615   3.520   6.413
10759SOL     OW34235   4.106   2.562   6.066
10759SOL    HW134236   4.151   2.472   6.063
10759SOL    HW234237   4.012   2.551   6.099
10760SOL     OW34238   5.271   2.084   7.315
10760SOL    HW134239   5.266   2.121   7.407
10760SOL    HW234240   5.199   2.015   7.303
10761SOL     OW34241   4.338   1.984   5.703
10761SOL    HW134242   4.436   1.962   5.710
10761SOL    HW234243   4.307   1.967   5.610
10762SOL     OW34244   4.505   2.126   7.335
10762SOL    HW134245   4.572   2.065   7.378
10762SOL    HW234246   4.432   2.145   7.400
10763SOL     OW34247   4.612   3.376   6.781
10763SOL    HW134248   4.589   3.351   6.687
10763SOL    HW234249   4.673   3.307   6.820
10764SOL     OW34250   5.075   2.452   7.019
10764SOL    HW134251   5.103   2.409   7.104
10764SOL    HW234252   5.100   2.548   7.020
10765SOL     OW34253   4.527   3.264   6.510
10765SOL    HW134254   4.617   3.278   6.468
10765SOL    HW234255   4.456   3.266   6.439
10766SOL     OW34256   4.646   2.365   6.485
10766SOL    HW134257   4.621   2.356   6.389
10766SOL    HW234258   4.694   2.283   6.516
10767SOL     OW34259   4.263   1.926   6.098
10767SOL    HW134260   4.182   1.927   6.156
10767SOL    HW234261   4.266   2.009   6.043
10768SOL     OW34262   5.158   3.050   5.627
10768SOL    HW134263   5.190   2.974   5.684
10768SOL    HW234264   5.066   3.077   5.657
10769SOL     OW34265   4.021   1.897   5.757
10769SOL    HW134266   4.070   1.981   5.736
10769SOL    HW234267   4.083   1.832   5.802
10770SOL     OW34268   4.659   2.098   6.066
10770SOL    HW134269   4.611   2.139   5.988
10770SOL    HW234270   4.758   2.096   6.047
10771SOL     OW34271   4.800   2.545   7.050
10771SOL    HW134272   4.720   2.484   7.053
10771SOL    HW234273   4.881   2.492   7.026
10772SOL     OW34274   4.951   3.432   6.379
10772SOL    HW134275   4.972   3.506   6.314
10772SOL    HW234276   5.019   3.432   6.452
10773SOL     OW34277   4.183   3.014   6.327
10773SOL    HW134278   4.112   2.987   6.392
10773SOL    HW234279   4.157   2.986   6.234
10774SOL     OW34280   4.995   3.659   6.177
10774SOL    HW134281   5.039   3.723   6.113
10774SOL    HW234282   4.945   3.711   6.247
10775SOL     OW34283   4.756   2.411   5.602
10775SOL    HW134284   4.715   2.493   5.563
10775SOL    HW234285   4.820   2.437   5.675
10776SOL     OW34286   3.802   2.418   6.972
10776SOL    HW134287   3.894   2.417   6.931
10776SOL    HW234288   3.796   2.492   7.039
10777SOL     OW34289   4.285   2.084   6.733
10777SOL    HW134290   4.323   2.000   6.770
10777SOL    HW234291   4.197   2.103   6.777
10778SOL     OW34292   4.590   2.316   6.228
10778SOL    HW134293   4.558   2.388   6.166
10778SOL    HW234294   4.614   2.235   6.175
10779SOL     OW34295   4.741   1.901   6.339
10779SOL    HW134296   4.669   1.906   6.270
10779SOL    HW234297   4.717   1.832   6.408
10780SOL     OW34298   5.153   3.035   6.453
10780SOL    HW134299   5.098   2.951   6.446
10780SOL    HW234300   5.179   3.064   6.361
10781SOL     OW34301   5.190   2.452   6.578
10781SOL    HW134302   5.160   2.357   6.585
10781SOL    HW234303   5.263   2.468   6.644
10782SOL     OW34304   5.581   2.695   5.963
10782SOL    HW134305   5.623   2.631   6.027
10782SOL    HW234306   5.543   2.644   5.885
10783SOL     OW34307   4.212   3.247   5.760
10783SOL    HW134308   4.125   3.232   5.807
10783SOL    HW234309   4.195   3.273   5.665
10784SOL     OW34310   5.388   3.142   6.243
10784SOL    HW134311   5.487   3.150   6.257
10784SOL    HW234312   5.343   3.226   6.274
10785SOL     OW34313   5.114   2.437   5.664
10785SOL    HW134314   5.060   2.416   5.745
10785SOL    HW234315   5.205   2.396   5.673
10786SOL     OW34316   4.251   2.118   5.914
10786SOL    HW134317   4.278   2.059   5.839
10786SOL    HW234318   4.251   2.213   5.883
10787SOL     OW34319   5.478   3.085   7.174
10787SOL    HW134320   5.569   3.046   7.161
10787SOL    HW234321   5.486   3.181   7.198
10788SOL     OW34322   4.788   3.209   6.926
10788SOL    HW134323   4.708   3.186   6.981
10788SOL    HW234324   4.871   3.183   6.975
10789SOL     OW34325   5.316   3.491   7.211
10789SOL    HW134326   5.343   3.525   7.121
10789SOL    HW234327   5.395   3.453   7.257
10790SOL     OW34328   4.835   3.057   6.686
10790SOL    HW134329   4.795   3.101   6.767
10790SOL    HW234330   4.794   3.094   6.603
10791SOL     OW34331   5.362   2.961   6.665
10791SOL    HW134332   5.367   3.042   6.724
10791SOL    HW234333   5.276   2.963   6.614
10792SOL     OW34334   4.639   1.951   6.988
10792SOL    HW134335   4.664   1.931   6.893
10792SOL    HW234336   4.711   2.007   7.030
10793SOL     OW34337   4.704   2.978   7.305
10793SOL    HW134338   4.605   2.984   7.315
10793SOL    HW234339   4.727   2.898   7.249
10794SOL     OW34340   4.429   2.912   5.954
10794SOL    HW134341   4.415   2.919   6.053
10794SOL    HW234342   4.513   2.861   5.936
10795SOL     OW34343   4.134   2.675   6.837
10795SOL    HW134344   4.220   2.687   6.887
10795SOL    HW234345   4.092   2.588   6.864
10796SOL     OW34346   4.998   2.248   6.848
10796SOL    HW134347   5.019   2.322   6.912
10796SOL    HW234348   4.909   2.265   6.805
10797SOL     OW34349   3.788   3.426   6.917
10797SOL    HW134350   3.742   3.508   6.883
10797SOL    HW234351   3.886   3.445   6.926
10798SOL     OW34352   4.091   2.962   6.087
10798SOL    HW134353   4.084   3.045   6.031
10798SOL    HW234354   4.095   2.882   6.027
10799SOL     OW34355   4.290   2.399   6.451
10799SOL    HW134356   4.302   2.465   6.377
10799SOL    HW234357   4.336   2.433   6.534
10800SOL     OW34358   4.976   3.210   5.974
10800SOL    HW134359   5.026   3.287   6.014
10800SOL    HW234360   4.881   3.212   6.006
10801SOL     OW34361   4.996   3.307   6.728
10801SOL    HW134362   5.043   3.320   6.815
10801SOL    HW234363   4.930   3.233   6.737
10802SOL     OW34364   5.306   2.501   6.058
10802SOL    HW134365   5.275   2.562   6.131
10802SOL    HW234366   5.356   2.553   5.989
10803SOL     OW34367   4.078   3.372   6.915
10803SOL    HW134368   4.057   3.328   6.828
10803SOL    HW234369   4.175   3.398   6.918
10804SOL     OW34370   4.126   2.613   7.184
10804SOL    HW134371   4.194   2.668   7.137
10804SOL    HW234372   4.166   2.525   7.211
10805SOL     OW34373   5.311   2.641   7.256
10805SOL    HW134374   5.219   2.679   7.251
10805SOL    HW234375   5.371   2.688   7.191
10806SOL     OW34376   4.737   1.967   7.356
10806SOL    HW134377   4.743   2.052   7.304
10806SOL    HW234378   4.769   1.891   7.299
10807SOL     OW34379   4.228   1.912   7.326
10807SOL    HW134380   4.186   1.855   7.256
10807SOL    HW234381   4.162   1.981   7.358
10808SOL     OW34382   4.297   2.732   6.615
10808SOL    HW134383   4.341   2.821   6.606
10808SOL    HW234384   4.234   2.732   6.692
10809SOL     OW34385   5.084   2.724   6.631
10809SOL    HW134386   5.009   2.724   6.565
10809SOL    HW234387   5.121   2.632   6.640
10810SOL     OW34388   4.933   2.387   5.861
10810SOL    HW134389   4.946   2.303   5.915
10810SOL    HW234390   4.904   2.461   5.921
10811SOL     OW34391   4.031   2.075   6.817
10811SOL    HW134392   4.008   2.112   6.907
10811SOL    HW234393   4.001   1.980   6.811
10812SOL     OW34394   3.761   3.172   6.868
10812SOL    HW134395   3.814   3.123   6.936
10812SOL    HW234396   3.783   3.270   6.873
10813SOL     OW34397   4.456   2.496   6.650
10813SOL    HW134398   4.515   2.470   6.574
10813SOL    HW234399   4.428   2.592   6.639
10814SOL     OW34400   4.031   1.925   6.204
10814SOL    HW134401   4.020   2.019   6.237
10814SOL    HW234402   4.026   1.862   6.281
10815SOL     OW34403   5.346   2.229   5.960
10815SOL    HW134404   5.348   2.153   6.024
10815SOL    HW234405   5.298   2.306   6.000
10816SOL     OW34406   4.747   2.628   6.552
10816SOL    HW134407   4.762   2.649   6.648
10816SOL    HW234408   4.717   2.533   6.543
10817SOL     OW34409   4.704   3.435   7.286
10817SOL    HW134410   4.684   3.479   7.198
10817SOL    HW234411   4.743   3.344   7.270
10818SOL     OW34412   5.583   3.380   7.191
10818SOL    HW134413   5.597   3.407   7.096
10818SOL    HW234414   5.666   3.402   7.244
10819SOL     OW34415   4.074   2.760   7.390
10819SOL    HW134416   4.150   2.804   7.438
10819SOL    HW234417   4.109   2.713   7.308
10820SOL     OW34418   5.264   2.136   5.711
10820SOL    HW134419   5.203   2.061   5.734
10820SOL    HW234420   5.286   2.188   5.794
10821SOL     OW34421   5.027   2.700   5.628
10821SOL    HW134422   5.061   2.607   5.643
10821SOL    HW234423   5.045   2.727   5.533
10822SOL     OW34424   4.792   3.195   6.435
10822SOL    HW134425   4.799   3.111   6.380
10822SOL    HW234426   4.854   3.264   6.399
10823SOL     OW34427   4.043   2.672   6.535
10823SOL    HW134428   4.136   2.708   6.540
10823SOL    HW234429   4.037   2.587   6.587
10824SOL     OW34430   4.063   2.371   6.592
10824SOL    HW134431   4.011   2.288   6.575
10824SOL    HW234432   4.140   2.376   6.528
10825SOL     OW34433   4.235   2.277   7.394
10825SOL    HW134434   4.217   2.322   7.482
10825SOL    HW234435   4.277   2.342   7.331
10826SOL     OW34436   4.862   2.242   7.264
10826SOL    HW134437   4.817   2.305   7.328
10826SOL    HW234438   4.955   2.273   7.247
10827SOL     OW34439   4.884   2.069   7.063
10827SOL    HW134440   4.884   2.133   7.140
10827SOL    HW234441   4.912   2.117   6.980
10828SOL     OW34442   3.732   3.188   5.786
10828SOL    HW134443   3.639   3.209   5.755
10828SOL    HW234444   3.742   3.089   5.799
10829SOL     OW34445   3.812   3.663   6.513
10829SOL    HW134446   3.770   3.577   6.486
10829SOL    HW234447   3.906   3.666   6.479
10830SOL     OW34448   4.228   3.430   6.496
10830SOL    HW134449   4.294   3.504   6.505
10830SOL    HW234450   4.272   3.351   6.454
10831SOL     OW34451   4.726   2.658   6.824
10831SOL    HW134452   4.767   2.626   6.910
10831SOL    HW234453   4.630   2.631   6.821
10832SOL     OW34454   3.764   2.406   6.700
10832SOL    HW134455   3.849   2.373   6.659
10832SOL    HW234456   3.777   2.421   6.798
10833SOL     OW34457   3.913   2.382   7.308
10833SOL    HW134458   3.972   2.342   7.238
10833SOL    HW234459   3.855   2.453   7.267
10834SOL     OW34460   5.093   2.812   7.246
10834SOL    HW134461   5.132   2.901   7.266
10834SOL    HW234462   5.103   2.792   7.149
10835SOL     OW34463   4.539   2.434   5.911
10835SOL    HW134464   4.546   2.345   5.865
10835SOL    HW234465   4.445   2.468   5.903
10836SOL     OW34466   5.381   2.466   6.792
10836SOL    HW134467   5.343   2.397   6.854
10836SOL    HW234468   5.463   2.430   6.748
10837SOL     OW34469   3.976   3.426   7.330
10837SOL    HW134470   3.946   3.483   7.406
10837SOL    HW234471   3.969   3.329   7.356
10838SOL     OW34472   4.395   2.326   6.855
10838SOL    HW134473   4.361   2.237   6.825
10838SOL    HW234474   4.421   2.380   6.775
10839SOL     OW34475   4.654   3.540   7.051
10839SOL    HW134476   4.630   3.522   6.956
10839SOL    HW234477   4.684   3.634   7.061
10840SOL     OW34478   4.197   2.362   5.777
10840SOL    HW134479   4.258   2.442   5.781
10840SOL    HW234480   4.102   2.393   5.784
10841SOL     OW34481   3.883   2.999   7.052
10841SOL    HW134482   3.905   2.938   7.128
10841SOL    HW234483   3.893   2.950   6.966
10842SOL     OW34484   5.071   2.921   6.820
10842SOL    HW134485   5.095   2.858   6.746
10842SOL    HW234486   4.981   2.961   6.802
10843SOL     OW34487   5.026   2.717   5.895
10843SOL    HW134488   4.940   2.686   5.937
10843SOL    HW234489   5.022   2.703   5.796
10844SOL     OW34490   5.483   3.609   6.740
10844SOL    HW134491   5.544   3.639   6.667
10844SOL    HW234492   5.445   3.520   6.718
10845SOL     OW34493   4.976   3.593   6.714
10845SOL    HW134494   5.060   3.598   6.660
10845SOL    HW234495   4.953   3.497   6.732
10846SOL     OW34496   3.807   3.120   6.608
10846SOL    HW134497   3.802   3.119   6.708
10846SOL    HW234498   3.724   3.079   6.570
10847SOL     OW34499   4.412   3.524   7.302
10847SOL    HW134500   4.356   3.605   7.311
10847SOL    HW234501   4.464   3.528   7.216
10848SOL     OW34502   4.627   1.948   5.719
10848SOL    HW134503   4.678   1.949   5.633
10848SOL    HW234504   4.683   1.906   5.790
10849SOL     OW34505   5.450   1.997   6.109
10849SOL    HW134506   5.523   1.980   6.042
10849SOL    HW234507   5.419   1.910   6.147
10850SOL     OW34508   5.112   3.435   6.063
10850SOL    HW134509   5.179   3.447   5.989
10850SOL    HW234510   5.072   3.524   6.086
10851SOL     OW34511   3.854   3.656   7.437
10851SOL    HW134512   3.813   3.582   7.490
10851SOL    HW234513   3.918   3.707   7.495
10852SOL     OW34514   5.004   2.789   6.258
10852SOL    HW134515   5.064   2.708   6.260
10852SOL    HW234516   5.044   2.858   6.198
10853SOL     OW34517   4.554   3.135   7.008
10853SOL    HW134518   4.549   3.168   7.103
10853SOL    HW234519   4.468   3.154   6.962
10854SOL     OW34520   4.396   3.478   5.740
10854SOL    HW134521   4.405   3.488   5.641
10854SOL    HW234522   4.356   3.389   5.761
10855SOL     OW34523   5.374   3.582   6.980
10855SOL    HW134524   5.427   3.592   6.896
10855SOL    HW234525   5.347   3.672   7.014
10856SOL     OW34526   3.987   2.188   6.306
10856SOL    HW134527   3.908   2.239   6.272
10856SOL    HW234528   3.978   2.173   6.404
10857SOL     OW34529   4.918   3.474   5.617
10857SOL    HW134530   4.924   3.381   5.654
10857SOL    HW234531   4.859   3.474   5.537
10858SOL     OW34532   4.546   2.864   6.958
10858SOL    HW134533   4.586   2.863   6.866
10858SOL    HW234534   4.556   2.956   6.998
10859SOL     OW34535   4.640   2.772   5.877
10859SOL    HW134536   4.703   2.810   5.809
10859SOL    HW234537   4.680   2.689   5.916
10860SOL     OW34538   5.228   3.469   5.630
10860SOL    HW134539   5.136   3.506   5.637
10860SOL    HW234540   5.266   3.489   5.540
10861SOL     OW34541   4.096   3.150   7.076
10861SOL    HW134542   4.083   3.243   7.042
10861SOL    HW234543   4.012   3.098   7.063
10862SOL     OW34544   5.338   3.154   6.875
10862SOL    HW134545   5.398   3.157   6.955
10862SOL    HW234546   5.263   3.218   6.888
10863SOL     OW34547   4.763   2.960   6.282
10863SOL    HW134548   4.693   2.913   6.336
10863SOL    HW234549   4.822   2.892   6.239
10864SOL     OW34550   4.738   2.098   6.557
10864SOL    HW134551   4.730   2.062   6.464
10864SOL    HW234552   4.736   2.022   6.622
10865SOL     OW34553   4.314   3.349   6.077
10865SOL    HW134554   4.356   3.291   6.007
10865SOL    HW234555   4.270   3.428   6.033
10866SOL     OW34556   3.979   3.210   5.876
10866SOL    HW134557   3.883   3.211   5.849
10866SOL    HW234558   3.991   3.263   5.960
10867SOL     OW34559   3.829   2.875   7.312
10867SOL    HW134560   3.752   2.842   7.366
10867SOL    HW234561   3.914   2.845   7.354
10868SOL     OW34562   4.396   2.065   7.075
10868SOL    HW134563   4.486   2.049   7.035
10868SOL    HW234564   4.404   2.070   7.174
10869SOL     OW34565   3.799   2.207   5.619
10869SOL    HW134566   3.707   2.179   5.590
10869SOL    HW234567   3.830   2.284   5.563
10870SOL     OW34568   5.164   2.718   6.984
10870SOL    HW134569   5.107   2.770   6.921
10870SOL    HW234570   5.260   2.730   6.960
10871SOL     OW34571   3.796   2.028   5.904
10871SOL    HW134572   3.779   2.111   5.850
10871SOL    HW234573   3.886   1.991   5.882
10872SOL     OW34574   4.907   3.197   5.705
10872SOL    HW134575   4.808   3.186   5.707
10872SOL    HW234576   4.941   3.212   5.798
10873SOL     OW34577   4.337   2.704   7.017
10873SOL    HW134578   4.393   2.785   7.000
10873SOL    HW234579   4.396   2.624   7.020
10874SOL     OW34580   5.217   3.629   6.545
10874SOL    HW134581   5.250   3.693   6.476
10874SOL    HW234582   5.283   3.623   6.620
10875SOL     OW34583   4.440   2.427   7.294
10875SOL    HW134584   4.459   2.492   7.368
10875SOL    HW234585   4.500   2.347   7.303
10876SOL     OW34586   5.174   3.082   7.219
10876SOL    HW134587   5.165   3.072   7.318
10876SOL    HW234588   5.270   3.075   7.193
10877SOL     OW34589   4.114   3.603   7.146
10877SOL    HW134590   4.023   3.644   7.144
10877SOL    HW234591   4.107   3.509   7.178
10878SOL     OW34592   5.398   2.745   6.840
10878SOL    HW134593   5.371   2.656   6.803
10878SOL    HW234594   5.399   2.813   6.767
10879SOL     OW34595   4.949   2.187   6.035
10879SOL    HW134596   5.014   2.113   6.024
10879SOL    HW234597   4.969   2.237   6.119
10880SOL     OW34598   4.318   2.607   6.238
10880SOL    HW134599   4.368   2.692   6.219
10880SOL    HW234600   4.230   2.609   6.190
10881SOL     OW34601   5.501   2.204   7.228
10881SOL    HW134602   5.484   2.235   7.134
10881SOL    HW234603   5.417   2.167   7.266
10882SOL     OW34604   5.454   2.796   7.103
10882SOL    HW134605   5.492   2.887   7.118
10882SOL    HW234606   5.446   2.779   7.004
10883SOL     OW34607   4.583   3.236   5.602
10883SOL    HW134608   4.537   3.251   5.690
10883SOL    HW234609   4.627   3.321   5.572
10884SOL     OW34610   4.385   3.652   6.539
10884SOL    HW134611   4.339   3.740   6.526
10884SOL    HW234612   4.484   3.664   6.532
10885SOL     OW34613   5.132   3.713   7.306
10885SOL    HW134614   5.036   3.702   7.279
10885SOL    HW234615   5.188   3.646   7.258
10886SOL     OW34616   4.583   2.818   6.447
10886SOL    HW134617   4.637   2.749   6.495
10886SOL    HW234618   4.551   2.887   6.513
10887SOL     OW34619   4.807   2.846   5.673
10887SOL    HW134620   4.784   2.899   5.591
10887SOL    HW234621   4.888   2.790   5.654
10888SOL     OW34622   5.585   3.431   6.437
10888SOL    HW134623   5.514   3.419   6.367
10888SOL    HW234624   5.586   3.352   6.497
10889SOL     OW34625   3.945   3.176   7.430
10889SOL    HW134626   3.880   3.103   7.409
10889SOL    HW234627   3.949   3.190   7.528
10890SOL     OW34628   3.803   3.102   6.239
10890SOL    HW134629   3.802   3.055   6.327
10890SOL    HW234630   3.885   3.074   6.188
10891SOL     OW34631   4.396   3.253   7.210
10891SOL    HW134632   4.318   3.203   7.248
10891SOL    HW234633   4.393   3.348   7.241
10892SOL     OW34634   5.548   2.054   6.813
10892SOL    HW134635   5.544   1.964   6.857
10892SOL    HW234636   5.551   2.043   6.714
10893SOL     OW34637   4.152   2.286   6.106
10893SOL    HW134638   4.182   2.214   6.044
10893SOL    HW234639   4.113   2.246   6.189
10894SOL     OW34640   5.429   3.349   6.690
10894SOL    HW134641   5.336   3.324   6.663
10894SOL    HW234642   5.455   3.299   6.772
10895SOL     OW34643   4.041   2.409   6.866
10895SOL    HW134644   4.079   2.350   6.938
10895SOL    HW234645   4.081   2.383   6.778
10896SOL     OW34646   4.536   3.448   6.273
10896SOL    HW134647   4.568   3.458   6.179
10896SOL    HW234648   4.457   3.386   6.275
10897SOL     OW34649   5.148   2.076   6.698
10897SOL    HW134650   5.200   2.011   6.753
10897SOL    HW234651   5.099   2.139   6.759
10898SOL     OW34652   4.725   1.896   6.740
10898SOL    HW134653   4.662   1.824   6.709
10898SOL    HW234654   4.818   1.860   6.740
10899SOL     OW34655   4.494   3.192   5.887
10899SOL    HW134656   4.448   3.105   5.904
10899SOL    HW234657   4.585   3.189   5.928
10900SOL     OW34658   4.342   3.429   6.870
10900SOL    HW134659   4.337   3.511   6.927
10900SOL    HW234660   4.431   3.426   6.825
10901SOL     OW34661   5.076   1.914   5.754
10901SOL    HW134662   5.111   1.873   5.670
10901SOL    HW234663   4.986   1.876   5.774
10902SOL     OW34664   5.024   2.315   6.277
10902SOL    HW134665   4.965   2.395   6.281
10902SOL    HW234666   5.039   2.280   6.370
10903SOL     OW34667   5.317   2.083   6.468
10903SOL    HW134668   5.233   2.082   6.522
10903SOL    HW234669   5.319   2.166   6.412
10904SOL     OW34670   3.763   2.939   5.886
10904SOL    HW134671   3.862   2.928   5.877
10904SOL    HW234672   3.723   2.853   5.918
10905SOL     OW34673   4.599   3.508   5.923
10905SOL    HW134674   4.522   3.473   5.869
10905SOL    HW234675   4.567   3.579   5.985
10906SOL     OW34676   3.954   2.490   7.561
10906SOL    HW134677   3.861   2.488   7.598
10906SOL    HW234678   3.955   2.451   7.469
10907SOL     OW34679   3.949   2.137   8.444
10907SOL    HW134680   3.984   2.120   8.536
10907SOL    HW234681   3.861   2.092   8.432
10908SOL     OW34682   3.743   2.230   8.095
10908SOL    HW134683   3.661   2.273   8.134
10908SOL    HW234684   3.715   2.157   8.032
10909SOL     OW34685   4.293   3.137   8.613
10909SOL    HW134686   4.200   3.130   8.576
10909SOL    HW234687   4.304   3.226   8.657
10910SOL     OW34688   5.279   3.373   8.151
10910SOL    HW134689   5.222   3.357   8.232
10910SOL    HW234690   5.220   3.383   8.071
10911SOL     OW34691   5.467   2.480   8.304
10911SOL    HW134692   5.500   2.574   8.304
10911SOL    HW234693   5.518   2.426   8.370
10912SOL     OW34694   4.859   2.565   8.165
10912SOL    HW134695   4.916   2.643   8.140
10912SOL    HW234696   4.799   2.591   8.241
10913SOL     OW34697   5.479   2.469   7.679
10913SOL    HW134698   5.467   2.456   7.580
10913SOL    HW234699   5.449   2.388   7.728
10914SOL     OW34700   4.492   3.006   8.471
10914SOL    HW134701   4.414   3.023   8.531
10914SOL    HW234702   4.526   3.093   8.435
10915SOL     OW34703   4.409   2.874   8.113
10915SOL    HW134704   4.478   2.858   8.183
10915SOL    HW234705   4.336   2.931   8.151
10916SOL     OW34706   4.059   3.297   8.509
10916SOL    HW134707   3.981   3.266   8.456
10916SOL    HW234708   4.117   3.355   8.452
10917SOL     OW34709   5.184   3.367   8.787
10917SOL    HW134710   5.208   3.461   8.813
10917SOL    HW234711   5.168   3.313   8.869
10918SOL     OW34712   4.162   2.254   8.947
10918SOL    HW134713   4.244   2.198   8.956
10918SOL    HW234714   4.081   2.196   8.951
10919SOL     OW34715   5.327   2.309   8.185
10919SOL    HW134716   5.253   2.355   8.135
10919SOL    HW234717   5.378   2.377   8.238
10920SOL     OW34718   3.955   3.575   7.931
10920SOL    HW134719   3.989   3.652   7.985
10920SOL    HW234720   3.999   3.575   7.841
10921SOL     OW34721   3.954   3.296   7.986
10921SOL    HW134722   3.928   3.392   7.986
10921SOL    HW234723   3.883   3.242   8.031
10922SOL     OW34724   3.964   2.953   8.334
10922SOL    HW134725   3.978   2.869   8.386
10922SOL    HW234726   3.909   3.017   8.389
10923SOL     OW34727   4.344   3.648   8.887
10923SOL    HW134728   4.252   3.631   8.922
10923SOL    HW234729   4.372   3.740   8.913
10924SOL     OW34730   4.330   2.826   7.571
10924SOL    HW134731   4.337   2.910   7.517
10924SOL    HW234732   4.376   2.839   7.659
10925SOL     OW34733   5.318   1.976   8.928
10925SOL    HW134734   5.300   2.043   8.856
10925SOL    HW234735   5.315   2.022   9.017
10926SOL     OW34736   3.846   2.505   8.011
10926SOL    HW134737   3.801   2.417   8.028
10926SOL    HW234738   3.845   2.559   8.095
10927SOL     OW34739   5.566   3.629   7.807
10927SOL    HW134740   5.620   3.600   7.887
10927SOL    HW234741   5.596   3.719   7.778
10928SOL     OW34742   3.751   3.458   7.565
10928SOL    HW134743   3.732   3.362   7.586
10928SOL    HW234744   3.718   3.516   7.640
10929SOL     OW34745   4.337   3.227   8.174
10929SOL    HW134746   4.288   3.140   8.183
10929SOL    HW234747   4.314   3.270   8.087
10930SOL     OW34748   4.533   1.866   7.950
10930SOL    HW134749   4.573   1.957   7.941
10930SOL    HW234750   4.433   1.874   7.956
10931SOL     OW34751   3.921   2.838   8.712
10931SOL    HW134752   4.010   2.793   8.698
10931SOL    HW234753   3.848   2.773   8.693
10932SOL     OW34754   5.249   2.861   7.638
10932SOL    HW134755   5.186   2.785   7.651
10932SOL    HW234756   5.297   2.879   7.724
10933SOL     OW34757   5.391   3.576   8.020
10933SOL    HW134758   5.350   3.553   7.932
10933SOL    HW234759   5.373   3.502   8.085
10934SOL     OW34760   4.322   2.591   7.718
10934SOL    HW134761   4.346   2.660   7.650
10934SOL    HW234762   4.244   2.624   7.772
10935SOL     OW34763   5.005   2.207   8.392
10935SOL    HW134764   4.919   2.157   8.379
10935SOL    HW234765   5.067   2.153   8.448
10936SOL     OW34766   5.300   3.524   7.755
10936SOL    HW134767   5.389   3.570   7.758
10936SOL    HW234768   5.279   3.500   7.660
10937SOL     OW34769   4.531   2.467   8.913
10937SOL    HW134770   4.484   2.464   9.002
10937SOL    HW234771   4.480   2.412   8.847
10938SOL     OW34772   4.715   2.272   8.690
10938SOL    HW134773   4.638   2.306   8.744
10938SOL    HW234774   4.681   2.221   8.611
10939SOL     OW34775   4.765   2.563   7.877
10939SOL    HW134776   4.791   2.559   7.973
10939SOL    HW234777   4.680   2.512   7.863
10940SOL     OW34778   3.800   2.673   8.237
10940SOL    HW134779   3.899   2.661   8.246
10940SOL    HW234780   3.776   2.768   8.258
10941SOL     OW34781   3.854   3.683   0.019
10941SOL    HW134782   3.844   3.668   0.118
10941SOL    HW234783   3.768   3.719  -0.017
10942SOL     OW34784   4.589   2.210   7.643
10942SOL    HW134785   4.648   2.273   7.594
10942SOL    HW234786   4.608   2.116   7.614
10943SOL     OW34787   4.274   2.058   8.333
10943SOL    HW134788   4.269   2.053   8.433
10943SOL    HW234789   4.276   2.154   8.304
10944SOL     OW34790   4.732   3.318   7.925
10944SOL    HW134791   4.686   3.390   7.873
10944SOL    HW234792   4.728   3.338   8.023
10945SOL     OW34793   4.075   3.663   8.301
10945SOL    HW134794   4.125   3.577   8.307
10945SOL    HW234795   4.140   3.740   8.298
10946SOL     OW34796   5.519   2.928   8.321
10946SOL    HW134797   5.457   2.913   8.245
10946SOL    HW234798   5.467   2.939   8.406
10947SOL     OW34799   4.045   2.805   7.690
10947SOL    HW134800   4.127   2.844   7.648
10947SOL    HW234801   4.018   2.723   7.641
10948SOL     OW34802   5.182   2.597   8.176
10948SOL    HW134803   5.177   2.532   8.251
10948SOL    HW234804   5.262   2.656   8.189
10949SOL     OW34805   4.835   3.638   7.685
10949SOL    HW134806   4.775   3.576   7.735
10949SOL    HW234807   4.866   3.594   7.600
10950SOL     OW34808   3.926   2.147   8.946
10950SOL    HW134809   3.846   2.207   8.933
10950SOL    HW234810   3.916   2.098   9.032
10951SOL     OW34811   5.356   3.239   7.529
10951SOL    HW134812   5.324   3.333   7.519
10951SOL    HW234813   5.280   3.176   7.517
10952SOL     OW34814   4.188   3.605   7.771
10952SOL    HW134815   4.221   3.644   7.857
10952SOL    HW234816   4.264   3.598   7.706
10953SOL     OW34817   5.124   1.969   7.874
10953SOL    HW134818   5.100   1.932   7.784
10953SOL    HW234819   5.223   1.985   7.878
10954SOL     OW34820   3.973   3.647   8.689
10954SOL    HW134821   4.030   3.582   8.739
10954SOL    HW234822   3.957   3.614   8.596
10955SOL     OW34823   4.664   3.560   8.352
10955SOL    HW134824   4.744   3.503   8.373
10955SOL    HW234825   4.615   3.520   8.275
10956SOL     OW34826   4.106   2.562   7.928
10956SOL    HW134827   4.151   2.472   7.925
10956SOL    HW234828   4.012   2.551   7.961
10957SOL     OW34829   4.338   1.984   7.565
10957SOL    HW134830   4.436   1.962   7.572
10957SOL    HW234831   4.307   1.967   7.472
10958SOL     OW34832   4.612   3.376   8.643
10958SOL    HW134833   4.589   3.351   8.549
10958SOL    HW234834   4.673   3.307   8.682
10959SOL     OW34835   4.527   3.264   8.372
10959SOL    HW134836   4.617   3.278   8.330
10959SOL    HW234837   4.456   3.266   8.301
10960SOL     OW34838   4.646   2.365   8.347
10960SOL    HW134839   4.621   2.356   8.251
10960SOL    HW234840   4.694   2.283   8.378
10961SOL     OW34841   4.263   1.926   7.960
10961SOL    HW134842   4.182   1.927   8.018
10961SOL    HW234843   4.266   2.009   7.905
10962SOL     OW34844   5.158   3.050   7.489
10962SOL    HW134845   5.190   2.974   7.546
10962SOL    HW234846   5.066   3.077   7.519
10963SOL     OW34847   4.021   1.897   7.619
10963SOL    HW134848   4.070   1.981   7.598
10963SOL    HW234849   4.083   1.832   7.664
10964SOL     OW34850   4.659   2.098   7.928
10964SOL    HW134851   4.611   2.139   7.850
10964SOL    HW234852   4.758   2.096   7.909
10965SOL     OW34853   4.951   3.432   8.241
10965SOL    HW134854   4.972   3.506   8.176
10965SOL    HW234855   5.019   3.432   8.314
10966SOL     OW34856   4.183   3.014   8.189
10966SOL    HW134857   4.112   2.987   8.254
10966SOL    HW234858   4.157   2.986   8.096
10967SOL     OW34859   4.995   3.659   8.039
10967SOL    HW134860   5.039   3.723   7.975
10967SOL    HW234861   4.945   3.711   8.109
10968SOL     OW34862   4.756   2.411   7.464
10968SOL    HW134863   4.715   2.493   7.425
10968SOL    HW234864   4.820   2.437   7.537
10969SOL     OW34865   3.802   2.418   8.834
10969SOL    HW134866   3.894   2.417   8.793
10969SOL    HW234867   3.796   2.492   8.901
10970SOL     OW34868   4.285   2.084   8.595
10970SOL    HW134869   4.323   2.000   8.632
10970SOL    HW234870   4.197   2.103   8.639
10971SOL     OW34871   4.590   2.316   8.090
10971SOL    HW134872   4.558   2.388   8.028
10971SOL    HW234873   4.614   2.235   8.037
10972SOL     OW34874   4.741   1.901   8.201
10972SOL    HW134875   4.669   1.906   8.132
10972SOL    HW234876   4.717   1.832   8.270
10973SOL     OW34877   5.190   2.452   8.440
10973SOL    HW134878   5.160   2.357   8.447
10973SOL    HW234879   5.263   2.468   8.506
10974SOL     OW34880   5.581   2.695   7.825
10974SOL    HW134881   5.623   2.631   7.889
10974SOL    HW234882   5.543   2.644   7.747
10975SOL     OW34883   4.212   3.247   7.622
10975SOL    HW134884   4.125   3.232   7.669
10975SOL    HW234885   4.195   3.273   7.527
10976SOL     OW34886   5.114   2.437   7.526
10976SOL    HW134887   5.060   2.416   7.607
10976SOL    HW234888   5.205   2.396   7.535
10977SOL     OW34889   4.251   2.118   7.776
10977SOL    HW134890   4.278   2.059   7.701
10977SOL    HW234891   4.251   2.213   7.745
10978SOL     OW34892   4.788   3.209   8.788
10978SOL    HW134893   4.708   3.186   8.843
10978SOL    HW234894   4.871   3.183   8.837
10979SOL     OW34895   4.835   3.057   8.548
10979SOL    HW134896   4.795   3.101   8.629
10979SOL    HW234897   4.794   3.094   8.465
10980SOL     OW34898   4.639   1.951   8.850
10980SOL    HW134899   4.664   1.931   8.755
10980SOL    HW234900   4.711   2.007   8.892
10981SOL     OW34901   4.429   2.912   7.816
10981SOL    HW134902   4.415   2.919   7.915
10981SOL    HW234903   4.513   2.861   7.798
10982SOL     OW34904   4.134   2.675   8.699
10982SOL    HW134905   4.220   2.687   8.749
10982SOL    HW234906   4.092   2.588   8.726
10983SOL     OW34907   4.998   2.248   8.710
10983SOL    HW134908   5.019   2.322   8.774
10983SOL    HW234909   4.909   2.265   8.667
10984SOL     OW34910   3.788   3.426   8.779
10984SOL    HW134911   3.742   3.508   8.745
10984SOL    HW234912   3.886   3.445   8.788
10985SOL     OW34913   4.091   2.962   7.949
10985SOL    HW134914   4.084   3.045   7.893
10985SOL    HW234915   4.095   2.882   7.889
10986SOL     OW34916   4.290   2.399   8.313
10986SOL    HW134917   4.302   2.465   8.239
10986SOL    HW234918   4.336   2.433   8.396
10987SOL     OW34919   4.976   3.210   7.836
10987SOL    HW134920   5.026   3.287   7.876
10987SOL    HW234921   4.881   3.212   7.868
10988SOL     OW34922   4.996   3.307   8.590
10988SOL    HW134923   5.043   3.320   8.677
10988SOL    HW234924   4.930   3.233   8.599
10989SOL     OW34925   5.306   2.501   7.920
10989SOL    HW134926   5.275   2.562   7.993
10989SOL    HW234927   5.356   2.553   7.851
10990SOL     OW34928   4.078   3.372   8.777
10990SOL    HW134929   4.057   3.328   8.690
10990SOL    HW234930   4.175   3.398   8.780
10991SOL     OW34931   4.126   2.613   0.046
10991SOL    HW134932   4.194   2.668  -0.001
10991SOL    HW234933   4.166   2.525   0.073
10992SOL     OW34934   5.311   2.641   0.118
10992SOL    HW134935   5.219   2.679   0.113
10992SOL    HW234936   5.371   2.688   0.053
10993SOL     OW34937   4.297   2.732   8.477
10993SOL    HW134938   4.341   2.821   8.468
10993SOL    HW234939   4.234   2.732   8.554
10994SOL     OW34940   5.084   2.724   8.493
10994SOL    HW134941   5.009   2.724   8.427
10994SOL    HW234942   5.121   2.632   8.502
10995SOL     OW34943   4.933   2.387   7.723
10995SOL    HW134944   4.946   2.303   7.777
10995SOL    HW234945   4.904   2.461   7.783
10996SOL     OW34946   4.031   2.075   8.679
10996SOL    HW134947   4.008   2.112   8.769
10996SOL    HW234948   4.001   1.980   8.673
10997SOL     OW34949   3.761   3.172   8.730
10997SOL    HW134950   3.814   3.123   8.798
10997SOL    HW234951   3.783   3.270   8.735
10998SOL     OW34952   4.456   2.496   8.512
10998SOL    HW134953   4.515   2.470   8.436
10998SOL    HW234954   4.428   2.592   8.501
10999SOL     OW34955   4.031   1.925   8.066
10999SOL    HW134956   4.020   2.019   8.099
10999SOL    HW234957   4.026   1.862   8.143
11000SOL     OW34958   5.346   2.229   7.822
11000SOL    HW134959   5.348   2.153   7.886
11000SOL    HW234960   5.298   2.306   7.862
11001SOL     OW34961   4.747   2.628   8.414
11001SOL    HW134962   4.762   2.649   8.510
11001SOL    HW234963   4.717   2.533   8.405
11002SOL     OW34964   4.704   3.435   0.148
11002SOL    HW134965   4.684   3.479   0.060
11002SOL    HW234966   4.743   3.344   0.132
11003SOL     OW34967   5.583   3.380   0.053
11003SOL    HW134968   5.597   3.407  -0.042
11003SOL    HW234969   5.666   3.402   0.106
11004SOL     OW34970   5.264   2.136   7.573
11004SOL    HW134971   5.203   2.061   7.596
11004SOL    HW234972   5.286   2.188   7.656
11005SOL     OW34973   5.027   2.700   7.490
11005SOL    HW134974   5.061   2.607   7.505
11005SOL    HW234975   5.045   2.727   7.395
11006SOL     OW34976   4.792   3.195   8.297
11006SOL    HW134977   4.799   3.111   8.242
11006SOL    HW234978   4.854   3.264   8.261
11007SOL     OW34979   4.043   2.672   8.397
11007SOL    HW134980   4.136   2.708   8.402
11007SOL    HW234981   4.037   2.587   8.449
11008SOL     OW34982   4.063   2.371   8.454
11008SOL    HW134983   4.011   2.288   8.437
11008SOL    HW234984   4.140   2.376   8.390
11009SOL     OW34985   4.862   2.242   0.126
11009SOL    HW134986   4.817   2.305   0.190
11009SOL    HW234987   4.955   2.273   0.109
11010SOL     OW34988   4.884   2.069   8.925
11010SOL    HW134989   4.884   2.133   9.002
11010SOL    HW234990   4.912   2.117   8.842
11011SOL     OW34991   3.732   3.188   7.648
11011SOL    HW134992   3.639   3.209   7.617
11011SOL    HW234993   3.742   3.089   7.661
11012SOL     OW34994   3.812   3.663   8.375
11012SOL    HW134995   3.770   3.577   8.348
11012SOL    HW234996   3.906   3.666   8.341
11013SOL     OW34997   4.228   3.430   8.358
11013SOL    HW134998   4.294   3.504   8.367
11013SOL    HW234999   4.272   3.351   8.316
11014SOL     OW35000   4.726   2.658   8.686
11014SOL    HW135001   4.767   2.626   8.772
11014SOL    HW235002   4.630   2.631   8.683
11015SOL     OW35003   3.764   2.406   8.562
11015SOL    HW135004   3.849   2.373   8.521
11015SOL    HW235005   3.777   2.421   8.660
11016SOL     OW35006   4.539   2.434   7.773
11016SOL    HW135007   4.546   2.345   7.727
11016SOL    HW235008   4.445   2.468   7.765
11017SOL     OW35009   5.381   2.466   8.654
11017SOL    HW135010   5.343   2.397   8.716
11017SOL    HW235011   5.463   2.430   8.610
11018SOL     OW35012   4.395   2.326   8.717
11018SOL    HW135013   4.361   2.237   8.687
11018SOL    HW235014   4.421   2.380   8.637
11019SOL     OW35015   4.654   3.540   8.913
11019SOL    HW135016   4.630   3.522   8.818
11019SOL    HW235017   4.684   3.634   8.923
11020SOL     OW35018   4.197   2.362   7.639
11020SOL    HW135019   4.258   2.442   7.643
11020SOL    HW235020   4.102   2.393   7.646
11021SOL     OW35021   3.883   2.999   8.914
11021SOL    HW135022   3.905   2.938   8.990
11021SOL    HW235023   3.893   2.950   8.828
11022SOL     OW35024   5.026   2.717   7.757
11022SOL    HW135025   4.940   2.686   7.799
11022SOL    HW235026   5.022   2.703   7.658
11023SOL     OW35027   5.483   3.609   8.602
11023SOL    HW135028   5.544   3.639   8.529
11023SOL    HW235029   5.445   3.520   8.580
11024SOL     OW35030   4.976   3.593   8.576
11024SOL    HW135031   5.060   3.598   8.522
11024SOL    HW235032   4.953   3.497   8.594
11025SOL     OW35033   3.807   3.120   8.470
11025SOL    HW135034   3.802   3.119   8.570
11025SOL    HW235035   3.724   3.079   8.432
11026SOL     OW35036   4.627   1.948   7.581
11026SOL    HW135037   4.678   1.949   7.495
11026SOL    HW235038   4.683   1.906   7.652
11027SOL     OW35039   5.450   1.997   7.971
11027SOL    HW135040   5.523   1.980   7.904
11027SOL    HW235041   5.419   1.910   8.009
11028SOL     OW35042   5.112   3.435   7.925
11028SOL    HW135043   5.179   3.447   7.851
11028SOL    HW235044   5.072   3.524   7.948
11029SOL     OW35045   5.004   2.789   8.120
11029SOL    HW135046   5.064   2.708   8.122
11029SOL    HW235047   5.044   2.858   8.060
11030SOL     OW35048   4.396   3.478   7.602
11030SOL    HW135049   4.405   3.488   7.503
11030SOL    HW235050   4.356   3.389   7.623
11031SOL     OW35051   5.374   3.582   8.842
11031SOL    HW135052   5.427   3.592   8.758
11031SOL    HW235053   5.347   3.672   8.876
11032SOL     OW35054   5.565   2.037   8.411
11032SOL    HW135055   5.604   1.952   8.375
11032SOL    HW235056   5.467   2.039   8.392
11033SOL     OW35057   3.987   2.188   8.168
11033SOL    HW135058   3.908   2.239   8.134
11033SOL    HW235059   3.978   2.173   8.266
11034SOL     OW35060   4.918   3.474   7.479
11034SOL    HW135061   4.924   3.381   7.516
11034SOL    HW235062   4.859   3.474   7.399
11035SOL     OW35063   4.546   2.864   8.820
11035SOL    HW135064   4.586   2.863   8.728
11035SOL    HW235065   4.556   2.956   8.860
11036SOL     OW35066   4.640   2.772   7.739
11036SOL    HW135067   4.703   2.810   7.671
11036SOL    HW235068   4.680   2.689   7.778
11037SOL     OW35069   5.228   3.469   7.492
11037SOL    HW135070   5.136   3.506   7.499
11037SOL    HW235071   5.266   3.489   7.402
11038SOL     OW35072   4.096   3.150   8.938
11038SOL    HW135073   4.083   3.243   8.904
11038SOL    HW235074   4.012   3.098   8.925
11039SOL     OW35075   4.763   2.960   8.144
11039SOL    HW135076   4.693   2.913   8.198
11039SOL    HW235077   4.822   2.892   8.101
11040SOL     OW35078   4.738   2.098   8.419
11040SOL    HW135079   4.730   2.062   8.326
11040SOL    HW235080   4.736   2.022   8.484
11041SOL     OW35081   4.314   3.349   7.939
11041SOL    HW135082   4.356   3.291   7.869
11041SOL    HW235083   4.270   3.428   7.895
11042SOL     OW35084   5.433   2.247   8.829
11042SOL    HW135085   5.506   2.316   8.833
11042SOL    HW235086   5.461   2.172   8.770
11043SOL     OW35087   3.979   3.210   7.738
11043SOL    HW135088   3.883   3.211   7.711
11043SOL    HW235089   3.991   3.263   7.822
11044SOL     OW35090   3.799   2.207   7.481
11044SOL    HW135091   3.707   2.179   7.452
11044SOL    HW235092   3.830   2.284   7.425
11045SOL     OW35093   5.164   2.718   8.846
11045SOL    HW135094   5.107   2.770   8.783
11045SOL    HW235095   5.260   2.730   8.822
11046SOL     OW35096   3.796   2.028   7.766
11046SOL    HW135097   3.779   2.111   7.712
11046SOL    HW235098   3.886   1.991   7.744
11047SOL     OW35099   4.907   3.197   7.567
11047SOL    HW135100   4.808   3.186   7.569
11047SOL    HW235101   4.941   3.212   7.660
11048SOL     OW35102   4.337   2.704   8.879
11048SOL    HW135103   4.393   2.785   8.862
11048SOL    HW235104   4.396   2.624   8.882
11049SOL     OW35105   5.217   3.629   8.407
11049SOL    HW135106   5.250   3.693   8.338
11049SOL    HW235107   5.283   3.623   8.482
11050SOL     OW35108   4.114   3.603   0.008
11050SOL    HW135109   4.023   3.644   0.006
11050SOL    HW235110   4.107   3.509   0.040
11051SOL     OW35111   5.398   2.745   8.702
11051SOL    HW135112   5.371   2.656   8.665
11051SOL    HW235113   5.399   2.813   8.629
11052SOL     OW35114   4.949   2.187   7.897
11052SOL    HW135115   5.014   2.113   7.886
11052SOL    HW235116   4.969   2.237   7.981
11053SOL     OW35117   4.318   2.607   8.100
11053SOL    HW135118   4.368   2.692   8.081
11053SOL    HW235119   4.230   2.609   8.052
11054SOL     OW35120   5.501   2.204   0.090
11054SOL    HW135121   5.484   2.235  -0.004
11054SOL    HW235122   5.417   2.167   0.128
11055SOL     OW35123   5.454   2.796   8.965
11055SOL    HW135124   5.492   2.887   8.980
11055SOL    HW235125   5.446   2.779   8.866
11056SOL     OW35126   4.583   3.236   7.464
11056SOL    HW135127   4.537   3.251   7.552
11056SOL    HW235128   4.627   3.321   7.434
11057SOL     OW35129   4.385   3.652   8.401
11057SOL    HW135130   4.339   3.740   8.388
11057SOL    HW235131   4.484   3.664   8.394
11058SOL     OW35132   5.132   3.713   0.168
11058SOL    HW135133   5.036   3.702   0.141
11058SOL    HW235134   5.188   3.646   0.120
11059SOL     OW35135   4.583   2.818   8.309
11059SOL    HW135136   4.637   2.749   8.357
11059SOL    HW235137   4.551   2.887   8.375
11060SOL     OW35138   4.807   2.846   7.535
11060SOL    HW135139   4.784   2.899   7.453
11060SOL    HW235140   4.888   2.790   7.516
11061SOL     OW35141   3.803   3.102   8.101
11061SOL    HW135142   3.802   3.055   8.189
11061SOL    HW235143   3.885   3.074   8.050
11062SOL     OW35144   5.548   2.054   8.675
11062SOL    HW135145   5.544   1.964   8.719
11062SOL    HW235146   5.551   2.043   8.576
11063SOL     OW35147   4.152   2.286   7.968
11063SOL    HW135148   4.182   2.214   7.906
11063SOL    HW235149   4.113   2.246   8.051
11064SOL     OW35150   4.041   2.409   8.728
11064SOL    HW135151   4.079   2.350   8.800
11064SOL    HW235152   4.081   2.383   8.640
11065SOL     OW35153   4.536   3.448   8.135
11065SOL    HW135154   4.568   3.458   8.041
11065SOL    HW235155   4.457   3.386   8.137
11066SOL     OW35156   5.148   2.076   8.560
11066SOL    HW135157   5.200   2.011   8.615
11066SOL    HW235158   5.099   2.139   8.621
11067SOL     OW35159   4.725   1.896   8.602
11067SOL    HW135160   4.662   1.824   8.571
11067SOL    HW235161   4.818   1.860   8.602
11068SOL     OW35162   4.494   3.192   7.749
11068SOL    HW135163   4.448   3.105   7.766
11068SOL    HW235164   4.585   3.189   7.790
11069SOL     OW35165   4.342   3.429   8.732
11069SOL    HW135166   4.337   3.511   8.789
11069SOL    HW235167   4.431   3.426   8.687
11070SOL     OW35168   5.076   1.914   7.616
11070SOL    HW135169   5.111   1.873   7.532
11070SOL    HW235170   4.986   1.876   7.636
11071SOL     OW35171   5.024   2.315   8.139
11071SOL    HW135172   4.965   2.395   8.143
11071SOL    HW235173   5.039   2.280   8.232
11072SOL     OW35174   5.317   2.083   8.330
11072SOL    HW135175   5.233   2.082   8.384
11072SOL    HW235176   5.319   2.166   8.274
11073SOL     OW35177   3.763   2.939   7.748
11073SOL    HW135178   3.862   2.928   7.739
11073SOL    HW235179   3.723   2.853   7.780
11074SOL     OW35180   4.599   3.508   7.785
11074SOL    HW135181   4.522   3.473   7.731
11074SOL    HW235182   4.567   3.579   7.847
11075SOL     OW35183   3.954   4.352   0.113
11075SOL    HW135184   3.861   4.350   0.150
11075SOL    HW235185   3.955   4.313   0.021
11076SOL     OW35186   3.743   4.092   0.647
11076SOL    HW135187   3.661   4.135   0.686
11076SOL    HW235188   3.715   4.019   0.584
11077SOL     OW35189   4.293   4.999   1.165
11077SOL    HW135190   4.200   4.992   1.128
11077SOL    HW235191   4.304   5.088   1.209
11078SOL     OW35192   5.279   5.235   0.703
11078SOL    HW135193   5.222   5.219   0.784
11078SOL    HW235194   5.220   5.245   0.623
11079SOL     OW35195   5.467   4.342   0.856
11079SOL    HW135196   5.500   4.436   0.856
11079SOL    HW235197   5.518   4.288   0.922
11080SOL     OW35198   4.859   4.427   0.717
11080SOL    HW135199   4.916   4.505   0.692
11080SOL    HW235200   4.799   4.453   0.793
11081SOL     OW35201   5.479   4.331   0.231
11081SOL    HW135202   5.467   4.318   0.132
11081SOL    HW235203   5.449   4.250   0.280
11082SOL     OW35204   4.492   4.868   1.023
11082SOL    HW135205   4.414   4.885   1.083
11082SOL    HW235206   4.526   4.955   0.987
11083SOL     OW35207   4.409   4.736   0.665
11083SOL    HW135208   4.478   4.720   0.735
11083SOL    HW235209   4.336   4.793   0.703
11084SOL     OW35210   4.059   5.159   1.061
11084SOL    HW135211   3.981   5.128   1.008
11084SOL    HW235212   4.117   5.217   1.004
11085SOL     OW35213   4.162   4.116   1.499
11085SOL    HW135214   4.244   4.060   1.508
11085SOL    HW235215   4.081   4.058   1.503
11086SOL     OW35216   5.327   4.171   0.737
11086SOL    HW135217   5.253   4.217   0.687
11086SOL    HW235218   5.378   4.239   0.790
11087SOL     OW35219   3.955   5.437   0.483
11087SOL    HW135220   3.989   5.514   0.537
11087SOL    HW235221   3.999   5.437   0.393
11088SOL     OW35222   3.954   5.158   0.538
11088SOL    HW135223   3.928   5.254   0.538
11088SOL    HW235224   3.883   5.104   0.583
11089SOL     OW35225   3.964   4.815   0.886
11089SOL    HW135226   3.978   4.731   0.938
11089SOL    HW235227   3.909   4.879   0.941
11090SOL     OW35228   4.344   5.510   1.439
11090SOL    HW135229   4.252   5.493   1.474
11090SOL    HW235230   4.372   5.602   1.465
11091SOL     OW35231   4.330   4.688   0.123
11091SOL    HW135232   4.337   4.772   0.069
11091SOL    HW235233   4.376   4.701   0.211
11092SOL     OW35234   5.318   3.838   1.480
11092SOL    HW135235   5.300   3.905   1.408
11092SOL    HW235236   5.315   3.884   1.569
11093SOL     OW35237   3.846   4.367   0.563
11093SOL    HW135238   3.801   4.279   0.580
11093SOL    HW235239   3.845   4.421   0.647
11094SOL     OW35240   5.566   5.491   0.359
11094SOL    HW135241   5.620   5.462   0.439
11094SOL    HW235242   5.596   5.581   0.330
11095SOL     OW35243   5.413   4.646   0.612
11095SOL    HW135244   5.508   4.617   0.620
11095SOL    HW235245   5.405   4.711   0.537
11096SOL     OW35246   5.365   4.832   0.432
11096SOL    HW135247   5.451   4.834   0.380
11096SOL    HW235248   5.379   4.879   0.520
11097SOL     OW35249   4.337   5.089   0.726
11097SOL    HW135250   4.288   5.002   0.735
11097SOL    HW235251   4.314   5.132   0.639
11098SOL     OW35252   4.533   3.728   0.502
11098SOL    HW135253   4.573   3.819   0.493
11098SOL    HW235254   4.433   3.736   0.508
11099SOL     OW35255   3.921   4.700   1.264
11099SOL    HW135256   4.010   4.655   1.250
11099SOL    HW235257   3.848   4.635   1.245
11100SOL     OW35258   5.249   4.723   0.190
11100SOL    HW135259   5.186   4.647   0.203
11100SOL    HW235260   5.297   4.741   0.276
11101SOL     OW35261   4.911   5.516   1.616
11101SOL    HW135262   4.935   5.576   1.540
11101SOL    HW235263   4.918   5.421   1.586
11102SOL     OW35264   4.041   3.975   1.801
11102SOL    HW135265   4.112   4.046   1.807
11102SOL    HW235266   3.953   4.014   1.829
11103SOL     OW35267   5.190   5.141   0.953
11103SOL    HW135268   5.131   5.147   1.033
11103SOL    HW235269   5.175   5.053   0.907
11104SOL     OW35270   5.391   5.438   0.572
11104SOL    HW135271   5.350   5.415   0.484
11104SOL    HW235272   5.373   5.364   0.637
11105SOL     OW35273   4.322   4.453   0.270
11105SOL    HW135274   4.346   4.522   0.202
11105SOL    HW235275   4.244   4.486   0.324
11106SOL     OW35276   5.005   4.069   0.944
11106SOL    HW135277   4.919   4.019   0.931
11106SOL    HW235278   5.067   4.015   1.000
11107SOL     OW35279   5.300   5.386   0.307
11107SOL    HW135280   5.389   5.432   0.310
11107SOL    HW235281   5.279   5.362   0.212
11108SOL     OW35282   5.118   4.193   1.674
11108SOL    HW135283   5.098   4.236   1.762
11108SOL    HW235284   5.196   4.131   1.683
11109SOL     OW35285   4.715   4.134   1.242
11109SOL    HW135286   4.638   4.168   1.296
11109SOL    HW235287   4.681   4.083   1.163
11110SOL     OW35288   4.765   4.425   0.429
11110SOL    HW135289   4.791   4.421   0.525
11110SOL    HW235290   4.680   4.374   0.415
11111SOL     OW35291   3.800   4.535   0.789
11111SOL    HW135292   3.899   4.523   0.798
11111SOL    HW235293   3.776   4.630   0.810
11112SOL     OW35294   3.854   5.545   1.571
11112SOL    HW135295   3.844   5.530   1.670
11112SOL    HW235296   3.768   5.581   1.535
11113SOL     OW35297   4.589   4.072   0.195
11113SOL    HW135298   4.648   4.135   0.146
11113SOL    HW235299   4.608   3.978   0.166
11114SOL     OW35300   5.086   4.868   0.545
11114SOL    HW135301   5.169   4.839   0.497
11114SOL    HW235302   5.037   4.935   0.489
11115SOL     OW35303   4.274   3.920   0.885
11115SOL    HW135304   4.269   3.915   0.985
11115SOL    HW235305   4.276   4.016   0.856
11116SOL     OW35306   4.732   5.180   0.477
11116SOL    HW135307   4.686   5.252   0.425
11116SOL    HW235308   4.728   5.200   0.575
11117SOL     OW35309   4.075   5.525   0.853
11117SOL    HW135310   4.125   5.439   0.859
11117SOL    HW235311   4.140   5.602   0.850
11118SOL     OW35312   5.519   4.790   0.873
11118SOL    HW135313   5.457   4.775   0.797
11118SOL    HW235314   5.467   4.801   0.958
11119SOL     OW35315   4.951   5.274   1.506
11119SOL    HW135316   4.957   5.197   1.570
11119SOL    HW235317   4.899   5.248   1.426
11120SOL     OW35318   4.045   4.667   0.242
11120SOL    HW135319   4.127   4.706   0.200
11120SOL    HW235320   4.018   4.585   0.193
11121SOL     OW35321   5.182   4.459   0.728
11121SOL    HW135322   5.177   4.394   0.803
11121SOL    HW235323   5.262   4.518   0.741
11122SOL     OW35324   4.185   4.990   1.727
11122SOL    HW135325   4.135   4.991   1.641
11122SOL    HW235326   4.122   4.972   1.803
11123SOL     OW35327   4.835   5.500   0.237
11123SOL    HW135328   4.775   5.438   0.287
11123SOL    HW235329   4.866   5.456   0.152
11124SOL     OW35330   3.926   4.009   1.498
11124SOL    HW135331   3.846   4.069   1.485
11124SOL    HW235332   3.916   3.960   1.584
11125SOL     OW35333   5.356   5.101   0.081
11125SOL    HW135334   5.324   5.195   0.071
11125SOL    HW235335   5.280   5.038   0.069
11126SOL     OW35336   4.188   5.467   0.323
11126SOL    HW135337   4.221   5.506   0.409
11126SOL    HW235338   4.264   5.460   0.258
11127SOL     OW35339   5.124   3.831   0.426
11127SOL    HW135340   5.100   3.794   0.336
11127SOL    HW235341   5.223   3.847   0.430
11128SOL     OW35342   3.973   5.509   1.241
11128SOL    HW135343   4.030   5.444   1.291
11128SOL    HW235344   3.957   5.476   1.148
11129SOL     OW35345   4.664   5.422   0.904
11129SOL    HW135346   4.744   5.365   0.925
11129SOL    HW235347   4.615   5.382   0.827
11130SOL     OW35348   4.106   4.424   0.480
11130SOL    HW135349   4.151   4.334   0.477
11130SOL    HW235350   4.012   4.413   0.513
11131SOL     OW35351   5.271   3.946   1.729
11131SOL    HW135352   5.266   3.983   1.821
11131SOL    HW235353   5.199   3.877   1.717
11132SOL     OW35354   4.338   3.846   0.117
11132SOL    HW135355   4.436   3.824   0.124
11132SOL    HW235356   4.307   3.829   0.024
11133SOL     OW35357   4.612   5.238   1.195
11133SOL    HW135358   4.589   5.213   1.101
11133SOL    HW235359   4.673   5.169   1.234
11134SOL     OW35360   4.527   5.126   0.924
11134SOL    HW135361   4.617   5.140   0.882
11134SOL    HW235362   4.456   5.128   0.853
11135SOL     OW35363   4.646   4.227   0.899
11135SOL    HW135364   4.621   4.218   0.803
11135SOL    HW235365   4.694   4.145   0.930
11136SOL     OW35366   4.263   3.788   0.512
11136SOL    HW135367   4.182   3.789   0.570
11136SOL    HW235368   4.266   3.871   0.457
11137SOL     OW35369   5.158   4.912   0.041
11137SOL    HW135370   5.190   4.836   0.098
11137SOL    HW235371   5.066   4.939   0.071
11138SOL     OW35372   4.021   3.759   0.171
11138SOL    HW135373   4.070   3.843   0.150
11138SOL    HW235374   4.083   3.694   0.216
11139SOL     OW35375   4.659   3.960   0.480
11139SOL    HW135376   4.611   4.001   0.402
11139SOL    HW235377   4.758   3.958   0.461
11140SOL     OW35378   4.951   5.294   0.793
11140SOL    HW135379   4.972   5.368   0.728
11140SOL    HW235380   5.019   5.294   0.866
11141SOL     OW35381   4.183   4.876   0.741
11141SOL    HW135382   4.112   4.849   0.806
11141SOL    HW235383   4.157   4.848   0.648
11142SOL     OW35384   4.995   5.521   0.591
11142SOL    HW135385   5.039   5.585   0.527
11142SOL    HW235386   4.945   5.573   0.661
11143SOL     OW35387   4.756   4.273   0.016
11143SOL    HW135388   4.715   4.355  -0.023
11143SOL    HW235389   4.820   4.299   0.089
11144SOL     OW35390   4.590   4.178   0.642
11144SOL    HW135391   4.558   4.250   0.580
11144SOL    HW235392   4.614   4.097   0.589
11145SOL     OW35393   4.741   3.763   0.753
11145SOL    HW135394   4.669   3.768   0.684
11145SOL    HW235395   4.717   3.694   0.822
11146SOL     OW35396   5.153   4.897   0.867
11146SOL    HW135397   5.098   4.813   0.860
11146SOL    HW235398   5.179   4.926   0.775
11147SOL     OW35399   5.190   4.314   0.992
11147SOL    HW135400   5.160   4.219   0.999
11147SOL    HW235401   5.263   4.330   1.058
11148SOL     OW35402   5.581   4.557   0.377
11148SOL    HW135403   5.623   4.493   0.441
11148SOL    HW235404   5.543   4.506   0.299
11149SOL     OW35405   4.212   5.109   0.174
11149SOL    HW135406   4.125   5.094   0.221
11149SOL    HW235407   4.195   5.135   0.079
11150SOL     OW35408   5.388   5.004   0.657
11150SOL    HW135409   5.487   5.012   0.671
11150SOL    HW235410   5.343   5.088   0.688
11151SOL     OW35411   5.114   4.299   0.078
11151SOL    HW135412   5.060   4.278   0.159
11151SOL    HW235413   5.205   4.258   0.087
11152SOL     OW35414   4.251   3.980   0.328
11152SOL    HW135415   4.278   3.921   0.253
11152SOL    HW235416   4.251   4.075   0.297
11153SOL     OW35417   4.788   5.071   1.340
11153SOL    HW135418   4.708   5.048   1.395
11153SOL    HW235419   4.871   5.045   1.389
11154SOL     OW35420   5.316   5.353   1.625
11154SOL    HW135421   5.343   5.387   1.535
11154SOL    HW235422   5.395   5.315   1.671
11155SOL     OW35423   4.835   4.919   1.100
11155SOL    HW135424   4.795   4.963   1.181
11155SOL    HW235425   4.794   4.956   1.017
11156SOL     OW35426   5.362   4.823   1.079
11156SOL    HW135427   5.367   4.904   1.138
11156SOL    HW235428   5.276   4.825   1.028
11157SOL     OW35429   4.639   3.813   1.402
11157SOL    HW135430   4.664   3.793   1.307
11157SOL    HW235431   4.711   3.869   1.444
11158SOL     OW35432   4.429   4.774   0.368
11158SOL    HW135433   4.415   4.781   0.467
11158SOL    HW235434   4.513   4.723   0.350
11159SOL     OW35435   3.788   5.288   1.331
11159SOL    HW135436   3.742   5.370   1.297
11159SOL    HW235437   3.886   5.307   1.340
11160SOL     OW35438   4.091   4.824   0.501
11160SOL    HW135439   4.084   4.907   0.445
11160SOL    HW235440   4.095   4.744   0.441
11161SOL     OW35441   4.976   5.072   0.388
11161SOL    HW135442   5.026   5.149   0.428
11161SOL    HW235443   4.881   5.074   0.420
11162SOL     OW35444   4.996   5.169   1.142
11162SOL    HW135445   5.043   5.182   1.229
11162SOL    HW235446   4.930   5.095   1.151
11163SOL     OW35447   5.306   4.363   0.472
11163SOL    HW135448   5.275   4.424   0.545
11163SOL    HW235449   5.356   4.415   0.403
11164SOL     OW35450   4.078   5.234   1.329
11164SOL    HW135451   4.057   5.190   1.242
11164SOL    HW235452   4.175   5.260   1.332
11165SOL     OW35453   4.126   4.475   1.598
11165SOL    HW135454   4.194   4.530   1.551
11165SOL    HW235455   4.166   4.387   1.625
11166SOL     OW35456   4.228   3.774   1.740
11166SOL    HW135457   4.186   3.717   1.670
11166SOL    HW235458   4.162   3.843   1.772
11167SOL     OW35459   5.084   4.586   1.045
11167SOL    HW135460   5.009   4.586   0.979
11167SOL    HW235461   5.121   4.494   1.054
11168SOL     OW35462   4.933   4.249   0.275
11168SOL    HW135463   4.946   4.165   0.329
11168SOL    HW235464   4.904   4.323   0.335
11169SOL     OW35465   3.761   5.034   1.282
11169SOL    HW135466   3.814   4.985   1.350
11169SOL    HW235467   3.783   5.132   1.287
11170SOL     OW35468   4.031   3.787   0.618
11170SOL    HW135469   4.020   3.881   0.651
11170SOL    HW235470   4.026   3.724   0.695
11171SOL     OW35471   5.346   4.091   0.374
11171SOL    HW135472   5.348   4.015   0.438
11171SOL    HW235473   5.298   4.168   0.414
11172SOL     OW35474   4.704   5.297   1.700
11172SOL    HW135475   4.684   5.341   1.612
11172SOL    HW235476   4.743   5.206   1.684
11173SOL     OW35477   5.583   5.242   1.605
11173SOL    HW135478   5.597   5.269   1.510
11173SOL    HW235479   5.666   5.264   1.658
11174SOL     OW35480   4.074   4.622   1.804
11174SOL    HW135481   4.150   4.666   1.852
11174SOL    HW235482   4.109   4.575   1.722
11175SOL     OW35483   5.264   3.998   0.125
11175SOL    HW135484   5.203   3.923   0.148
11175SOL    HW235485   5.286   4.050   0.208
11176SOL     OW35486   5.027   4.562   0.042
11176SOL    HW135487   5.061   4.469   0.057
11176SOL    HW235488   5.045   4.589  -0.053
11177SOL     OW35489   4.792   5.057   0.849
11177SOL    HW135490   4.799   4.973   0.794
11177SOL    HW235491   4.854   5.126   0.813
11178SOL     OW35492   4.043   4.534   0.949
11178SOL    HW135493   4.136   4.570   0.954
11178SOL    HW235494   4.037   4.449   1.001
11179SOL     OW35495   4.235   4.139   1.808
11179SOL    HW135496   4.217   4.184   1.896
11179SOL    HW235497   4.277   4.204   1.745
11180SOL     OW35498   4.862   4.104   1.678
11180SOL    HW135499   4.817   4.167   1.742
11180SOL    HW235500   4.955   4.135   1.661
11181SOL     OW35501   4.884   3.931   1.477
11181SOL    HW135502   4.884   3.995   1.554
11181SOL    HW235503   4.912   3.979   1.394
11182SOL     OW35504   3.732   5.050   0.200
11182SOL    HW135505   3.639   5.071   0.169
11182SOL    HW235506   3.742   4.951   0.213
11183SOL     OW35507   3.812   5.525   0.927
11183SOL    HW135508   3.770   5.439   0.900
11183SOL    HW235509   3.906   5.528   0.893
11184SOL     OW35510   4.228   5.292   0.910
11184SOL    HW135511   4.294   5.366   0.919
11184SOL    HW235512   4.272   5.213   0.868
11185SOL     OW35513   4.726   4.520   1.238
11185SOL    HW135514   4.767   4.488   1.324
11185SOL    HW235515   4.630   4.493   1.235
11186SOL     OW35516   4.539   4.296   0.325
11186SOL    HW135517   4.546   4.207   0.279
11186SOL    HW235518   4.445   4.330   0.317
11187SOL     OW35519   5.381   4.328   1.206
11187SOL    HW135520   5.343   4.259   1.268
11187SOL    HW235521   5.463   4.292   1.162
11188SOL     OW35522   3.976   5.288   1.744
11188SOL    HW135523   3.946   5.345   1.820
11188SOL    HW235524   3.969   5.191   1.770
11189SOL     OW35525   4.654   5.402   1.465
11189SOL    HW135526   4.630   5.384   1.370
11189SOL    HW235527   4.684   5.496   1.475
11190SOL     OW35528   4.197   4.224   0.191
11190SOL    HW135529   4.258   4.304   0.195
11190SOL    HW235530   4.102   4.255   0.198
11191SOL     OW35531   3.883   4.861   1.466
11191SOL    HW135532   3.905   4.800   1.542
11191SOL    HW235533   3.893   4.812   1.380
11192SOL     OW35534   5.071   4.783   1.234
11192SOL    HW135535   5.095   4.720   1.160
11192SOL    HW235536   4.981   4.823   1.216
11193SOL     OW35537   5.026   4.579   0.309
11193SOL    HW135538   4.940   4.548   0.351
11193SOL    HW235539   5.022   4.565   0.210
11194SOL     OW35540   5.483   5.471   1.154
11194SOL    HW135541   5.544   5.501   1.081
11194SOL    HW235542   5.445   5.382   1.132
11195SOL     OW35543   4.976   5.455   1.128
11195SOL    HW135544   5.060   5.460   1.074
11195SOL    HW235545   4.953   5.359   1.146
11196SOL     OW35546   3.807   4.982   1.022
11196SOL    HW135547   3.802   4.981   1.122
11196SOL    HW235548   3.724   4.941   0.984
11197SOL     OW35549   4.412   5.386   1.716
11197SOL    HW135550   4.356   5.467   1.725
11197SOL    HW235551   4.464   5.390   1.630
11198SOL     OW35552   4.627   3.810   0.133
11198SOL    HW135553   4.678   3.811   0.047
11198SOL    HW235554   4.683   3.768   0.204
11199SOL     OW35555   5.450   3.859   0.523
11199SOL    HW135556   5.523   3.842   0.456
11199SOL    HW235557   5.419   3.772   0.561
11200SOL     OW35558   5.112   5.297   0.477
11200SOL    HW135559   5.179   5.309   0.403
11200SOL    HW235560   5.072   5.386   0.500
11201SOL     OW35561   3.854   5.518   1.851
11201SOL    HW135562   3.813   5.444   1.904
11201SOL    HW235563   3.918   5.569   1.909
11202SOL     OW35564   5.004   4.651   0.672
11202SOL    HW135565   5.064   4.570   0.674
11202SOL    HW235566   5.044   4.720   0.612
11203SOL     OW35567   4.554   4.997   1.422
11203SOL    HW135568   4.549   5.030   1.517
11203SOL    HW235569   4.468   5.016   1.376
11204SOL     OW35570   4.396   5.340   0.154
11204SOL    HW135571   4.405   5.350   0.055
11204SOL    HW235572   4.356   5.251   0.175
11205SOL     OW35573   5.374   5.444   1.394
11205SOL    HW135574   5.427   5.454   1.310
11205SOL    HW235575   5.347   5.534   1.428
11206SOL     OW35576   5.565   3.899   0.963
11206SOL    HW135577   5.604   3.814   0.927
11206SOL    HW235578   5.467   3.901   0.944
11207SOL     OW35579   3.987   4.050   0.720
11207SOL    HW135580   3.908   4.101   0.686
11207SOL    HW235581   3.978   4.035   0.818
11208SOL     OW35582   4.918   5.336   0.031
11208SOL    HW135583   4.924   5.243   0.068
11208SOL    HW235584   4.859   5.336  -0.049
11209SOL     OW35585   4.640   4.634   0.291
11209SOL    HW135586   4.703   4.672   0.223
11209SOL    HW235587   4.680   4.551   0.330
11210SOL     OW35588   5.228   5.331   0.044
11210SOL    HW135589   5.136   5.368   0.051
11210SOL    HW235590   5.266   5.351  -0.046
11211SOL     OW35591   4.096   5.012   1.490
11211SOL    HW135592   4.083   5.105   1.456
11211SOL    HW235593   4.012   4.960   1.477
11212SOL     OW35594   4.763   4.822   0.696
11212SOL    HW135595   4.693   4.775   0.750
11212SOL    HW235596   4.822   4.754   0.653
11213SOL     OW35597   4.738   3.960   0.971
11213SOL    HW135598   4.730   3.924   0.878
11213SOL    HW235599   4.736   3.884   1.036
11214SOL     OW35600   4.314   5.211   0.491
11214SOL    HW135601   4.356   5.153   0.421
11214SOL    HW235602   4.270   5.290   0.447
11215SOL     OW35603   5.433   4.109   1.381
11215SOL    HW135604   5.506   4.178   1.385
11215SOL    HW235605   5.461   4.034   1.322
11216SOL     OW35606   3.979   5.072   0.290
11216SOL    HW135607   3.883   5.073   0.263
11216SOL    HW235608   3.991   5.125   0.374
11217SOL     OW35609   3.829   4.737   1.726
11217SOL    HW135610   3.752   4.704   1.780
11217SOL    HW235611   3.914   4.707   1.768
11218SOL     OW35612   5.164   4.580   1.398
11218SOL    HW135613   5.107   4.632   1.335
11218SOL    HW235614   5.260   4.592   1.374
11219SOL     OW35615   3.796   3.890   0.318
11219SOL    HW135616   3.779   3.973   0.264
11219SOL    HW235617   3.886   3.853   0.296
11220SOL     OW35618   4.907   5.059   0.119
11220SOL    HW135619   4.808   5.048   0.121
11220SOL    HW235620   4.941   5.074   0.212
11221SOL     OW35621   5.217   5.491   0.959
11221SOL    HW135622   5.250   5.555   0.890
11221SOL    HW235623   5.283   5.485   1.034
11222SOL     OW35624   4.114   5.465   1.560
11222SOL    HW135625   4.023   5.506   1.558
11222SOL    HW235626   4.107   5.371   1.592
11223SOL     OW35627   5.398   4.607   1.254
11223SOL    HW135628   5.371   4.518   1.217
11223SOL    HW235629   5.399   4.675   1.181
11224SOL     OW35630   4.949   4.049   0.449
11224SOL    HW135631   5.014   3.975   0.438
11224SOL    HW235632   4.969   4.099   0.533
11225SOL     OW35633   4.318   4.469   0.652
11225SOL    HW135634   4.368   4.554   0.633
11225SOL    HW235635   4.230   4.471   0.604
11226SOL     OW35636   5.501   4.066   1.642
11226SOL    HW135637   5.484   4.097   1.548
11226SOL    HW235638   5.417   4.029   1.680
11227SOL     OW35639   4.583   5.098   0.016
11227SOL    HW135640   4.537   5.113   0.104
11227SOL    HW235641   4.627   5.183  -0.014
11228SOL     OW35642   4.385   5.514   0.953
11228SOL    HW135643   4.339   5.602   0.940
11228SOL    HW235644   4.484   5.526   0.946
11229SOL     OW35645   5.132   5.575   1.720
11229SOL    HW135646   5.036   5.564   1.693
11229SOL    HW235647   5.188   5.508   1.672
11230SOL     OW35648   4.807   4.708   0.087
11230SOL    HW135649   4.784   4.761   0.005
11230SOL    HW235650   4.888   4.652   0.068
11231SOL     OW35651   5.585   5.293   0.851
11231SOL    HW135652   5.514   5.281   0.781
11231SOL    HW235653   5.586   5.214   0.911
11232SOL     OW35654   3.945   5.038   1.844
11232SOL    HW135655   3.880   4.965   1.823
11232SOL    HW235656   3.949   5.052   1.942
11233SOL     OW35657   3.803   4.964   0.653
11233SOL    HW135658   3.802   4.917   0.741
11233SOL    HW235659   3.885   4.936   0.602
11234SOL     OW35660   4.396   5.115   1.624
11234SOL    HW135661   4.318   5.065   1.662
11234SOL    HW235662   4.393   5.210   1.655
11235SOL     OW35663   5.548   3.916   1.227
11235SOL    HW135664   5.544   3.826   1.271
11235SOL    HW235665   5.551   3.905   1.128
11236SOL     OW35666   4.152   4.148   0.520
11236SOL    HW135667   4.182   4.076   0.458
11236SOL    HW235668   4.113   4.108   0.603
11237SOL     OW35669   5.429   5.211   1.104
11237SOL    HW135670   5.336   5.186   1.077
11237SOL    HW235671   5.455   5.161   1.186
11238SOL     OW35672   4.536   5.310   0.687
11238SOL    HW135673   4.568   5.320   0.593
11238SOL    HW235674   4.457   5.248   0.689
11239SOL     OW35675   5.148   3.938   1.112
11239SOL    HW135676   5.200   3.873   1.167
11239SOL    HW235677   5.099   4.001   1.173
11240SOL     OW35678   4.725   3.758   1.154
11240SOL    HW135679   4.662   3.686   1.123
11240SOL    HW235680   4.818   3.722   1.154
11241SOL     OW35681   4.494   5.054   0.301
11241SOL    HW135682   4.448   4.967   0.318
11241SOL    HW235683   4.585   5.051   0.342
11242SOL     OW35684   4.342   5.291   1.284
11242SOL    HW135685   4.337   5.373   1.341
11242SOL    HW235686   4.431   5.288   1.239
11243SOL     OW35687   5.024   4.177   0.691
11243SOL    HW135688   4.965   4.257   0.695
11243SOL    HW235689   5.039   4.142   0.784
11244SOL     OW35690   5.317   3.945   0.882
11244SOL    HW135691   5.233   3.944   0.936
11244SOL    HW235692   5.319   4.028   0.826
11245SOL     OW35693   3.763   4.801   0.300
11245SOL    HW135694   3.862   4.790   0.291
11245SOL    HW235695   3.723   4.715   0.332
11246SOL     OW35696   4.599   5.370   0.337
11246SOL    HW135697   4.522   5.335   0.283
11246SOL    HW235698   4.567   5.441   0.399
11247SOL     OW35699   3.954   4.352   1.975
11247SOL    HW135700   3.861   4.350   2.012
11247SOL    HW235701   3.955   4.313   1.883
11248SOL     OW35702   3.949   3.999   2.858
11248SOL    HW135703   3.984   3.982   2.950
11248SOL    HW235704   3.861   3.954   2.846
11249SOL     OW35705   3.743   4.092   2.509
11249SOL    HW135706   3.661   4.135   2.548
11249SOL    HW235707   3.715   4.019   2.446
11250SOL     OW35708   4.293   4.999   3.027
11250SOL    HW135709   4.200   4.992   2.990
11250SOL    HW235710   4.304   5.088   3.071
11251SOL     OW35711   5.279   5.235   2.565
11251SOL    HW135712   5.222   5.219   2.646
11251SOL    HW235713   5.220   5.245   2.485
11252SOL     OW35714   5.467   4.342   2.718
11252SOL    HW135715   5.500   4.436   2.718
11252SOL    HW235716   5.518   4.288   2.784
11253SOL     OW35717   4.859   4.427   2.579
11253SOL    HW135718   4.916   4.505   2.554
11253SOL    HW235719   4.799   4.453   2.655
11254SOL     OW35720   4.492   4.868   2.885
11254SOL    HW135721   4.414   4.885   2.945
11254SOL    HW235722   4.526   4.955   2.849
11255SOL     OW35723   4.574   4.522   3.685
11255SOL    HW135724   4.570   4.598   3.750
11255SOL    HW235725   4.596   4.558   3.594
11256SOL     OW35726   4.409   4.736   2.527
11256SOL    HW135727   4.478   4.720   2.597
11256SOL    HW235728   4.336   4.793   2.565
11257SOL     OW35729   4.410   4.885   3.665
11257SOL    HW135730   4.470   4.964   3.679
11257SOL    HW235731   4.324   4.916   3.624
11258SOL     OW35732   4.059   5.159   2.923
11258SOL    HW135733   3.981   5.128   2.870
11258SOL    HW235734   4.117   5.217   2.866
11259SOL     OW35735   5.184   5.229   3.201
11259SOL    HW135736   5.208   5.323   3.227
11259SOL    HW235737   5.168   5.175   3.283
11260SOL     OW35738   4.162   4.116   3.361
11260SOL    HW135739   4.244   4.060   3.370
11260SOL    HW235740   4.081   4.058   3.365
11261SOL     OW35741   5.327   4.171   2.599
11261SOL    HW135742   5.253   4.217   2.549
11261SOL    HW235743   5.378   4.239   2.652
11262SOL     OW35744   3.955   5.437   2.345
11262SOL    HW135745   3.989   5.514   2.399
11262SOL    HW235746   3.999   5.437   2.255
11263SOL     OW35747   4.851   5.065   3.552
11263SOL    HW135748   4.898   5.065   3.640
11263SOL    HW235749   4.803   4.978   3.541
11264SOL     OW35750   3.954   5.158   2.400
11264SOL    HW135751   3.928   5.254   2.400
11264SOL    HW235752   3.883   5.104   2.445
11265SOL     OW35753   3.964   4.815   2.748
11265SOL    HW135754   3.978   4.731   2.800
11265SOL    HW235755   3.909   4.879   2.803
11266SOL     OW35756   4.344   5.510   3.301
11266SOL    HW135757   4.252   5.493   3.336
11266SOL    HW235758   4.372   5.602   3.327
11267SOL     OW35759   4.330   4.688   1.985
11267SOL    HW135760   4.337   4.772   1.931
11267SOL    HW235761   4.376   4.701   2.073
11268SOL     OW35762   5.318   3.838   3.342
11268SOL    HW135763   5.300   3.905   3.270
11268SOL    HW235764   5.315   3.884   3.431
11269SOL     OW35765   3.846   4.367   2.425
11269SOL    HW135766   3.801   4.279   2.442
11269SOL    HW235767   3.845   4.421   2.509
11270SOL     OW35768   5.566   5.491   2.221
11270SOL    HW135769   5.620   5.462   2.301
11270SOL    HW235770   5.596   5.581   2.192
11271SOL     OW35771   3.751   5.320   1.979
11271SOL    HW135772   3.732   5.224   2.000
11271SOL    HW235773   3.718   5.378   2.054
11272SOL     OW35774   5.413   4.646   2.474
11272SOL    HW135775   5.508   4.617   2.482
11272SOL    HW235776   5.405   4.711   2.399
11273SOL     OW35777   5.365   4.832   2.294
11273SOL    HW135778   5.451   4.834   2.242
11273SOL    HW235779   5.379   4.879   2.382
11274SOL     OW35780   3.837   4.461   3.459
11274SOL    HW135781   3.925   4.448   3.504
11274SOL    HW235782   3.824   4.558   3.437
11275SOL     OW35783   4.337   5.089   2.588
11275SOL    HW135784   4.288   5.002   2.597
11275SOL    HW235785   4.314   5.132   2.501
11276SOL     OW35786   5.017   4.952   3.285
11276SOL    HW135787   5.054   4.879   3.227
11276SOL    HW235788   5.069   4.957   3.370
11277SOL     OW35789   3.921   4.700   3.126
11277SOL    HW135790   4.010   4.655   3.112
11277SOL    HW235791   3.848   4.635   3.107
11278SOL     OW35792   4.911   5.516   3.478
11278SOL    HW135793   4.935   5.576   3.402
11278SOL    HW235794   4.918   5.421   3.448
11279SOL     OW35795   4.041   3.975   3.663
11279SOL    HW135796   4.112   4.046   3.669
11279SOL    HW235797   3.953   4.014   3.691
11280SOL     OW35798   5.190   5.141   2.815
11280SOL    HW135799   5.131   5.147   2.895
11280SOL    HW235800   5.175   5.053   2.769
11281SOL     OW35801   5.391   5.438   2.434
11281SOL    HW135802   5.350   5.415   2.346
11281SOL    HW235803   5.373   5.364   2.499
11282SOL     OW35804   4.322   4.453   2.132
11282SOL    HW135805   4.346   4.522   2.064
11282SOL    HW235806   4.244   4.486   2.186
11283SOL     OW35807   5.005   4.069   2.806
11283SOL    HW135808   4.919   4.019   2.793
11283SOL    HW235809   5.067   4.015   2.862
11284SOL     OW35810   5.300   5.386   2.169
11284SOL    HW135811   5.389   5.432   2.172
11284SOL    HW235812   5.279   5.362   2.074
11285SOL     OW35813   4.531   4.329   3.327
11285SOL    HW135814   4.484   4.326   3.416
11285SOL    HW235815   4.480   4.274   3.261
11286SOL     OW35816   5.118   4.193   3.536
11286SOL    HW135817   5.098   4.236   3.624
11286SOL    HW235818   5.196   4.131   3.545
11287SOL     OW35819   4.697   4.614   3.434
11287SOL    HW135820   4.743   4.530   3.405
11287SOL    HW235821   4.641   4.648   3.359
11288SOL     OW35822   4.715   4.134   3.104
11288SOL    HW135823   4.638   4.168   3.158
11288SOL    HW235824   4.681   4.083   3.025
11289SOL     OW35825   4.765   4.425   2.291
11289SOL    HW135826   4.791   4.421   2.387
11289SOL    HW235827   4.680   4.374   2.277
11290SOL     OW35828   3.800   4.535   2.651
11290SOL    HW135829   3.899   4.523   2.660
11290SOL    HW235830   3.776   4.630   2.672
11291SOL     OW35831   3.854   5.545   3.433
11291SOL    HW135832   3.844   5.530   3.532
11291SOL    HW235833   3.768   5.581   3.397
11292SOL     OW35834   4.589   4.072   2.057
11292SOL    HW135835   4.648   4.135   2.008
11292SOL    HW235836   4.608   3.978   2.028
11293SOL     OW35837   5.443   4.309   3.693
11293SOL    HW135838   5.417   4.398   3.657
11293SOL    HW235839   5.441   4.241   3.620
11294SOL     OW35840   5.086   4.868   2.407
11294SOL    HW135841   5.169   4.839   2.359
11294SOL    HW235842   5.037   4.935   2.351
11295SOL     OW35843   4.274   3.920   2.747
11295SOL    HW135844   4.269   3.915   2.847
11295SOL    HW235845   4.276   4.016   2.718
11296SOL     OW35846   4.732   5.180   2.339
11296SOL    HW135847   4.686   5.252   2.287
11296SOL    HW235848   4.728   5.200   2.437
11297SOL     OW35849   4.075   5.525   2.715
11297SOL    HW135850   4.125   5.439   2.721
11297SOL    HW235851   4.140   5.602   2.712
11298SOL     OW35852   5.519   4.790   2.735
11298SOL    HW135853   5.457   4.775   2.659
11298SOL    HW235854   5.467   4.801   2.820
11299SOL     OW35855   4.951   5.274   3.368
11299SOL    HW135856   4.957   5.197   3.432
11299SOL    HW235857   4.899   5.248   3.288
11300SOL     OW35858   4.045   4.667   2.104
11300SOL    HW135859   4.127   4.706   2.062
11300SOL    HW235860   4.018   4.585   2.055
11301SOL     OW35861   5.182   4.459   2.590
11301SOL    HW135862   5.177   4.394   2.665
11301SOL    HW235863   5.262   4.518   2.603
11302SOL     OW35864   4.185   4.990   3.589
11302SOL    HW135865   4.135   4.991   3.503
11302SOL    HW235866   4.122   4.972   3.665
11303SOL     OW35867   4.835   5.500   2.099
11303SOL    HW135868   4.775   5.438   2.149
11303SOL    HW235869   4.866   5.456   2.014
11304SOL     OW35870   3.926   4.009   3.360
11304SOL    HW135871   3.846   4.069   3.347
11304SOL    HW235872   3.916   3.960   3.446
11305SOL     OW35873   4.188   5.467   2.185
11305SOL    HW135874   4.221   5.506   2.271
11305SOL    HW235875   4.264   5.460   2.120
11306SOL     OW35876   5.124   3.831   2.288
11306SOL    HW135877   5.100   3.794   2.198
11306SOL    HW235878   5.223   3.847   2.292
11307SOL     OW35879   3.973   5.509   3.103
11307SOL    HW135880   4.030   5.444   3.153
11307SOL    HW235881   3.957   5.476   3.010
11308SOL     OW35882   4.664   5.422   2.766
11308SOL    HW135883   4.744   5.365   2.787
11308SOL    HW235884   4.615   5.382   2.689
11309SOL     OW35885   4.106   4.424   2.342
11309SOL    HW135886   4.151   4.334   2.339
11309SOL    HW235887   4.012   4.413   2.375
11310SOL     OW35888   4.338   3.846   1.979
11310SOL    HW135889   4.436   3.824   1.986
11310SOL    HW235890   4.307   3.829   1.886
11311SOL     OW35891   4.505   3.988   3.611
11311SOL    HW135892   4.572   3.927   3.654
11311SOL    HW235893   4.432   4.007   3.676
11312SOL     OW35894   4.612   5.238   3.057
11312SOL    HW135895   4.589   5.213   2.963
11312SOL    HW235896   4.673   5.169   3.096
11313SOL     OW35897   5.075   4.314   3.295
11313SOL    HW135898   5.103   4.271   3.380
11313SOL    HW235899   5.100   4.410   3.296
11314SOL     OW35900   4.527   5.126   2.786
11314SOL    HW135901   4.617   5.140   2.744
11314SOL    HW235902   4.456   5.128   2.715
11315SOL     OW35903   4.646   4.227   2.761
11315SOL    HW135904   4.621   4.218   2.665
11315SOL    HW235905   4.694   4.145   2.792
11316SOL     OW35906   4.263   3.788   2.374
11316SOL    HW135907   4.182   3.789   2.432
11316SOL    HW235908   4.266   3.871   2.319
11317SOL     OW35909   5.158   4.912   1.903
11317SOL    HW135910   5.190   4.836   1.960
11317SOL    HW235911   5.066   4.939   1.933
11318SOL     OW35912   4.021   3.759   2.033
11318SOL    HW135913   4.070   3.843   2.012
11318SOL    HW235914   4.083   3.694   2.078
11319SOL     OW35915   4.659   3.960   2.342
11319SOL    HW135916   4.611   4.001   2.264
11319SOL    HW235917   4.758   3.958   2.323
11320SOL     OW35918   4.800   4.407   3.326
11320SOL    HW135919   4.720   4.346   3.329
11320SOL    HW235920   4.881   4.354   3.302
11321SOL     OW35921   4.951   5.294   2.655
11321SOL    HW135922   4.972   5.368   2.590
11321SOL    HW235923   5.019   5.294   2.728
11322SOL     OW35924   4.183   4.876   2.603
11322SOL    HW135925   4.112   4.849   2.668
11322SOL    HW235926   4.157   4.848   2.510
11323SOL     OW35927   4.995   5.521   2.453
11323SOL    HW135928   5.039   5.585   2.389
11323SOL    HW235929   4.945   5.573   2.523
11324SOL     OW35930   3.802   4.280   3.248
11324SOL    HW135931   3.894   4.279   3.207
11324SOL    HW235932   3.796   4.354   3.315
11325SOL     OW35933   4.285   3.946   3.009
11325SOL    HW135934   4.323   3.862   3.046
11325SOL    HW235935   4.197   3.965   3.053
11326SOL     OW35936   4.590   4.178   2.504
11326SOL    HW135937   4.558   4.250   2.442
11326SOL    HW235938   4.614   4.097   2.451
11327SOL     OW35939   4.741   3.763   2.615
11327SOL    HW135940   4.669   3.768   2.546
11327SOL    HW235941   4.717   3.694   2.684
11328SOL     OW35942   5.153   4.897   2.729
11328SOL    HW135943   5.098   4.813   2.722
11328SOL    HW235944   5.179   4.926   2.637
11329SOL     OW35945   5.190   4.314   2.854
11329SOL    HW135946   5.160   4.219   2.861
11329SOL    HW235947   5.263   4.330   2.920
11330SOL     OW35948   5.581   4.557   2.239
11330SOL    HW135949   5.623   4.493   2.303
11330SOL    HW235950   5.543   4.506   2.161
11331SOL     OW35951   4.212   5.109   2.036
11331SOL    HW135952   4.125   5.094   2.083
11331SOL    HW235953   4.195   5.135   1.941
11332SOL     OW35954   5.388   5.004   2.519
11332SOL    HW135955   5.487   5.012   2.533
11332SOL    HW235956   5.343   5.088   2.550
11333SOL     OW35957   4.251   3.980   2.190
11333SOL    HW135958   4.278   3.921   2.115
11333SOL    HW235959   4.251   4.075   2.159
11334SOL     OW35960   5.478   4.947   3.450
11334SOL    HW135961   5.569   4.908   3.437
11334SOL    HW235962   5.486   5.043   3.474
11335SOL     OW35963   4.788   5.071   3.202
11335SOL    HW135964   4.708   5.048   3.257
11335SOL    HW235965   4.871   5.045   3.251
11336SOL     OW35966   5.316   5.353   3.487
11336SOL    HW135967   5.343   5.387   3.397
11336SOL    HW235968   5.395   5.315   3.533
11337SOL     OW35969   4.835   4.919   2.962
11337SOL    HW135970   4.795   4.963   3.043
11337SOL    HW235971   4.794   4.956   2.879
11338SOL     OW35972   5.362   4.823   2.941
11338SOL    HW135973   5.367   4.904   3.000
11338SOL    HW235974   5.276   4.825   2.890
11339SOL     OW35975   4.704   4.840   3.581
11339SOL    HW135976   4.605   4.846   3.591
11339SOL    HW235977   4.727   4.760   3.525
11340SOL     OW35978   4.429   4.774   2.230
11340SOL    HW135979   4.415   4.781   2.329
11340SOL    HW235980   4.513   4.723   2.212
11341SOL     OW35981   4.134   4.537   3.113
11341SOL    HW135982   4.220   4.549   3.163
11341SOL    HW235983   4.092   4.450   3.140
11342SOL     OW35984   4.998   4.110   3.124
11342SOL    HW135985   5.019   4.184   3.188
11342SOL    HW235986   4.909   4.127   3.081
11343SOL     OW35987   3.788   5.288   3.193
11343SOL    HW135988   3.742   5.370   3.159
11343SOL    HW235989   3.886   5.307   3.202
11344SOL     OW35990   4.091   4.824   2.363
11344SOL    HW135991   4.084   4.907   2.307
11344SOL    HW235992   4.095   4.744   2.303
11345SOL     OW35993   4.290   4.261   2.727
11345SOL    HW135994   4.302   4.327   2.653
11345SOL    HW235995   4.336   4.295   2.810
11346SOL     OW35996   4.976   5.072   2.250
11346SOL    HW135997   5.026   5.149   2.290
11346SOL    HW235998   4.881   5.074   2.282
11347SOL     OW35999   4.996   5.169   3.004
11347SOL    HW136000   5.043   5.182   3.091
11347SOL    HW236001   4.930   5.095   3.013
11348SOL     OW36002   5.306   4.363   2.334
11348SOL    HW136003   5.275   4.424   2.407
11348SOL    HW236004   5.356   4.415   2.265
11349SOL     OW36005   4.078   5.234   3.191
11349SOL    HW136006   4.057   5.190   3.104
11349SOL    HW236007   4.175   5.260   3.194
11350SOL     OW36008   4.126   4.475   3.460
11350SOL    HW136009   4.194   4.530   3.413
11350SOL    HW236010   4.166   4.387   3.487
11351SOL     OW36011   5.311   4.503   3.532
11351SOL    HW136012   5.219   4.541   3.527
11351SOL    HW236013   5.371   4.550   3.467
11352SOL     OW36014   4.228   3.774   3.602
11352SOL    HW136015   4.186   3.717   3.532
11352SOL    HW236016   4.162   3.843   3.634
11353SOL     OW36017   4.297   4.594   2.891
11353SOL    HW136018   4.341   4.683   2.882
11353SOL    HW236019   4.234   4.594   2.968
11354SOL     OW36020   5.084   4.586   2.907
11354SOL    HW136021   5.009   4.586   2.841
11354SOL    HW236022   5.121   4.494   2.916
11355SOL     OW36023   4.933   4.249   2.137
11355SOL    HW136024   4.946   4.165   2.191
11355SOL    HW236025   4.904   4.323   2.197
11356SOL     OW36026   4.031   3.937   3.093
11356SOL    HW136027   4.008   3.974   3.183
11356SOL    HW236028   4.001   3.842   3.087
11357SOL     OW36029   3.761   5.034   3.144
11357SOL    HW136030   3.814   4.985   3.212
11357SOL    HW236031   3.783   5.132   3.149
11358SOL     OW36032   4.456   4.358   2.926
11358SOL    HW136033   4.515   4.332   2.850
11358SOL    HW236034   4.428   4.454   2.915
11359SOL     OW36035   5.452   4.659   3.716
11359SOL    HW136036   5.406   4.652   3.627
11359SOL    HW236037   5.390   4.703   3.782
11360SOL     OW36038   4.031   3.787   2.480
11360SOL    HW136039   4.020   3.881   2.513
11360SOL    HW236040   4.026   3.724   2.557
11361SOL     OW36041   5.346   4.091   2.236
11361SOL    HW136042   5.348   4.015   2.300
11361SOL    HW236043   5.298   4.168   2.276
11362SOL     OW36044   4.747   4.490   2.828
11362SOL    HW136045   4.762   4.511   2.924
11362SOL    HW236046   4.717   4.395   2.819
11363SOL     OW36047   4.704   5.297   3.562
11363SOL    HW136048   4.684   5.341   3.474
11363SOL    HW236049   4.743   5.206   3.546
11364SOL     OW36050   5.583   5.242   3.467
11364SOL    HW136051   5.597   5.269   3.372
11364SOL    HW236052   5.666   5.264   3.520
11365SOL     OW36053   4.074   4.622   3.666
11365SOL    HW136054   4.150   4.666   3.714
11365SOL    HW236055   4.109   4.575   3.584
11366SOL     OW36056   5.264   3.998   1.987
11366SOL    HW136057   5.203   3.923   2.010
11366SOL    HW236058   5.286   4.050   2.070
11367SOL     OW36059   4.792   5.057   2.711
11367SOL    HW136060   4.799   4.973   2.656
11367SOL    HW236061   4.854   5.126   2.675
11368SOL     OW36062   4.043   4.534   2.811
11368SOL    HW136063   4.136   4.570   2.816
11368SOL    HW236064   4.037   4.449   2.863
11369SOL     OW36065   4.063   4.233   2.868
11369SOL    HW136066   4.011   4.150   2.851
11369SOL    HW236067   4.140   4.238   2.804
11370SOL     OW36068   4.235   4.139   3.670
11370SOL    HW136069   4.217   4.184   3.758
11370SOL    HW236070   4.277   4.204   3.607
11371SOL     OW36071   4.862   4.104   3.540
11371SOL    HW136072   4.817   4.167   3.604
11371SOL    HW236073   4.955   4.135   3.523
11372SOL     OW36074   3.732   5.050   2.062
11372SOL    HW136075   3.639   5.071   2.031
11372SOL    HW236076   3.742   4.951   2.075
11373SOL     OW36077   3.812   5.525   2.789
11373SOL    HW136078   3.770   5.439   2.762
11373SOL    HW236079   3.906   5.528   2.755
11374SOL     OW36080   4.228   5.292   2.772
11374SOL    HW136081   4.294   5.366   2.781
11374SOL    HW236082   4.272   5.213   2.730
11375SOL     OW36083   4.726   4.520   3.100
11375SOL    HW136084   4.767   4.488   3.186
11375SOL    HW236085   4.630   4.493   3.097
11376SOL     OW36086   3.764   4.268   2.976
11376SOL    HW136087   3.849   4.235   2.935
11376SOL    HW236088   3.777   4.283   3.074
11377SOL     OW36089   3.913   4.244   3.584
11377SOL    HW136090   3.972   4.204   3.514
11377SOL    HW236091   3.855   4.315   3.543
11378SOL     OW36092   5.093   4.674   3.522
11378SOL    HW136093   5.132   4.763   3.542
11378SOL    HW236094   5.103   4.654   3.425
11379SOL     OW36095   4.539   4.296   2.187
11379SOL    HW136096   4.546   4.207   2.141
11379SOL    HW236097   4.445   4.330   2.179
11380SOL     OW36098   5.381   4.328   3.068
11380SOL    HW136099   5.343   4.259   3.130
11380SOL    HW236100   5.463   4.292   3.024
11381SOL     OW36101   3.976   5.288   3.606
11381SOL    HW136102   3.946   5.345   3.682
11381SOL    HW236103   3.969   5.191   3.632
11382SOL     OW36104   4.395   4.188   3.131
11382SOL    HW136105   4.361   4.099   3.101
11382SOL    HW236106   4.421   4.242   3.051
11383SOL     OW36107   4.654   5.402   3.327
11383SOL    HW136108   4.630   5.384   3.232
11383SOL    HW236109   4.684   5.496   3.337
11384SOL     OW36110   4.197   4.224   2.053
11384SOL    HW136111   4.258   4.304   2.057
11384SOL    HW236112   4.102   4.255   2.060
11385SOL     OW36113   3.883   4.861   3.328
11385SOL    HW136114   3.905   4.800   3.404
11385SOL    HW236115   3.893   4.812   3.242
11386SOL     OW36116   5.071   4.783   3.096
11386SOL    HW136117   5.095   4.720   3.022
11386SOL    HW236118   4.981   4.823   3.078
11387SOL     OW36119   5.483   5.471   3.016
11387SOL    HW136120   5.544   5.501   2.943
11387SOL    HW236121   5.445   5.382   2.994
11388SOL     OW36122   4.976   5.455   2.990
11388SOL    HW136123   5.060   5.460   2.936
11388SOL    HW236124   4.953   5.359   3.008
11389SOL     OW36125   3.807   4.982   2.884
11389SOL    HW136126   3.802   4.981   2.984
11389SOL    HW236127   3.724   4.941   2.846
11390SOL     OW36128   4.412   5.386   3.578
11390SOL    HW136129   4.356   5.467   3.587
11390SOL    HW236130   4.464   5.390   3.492
11391SOL     OW36131   4.627   3.810   1.995
11391SOL    HW136132   4.678   3.811   1.909
11391SOL    HW236133   4.683   3.768   2.066
11392SOL     OW36134   5.450   3.859   2.385
11392SOL    HW136135   5.523   3.842   2.318
11392SOL    HW236136   5.419   3.772   2.423
11393SOL     OW36137   5.112   5.297   2.339
11393SOL    HW136138   5.179   5.309   2.265
11393SOL    HW236139   5.072   5.386   2.362
11394SOL     OW36140   3.854   5.518   3.713
11394SOL    HW136141   3.813   5.444   3.766
11394SOL    HW236142   3.918   5.569   3.771
11395SOL     OW36143   5.004   4.651   2.534
11395SOL    HW136144   5.064   4.570   2.536
11395SOL    HW236145   5.044   4.720   2.474
11396SOL     OW36146   4.554   4.997   3.284
11396SOL    HW136147   4.549   5.030   3.379
11396SOL    HW236148   4.468   5.016   3.238
11397SOL     OW36149   4.396   5.340   2.016
11397SOL    HW136150   4.405   5.350   1.917
11397SOL    HW236151   4.356   5.251   2.037
11398SOL     OW36152   5.374   5.444   3.256
11398SOL    HW136153   5.427   5.454   3.172
11398SOL    HW236154   5.347   5.534   3.290
11399SOL     OW36155   5.565   3.899   2.825
11399SOL    HW136156   5.604   3.814   2.789
11399SOL    HW236157   5.467   3.901   2.806
11400SOL     OW36158   3.987   4.050   2.582
11400SOL    HW136159   3.908   4.101   2.548
11400SOL    HW236160   3.978   4.035   2.680
11401SOL     OW36161   4.918   5.336   1.893
11401SOL    HW136162   4.924   5.243   1.930
11401SOL    HW236163   4.859   5.336   1.813
11402SOL     OW36164   4.546   4.726   3.234
11402SOL    HW136165   4.586   4.725   3.142
11402SOL    HW236166   4.556   4.818   3.274
11403SOL     OW36167   5.228   5.331   1.906
11403SOL    HW136168   5.136   5.368   1.913
11403SOL    HW236169   5.266   5.351   1.816
11404SOL     OW36170   4.096   5.012   3.352
11404SOL    HW136171   4.083   5.105   3.318
11404SOL    HW236172   4.012   4.960   3.339
11405SOL     OW36173   5.338   5.016   3.151
11405SOL    HW136174   5.398   5.019   3.231
11405SOL    HW236175   5.263   5.080   3.164
11406SOL     OW36176   4.763   4.822   2.558
11406SOL    HW136177   4.693   4.775   2.612
11406SOL    HW236178   4.822   4.754   2.515
11407SOL     OW36179   4.738   3.960   2.833
11407SOL    HW136180   4.730   3.924   2.740
11407SOL    HW236181   4.736   3.884   2.898
11408SOL     OW36182   4.314   5.211   2.353
11408SOL    HW136183   4.356   5.153   2.283
11408SOL    HW236184   4.270   5.290   2.309
11409SOL     OW36185   5.433   4.109   3.243
11409SOL    HW136186   5.506   4.178   3.247
11409SOL    HW236187   5.461   4.034   3.184
11410SOL     OW36188   3.979   5.072   2.152
11410SOL    HW136189   3.883   5.073   2.125
11410SOL    HW236190   3.991   5.125   2.236
11411SOL     OW36191   3.829   4.737   3.588
11411SOL    HW136192   3.752   4.704   3.642
11411SOL    HW236193   3.914   4.707   3.630
11412SOL     OW36194   4.396   3.927   3.351
11412SOL    HW136195   4.486   3.911   3.311
11412SOL    HW236196   4.404   3.932   3.450
11413SOL     OW36197   3.799   4.069   1.895
11413SOL    HW136198   3.707   4.041   1.866
11413SOL    HW236199   3.830   4.146   1.839
11414SOL     OW36200   5.164   4.580   3.260
11414SOL    HW136201   5.107   4.632   3.197
11414SOL    HW236202   5.260   4.592   3.236
11415SOL     OW36203   3.796   3.890   2.180
11415SOL    HW136204   3.779   3.973   2.126
11415SOL    HW236205   3.886   3.853   2.158
11416SOL     OW36206   4.907   5.059   1.981
11416SOL    HW136207   4.808   5.048   1.983
11416SOL    HW236208   4.941   5.074   2.074
11417SOL     OW36209   4.337   4.566   3.293
11417SOL    HW136210   4.393   4.647   3.276
11417SOL    HW236211   4.396   4.486   3.296
11418SOL     OW36212   5.217   5.491   2.821
11418SOL    HW136213   5.250   5.555   2.752
11418SOL    HW236214   5.283   5.485   2.896
11419SOL     OW36215   4.440   4.289   3.570
11419SOL    HW136216   4.459   4.354   3.644
11419SOL    HW236217   4.500   4.209   3.579
11420SOL     OW36218   5.174   4.944   3.495
11420SOL    HW136219   5.165   4.934   3.594
11420SOL    HW236220   5.270   4.937   3.469
11421SOL     OW36221   4.114   5.465   3.422
11421SOL    HW136222   4.023   5.506   3.420
11421SOL    HW236223   4.107   5.371   3.454
11422SOL     OW36224   5.398   4.607   3.116
11422SOL    HW136225   5.371   4.518   3.079
11422SOL    HW236226   5.399   4.675   3.043
11423SOL     OW36227   4.949   4.049   2.311
11423SOL    HW136228   5.014   3.975   2.300
11423SOL    HW236229   4.969   4.099   2.395
11424SOL     OW36230   4.318   4.469   2.514
11424SOL    HW136231   4.368   4.554   2.495
11424SOL    HW236232   4.230   4.471   2.466
11425SOL     OW36233   5.501   4.066   3.504
11425SOL    HW136234   5.484   4.097   3.410
11425SOL    HW236235   5.417   4.029   3.542
11426SOL     OW36236   5.454   4.658   3.379
11426SOL    HW136237   5.492   4.749   3.394
11426SOL    HW236238   5.446   4.641   3.280
11427SOL     OW36239   4.583   5.098   1.878
11427SOL    HW136240   4.537   5.113   1.966
11427SOL    HW236241   4.627   5.183   1.848
11428SOL     OW36242   4.385   5.514   2.815
11428SOL    HW136243   4.339   5.602   2.802
11428SOL    HW236244   4.484   5.526   2.808
11429SOL     OW36245   5.132   5.575   3.582
11429SOL    HW136246   5.036   5.564   3.555
11429SOL    HW236247   5.188   5.508   3.534
11430SOL     OW36248   4.583   4.680   2.723
11430SOL    HW136249   4.637   4.611   2.771
11430SOL    HW236250   4.551   4.749   2.789
11431SOL     OW36251   5.585   5.293   2.713
11431SOL    HW136252   5.514   5.281   2.643
11431SOL    HW236253   5.586   5.214   2.773
11432SOL     OW36254   3.945   5.038   3.706
11432SOL    HW136255   3.880   4.965   3.685
11432SOL    HW236256   3.949   5.052   3.804
11433SOL     OW36257   3.803   4.964   2.515
11433SOL    HW136258   3.802   4.917   2.603
11433SOL    HW236259   3.885   4.936   2.464
11434SOL     OW36260   4.396   5.115   3.486
11434SOL    HW136261   4.318   5.065   3.524
11434SOL    HW236262   4.393   5.210   3.517
11435SOL     OW36263   5.548   3.916   3.089
11435SOL    HW136264   5.544   3.826   3.133
11435SOL    HW236265   5.551   3.905   2.990
11436SOL     OW36266   4.152   4.148   2.382
11436SOL    HW136267   4.182   4.076   2.320
11436SOL    HW236268   4.113   4.108   2.465
11437SOL     OW36269   5.429   5.211   2.966
11437SOL    HW136270   5.336   5.186   2.939
11437SOL    HW236271   5.455   5.161   3.048
11438SOL     OW36272   4.041   4.271   3.142
11438SOL    HW136273   4.079   4.212   3.214
11438SOL    HW236274   4.081   4.245   3.054
11439SOL     OW36275   4.536   5.310   2.549
11439SOL    HW136276   4.568   5.320   2.455
11439SOL    HW236277   4.457   5.248   2.551
11440SOL     OW36278   4.725   3.758   3.016
11440SOL    HW136279   4.662   3.686   2.985
11440SOL    HW236280   4.818   3.722   3.016
11441SOL     OW36281   4.494   5.054   2.163
11441SOL    HW136282   4.448   4.967   2.180
11441SOL    HW236283   4.585   5.051   2.204
11442SOL     OW36284   4.342   5.291   3.146
11442SOL    HW136285   4.337   5.373   3.203
11442SOL    HW236286   4.431   5.288   3.101
11443SOL     OW36287   5.076   3.776   2.030
11443SOL    HW136288   5.111   3.735   1.946
11443SOL    HW236289   4.986   3.738   2.050
11444SOL     OW36290   5.024   4.177   2.553
11444SOL    HW136291   4.965   4.257   2.557
11444SOL    HW236292   5.039   4.142   2.646
11445SOL     OW36293   5.317   3.945   2.744
11445SOL    HW136294   5.233   3.944   2.798
11445SOL    HW236295   5.319   4.028   2.688
11446SOL     OW36296   3.763   4.801   2.162
11446SOL    HW136297   3.862   4.790   2.153
11446SOL    HW236298   3.723   4.715   2.194
11447SOL     OW36299   4.599   5.370   2.199
11447SOL    HW136300   4.522   5.335   2.145
11447SOL    HW236301   4.567   5.441   2.261
11448SOL     OW36302   3.954   4.352   3.837
11448SOL    HW136303   3.861   4.350   3.874
11448SOL    HW236304   3.955   4.313   3.745
11449SOL     OW36305   3.949   3.999   4.720
11449SOL    HW136306   3.984   3.982   4.812
11449SOL    HW236307   3.861   3.954   4.708
11450SOL     OW36308   4.293   4.999   4.889
11450SOL    HW136309   4.200   4.992   4.852
11450SOL    HW236310   4.304   5.088   4.933
11451SOL     OW36311   5.279   5.235   4.427
11451SOL    HW136312   5.222   5.219   4.508
11451SOL    HW236313   5.220   5.245   4.347
11452SOL     OW36314   5.467   4.342   4.580
11452SOL    HW136315   5.500   4.436   4.580
11452SOL    HW236316   5.518   4.288   4.646
11453SOL     OW36317   4.859   4.427   4.441
11453SOL    HW136318   4.916   4.505   4.416
11453SOL    HW236319   4.799   4.453   4.517
11454SOL     OW36320   5.479   4.331   3.955
11454SOL    HW136321   5.467   4.318   3.856
11454SOL    HW236322   5.449   4.250   4.004
11455SOL     OW36323   4.574   4.522   5.547
11455SOL    HW136324   4.570   4.598   5.612
11455SOL    HW236325   4.596   4.558   5.456
11456SOL     OW36326   4.409   4.736   4.389
11456SOL    HW136327   4.478   4.720   4.459
11456SOL    HW236328   4.336   4.793   4.427
11457SOL     OW36329   4.410   4.885   5.527
11457SOL    HW136330   4.470   4.964   5.541
11457SOL    HW236331   4.324   4.916   5.486
11458SOL     OW36332   4.059   5.159   4.785
11458SOL    HW136333   3.981   5.128   4.732
11458SOL    HW236334   4.117   5.217   4.728
11459SOL     OW36335   5.184   5.229   5.063
11459SOL    HW136336   5.208   5.323   5.089
11459SOL    HW236337   5.168   5.175   5.145
11460SOL     OW36338   4.162   4.116   5.223
11460SOL    HW136339   4.244   4.060   5.232
11460SOL    HW236340   4.081   4.058   5.227
11461SOL     OW36341   5.327   4.171   4.461
11461SOL    HW136342   5.253   4.217   4.411
11461SOL    HW236343   5.378   4.239   4.514
11462SOL     OW36344   3.955   5.437   4.207
11462SOL    HW136345   3.989   5.514   4.261
11462SOL    HW236346   3.999   5.437   4.117
11463SOL     OW36347   4.851   5.065   5.414
11463SOL    HW136348   4.898   5.065   5.502
11463SOL    HW236349   4.803   4.978   5.403
11464SOL     OW36350   3.954   5.158   4.262
11464SOL    HW136351   3.928   5.254   4.262
11464SOL    HW236352   3.883   5.104   4.307
11465SOL     OW36353   4.344   5.510   5.163
11465SOL    HW136354   4.252   5.493   5.198
11465SOL    HW236355   4.372   5.602   5.189
11466SOL     OW36356   4.330   4.688   3.847
11466SOL    HW136357   4.337   4.772   3.793
11466SOL    HW236358   4.376   4.701   3.935
11467SOL     OW36359   5.318   3.838   5.204
11467SOL    HW136360   5.300   3.905   5.132
11467SOL    HW236361   5.315   3.884   5.293
11468SOL     OW36362   3.846   4.367   4.287
11468SOL    HW136363   3.801   4.279   4.304
11468SOL    HW236364   3.845   4.421   4.371
11469SOL     OW36365   5.566   5.491   4.083
11469SOL    HW136366   5.620   5.462   4.163
11469SOL    HW236367   5.596   5.581   4.054
11470SOL     OW36368   3.751   5.320   3.841
11470SOL    HW136369   3.732   5.224   3.862
11470SOL    HW236370   3.718   5.378   3.916
11471SOL     OW36371   5.413   4.646   4.336
11471SOL    HW136372   5.508   4.617   4.344
11471SOL    HW236373   5.405   4.711   4.261
11472SOL     OW36374   5.365   4.832   4.156
11472SOL    HW136375   5.451   4.834   4.104
11472SOL    HW236376   5.379   4.879   4.244
11473SOL     OW36377   3.837   4.461   5.321
11473SOL    HW136378   3.925   4.448   5.366
11473SOL    HW236379   3.824   4.558   5.299
11474SOL     OW36380   4.337   5.089   4.450
11474SOL    HW136381   4.288   5.002   4.459
11474SOL    HW236382   4.314   5.132   4.363
11475SOL     OW36383   5.017   4.952   5.147
11475SOL    HW136384   5.054   4.879   5.089
11475SOL    HW236385   5.069   4.957   5.232
11476SOL     OW36386   3.921   4.700   4.988
11476SOL    HW136387   4.010   4.655   4.974
11476SOL    HW236388   3.848   4.635   4.969
11477SOL     OW36389   5.249   4.723   3.914
11477SOL    HW136390   5.186   4.647   3.927
11477SOL    HW236391   5.297   4.741   4.000
11478SOL     OW36392   4.911   5.516   5.340
11478SOL    HW136393   4.935   5.576   5.264
11478SOL    HW236394   4.918   5.421   5.310
11479SOL     OW36395   4.041   3.975   5.525
11479SOL    HW136396   4.112   4.046   5.531
11479SOL    HW236397   3.953   4.014   5.553
11480SOL     OW36398   5.190   5.141   4.677
11480SOL    HW136399   5.131   5.147   4.757
11480SOL    HW236400   5.175   5.053   4.631
11481SOL     OW36401   5.391   5.438   4.296
11481SOL    HW136402   5.350   5.415   4.208
11481SOL    HW236403   5.373   5.364   4.361
11482SOL     OW36404   4.322   4.453   3.994
11482SOL    HW136405   4.346   4.522   3.926
11482SOL    HW236406   4.244   4.486   4.048
11483SOL     OW36407   5.005   4.069   4.668
11483SOL    HW136408   4.919   4.019   4.655
11483SOL    HW236409   5.067   4.015   4.724
11484SOL     OW36410   5.300   5.386   4.031
11484SOL    HW136411   5.389   5.432   4.034
11484SOL    HW236412   5.279   5.362   3.936
11485SOL     OW36413   4.531   4.329   5.189
11485SOL    HW136414   4.484   4.326   5.278
11485SOL    HW236415   4.480   4.274   5.123
11486SOL     OW36416   5.118   4.193   5.398
11486SOL    HW136417   5.098   4.236   5.486
11486SOL    HW236418   5.196   4.131   5.407
11487SOL     OW36419   4.697   4.614   5.296
11487SOL    HW136420   4.743   4.530   5.267
11487SOL    HW236421   4.641   4.648   5.221
11488SOL     OW36422   4.715   4.134   4.966
11488SOL    HW136423   4.638   4.168   5.020
11488SOL    HW236424   4.681   4.083   4.887
11489SOL     OW36425   4.765   4.425   4.153
11489SOL    HW136426   4.791   4.421   4.249
11489SOL    HW236427   4.680   4.374   4.139
11490SOL     OW36428   3.800   4.535   4.513
11490SOL    HW136429   3.899   4.523   4.522
11490SOL    HW236430   3.776   4.630   4.534
11491SOL     OW36431   3.854   5.545   5.295
11491SOL    HW136432   3.844   5.530   5.394
11491SOL    HW236433   3.768   5.581   5.259
11492SOL     OW36434   4.589   4.072   3.919
11492SOL    HW136435   4.648   4.135   3.870
11492SOL    HW236436   4.608   3.978   3.890
11493SOL     OW36437   5.443   4.309   5.555
11493SOL    HW136438   5.417   4.398   5.519
11493SOL    HW236439   5.441   4.241   5.482
11494SOL     OW36440   5.086   4.868   4.269
11494SOL    HW136441   5.169   4.839   4.221
11494SOL    HW236442   5.037   4.935   4.213
11495SOL     OW36443   4.732   5.180   4.201
11495SOL    HW136444   4.686   5.252   4.149
11495SOL    HW236445   4.728   5.200   4.299
11496SOL     OW36446   4.075   5.525   4.577
11496SOL    HW136447   4.125   5.439   4.583
11496SOL    HW236448   4.140   5.602   4.574
11497SOL     OW36449   5.519   4.790   4.597
11497SOL    HW136450   5.457   4.775   4.521
11497SOL    HW236451   5.467   4.801   4.682
11498SOL     OW36452   4.951   5.274   5.230
11498SOL    HW136453   4.957   5.197   5.294
11498SOL    HW236454   4.899   5.248   5.150
11499SOL     OW36455   4.045   4.667   3.966
11499SOL    HW136456   4.127   4.706   3.924
11499SOL    HW236457   4.018   4.585   3.917
11500SOL     OW36458   5.182   4.459   4.452
11500SOL    HW136459   5.177   4.394   4.527
11500SOL    HW236460   5.262   4.518   4.465
11501SOL     OW36461   4.185   4.990   5.451
11501SOL    HW136462   4.135   4.991   5.365
11501SOL    HW236463   4.122   4.972   5.527
11502SOL     OW36464   4.835   5.500   3.961
11502SOL    HW136465   4.775   5.438   4.011
11502SOL    HW236466   4.866   5.456   3.876
11503SOL     OW36467   3.926   4.009   5.222
11503SOL    HW136468   3.846   4.069   5.209
11503SOL    HW236469   3.916   3.960   5.308
11504SOL     OW36470   5.356   5.101   3.805
11504SOL    HW136471   5.324   5.195   3.795
11504SOL    HW236472   5.280   5.038   3.793
11505SOL     OW36473   4.188   5.467   4.047
11505SOL    HW136474   4.221   5.506   4.133
11505SOL    HW236475   4.264   5.460   3.982
11506SOL     OW36476   5.124   3.831   4.150
11506SOL    HW136477   5.100   3.794   4.060
11506SOL    HW236478   5.223   3.847   4.154
11507SOL     OW36479   3.973   5.509   4.965
11507SOL    HW136480   4.030   5.444   5.015
11507SOL    HW236481   3.957   5.476   4.872
11508SOL     OW36482   4.664   5.422   4.628
11508SOL    HW136483   4.744   5.365   4.649
11508SOL    HW236484   4.615   5.382   4.551
11509SOL     OW36485   4.106   4.424   4.204
11509SOL    HW136486   4.151   4.334   4.201
11509SOL    HW236487   4.012   4.413   4.237
11510SOL     OW36488   5.271   3.946   5.453
11510SOL    HW136489   5.266   3.983   5.545
11510SOL    HW236490   5.199   3.877   5.441
11511SOL     OW36491   4.338   3.846   3.841
11511SOL    HW136492   4.436   3.824   3.848
11511SOL    HW236493   4.307   3.829   3.748
11512SOL     OW36494   4.505   3.988   5.473
11512SOL    HW136495   4.572   3.927   5.516
11512SOL    HW236496   4.432   4.007   5.538
11513SOL     OW36497   4.612   5.238   4.919
11513SOL    HW136498   4.589   5.213   4.825
11513SOL    HW236499   4.673   5.169   4.958
11514SOL     OW36500   5.075   4.314   5.157
11514SOL    HW136501   5.103   4.271   5.242
11514SOL    HW236502   5.100   4.410   5.158
11515SOL     OW36503   4.527   5.126   4.648
11515SOL    HW136504   4.617   5.140   4.606
11515SOL    HW236505   4.456   5.128   4.577
11516SOL     OW36506   4.646   4.227   4.623
11516SOL    HW136507   4.621   4.218   4.527
11516SOL    HW236508   4.694   4.145   4.654
11517SOL     OW36509   4.263   3.788   4.236
11517SOL    HW136510   4.182   3.789   4.294
11517SOL    HW236511   4.266   3.871   4.181
11518SOL     OW36512   5.158   4.912   3.765
11518SOL    HW136513   5.190   4.836   3.822
11518SOL    HW236514   5.066   4.939   3.795
11519SOL     OW36515   4.800   4.407   5.188
11519SOL    HW136516   4.720   4.346   5.191
11519SOL    HW236517   4.881   4.354   5.164
11520SOL     OW36518   4.951   5.294   4.517
11520SOL    HW136519   4.972   5.368   4.452
11520SOL    HW236520   5.019   5.294   4.590
11521SOL     OW36521   4.995   5.521   4.315
11521SOL    HW136522   5.039   5.585   4.251
11521SOL    HW236523   4.945   5.573   4.385
11522SOL     OW36524   4.756   4.273   3.740
11522SOL    HW136525   4.715   4.355   3.701
11522SOL    HW236526   4.820   4.299   3.813
11523SOL     OW36527   3.802   4.280   5.110
11523SOL    HW136528   3.894   4.279   5.069
11523SOL    HW236529   3.796   4.354   5.177
11524SOL     OW36530   4.285   3.946   4.871
11524SOL    HW136531   4.323   3.862   4.908
11524SOL    HW236532   4.197   3.965   4.915
11525SOL     OW36533   4.590   4.178   4.366
11525SOL    HW136534   4.558   4.250   4.304
11525SOL    HW236535   4.614   4.097   4.313
11526SOL     OW36536   5.153   4.897   4.591
11526SOL    HW136537   5.098   4.813   4.584
11526SOL    HW236538   5.179   4.926   4.499
11527SOL     OW36539   5.190   4.314   4.716
11527SOL    HW136540   5.160   4.219   4.723
11527SOL    HW236541   5.263   4.330   4.782
11528SOL     OW36542   5.581   4.557   4.101
11528SOL    HW136543   5.623   4.493   4.165
11528SOL    HW236544   5.543   4.506   4.023
11529SOL     OW36545   4.212   5.109   3.898
11529SOL    HW136546   4.125   5.094   3.945
11529SOL    HW236547   4.195   5.135   3.803
11530SOL     OW36548   5.388   5.004   4.381
11530SOL    HW136549   5.487   5.012   4.395
11530SOL    HW236550   5.343   5.088   4.412
11531SOL     OW36551   5.114   4.299   3.802
11531SOL    HW136552   5.060   4.278   3.883
11531SOL    HW236553   5.205   4.258   3.811
11532SOL     OW36554   4.251   3.980   4.052
11532SOL    HW136555   4.278   3.921   3.977
11532SOL    HW236556   4.251   4.075   4.021
11533SOL     OW36557   5.478   4.947   5.312
11533SOL    HW136558   5.569   4.908   5.299
11533SOL    HW236559   5.486   5.043   5.336
11534SOL     OW36560   4.788   5.071   5.064
11534SOL    HW136561   4.708   5.048   5.119
11534SOL    HW236562   4.871   5.045   5.113
11535SOL     OW36563   5.316   5.353   5.349
11535SOL    HW136564   5.343   5.387   5.259
11535SOL    HW236565   5.395   5.315   5.395
11536SOL     OW36566   4.835   4.919   4.824
11536SOL    HW136567   4.795   4.963   4.905
11536SOL    HW236568   4.794   4.956   4.741
11537SOL     OW36569   5.362   4.823   4.803
11537SOL    HW136570   5.367   4.904   4.862
11537SOL    HW236571   5.276   4.825   4.752
11538SOL     OW36572   4.639   3.813   5.126
11538SOL    HW136573   4.664   3.793   5.031
11538SOL    HW236574   4.711   3.869   5.168
11539SOL     OW36575   4.704   4.840   5.443
11539SOL    HW136576   4.605   4.846   5.453
11539SOL    HW236577   4.727   4.760   5.387
11540SOL     OW36578   4.429   4.774   4.092
11540SOL    HW136579   4.415   4.781   4.191
11540SOL    HW236580   4.513   4.723   4.074
11541SOL     OW36581   4.134   4.537   4.975
11541SOL    HW136582   4.220   4.549   5.025
11541SOL    HW236583   4.092   4.450   5.002
11542SOL     OW36584   4.998   4.110   4.986
11542SOL    HW136585   5.019   4.184   5.050
11542SOL    HW236586   4.909   4.127   4.943
11543SOL     OW36587   3.788   5.288   5.055
11543SOL    HW136588   3.742   5.370   5.021
11543SOL    HW236589   3.886   5.307   5.064
11544SOL     OW36590   4.091   4.824   4.225
11544SOL    HW136591   4.084   4.907   4.169
11544SOL    HW236592   4.095   4.744   4.165
11545SOL     OW36593   4.290   4.261   4.589
11545SOL    HW136594   4.302   4.327   4.515
11545SOL    HW236595   4.336   4.295   4.672
11546SOL     OW36596   4.976   5.072   4.112
11546SOL    HW136597   5.026   5.149   4.152
11546SOL    HW236598   4.881   5.074   4.144
11547SOL     OW36599   4.996   5.169   4.866
11547SOL    HW136600   5.043   5.182   4.953
11547SOL    HW236601   4.930   5.095   4.875
11548SOL     OW36602   5.306   4.363   4.196
11548SOL    HW136603   5.275   4.424   4.269
11548SOL    HW236604   5.356   4.415   4.127
11549SOL     OW36605   4.078   5.234   5.053
11549SOL    HW136606   4.057   5.190   4.966
11549SOL    HW236607   4.175   5.260   5.056
11550SOL     OW36608   4.126   4.475   5.322
11550SOL    HW136609   4.194   4.530   5.275
11550SOL    HW236610   4.166   4.387   5.349
11551SOL     OW36611   5.311   4.503   5.394
11551SOL    HW136612   5.219   4.541   5.389
11551SOL    HW236613   5.371   4.550   5.329
11552SOL     OW36614   4.737   3.829   5.494
11552SOL    HW136615   4.743   3.914   5.442
11552SOL    HW236616   4.769   3.753   5.437
11553SOL     OW36617   4.228   3.774   5.464
11553SOL    HW136618   4.186   3.717   5.394
11553SOL    HW236619   4.162   3.843   5.496
11554SOL     OW36620   5.084   4.586   4.769
11554SOL    HW136621   5.009   4.586   4.703
11554SOL    HW236622   5.121   4.494   4.778
11555SOL     OW36623   4.933   4.249   3.999
11555SOL    HW136624   4.946   4.165   4.053
11555SOL    HW236625   4.904   4.323   4.059
11556SOL     OW36626   4.031   3.937   4.955
11556SOL    HW136627   4.008   3.974   5.045
11556SOL    HW236628   4.001   3.842   4.949
11557SOL     OW36629   3.761   5.034   5.006
11557SOL    HW136630   3.814   4.985   5.074
11557SOL    HW236631   3.783   5.132   5.011
11558SOL     OW36632   4.456   4.358   4.788
11558SOL    HW136633   4.515   4.332   4.712
11558SOL    HW236634   4.428   4.454   4.777
11559SOL     OW36635   5.452   4.659   5.578
11559SOL    HW136636   5.406   4.652   5.489
11559SOL    HW236637   5.390   4.703   5.644
11560SOL     OW36638   4.031   3.787   4.342
11560SOL    HW136639   4.020   3.881   4.375
11560SOL    HW236640   4.026   3.724   4.419
11561SOL     OW36641   5.346   4.091   4.098
11561SOL    HW136642   5.348   4.015   4.162
11561SOL    HW236643   5.298   4.168   4.138
11562SOL     OW36644   4.747   4.490   4.690
11562SOL    HW136645   4.762   4.511   4.786
11562SOL    HW236646   4.717   4.395   4.681
11563SOL     OW36647   4.704   5.297   5.424
11563SOL    HW136648   4.684   5.341   5.336
11563SOL    HW236649   4.743   5.206   5.408
11564SOL     OW36650   5.583   5.242   5.329
11564SOL    HW136651   5.597   5.269   5.234
11564SOL    HW236652   5.666   5.264   5.382
11565SOL     OW36653   4.074   4.622   5.528
11565SOL    HW136654   4.150   4.666   5.576
11565SOL    HW236655   4.109   4.575   5.446
11566SOL     OW36656   5.264   3.998   3.849
11566SOL    HW136657   5.203   3.923   3.872
11566SOL    HW236658   5.286   4.050   3.932
11567SOL     OW36659   5.027   4.562   3.766
11567SOL    HW136660   5.061   4.469   3.781
11567SOL    HW236661   5.045   4.589   3.671
11568SOL     OW36662   4.792   5.057   4.573
11568SOL    HW136663   4.799   4.973   4.518
11568SOL    HW236664   4.854   5.126   4.537
11569SOL     OW36665   4.043   4.534   4.673
11569SOL    HW136666   4.136   4.570   4.678
11569SOL    HW236667   4.037   4.449   4.725
11570SOL     OW36668   4.063   4.233   4.730
11570SOL    HW136669   4.011   4.150   4.713
11570SOL    HW236670   4.140   4.238   4.666
11571SOL     OW36671   4.235   4.139   5.532
11571SOL    HW136672   4.217   4.184   5.620
11571SOL    HW236673   4.277   4.204   5.469
11572SOL     OW36674   4.862   4.104   5.402
11572SOL    HW136675   4.817   4.167   5.466
11572SOL    HW236676   4.955   4.135   5.385
11573SOL     OW36677   4.884   3.931   5.201
11573SOL    HW136678   4.884   3.995   5.278
11573SOL    HW236679   4.912   3.979   5.118
11574SOL     OW36680   3.732   5.050   3.924
11574SOL    HW136681   3.639   5.071   3.893
11574SOL    HW236682   3.742   4.951   3.937
11575SOL     OW36683   3.812   5.525   4.651
11575SOL    HW136684   3.770   5.439   4.624
11575SOL    HW236685   3.906   5.528   4.617
11576SOL     OW36686   4.228   5.292   4.634
11576SOL    HW136687   4.294   5.366   4.643
11576SOL    HW236688   4.272   5.213   4.592
11577SOL     OW36689   4.726   4.520   4.962
11577SOL    HW136690   4.767   4.488   5.048
11577SOL    HW236691   4.630   4.493   4.959
11578SOL     OW36692   3.764   4.268   4.838
11578SOL    HW136693   3.849   4.235   4.797
11578SOL    HW236694   3.777   4.283   4.936
11579SOL     OW36695   3.913   4.244   5.446
11579SOL    HW136696   3.972   4.204   5.376
11579SOL    HW236697   3.855   4.315   5.405
11580SOL     OW36698   5.093   4.674   5.384
11580SOL    HW136699   5.132   4.763   5.404
11580SOL    HW236700   5.103   4.654   5.287
11581SOL     OW36701   4.539   4.296   4.049
11581SOL    HW136702   4.546   4.207   4.003
11581SOL    HW236703   4.445   4.330   4.041
11582SOL     OW36704   5.381   4.328   4.930
11582SOL    HW136705   5.343   4.259   4.992
11582SOL    HW236706   5.463   4.292   4.886
11583SOL     OW36707   3.976   5.288   5.468
11583SOL    HW136708   3.946   5.345   5.544
11583SOL    HW236709   3.969   5.191   5.494
11584SOL     OW36710   4.395   4.188   4.993
11584SOL    HW136711   4.361   4.099   4.963
11584SOL    HW236712   4.421   4.242   4.913
11585SOL     OW36713   4.654   5.402   5.189
11585SOL    HW136714   4.630   5.384   5.094
11585SOL    HW236715   4.684   5.496   5.199
11586SOL     OW36716   4.197   4.224   3.915
11586SOL    HW136717   4.258   4.304   3.919
11586SOL    HW236718   4.102   4.255   3.922
11587SOL     OW36719   3.883   4.861   5.190
11587SOL    HW136720   3.905   4.800   5.266
11587SOL    HW236721   3.893   4.812   5.104
11588SOL     OW36722   5.071   4.783   4.958
11588SOL    HW136723   5.095   4.720   4.884
11588SOL    HW236724   4.981   4.823   4.940
11589SOL     OW36725   5.026   4.579   4.033
11589SOL    HW136726   4.940   4.548   4.075
11589SOL    HW236727   5.022   4.565   3.934
11590SOL     OW36728   5.483   5.471   4.878
11590SOL    HW136729   5.544   5.501   4.805
11590SOL    HW236730   5.445   5.382   4.856
11591SOL     OW36731   4.976   5.455   4.852
11591SOL    HW136732   5.060   5.460   4.798
11591SOL    HW236733   4.953   5.359   4.870
11592SOL     OW36734   3.807   4.982   4.746
11592SOL    HW136735   3.802   4.981   4.846
11592SOL    HW236736   3.724   4.941   4.708
11593SOL     OW36737   4.412   5.386   5.440
11593SOL    HW136738   4.356   5.467   5.449
11593SOL    HW236739   4.464   5.390   5.354
11594SOL     OW36740   5.450   3.859   4.247
11594SOL    HW136741   5.523   3.842   4.180
11594SOL    HW236742   5.419   3.772   4.285
11595SOL     OW36743   5.112   5.297   4.201
11595SOL    HW136744   5.179   5.309   4.127
11595SOL    HW236745   5.072   5.386   4.224
11596SOL     OW36746   3.854   5.518   5.575
11596SOL    HW136747   3.813   5.444   5.628
11596SOL    HW236748   3.918   5.569   5.633
11597SOL     OW36749   5.004   4.651   4.396
11597SOL    HW136750   5.064   4.570   4.398
11597SOL    HW236751   5.044   4.720   4.336
11598SOL     OW36752   4.554   4.997   5.146
11598SOL    HW136753   4.549   5.030   5.241
11598SOL    HW236754   4.468   5.016   5.100
11599SOL     OW36755   4.396   5.340   3.878
11599SOL    HW136756   4.405   5.350   3.779
11599SOL    HW236757   4.356   5.251   3.899
11600SOL     OW36758   5.374   5.444   5.118
11600SOL    HW136759   5.427   5.454   5.034
11600SOL    HW236760   5.347   5.534   5.152
11601SOL     OW36761   5.565   3.899   4.687
11601SOL    HW136762   5.604   3.814   4.651
11601SOL    HW236763   5.467   3.901   4.668
11602SOL     OW36764   4.918   5.336   3.755
11602SOL    HW136765   4.924   5.243   3.792
11602SOL    HW236766   4.859   5.336   3.675
11603SOL     OW36767   4.640   4.634   4.015
11603SOL    HW136768   4.703   4.672   3.947
11603SOL    HW236769   4.680   4.551   4.054
11604SOL     OW36770   5.228   5.331   3.768
11604SOL    HW136771   5.136   5.368   3.775
11604SOL    HW236772   5.266   5.351   3.678
11605SOL     OW36773   4.096   5.012   5.214
11605SOL    HW136774   4.083   5.105   5.180
11605SOL    HW236775   4.012   4.960   5.201
11606SOL     OW36776   5.338   5.016   5.013
11606SOL    HW136777   5.398   5.019   5.093
11606SOL    HW236778   5.263   5.080   5.026
11607SOL     OW36779   4.763   4.822   4.420
11607SOL    HW136780   4.693   4.775   4.474
11607SOL    HW236781   4.822   4.754   4.377
11608SOL     OW36782   4.738   3.960   4.695
11608SOL    HW136783   4.730   3.924   4.602
11608SOL    HW236784   4.736   3.884   4.760
11609SOL     OW36785   4.314   5.211   4.215
11609SOL    HW136786   4.356   5.153   4.145
11609SOL    HW236787   4.270   5.290   4.171
11610SOL     OW36788   5.433   4.109   5.105
11610SOL    HW136789   5.506   4.178   5.109
11610SOL    HW236790   5.461   4.034   5.046
11611SOL     OW36791   3.979   5.072   4.014
11611SOL    HW136792   3.883   5.073   3.987
11611SOL    HW236793   3.991   5.125   4.098
11612SOL     OW36794   3.829   4.737   5.450
11612SOL    HW136795   3.752   4.704   5.504
11612SOL    HW236796   3.914   4.707   5.492
11613SOL     OW36797   4.396   3.927   5.213
11613SOL    HW136798   4.486   3.911   5.173
11613SOL    HW236799   4.404   3.932   5.312
11614SOL     OW36800   3.799   4.069   3.757
11614SOL    HW136801   3.707   4.041   3.728
11614SOL    HW236802   3.830   4.146   3.701
11615SOL     OW36803   5.164   4.580   5.122
11615SOL    HW136804   5.107   4.632   5.059
11615SOL    HW236805   5.260   4.592   5.098
11616SOL     OW36806   3.796   3.890   4.042
11616SOL    HW136807   3.779   3.973   3.988
11616SOL    HW236808   3.886   3.853   4.020
11617SOL     OW36809   4.907   5.059   3.843
11617SOL    HW136810   4.808   5.048   3.845
11617SOL    HW236811   4.941   5.074   3.936
11618SOL     OW36812   5.217   5.491   4.683
11618SOL    HW136813   5.250   5.555   4.614
11618SOL    HW236814   5.283   5.485   4.758
11619SOL     OW36815   4.440   4.289   5.432
11619SOL    HW136816   4.459   4.354   5.506
11619SOL    HW236817   4.500   4.209   5.441
11620SOL     OW36818   5.174   4.944   5.357
11620SOL    HW136819   5.165   4.934   5.456
11620SOL    HW236820   5.270   4.937   5.331
11621SOL     OW36821   4.114   5.465   5.284
11621SOL    HW136822   4.023   5.506   5.282
11621SOL    HW236823   4.107   5.371   5.316
11622SOL     OW36824   5.398   4.607   4.978
11622SOL    HW136825   5.371   4.518   4.941
11622SOL    HW236826   5.399   4.675   4.905
11623SOL     OW36827   4.949   4.049   4.173
11623SOL    HW136828   5.014   3.975   4.162
11623SOL    HW236829   4.969   4.099   4.257
11624SOL     OW36830   4.318   4.469   4.376
11624SOL    HW136831   4.368   4.554   4.357
11624SOL    HW236832   4.230   4.471   4.328
11625SOL     OW36833   5.501   4.066   5.366
11625SOL    HW136834   5.484   4.097   5.272
11625SOL    HW236835   5.417   4.029   5.404
11626SOL     OW36836   5.454   4.658   5.241
11626SOL    HW136837   5.492   4.749   5.256
11626SOL    HW236838   5.446   4.641   5.142
11627SOL     OW36839   4.583   5.098   3.740
11627SOL    HW136840   4.537   5.113   3.828
11627SOL    HW236841   4.627   5.183   3.710
11628SOL     OW36842   4.385   5.514   4.677
11628SOL    HW136843   4.339   5.602   4.664
11628SOL    HW236844   4.484   5.526   4.670
11629SOL     OW36845   5.132   5.575   5.444
11629SOL    HW136846   5.036   5.564   5.417
11629SOL    HW236847   5.188   5.508   5.396
11630SOL     OW36848   4.583   4.680   4.585
11630SOL    HW136849   4.637   4.611   4.633
11630SOL    HW236850   4.551   4.749   4.651
11631SOL     OW36851   4.807   4.708   3.811
11631SOL    HW136852   4.784   4.761   3.729
11631SOL    HW236853   4.888   4.652   3.792
11632SOL     OW36854   5.585   5.293   4.575
11632SOL    HW136855   5.514   5.281   4.505
11632SOL    HW236856   5.586   5.214   4.635
11633SOL     OW36857   3.945   5.038   5.568
11633SOL    HW136858   3.880   4.965   5.547
11633SOL    HW236859   3.949   5.052   5.666
11634SOL     OW36860   3.803   4.964   4.377
11634SOL    HW136861   3.802   4.917   4.465
11634SOL    HW236862   3.885   4.936   4.326
11635SOL     OW36863   4.396   5.115   5.348
11635SOL    HW136864   4.318   5.065   5.386
11635SOL    HW236865   4.393   5.210   5.379
11636SOL     OW36866   5.548   3.916   4.951
11636SOL    HW136867   5.544   3.826   4.995
11636SOL    HW236868   5.551   3.905   4.852
11637SOL     OW36869   4.152   4.148   4.244
11637SOL    HW136870   4.182   4.076   4.182
11637SOL    HW236871   4.113   4.108   4.327
11638SOL     OW36872   5.429   5.211   4.828
11638SOL    HW136873   5.336   5.186   4.801
11638SOL    HW236874   5.455   5.161   4.910
11639SOL     OW36875   4.041   4.271   5.004
11639SOL    HW136876   4.079   4.212   5.076
11639SOL    HW236877   4.081   4.245   4.916
11640SOL     OW36878   4.536   5.310   4.411
11640SOL    HW136879   4.568   5.320   4.317
11640SOL    HW236880   4.457   5.248   4.413
11641SOL     OW36881   5.148   3.938   4.836
11641SOL    HW136882   5.200   3.873   4.891
11641SOL    HW236883   5.099   4.001   4.897
11642SOL     OW36884   4.725   3.758   4.878
11642SOL    HW136885   4.662   3.686   4.847
11642SOL    HW236886   4.818   3.722   4.878
11643SOL     OW36887   4.494   5.054   4.025
11643SOL    HW136888   4.448   4.967   4.042
11643SOL    HW236889   4.585   5.051   4.066
11644SOL     OW36890   4.342   5.291   5.008
11644SOL    HW136891   4.337   5.373   5.065
11644SOL    HW236892   4.431   5.288   4.963
11645SOL     OW36893   5.076   3.776   3.892
11645SOL    HW136894   5.111   3.735   3.808
11645SOL    HW236895   4.986   3.738   3.912
11646SOL     OW36896   5.024   4.177   4.415
11646SOL    HW136897   4.965   4.257   4.419
11646SOL    HW236898   5.039   4.142   4.508
11647SOL     OW36899   5.317   3.945   4.606
11647SOL    HW136900   5.233   3.944   4.660
11647SOL    HW236901   5.319   4.028   4.550
11648SOL     OW36902   3.763   4.801   4.024
11648SOL    HW136903   3.862   4.790   4.015
11648SOL    HW236904   3.723   4.715   4.056
11649SOL     OW36905   4.599   5.370   4.061
11649SOL    HW136906   4.522   5.335   4.007
11649SOL    HW236907   4.567   5.441   4.123
11650SOL     OW36908   3.954   4.352   5.699
11650SOL    HW136909   3.861   4.350   5.736
11650SOL    HW236910   3.955   4.313   5.607
11651SOL     OW36911   3.949   3.999   6.582
11651SOL    HW136912   3.984   3.982   6.674
11651SOL    HW236913   3.861   3.954   6.570
11652SOL     OW36914   3.743   4.092   6.233
11652SOL    HW136915   3.661   4.135   6.272
11652SOL    HW236916   3.715   4.019   6.170
11653SOL     OW36917   4.293   4.999   6.751
11653SOL    HW136918   4.200   4.992   6.714
11653SOL    HW236919   4.304   5.088   6.795
11654SOL     OW36920   5.279   5.235   6.289
11654SOL    HW136921   5.222   5.219   6.370
11654SOL    HW236922   5.220   5.245   6.209
11655SOL     OW36923   5.467   4.342   6.442
11655SOL    HW136924   5.500   4.436   6.442
11655SOL    HW236925   5.518   4.288   6.508
11656SOL     OW36926   4.859   4.427   6.303
11656SOL    HW136927   4.916   4.505   6.278
11656SOL    HW236928   4.799   4.453   6.379
11657SOL     OW36929   5.479   4.331   5.817
11657SOL    HW136930   5.467   4.318   5.718
11657SOL    HW236931   5.449   4.250   5.866
11658SOL     OW36932   4.492   4.868   6.609
11658SOL    HW136933   4.414   4.885   6.669
11658SOL    HW236934   4.526   4.955   6.573
11659SOL     OW36935   4.574   4.522   7.409
11659SOL    HW136936   4.570   4.598   7.474
11659SOL    HW236937   4.596   4.558   7.318
11660SOL     OW36938   4.409   4.736   6.251
11660SOL    HW136939   4.478   4.720   6.321
11660SOL    HW236940   4.336   4.793   6.289
11661SOL     OW36941   4.410   4.885   7.389
11661SOL    HW136942   4.470   4.964   7.403
11661SOL    HW236943   4.324   4.916   7.348
11662SOL     OW36944   4.059   5.159   6.647
11662SOL    HW136945   3.981   5.128   6.594
11662SOL    HW236946   4.117   5.217   6.590
11663SOL     OW36947   5.184   5.229   6.925
11663SOL    HW136948   5.208   5.323   6.951
11663SOL    HW236949   5.168   5.175   7.007
11664SOL     OW36950   4.162   4.116   7.085
11664SOL    HW136951   4.244   4.060   7.094
11664SOL    HW236952   4.081   4.058   7.089
11665SOL     OW36953   5.327   4.171   6.323
11665SOL    HW136954   5.253   4.217   6.273
11665SOL    HW236955   5.378   4.239   6.376
11666SOL     OW36956   3.955   5.437   6.069
11666SOL    HW136957   3.989   5.514   6.123
11666SOL    HW236958   3.999   5.437   5.979
11667SOL     OW36959   4.851   5.065   7.276
11667SOL    HW136960   4.898   5.065   7.364
11667SOL    HW236961   4.803   4.978   7.265
11668SOL     OW36962   3.954   5.158   6.124
11668SOL    HW136963   3.928   5.254   6.124
11668SOL    HW236964   3.883   5.104   6.169
11669SOL     OW36965   3.964   4.815   6.472
11669SOL    HW136966   3.978   4.731   6.524
11669SOL    HW236967   3.909   4.879   6.527
11670SOL     OW36968   4.344   5.510   7.025
11670SOL    HW136969   4.252   5.493   7.060
11670SOL    HW236970   4.372   5.602   7.051
11671SOL     OW36971   4.330   4.688   5.709
11671SOL    HW136972   4.337   4.772   5.655
11671SOL    HW236973   4.376   4.701   5.797
11672SOL     OW36974   5.318   3.838   7.066
11672SOL    HW136975   5.300   3.905   6.994
11672SOL    HW236976   5.315   3.884   7.155
11673SOL     OW36977   3.846   4.367   6.149
11673SOL    HW136978   3.801   4.279   6.166
11673SOL    HW236979   3.845   4.421   6.233
11674SOL     OW36980   5.566   5.491   5.945
11674SOL    HW136981   5.620   5.462   6.025
11674SOL    HW236982   5.596   5.581   5.916
11675SOL     OW36983   3.751   5.320   5.703
11675SOL    HW136984   3.732   5.224   5.724
11675SOL    HW236985   3.718   5.378   5.778
11676SOL     OW36986   5.413   4.646   6.198
11676SOL    HW136987   5.508   4.617   6.206
11676SOL    HW236988   5.405   4.711   6.123
11677SOL     OW36989   5.365   4.832   6.018
11677SOL    HW136990   5.451   4.834   5.966
11677SOL    HW236991   5.379   4.879   6.106
11678SOL     OW36992   3.837   4.461   7.183
11678SOL    HW136993   3.925   4.448   7.228
11678SOL    HW236994   3.824   4.558   7.161
11679SOL     OW36995   4.337   5.089   6.312
11679SOL    HW136996   4.288   5.002   6.321
11679SOL    HW236997   4.314   5.132   6.225
11680SOL     OW36998   5.017   4.952   7.009
11680SOL    HW136999   5.054   4.879   6.951
11680SOL    HW237000   5.069   4.957   7.094
11681SOL     OW37001   4.533   3.728   6.088
11681SOL    HW137002   4.573   3.819   6.079
11681SOL    HW237003   4.433   3.736   6.094
11682SOL     OW37004   3.921   4.700   6.850
11682SOL    HW137005   4.010   4.655   6.836
11682SOL    HW237006   3.848   4.635   6.831
11683SOL     OW37007   5.249   4.723   5.776
11683SOL    HW137008   5.186   4.647   5.789
11683SOL    HW237009   5.297   4.741   5.862
11684SOL     OW37010   4.911   5.516   7.202
11684SOL    HW137011   4.935   5.576   7.126
11684SOL    HW237012   4.918   5.421   7.172
11685SOL     OW37013   4.041   3.975   7.387
11685SOL    HW137014   4.112   4.046   7.393
11685SOL    HW237015   3.953   4.014   7.415
11686SOL     OW37016   5.190   5.141   6.539
11686SOL    HW137017   5.131   5.147   6.619
11686SOL    HW237018   5.175   5.053   6.493
11687SOL     OW37019   5.391   5.438   6.158
11687SOL    HW137020   5.350   5.415   6.070
11687SOL    HW237021   5.373   5.364   6.223
11688SOL     OW37022   4.322   4.453   5.856
11688SOL    HW137023   4.346   4.522   5.788
11688SOL    HW237024   4.244   4.486   5.910
11689SOL     OW37025   5.005   4.069   6.530
11689SOL    HW137026   4.919   4.019   6.517
11689SOL    HW237027   5.067   4.015   6.586
11690SOL     OW37028   5.300   5.386   5.893
11690SOL    HW137029   5.389   5.432   5.896
11690SOL    HW237030   5.279   5.362   5.798
11691SOL     OW37031   4.531   4.329   7.051
11691SOL    HW137032   4.484   4.326   7.140
11691SOL    HW237033   4.480   4.274   6.985
11692SOL     OW37034   5.118   4.193   7.260
11692SOL    HW137035   5.098   4.236   7.348
11692SOL    HW237036   5.196   4.131   7.269
11693SOL     OW37037   4.697   4.614   7.158
11693SOL    HW137038   4.743   4.530   7.129
11693SOL    HW237039   4.641   4.648   7.083
11694SOL     OW37040   4.715   4.134   6.828
11694SOL    HW137041   4.638   4.168   6.882
11694SOL    HW237042   4.681   4.083   6.749
11695SOL     OW37043   4.765   4.425   6.015
11695SOL    HW137044   4.791   4.421   6.111
11695SOL    HW237045   4.680   4.374   6.001
11696SOL     OW37046   3.800   4.535   6.375
11696SOL    HW137047   3.899   4.523   6.384
11696SOL    HW237048   3.776   4.630   6.396
11697SOL     OW37049   3.854   5.545   7.157
11697SOL    HW137050   3.844   5.530   7.256
11697SOL    HW237051   3.768   5.581   7.121
11698SOL     OW37052   4.589   4.072   5.781
11698SOL    HW137053   4.648   4.135   5.732
11698SOL    HW237054   4.608   3.978   5.752
11699SOL     OW37055   5.443   4.309   7.417
11699SOL    HW137056   5.417   4.398   7.381
11699SOL    HW237057   5.441   4.241   7.344
11700SOL     OW37058   5.086   4.868   6.131
11700SOL    HW137059   5.169   4.839   6.083
11700SOL    HW237060   5.037   4.935   6.075
11701SOL     OW37061   4.274   3.920   6.471
11701SOL    HW137062   4.269   3.915   6.571
11701SOL    HW237063   4.276   4.016   6.442
11702SOL     OW37064   4.732   5.180   6.063
11702SOL    HW137065   4.686   5.252   6.011
11702SOL    HW237066   4.728   5.200   6.161
11703SOL     OW37067   4.075   5.525   6.439
11703SOL    HW137068   4.125   5.439   6.445
11703SOL    HW237069   4.140   5.602   6.436
11704SOL     OW37070   5.519   4.790   6.459
11704SOL    HW137071   5.457   4.775   6.383
11704SOL    HW237072   5.467   4.801   6.544
11705SOL     OW37073   4.951   5.274   7.092
11705SOL    HW137074   4.957   5.197   7.156
11705SOL    HW237075   4.899   5.248   7.012
11706SOL     OW37076   4.045   4.667   5.828
11706SOL    HW137077   4.127   4.706   5.786
11706SOL    HW237078   4.018   4.585   5.779
11707SOL     OW37079   5.182   4.459   6.314
11707SOL    HW137080   5.177   4.394   6.389
11707SOL    HW237081   5.262   4.518   6.327
11708SOL     OW37082   4.185   4.990   7.313
11708SOL    HW137083   4.135   4.991   7.227
11708SOL    HW237084   4.122   4.972   7.389
11709SOL     OW37085   4.835   5.500   5.823
11709SOL    HW137086   4.775   5.438   5.873
11709SOL    HW237087   4.866   5.456   5.738
11710SOL     OW37088   3.926   4.009   7.084
11710SOL    HW137089   3.846   4.069   7.071
11710SOL    HW237090   3.916   3.960   7.170
11711SOL     OW37091   5.356   5.101   5.667
11711SOL    HW137092   5.324   5.195   5.657
11711SOL    HW237093   5.280   5.038   5.655
11712SOL     OW37094   4.188   5.467   5.909
11712SOL    HW137095   4.221   5.506   5.995
11712SOL    HW237096   4.264   5.460   5.844
11713SOL     OW37097   5.124   3.831   6.012
11713SOL    HW137098   5.100   3.794   5.922
11713SOL    HW237099   5.223   3.847   6.016
11714SOL     OW37100   3.973   5.509   6.827
11714SOL    HW137101   4.030   5.444   6.877
11714SOL    HW237102   3.957   5.476   6.734
11715SOL     OW37103   4.664   5.422   6.490
11715SOL    HW137104   4.744   5.365   6.511
11715SOL    HW237105   4.615   5.382   6.413
11716SOL     OW37106   4.106   4.424   6.066
11716SOL    HW137107   4.151   4.334   6.063
11716SOL    HW237108   4.012   4.413   6.099
11717SOL     OW37109   5.271   3.946   7.315
11717SOL    HW137110   5.266   3.983   7.407
11717SOL    HW237111   5.199   3.877   7.303
11718SOL     OW37112   4.338   3.846   5.703
11718SOL    HW137113   4.436   3.824   5.710
11718SOL    HW237114   4.307   3.829   5.610
11719SOL     OW37115   4.505   3.988   7.335
11719SOL    HW137116   4.572   3.927   7.378
11719SOL    HW237117   4.432   4.007   7.400
11720SOL     OW37118   4.612   5.238   6.781
11720SOL    HW137119   4.589   5.213   6.687
11720SOL    HW237120   4.673   5.169   6.820
11721SOL     OW37121   5.075   4.314   7.019
11721SOL    HW137122   5.103   4.271   7.104
11721SOL    HW237123   5.100   4.410   7.020
11722SOL     OW37124   4.527   5.126   6.510
11722SOL    HW137125   4.617   5.140   6.468
11722SOL    HW237126   4.456   5.128   6.439
11723SOL     OW37127   4.646   4.227   6.485
11723SOL    HW137128   4.621   4.218   6.389
11723SOL    HW237129   4.694   4.145   6.516
11724SOL     OW37130   4.263   3.788   6.098
11724SOL    HW137131   4.182   3.789   6.156
11724SOL    HW237132   4.266   3.871   6.043
11725SOL     OW37133   5.158   4.912   5.627
11725SOL    HW137134   5.190   4.836   5.684
11725SOL    HW237135   5.066   4.939   5.657
11726SOL     OW37136   4.021   3.759   5.757
11726SOL    HW137137   4.070   3.843   5.736
11726SOL    HW237138   4.083   3.694   5.802
11727SOL     OW37139   4.659   3.960   6.066
11727SOL    HW137140   4.611   4.001   5.988
11727SOL    HW237141   4.758   3.958   6.047
11728SOL     OW37142   4.800   4.407   7.050
11728SOL    HW137143   4.720   4.346   7.053
11728SOL    HW237144   4.881   4.354   7.026
11729SOL     OW37145   4.951   5.294   6.379
11729SOL    HW137146   4.972   5.368   6.314
11729SOL    HW237147   5.019   5.294   6.452
11730SOL     OW37148   4.183   4.876   6.327
11730SOL    HW137149   4.112   4.849   6.392
11730SOL    HW237150   4.157   4.848   6.234
11731SOL     OW37151   4.995   5.521   6.177
11731SOL    HW137152   5.039   5.585   6.113
11731SOL    HW237153   4.945   5.573   6.247
11732SOL     OW37154   4.756   4.273   5.602
11732SOL    HW137155   4.715   4.355   5.563
11732SOL    HW237156   4.820   4.299   5.675
11733SOL     OW37157   3.802   4.280   6.972
11733SOL    HW137158   3.894   4.279   6.931
11733SOL    HW237159   3.796   4.354   7.039
11734SOL     OW37160   4.285   3.946   6.733
11734SOL    HW137161   4.323   3.862   6.770
11734SOL    HW237162   4.197   3.965   6.777
11735SOL     OW37163   4.590   4.178   6.228
11735SOL    HW137164   4.558   4.250   6.166
11735SOL    HW237165   4.614   4.097   6.175
11736SOL     OW37166   4.741   3.763   6.339
11736SOL    HW137167   4.669   3.768   6.270
11736SOL    HW237168   4.717   3.694   6.408
11737SOL     OW37169   5.153   4.897   6.453
11737SOL    HW137170   5.098   4.813   6.446
11737SOL    HW237171   5.179   4.926   6.361
11738SOL     OW37172   5.190   4.314   6.578
11738SOL    HW137173   5.160   4.219   6.585
11738SOL    HW237174   5.263   4.330   6.644
11739SOL     OW37175   5.581   4.557   5.963
11739SOL    HW137176   5.623   4.493   6.027
11739SOL    HW237177   5.543   4.506   5.885
11740SOL     OW37178   4.212   5.109   5.760
11740SOL    HW137179   4.125   5.094   5.807
11740SOL    HW237180   4.195   5.135   5.665
11741SOL     OW37181   5.388   5.004   6.243
11741SOL    HW137182   5.487   5.012   6.257
11741SOL    HW237183   5.343   5.088   6.274
11742SOL     OW37184   5.114   4.299   5.664
11742SOL    HW137185   5.060   4.278   5.745
11742SOL    HW237186   5.205   4.258   5.673
11743SOL     OW37187   4.251   3.980   5.914
11743SOL    HW137188   4.278   3.921   5.839
11743SOL    HW237189   4.251   4.075   5.883
11744SOL     OW37190   5.478   4.947   7.174
11744SOL    HW137191   5.569   4.908   7.161
11744SOL    HW237192   5.486   5.043   7.198
11745SOL     OW37193   4.788   5.071   6.926
11745SOL    HW137194   4.708   5.048   6.981
11745SOL    HW237195   4.871   5.045   6.975
11746SOL     OW37196   5.316   5.353   7.211
11746SOL    HW137197   5.343   5.387   7.121
11746SOL    HW237198   5.395   5.315   7.257
11747SOL     OW37199   4.835   4.919   6.686
11747SOL    HW137200   4.795   4.963   6.767
11747SOL    HW237201   4.794   4.956   6.603
11748SOL     OW37202   5.362   4.823   6.665
11748SOL    HW137203   5.367   4.904   6.724
11748SOL    HW237204   5.276   4.825   6.614
11749SOL     OW37205   4.639   3.813   6.988
11749SOL    HW137206   4.664   3.793   6.893
11749SOL    HW237207   4.711   3.869   7.030
11750SOL     OW37208   4.704   4.840   7.305
11750SOL    HW137209   4.605   4.846   7.315
11750SOL    HW237210   4.727   4.760   7.249
11751SOL     OW37211   4.429   4.774   5.954
11751SOL    HW137212   4.415   4.781   6.053
11751SOL    HW237213   4.513   4.723   5.936
11752SOL     OW37214   4.134   4.537   6.837
11752SOL    HW137215   4.220   4.549   6.887
11752SOL    HW237216   4.092   4.450   6.864
11753SOL     OW37217   4.998   4.110   6.848
11753SOL    HW137218   5.019   4.184   6.912
11753SOL    HW237219   4.909   4.127   6.805
11754SOL     OW37220   3.788   5.288   6.917
11754SOL    HW137221   3.742   5.370   6.883
11754SOL    HW237222   3.886   5.307   6.926
11755SOL     OW37223   4.091   4.824   6.087
11755SOL    HW137224   4.084   4.907   6.031
11755SOL    HW237225   4.095   4.744   6.027
11756SOL     OW37226   4.290   4.261   6.451
11756SOL    HW137227   4.302   4.327   6.377
11756SOL    HW237228   4.336   4.295   6.534
11757SOL     OW37229   4.976   5.072   5.974
11757SOL    HW137230   5.026   5.149   6.014
11757SOL    HW237231   4.881   5.074   6.006
11758SOL     OW37232   4.996   5.169   6.728
11758SOL    HW137233   5.043   5.182   6.815
11758SOL    HW237234   4.930   5.095   6.737
11759SOL     OW37235   5.306   4.363   6.058
11759SOL    HW137236   5.275   4.424   6.131
11759SOL    HW237237   5.356   4.415   5.989
11760SOL     OW37238   4.078   5.234   6.915
11760SOL    HW137239   4.057   5.190   6.828
11760SOL    HW237240   4.175   5.260   6.918
11761SOL     OW37241   4.126   4.475   7.184
11761SOL    HW137242   4.194   4.530   7.137
11761SOL    HW237243   4.166   4.387   7.211
11762SOL     OW37244   5.311   4.503   7.256
11762SOL    HW137245   5.219   4.541   7.251
11762SOL    HW237246   5.371   4.550   7.191
11763SOL     OW37247   4.737   3.829   7.356
11763SOL    HW137248   4.743   3.914   7.304
11763SOL    HW237249   4.769   3.753   7.299
11764SOL     OW37250   4.228   3.774   7.326
11764SOL    HW137251   4.186   3.717   7.256
11764SOL    HW237252   4.162   3.843   7.358
11765SOL     OW37253   4.297   4.594   6.615
11765SOL    HW137254   4.341   4.683   6.606
11765SOL    HW237255   4.234   4.594   6.692
11766SOL     OW37256   5.084   4.586   6.631
11766SOL    HW137257   5.009   4.586   6.565
11766SOL    HW237258   5.121   4.494   6.640
11767SOL     OW37259   4.933   4.249   5.861
11767SOL    HW137260   4.946   4.165   5.915
11767SOL    HW237261   4.904   4.323   5.921
11768SOL     OW37262   4.031   3.937   6.817
11768SOL    HW137263   4.008   3.974   6.907
11768SOL    HW237264   4.001   3.842   6.811
11769SOL     OW37265   3.761   5.034   6.868
11769SOL    HW137266   3.814   4.985   6.936
11769SOL    HW237267   3.783   5.132   6.873
11770SOL     OW37268   4.456   4.358   6.650
11770SOL    HW137269   4.515   4.332   6.574
11770SOL    HW237270   4.428   4.454   6.639
11771SOL     OW37271   5.452   4.659   7.440
11771SOL    HW137272   5.406   4.652   7.351
11771SOL    HW237273   5.390   4.703   7.506
11772SOL     OW37274   4.031   3.787   6.204
11772SOL    HW137275   4.020   3.881   6.237
11772SOL    HW237276   4.026   3.724   6.281
11773SOL     OW37277   5.346   4.091   5.960
11773SOL    HW137278   5.348   4.015   6.024
11773SOL    HW237279   5.298   4.168   6.000
11774SOL     OW37280   4.747   4.490   6.552
11774SOL    HW137281   4.762   4.511   6.648
11774SOL    HW237282   4.717   4.395   6.543
11775SOL     OW37283   4.704   5.297   7.286
11775SOL    HW137284   4.684   5.341   7.198
11775SOL    HW237285   4.743   5.206   7.270
11776SOL     OW37286   5.583   5.242   7.191
11776SOL    HW137287   5.597   5.269   7.096
11776SOL    HW237288   5.666   5.264   7.244
11777SOL     OW37289   4.074   4.622   7.390
11777SOL    HW137290   4.150   4.666   7.438
11777SOL    HW237291   4.109   4.575   7.308
11778SOL     OW37292   5.264   3.998   5.711
11778SOL    HW137293   5.203   3.923   5.734
11778SOL    HW237294   5.286   4.050   5.794
11779SOL     OW37295   5.027   4.562   5.628
11779SOL    HW137296   5.061   4.469   5.643
11779SOL    HW237297   5.045   4.589   5.533
11780SOL     OW37298   4.792   5.057   6.435
11780SOL    HW137299   4.799   4.973   6.380
11780SOL    HW237300   4.854   5.126   6.399
11781SOL     OW37301   4.043   4.534   6.535
11781SOL    HW137302   4.136   4.570   6.540
11781SOL    HW237303   4.037   4.449   6.587
11782SOL     OW37304   4.063   4.233   6.592
11782SOL    HW137305   4.011   4.150   6.575
11782SOL    HW237306   4.140   4.238   6.528
11783SOL     OW37307   4.235   4.139   7.394
11783SOL    HW137308   4.217   4.184   7.482
11783SOL    HW237309   4.277   4.204   7.331
11784SOL     OW37310   4.862   4.104   7.264
11784SOL    HW137311   4.817   4.167   7.328
11784SOL    HW237312   4.955   4.135   7.247
11785SOL     OW37313   4.884   3.931   7.063
11785SOL    HW137314   4.884   3.995   7.140
11785SOL    HW237315   4.912   3.979   6.980
11786SOL     OW37316   3.732   5.050   5.786
11786SOL    HW137317   3.639   5.071   5.755
11786SOL    HW237318   3.742   4.951   5.799
11787SOL     OW37319   3.812   5.525   6.513
11787SOL    HW137320   3.770   5.439   6.486
11787SOL    HW237321   3.906   5.528   6.479
11788SOL     OW37322   4.228   5.292   6.496
11788SOL    HW137323   4.294   5.366   6.505
11788SOL    HW237324   4.272   5.213   6.454
11789SOL     OW37325   4.726   4.520   6.824
11789SOL    HW137326   4.767   4.488   6.910
11789SOL    HW237327   4.630   4.493   6.821
11790SOL     OW37328   3.764   4.268   6.700
11790SOL    HW137329   3.849   4.235   6.659
11790SOL    HW237330   3.777   4.283   6.798
11791SOL     OW37331   3.913   4.244   7.308
11791SOL    HW137332   3.972   4.204   7.238
11791SOL    HW237333   3.855   4.315   7.267
11792SOL     OW37334   5.093   4.674   7.246
11792SOL    HW137335   5.132   4.763   7.266
11792SOL    HW237336   5.103   4.654   7.149
11793SOL     OW37337   4.539   4.296   5.911
11793SOL    HW137338   4.546   4.207   5.865
11793SOL    HW237339   4.445   4.330   5.903
11794SOL     OW37340   5.381   4.328   6.792
11794SOL    HW137341   5.343   4.259   6.854
11794SOL    HW237342   5.463   4.292   6.748
11795SOL     OW37343   3.976   5.288   7.330
11795SOL    HW137344   3.946   5.345   7.406
11795SOL    HW237345   3.969   5.191   7.356
11796SOL     OW37346   4.395   4.188   6.855
11796SOL    HW137347   4.361   4.099   6.825
11796SOL    HW237348   4.421   4.242   6.775
11797SOL     OW37349   4.654   5.402   7.051
11797SOL    HW137350   4.630   5.384   6.956
11797SOL    HW237351   4.684   5.496   7.061
11798SOL     OW37352   4.197   4.224   5.777
11798SOL    HW137353   4.258   4.304   5.781
11798SOL    HW237354   4.102   4.255   5.784
11799SOL     OW37355   3.883   4.861   7.052
11799SOL    HW137356   3.905   4.800   7.128
11799SOL    HW237357   3.893   4.812   6.966
11800SOL     OW37358   5.071   4.783   6.820
11800SOL    HW137359   5.095   4.720   6.746
11800SOL    HW237360   4.981   4.823   6.802
11801SOL     OW37361   5.026   4.579   5.895
11801SOL    HW137362   4.940   4.548   5.937
11801SOL    HW237363   5.022   4.565   5.796
11802SOL     OW37364   5.483   5.471   6.740
11802SOL    HW137365   5.544   5.501   6.667
11802SOL    HW237366   5.445   5.382   6.718
11803SOL     OW37367   4.976   5.455   6.714
11803SOL    HW137368   5.060   5.460   6.660
11803SOL    HW237369   4.953   5.359   6.732
11804SOL     OW37370   3.807   4.982   6.608
11804SOL    HW137371   3.802   4.981   6.708
11804SOL    HW237372   3.724   4.941   6.570
11805SOL     OW37373   4.412   5.386   7.302
11805SOL    HW137374   4.356   5.467   7.311
11805SOL    HW237375   4.464   5.390   7.216
11806SOL     OW37376   4.627   3.810   5.719
11806SOL    HW137377   4.678   3.811   5.633
11806SOL    HW237378   4.683   3.768   5.790
11807SOL     OW37379   5.450   3.859   6.109
11807SOL    HW137380   5.523   3.842   6.042
11807SOL    HW237381   5.419   3.772   6.147
11808SOL     OW37382   5.112   5.297   6.063
11808SOL    HW137383   5.179   5.309   5.989
11808SOL    HW237384   5.072   5.386   6.086
11809SOL     OW37385   3.854   5.518   7.437
11809SOL    HW137386   3.813   5.444   7.490
11809SOL    HW237387   3.918   5.569   7.495
11810SOL     OW37388   5.004   4.651   6.258
11810SOL    HW137389   5.064   4.570   6.260
11810SOL    HW237390   5.044   4.720   6.198
11811SOL     OW37391   4.554   4.997   7.008
11811SOL    HW137392   4.549   5.030   7.103
11811SOL    HW237393   4.468   5.016   6.962
11812SOL     OW37394   4.396   5.340   5.740
11812SOL    HW137395   4.405   5.350   5.641
11812SOL    HW237396   4.356   5.251   5.761
11813SOL     OW37397   5.374   5.444   6.980
11813SOL    HW137398   5.427   5.454   6.896
11813SOL    HW237399   5.347   5.534   7.014
11814SOL     OW37400   5.565   3.899   6.549
11814SOL    HW137401   5.604   3.814   6.513
11814SOL    HW237402   5.467   3.901   6.530
11815SOL     OW37403   3.987   4.050   6.306
11815SOL    HW137404   3.908   4.101   6.272
11815SOL    HW237405   3.978   4.035   6.404
11816SOL     OW37406   4.918   5.336   5.617
11816SOL    HW137407   4.924   5.243   5.654
11816SOL    HW237408   4.859   5.336   5.537
11817SOL     OW37409   4.546   4.726   6.958
11817SOL    HW137410   4.586   4.725   6.866
11817SOL    HW237411   4.556   4.818   6.998
11818SOL     OW37412   4.640   4.634   5.877
11818SOL    HW137413   4.703   4.672   5.809
11818SOL    HW237414   4.680   4.551   5.916
11819SOL     OW37415   5.228   5.331   5.630
11819SOL    HW137416   5.136   5.368   5.637
11819SOL    HW237417   5.266   5.351   5.540
11820SOL     OW37418   4.096   5.012   7.076
11820SOL    HW137419   4.083   5.105   7.042
11820SOL    HW237420   4.012   4.960   7.063
11821SOL     OW37421   5.338   5.016   6.875
11821SOL    HW137422   5.398   5.019   6.955
11821SOL    HW237423   5.263   5.080   6.888
11822SOL     OW37424   4.763   4.822   6.282
11822SOL    HW137425   4.693   4.775   6.336
11822SOL    HW237426   4.822   4.754   6.239
11823SOL     OW37427   4.738   3.960   6.557
11823SOL    HW137428   4.730   3.924   6.464
11823SOL    HW237429   4.736   3.884   6.622
11824SOL     OW37430   4.314   5.211   6.077
11824SOL    HW137431   4.356   5.153   6.007
11824SOL    HW237432   4.270   5.290   6.033
11825SOL     OW37433   5.433   4.109   6.967
11825SOL    HW137434   5.506   4.178   6.971
11825SOL    HW237435   5.461   4.034   6.908
11826SOL     OW37436   3.979   5.072   5.876
11826SOL    HW137437   3.883   5.073   5.849
11826SOL    HW237438   3.991   5.125   5.960
11827SOL     OW37439   3.829   4.737   7.312
11827SOL    HW137440   3.752   4.704   7.366
11827SOL    HW237441   3.914   4.707   7.354
11828SOL     OW37442   4.396   3.927   7.075
11828SOL    HW137443   4.486   3.911   7.035
11828SOL    HW237444   4.404   3.932   7.174
11829SOL     OW37445   3.799   4.069   5.619
11829SOL    HW137446   3.707   4.041   5.590
11829SOL    HW237447   3.830   4.146   5.563
11830SOL     OW37448   5.164   4.580   6.984
11830SOL    HW137449   5.107   4.632   6.921
11830SOL    HW237450   5.260   4.592   6.960
11831SOL     OW37451   3.796   3.890   5.904
11831SOL    HW137452   3.779   3.973   5.850
11831SOL    HW237453   3.886   3.853   5.882
11832SOL     OW37454   4.907   5.059   5.705
11832SOL    HW137455   4.808   5.048   5.707
11832SOL    HW237456   4.941   5.074   5.798
11833SOL     OW37457   4.337   4.566   7.017
11833SOL    HW137458   4.393   4.647   7.000
11833SOL    HW237459   4.396   4.486   7.020
11834SOL     OW37460   5.217   5.491   6.545
11834SOL    HW137461   5.250   5.555   6.476
11834SOL    HW237462   5.283   5.485   6.620
11835SOL     OW37463   4.440   4.289   7.294
11835SOL    HW137464   4.459   4.354   7.368
11835SOL    HW237465   4.500   4.209   7.303
11836SOL     OW37466   5.174   4.944   7.219
11836SOL    HW137467   5.165   4.934   7.318
11836SOL    HW237468   5.270   4.937   7.193
11837SOL     OW37469   4.114   5.465   7.146
11837SOL    HW137470   4.023   5.506   7.144
11837SOL    HW237471   4.107   5.371   7.178
11838SOL     OW37472   5.398   4.607   6.840
11838SOL    HW137473   5.371   4.518   6.803
11838SOL    HW237474   5.399   4.675   6.767
11839SOL     OW37475   4.949   4.049   6.035
11839SOL    HW137476   5.014   3.975   6.024
11839SOL    HW237477   4.969   4.099   6.119
11840SOL     OW37478   4.318   4.469   6.238
11840SOL    HW137479   4.368   4.554   6.219
11840SOL    HW237480   4.230   4.471   6.190
11841SOL     OW37481   5.501   4.066   7.228
11841SOL    HW137482   5.484   4.097   7.134
11841SOL    HW237483   5.417   4.029   7.266
11842SOL     OW37484   5.454   4.658   7.103
11842SOL    HW137485   5.492   4.749   7.118
11842SOL    HW237486   5.446   4.641   7.004
11843SOL     OW37487   4.583   5.098   5.602
11843SOL    HW137488   4.537   5.113   5.690
11843SOL    HW237489   4.627   5.183   5.572
11844SOL     OW37490   4.385   5.514   6.539
11844SOL    HW137491   4.339   5.602   6.526
11844SOL    HW237492   4.484   5.526   6.532
11845SOL     OW37493   5.132   5.575   7.306
11845SOL    HW137494   5.036   5.564   7.279
11845SOL    HW237495   5.188   5.508   7.258
11846SOL     OW37496   4.583   4.680   6.447
11846SOL    HW137497   4.637   4.611   6.495
11846SOL    HW237498   4.551   4.749   6.513
11847SOL     OW37499   4.807   4.708   5.673
11847SOL    HW137500   4.784   4.761   5.591
11847SOL    HW237501   4.888   4.652   5.654
11848SOL     OW37502   5.585   5.293   6.437
11848SOL    HW137503   5.514   5.281   6.367
11848SOL    HW237504   5.586   5.214   6.497
11849SOL     OW37505   3.945   5.038   7.430
11849SOL    HW137506   3.880   4.965   7.409
11849SOL    HW237507   3.949   5.052   7.528
11850SOL     OW37508   3.803   4.964   6.239
11850SOL    HW137509   3.802   4.917   6.327
11850SOL    HW237510   3.885   4.936   6.188
11851SOL     OW37511   4.396   5.115   7.210
11851SOL    HW137512   4.318   5.065   7.248
11851SOL    HW237513   4.393   5.210   7.241
11852SOL     OW37514   5.548   3.916   6.813
11852SOL    HW137515   5.544   3.826   6.857
11852SOL    HW237516   5.551   3.905   6.714
11853SOL     OW37517   4.152   4.148   6.106
11853SOL    HW137518   4.182   4.076   6.044
11853SOL    HW237519   4.113   4.108   6.189
11854SOL     OW37520   5.429   5.211   6.690
11854SOL    HW137521   5.336   5.186   6.663
11854SOL    HW237522   5.455   5.161   6.772
11855SOL     OW37523   4.041   4.271   6.866
11855SOL    HW137524   4.079   4.212   6.938
11855SOL    HW237525   4.081   4.245   6.778
11856SOL     OW37526   4.536   5.310   6.273
11856SOL    HW137527   4.568   5.320   6.179
11856SOL    HW237528   4.457   5.248   6.275
11857SOL     OW37529   5.148   3.938   6.698
11857SOL    HW137530   5.200   3.873   6.753
11857SOL    HW237531   5.099   4.001   6.759
11858SOL     OW37532   4.725   3.758   6.740
11858SOL    HW137533   4.662   3.686   6.709
11858SOL    HW237534   4.818   3.722   6.740
11859SOL     OW37535   4.494   5.054   5.887
11859SOL    HW137536   4.448   4.967   5.904
11859SOL    HW237537   4.585   5.051   5.928
11860SOL     OW37538   4.342   5.291   6.870
11860SOL    HW137539   4.337   5.373   6.927
11860SOL    HW237540   4.431   5.288   6.825
11861SOL     OW37541   5.076   3.776   5.754
11861SOL    HW137542   5.111   3.735   5.670
11861SOL    HW237543   4.986   3.738   5.774
11862SOL     OW37544   5.024   4.177   6.277
11862SOL    HW137545   4.965   4.257   6.281
11862SOL    HW237546   5.039   4.142   6.370
11863SOL     OW37547   5.317   3.945   6.468
11863SOL    HW137548   5.233   3.944   6.522
11863SOL    HW237549   5.319   4.028   6.412
11864SOL     OW37550   3.763   4.801   5.886
11864SOL    HW137551   3.862   4.790   5.877
11864SOL    HW237552   3.723   4.715   5.918
11865SOL     OW37553   4.599   5.370   5.923
11865SOL    HW137554   4.522   5.335   5.869
11865SOL    HW237555   4.567   5.441   5.985
11866SOL     OW37556   3.954   4.352   7.561
11866SOL    HW137557   3.861   4.350   7.598
11866SOL    HW237558   3.955   4.313   7.469
11867SOL     OW37559   3.949   3.999   8.444
11867SOL    HW137560   3.984   3.982   8.536
11867SOL    HW237561   3.861   3.954   8.432
11868SOL     OW37562   3.743   4.092   8.095
11868SOL    HW137563   3.661   4.135   8.134
11868SOL    HW237564   3.715   4.019   8.032
11869SOL     OW37565   4.293   4.999   8.613
11869SOL    HW137566   4.200   4.992   8.576
11869SOL    HW237567   4.304   5.088   8.657
11870SOL     OW37568   5.279   5.235   8.151
11870SOL    HW137569   5.222   5.219   8.232
11870SOL    HW237570   5.220   5.245   8.071
11871SOL     OW37571   5.467   4.342   8.304
11871SOL    HW137572   5.500   4.436   8.304
11871SOL    HW237573   5.518   4.288   8.370
11872SOL     OW37574   4.859   4.427   8.165
11872SOL    HW137575   4.916   4.505   8.140
11872SOL    HW237576   4.799   4.453   8.241
11873SOL     OW37577   5.479   4.331   7.679
11873SOL    HW137578   5.467   4.318   7.580
11873SOL    HW237579   5.449   4.250   7.728
11874SOL     OW37580   4.492   4.868   8.471
11874SOL    HW137581   4.414   4.885   8.531
11874SOL    HW237582   4.526   4.955   8.435
11875SOL     OW37583   4.409   4.736   8.113
11875SOL    HW137584   4.478   4.720   8.183
11875SOL    HW237585   4.336   4.793   8.151
11876SOL     OW37586   4.059   5.159   8.509
11876SOL    HW137587   3.981   5.128   8.456
11876SOL    HW237588   4.117   5.217   8.452
11877SOL     OW37589   5.184   5.229   8.787
11877SOL    HW137590   5.208   5.323   8.813
11877SOL    HW237591   5.168   5.175   8.869
11878SOL     OW37592   4.162   4.116   8.947
11878SOL    HW137593   4.244   4.060   8.956
11878SOL    HW237594   4.081   4.058   8.951
11879SOL     OW37595   5.327   4.171   8.185
11879SOL    HW137596   5.253   4.217   8.135
11879SOL    HW237597   5.378   4.239   8.238
11880SOL     OW37598   3.955   5.437   7.931
11880SOL    HW137599   3.989   5.514   7.985
11880SOL    HW237600   3.999   5.437   7.841
11881SOL     OW37601   3.954   5.158   7.986
11881SOL    HW137602   3.928   5.254   7.986
11881SOL    HW237603   3.883   5.104   8.031
11882SOL     OW37604   3.964   4.815   8.334
11882SOL    HW137605   3.978   4.731   8.386
11882SOL    HW237606   3.909   4.879   8.389
11883SOL     OW37607   4.344   5.510   8.887
11883SOL    HW137608   4.252   5.493   8.922
11883SOL    HW237609   4.372   5.602   8.913
11884SOL     OW37610   4.330   4.688   7.571
11884SOL    HW137611   4.337   4.772   7.517
11884SOL    HW237612   4.376   4.701   7.659
11885SOL     OW37613   5.318   3.838   8.928
11885SOL    HW137614   5.300   3.905   8.856
11885SOL    HW237615   5.315   3.884   9.017
11886SOL     OW37616   3.846   4.367   8.011
11886SOL    HW137617   3.801   4.279   8.028
11886SOL    HW237618   3.845   4.421   8.095
11887SOL     OW37619   5.566   5.491   7.807
11887SOL    HW137620   5.620   5.462   7.887
11887SOL    HW237621   5.596   5.581   7.778
11888SOL     OW37622   3.751   5.320   7.565
11888SOL    HW137623   3.732   5.224   7.586
11888SOL    HW237624   3.718   5.378   7.640
11889SOL     OW37625   5.413   4.646   8.060
11889SOL    HW137626   5.508   4.617   8.068
11889SOL    HW237627   5.405   4.711   7.985
11890SOL     OW37628   5.365   4.832   7.880
11890SOL    HW137629   5.451   4.834   7.828
11890SOL    HW237630   5.379   4.879   7.968
11891SOL     OW37631   4.337   5.089   8.174
11891SOL    HW137632   4.288   5.002   8.183
11891SOL    HW237633   4.314   5.132   8.087
11892SOL     OW37634   4.533   3.728   7.950
11892SOL    HW137635   4.573   3.819   7.941
11892SOL    HW237636   4.433   3.736   7.956
11893SOL     OW37637   3.921   4.700   8.712
11893SOL    HW137638   4.010   4.655   8.698
11893SOL    HW237639   3.848   4.635   8.693
11894SOL     OW37640   5.249   4.723   7.638
11894SOL    HW137641   5.186   4.647   7.651
11894SOL    HW237642   5.297   4.741   7.724
11895SOL     OW37643   5.190   5.141   8.401
11895SOL    HW137644   5.131   5.147   8.481
11895SOL    HW237645   5.175   5.053   8.355
11896SOL     OW37646   5.391   5.438   8.020
11896SOL    HW137647   5.350   5.415   7.932
11896SOL    HW237648   5.373   5.364   8.085
11897SOL     OW37649   4.322   4.453   7.718
11897SOL    HW137650   4.346   4.522   7.650
11897SOL    HW237651   4.244   4.486   7.772
11898SOL     OW37652   5.005   4.069   8.392
11898SOL    HW137653   4.919   4.019   8.379
11898SOL    HW237654   5.067   4.015   8.448
11899SOL     OW37655   5.300   5.386   7.755
11899SOL    HW137656   5.389   5.432   7.758
11899SOL    HW237657   5.279   5.362   7.660
11900SOL     OW37658   4.531   4.329   8.913
11900SOL    HW137659   4.484   4.326   9.002
11900SOL    HW237660   4.480   4.274   8.847
11901SOL     OW37661   4.715   4.134   8.690
11901SOL    HW137662   4.638   4.168   8.744
11901SOL    HW237663   4.681   4.083   8.611
11902SOL     OW37664   4.765   4.425   7.877
11902SOL    HW137665   4.791   4.421   7.973
11902SOL    HW237666   4.680   4.374   7.863
11903SOL     OW37667   3.800   4.535   8.237
11903SOL    HW137668   3.899   4.523   8.246
11903SOL    HW237669   3.776   4.630   8.258
11904SOL     OW37670   3.854   5.545   0.019
11904SOL    HW137671   3.844   5.530   0.118
11904SOL    HW237672   3.768   5.581  -0.017
11905SOL     OW37673   4.589   4.072   7.643
11905SOL    HW137674   4.648   4.135   7.594
11905SOL    HW237675   4.608   3.978   7.614
11906SOL     OW37676   5.086   4.868   7.993
11906SOL    HW137677   5.169   4.839   7.945
11906SOL    HW237678   5.037   4.935   7.937
11907SOL     OW37679   4.274   3.920   8.333
11907SOL    HW137680   4.269   3.915   8.433
11907SOL    HW237681   4.276   4.016   8.304
11908SOL     OW37682   4.732   5.180   7.925
11908SOL    HW137683   4.686   5.252   7.873
11908SOL    HW237684   4.728   5.200   8.023
11909SOL     OW37685   4.075   5.525   8.301
11909SOL    HW137686   4.125   5.439   8.307
11909SOL    HW237687   4.140   5.602   8.298
11910SOL     OW37688   5.519   4.790   8.321
11910SOL    HW137689   5.457   4.775   8.245
11910SOL    HW237690   5.467   4.801   8.406
11911SOL     OW37691   4.045   4.667   7.690
11911SOL    HW137692   4.127   4.706   7.648
11911SOL    HW237693   4.018   4.585   7.641
11912SOL     OW37694   5.182   4.459   8.176
11912SOL    HW137695   5.177   4.394   8.251
11912SOL    HW237696   5.262   4.518   8.189
11913SOL     OW37697   4.835   5.500   7.685
11913SOL    HW137698   4.775   5.438   7.735
11913SOL    HW237699   4.866   5.456   7.600
11914SOL     OW37700   3.926   4.009   8.946
11914SOL    HW137701   3.846   4.069   8.933
11914SOL    HW237702   3.916   3.960   9.032
11915SOL     OW37703   5.356   5.101   7.529
11915SOL    HW137704   5.324   5.195   7.519
11915SOL    HW237705   5.280   5.038   7.517
11916SOL     OW37706   4.188   5.467   7.771
11916SOL    HW137707   4.221   5.506   7.857
11916SOL    HW237708   4.264   5.460   7.706
11917SOL     OW37709   5.124   3.831   7.874
11917SOL    HW137710   5.100   3.794   7.784
11917SOL    HW237711   5.223   3.847   7.878
11918SOL     OW37712   3.973   5.509   8.689
11918SOL    HW137713   4.030   5.444   8.739
11918SOL    HW237714   3.957   5.476   8.596
11919SOL     OW37715   4.664   5.422   8.352
11919SOL    HW137716   4.744   5.365   8.373
11919SOL    HW237717   4.615   5.382   8.275
11920SOL     OW37718   4.106   4.424   7.928
11920SOL    HW137719   4.151   4.334   7.925
11920SOL    HW237720   4.012   4.413   7.961
11921SOL     OW37721   4.338   3.846   7.565
11921SOL    HW137722   4.436   3.824   7.572
11921SOL    HW237723   4.307   3.829   7.472
11922SOL     OW37724   4.612   5.238   8.643
11922SOL    HW137725   4.589   5.213   8.549
11922SOL    HW237726   4.673   5.169   8.682
11923SOL     OW37727   4.527   5.126   8.372
11923SOL    HW137728   4.617   5.140   8.330
11923SOL    HW237729   4.456   5.128   8.301
11924SOL     OW37730   4.646   4.227   8.347
11924SOL    HW137731   4.621   4.218   8.251
11924SOL    HW237732   4.694   4.145   8.378
11925SOL     OW37733   4.263   3.788   7.960
11925SOL    HW137734   4.182   3.789   8.018
11925SOL    HW237735   4.266   3.871   7.905
11926SOL     OW37736   5.158   4.912   7.489
11926SOL    HW137737   5.190   4.836   7.546
11926SOL    HW237738   5.066   4.939   7.519
11927SOL     OW37739   4.021   3.759   7.619
11927SOL    HW137740   4.070   3.843   7.598
11927SOL    HW237741   4.083   3.694   7.664
11928SOL     OW37742   4.659   3.960   7.928
11928SOL    HW137743   4.611   4.001   7.850
11928SOL    HW237744   4.758   3.958   7.909
11929SOL     OW37745   4.951   5.294   8.241
11929SOL    HW137746   4.972   5.368   8.176
11929SOL    HW237747   5.019   5.294   8.314
11930SOL     OW37748   4.183   4.876   8.189
11930SOL    HW137749   4.112   4.849   8.254
11930SOL    HW237750   4.157   4.848   8.096
11931SOL     OW37751   4.995   5.521   8.039
11931SOL    HW137752   5.039   5.585   7.975
11931SOL    HW237753   4.945   5.573   8.109
11932SOL     OW37754   4.756   4.273   7.464
11932SOL    HW137755   4.715   4.355   7.425
11932SOL    HW237756   4.820   4.299   7.537
11933SOL     OW37757   3.802   4.280   8.834
11933SOL    HW137758   3.894   4.279   8.793
11933SOL    HW237759   3.796   4.354   8.901
11934SOL     OW37760   4.285   3.946   8.595
11934SOL    HW137761   4.323   3.862   8.632
11934SOL    HW237762   4.197   3.965   8.639
11935SOL     OW37763   4.590   4.178   8.090
11935SOL    HW137764   4.558   4.250   8.028
11935SOL    HW237765   4.614   4.097   8.037
11936SOL     OW37766   4.741   3.763   8.201
11936SOL    HW137767   4.669   3.768   8.132
11936SOL    HW237768   4.717   3.694   8.270
11937SOL     OW37769   5.153   4.897   8.315
11937SOL    HW137770   5.098   4.813   8.308
11937SOL    HW237771   5.179   4.926   8.223
11938SOL     OW37772   5.190   4.314   8.440
11938SOL    HW137773   5.160   4.219   8.447
11938SOL    HW237774   5.263   4.330   8.506
11939SOL     OW37775   5.581   4.557   7.825
11939SOL    HW137776   5.623   4.493   7.889
11939SOL    HW237777   5.543   4.506   7.747
11940SOL     OW37778   4.212   5.109   7.622
11940SOL    HW137779   4.125   5.094   7.669
11940SOL    HW237780   4.195   5.135   7.527
11941SOL     OW37781   5.388   5.004   8.105
11941SOL    HW137782   5.487   5.012   8.119
11941SOL    HW237783   5.343   5.088   8.136
11942SOL     OW37784   5.114   4.299   7.526
11942SOL    HW137785   5.060   4.278   7.607
11942SOL    HW237786   5.205   4.258   7.535
11943SOL     OW37787   4.251   3.980   7.776
11943SOL    HW137788   4.278   3.921   7.701
11943SOL    HW237789   4.251   4.075   7.745
11944SOL     OW37790   4.788   5.071   8.788
11944SOL    HW137791   4.708   5.048   8.843
11944SOL    HW237792   4.871   5.045   8.837
11945SOL     OW37793   4.835   4.919   8.548
11945SOL    HW137794   4.795   4.963   8.629
11945SOL    HW237795   4.794   4.956   8.465
11946SOL     OW37796   5.362   4.823   8.527
11946SOL    HW137797   5.367   4.904   8.586
11946SOL    HW237798   5.276   4.825   8.476
11947SOL     OW37799   4.639   3.813   8.850
11947SOL    HW137800   4.664   3.793   8.755
11947SOL    HW237801   4.711   3.869   8.892
11948SOL     OW37802   4.429   4.774   7.816
11948SOL    HW137803   4.415   4.781   7.915
11948SOL    HW237804   4.513   4.723   7.798
11949SOL     OW37805   4.134   4.537   8.699
11949SOL    HW137806   4.220   4.549   8.749
11949SOL    HW237807   4.092   4.450   8.726
11950SOL     OW37808   4.998   4.110   8.710
11950SOL    HW137809   5.019   4.184   8.774
11950SOL    HW237810   4.909   4.127   8.667
11951SOL     OW37811   3.788   5.288   8.779
11951SOL    HW137812   3.742   5.370   8.745
11951SOL    HW237813   3.886   5.307   8.788
11952SOL     OW37814   4.091   4.824   7.949
11952SOL    HW137815   4.084   4.907   7.893
11952SOL    HW237816   4.095   4.744   7.889
11953SOL     OW37817   4.290   4.261   8.313
11953SOL    HW137818   4.302   4.327   8.239
11953SOL    HW237819   4.336   4.295   8.396
11954SOL     OW37820   4.976   5.072   7.836
11954SOL    HW137821   5.026   5.149   7.876
11954SOL    HW237822   4.881   5.074   7.868
11955SOL     OW37823   4.996   5.169   8.590
11955SOL    HW137824   5.043   5.182   8.677
11955SOL    HW237825   4.930   5.095   8.599
11956SOL     OW37826   5.306   4.363   7.920
11956SOL    HW137827   5.275   4.424   7.993
11956SOL    HW237828   5.356   4.415   7.851
11957SOL     OW37829   4.078   5.234   8.777
11957SOL    HW137830   4.057   5.190   8.690
11957SOL    HW237831   4.175   5.260   8.780
11958SOL     OW37832   4.126   4.475   0.046
11958SOL    HW137833   4.194   4.530  -0.001
11958SOL    HW237834   4.166   4.387   0.073
11959SOL     OW37835   5.311   4.503   0.118
11959SOL    HW137836   5.219   4.541   0.113
11959SOL    HW237837   5.371   4.550   0.053
11960SOL     OW37838   4.297   4.594   8.477
11960SOL    HW137839   4.341   4.683   8.468
11960SOL    HW237840   4.234   4.594   8.554
11961SOL     OW37841   5.084   4.586   8.493
11961SOL    HW137842   5.009   4.586   8.427
11961SOL    HW237843   5.121   4.494   8.502
11962SOL     OW37844   4.933   4.249   7.723
11962SOL    HW137845   4.946   4.165   7.777
11962SOL    HW237846   4.904   4.323   7.783
11963SOL     OW37847   4.031   3.937   8.679
11963SOL    HW137848   4.008   3.974   8.769
11963SOL    HW237849   4.001   3.842   8.673
11964SOL     OW37850   3.761   5.034   8.730
11964SOL    HW137851   3.814   4.985   8.798
11964SOL    HW237852   3.783   5.132   8.735
11965SOL     OW37853   4.456   4.358   8.512
11965SOL    HW137854   4.515   4.332   8.436
11965SOL    HW237855   4.428   4.454   8.501
11966SOL     OW37856   4.031   3.787   8.066
11966SOL    HW137857   4.020   3.881   8.099
11966SOL    HW237858   4.026   3.724   8.143
11967SOL     OW37859   5.346   4.091   7.822
11967SOL    HW137860   5.348   4.015   7.886
11967SOL    HW237861   5.298   4.168   7.862
11968SOL     OW37862   4.747   4.490   8.414
11968SOL    HW137863   4.762   4.511   8.510
11968SOL    HW237864   4.717   4.395   8.405
11969SOL     OW37865   4.704   5.297   0.148
11969SOL    HW137866   4.684   5.341   0.060
11969SOL    HW237867   4.743   5.206   0.132
11970SOL     OW37868   5.583   5.242   0.053
11970SOL    HW137869   5.597   5.269  -0.042
11970SOL    HW237870   5.666   5.264   0.106
11971SOL     OW37871   5.264   3.998   7.573
11971SOL    HW137872   5.203   3.923   7.596
11971SOL    HW237873   5.286   4.050   7.656
11972SOL     OW37874   5.027   4.562   7.490
11972SOL    HW137875   5.061   4.469   7.505
11972SOL    HW237876   5.045   4.589   7.395
11973SOL     OW37877   4.792   5.057   8.297
11973SOL    HW137878   4.799   4.973   8.242
11973SOL    HW237879   4.854   5.126   8.261
11974SOL     OW37880   4.043   4.534   8.397
11974SOL    HW137881   4.136   4.570   8.402
11974SOL    HW237882   4.037   4.449   8.449
11975SOL     OW37883   4.063   4.233   8.454
11975SOL    HW137884   4.011   4.150   8.437
11975SOL    HW237885   4.140   4.238   8.390
11976SOL     OW37886   4.862   4.104   0.126
11976SOL    HW137887   4.817   4.167   0.190
11976SOL    HW237888   4.955   4.135   0.109
11977SOL     OW37889   4.884   3.931   8.925
11977SOL    HW137890   4.884   3.995   9.002
11977SOL    HW237891   4.912   3.979   8.842
11978SOL     OW37892   3.732   5.050   7.648
11978SOL    HW137893   3.639   5.071   7.617
11978SOL    HW237894   3.742   4.951   7.661
11979SOL     OW37895   3.812   5.525   8.375
11979SOL    HW137896   3.770   5.439   8.348
11979SOL    HW237897   3.906   5.528   8.341
11980SOL     OW37898   4.228   5.292   8.358
11980SOL    HW137899   4.294   5.366   8.367
11980SOL    HW237900   4.272   5.213   8.316
11981SOL     OW37901   4.726   4.520   8.686
11981SOL    HW137902   4.767   4.488   8.772
11981SOL    HW237903   4.630   4.493   8.683
11982SOL     OW37904   3.764   4.268   8.562
11982SOL    HW137905   3.849   4.235   8.521
11982SOL    HW237906   3.777   4.283   8.660
11983SOL     OW37907   4.539   4.296   7.773
11983SOL    HW137908   4.546   4.207   7.727
11983SOL    HW237909   4.445   4.330   7.765
11984SOL     OW37910   5.381   4.328   8.654
11984SOL    HW137911   5.343   4.259   8.716
11984SOL    HW237912   5.463   4.292   8.610
11985SOL     OW37913   4.395   4.188   8.717
11985SOL    HW137914   4.361   4.099   8.687
11985SOL    HW237915   4.421   4.242   8.637
11986SOL     OW37916   4.654   5.402   8.913
11986SOL    HW137917   4.630   5.384   8.818
11986SOL    HW237918   4.684   5.496   8.923
11987SOL     OW37919   4.197   4.224   7.639
11987SOL    HW137920   4.258   4.304   7.643
11987SOL    HW237921   4.102   4.255   7.646
11988SOL     OW37922   3.883   4.861   8.914
11988SOL    HW137923   3.905   4.800   8.990
11988SOL    HW237924   3.893   4.812   8.828
11989SOL     OW37925   5.071   4.783   8.682
11989SOL    HW137926   5.095   4.720   8.608
11989SOL    HW237927   4.981   4.823   8.664
11990SOL     OW37928   5.026   4.579   7.757
11990SOL    HW137929   4.940   4.548   7.799
11990SOL    HW237930   5.022   4.565   7.658
11991SOL     OW37931   5.483   5.471   8.602
11991SOL    HW137932   5.544   5.501   8.529
11991SOL    HW237933   5.445   5.382   8.580
11992SOL     OW37934   4.976   5.455   8.576
11992SOL    HW137935   5.060   5.460   8.522
11992SOL    HW237936   4.953   5.359   8.594
11993SOL     OW37937   3.807   4.982   8.470
11993SOL    HW137938   3.802   4.981   8.570
11993SOL    HW237939   3.724   4.941   8.432
11994SOL     OW37940   4.627   3.810   7.581
11994SOL    HW137941   4.678   3.811   7.495
11994SOL    HW237942   4.683   3.768   7.652
11995SOL     OW37943   5.450   3.859   7.971
11995SOL    HW137944   5.523   3.842   7.904
11995SOL    HW237945   5.419   3.772   8.009
11996SOL     OW37946   5.112   5.297   7.925
11996SOL    HW137947   5.179   5.309   7.851
11996SOL    HW237948   5.072   5.386   7.948
11997SOL     OW37949   5.004   4.651   8.120
11997SOL    HW137950   5.064   4.570   8.122
11997SOL    HW237951   5.044   4.720   8.060
11998SOL     OW37952   4.396   5.340   7.602
11998SOL    HW137953   4.405   5.350   7.503
11998SOL    HW237954   4.356   5.251   7.623
11999SOL     OW37955   5.374   5.444   8.842
11999SOL    HW137956   5.427   5.454   8.758
11999SOL    HW237957   5.347   5.534   8.876
12000SOL     OW37958   5.565   3.899   8.411
12000SOL    HW137959   5.604   3.814   8.375
12000SOL    HW237960   5.467   3.901   8.392
12001SOL     OW37961   3.987   4.050   8.168
12001SOL    HW137962   3.908   4.101   8.134
12001SOL    HW237963   3.978   4.035   8.266
12002SOL     OW37964   4.918   5.336   7.479
12002SOL    HW137965   4.924   5.243   7.516
12002SOL    HW237966   4.859   5.336   7.399
12003SOL     OW37967   4.546   4.726   8.820
12003SOL    HW137968   4.586   4.725   8.728
12003SOL    HW237969   4.556   4.818   8.860
12004SOL     OW37970   4.640   4.634   7.739
12004SOL    HW137971   4.703   4.672   7.671
12004SOL    HW237972   4.680   4.551   7.778
12005SOL     OW37973   5.228   5.331   7.492
12005SOL    HW137974   5.136   5.368   7.499
12005SOL    HW237975   5.266   5.351   7.402
12006SOL     OW37976   4.096   5.012   8.938
12006SOL    HW137977   4.083   5.105   8.904
12006SOL    HW237978   4.012   4.960   8.925
12007SOL     OW37979   5.338   5.016   8.737
12007SOL    HW137980   5.398   5.019   8.817
12007SOL    HW237981   5.263   5.080   8.750
12008SOL     OW37982   4.763   4.822   8.144
12008SOL    HW137983   4.693   4.775   8.198
12008SOL    HW237984   4.822   4.754   8.101
12009SOL     OW37985   4.738   3.960   8.419
12009SOL    HW137986   4.730   3.924   8.326
12009SOL    HW237987   4.736   3.884   8.484
12010SOL     OW37988   4.314   5.211   7.939
12010SOL    HW137989   4.356   5.153   7.869
12010SOL    HW237990   4.270   5.290   7.895
12011SOL     OW37991   5.433   4.109   8.829
12011SOL    HW137992   5.506   4.178   8.833
12011SOL    HW237993   5.461   4.034   8.770
12012SOL     OW37994   3.979   5.072   7.738
12012SOL    HW137995   3.883   5.073   7.711
12012SOL    HW237996   3.991   5.125   7.822
12013SOL     OW37997   3.799   4.069   7.481
12013SOL    HW137998   3.707   4.041   7.452
12013SOL    HW237999   3.830   4.146   7.425
12014SOL     OW38000   5.164   4.580   8.846
12014SOL    HW138001   5.107   4.632   8.783
12014SOL    HW238002   5.260   4.592   8.822
12015SOL     OW38003   3.796   3.890   7.766
12015SOL    HW138004   3.779   3.973   7.712
12015SOL    HW238005   3.886   3.853   7.744
12016SOL     OW38006   4.907   5.059   7.567
12016SOL    HW138007   4.808   5.048   7.569
12016SOL    HW238008   4.941   5.074   7.660
12017SOL     OW38009   4.337   4.566   8.879
12017SOL    HW138010   4.393   4.647   8.862
12017SOL    HW238011   4.396   4.486   8.882
12018SOL     OW38012   5.217   5.491   8.407
12018SOL    HW138013   5.250   5.555   8.338
12018SOL    HW238014   5.283   5.485   8.482
12019SOL     OW38015   4.114   5.465   0.008
12019SOL    HW138016   4.023   5.506   0.006
12019SOL    HW238017   4.107   5.371   0.040
12020SOL     OW38018   5.398   4.607   8.702
12020SOL    HW138019   5.371   4.518   8.665
12020SOL    HW238020   5.399   4.675   8.629
12021SOL     OW38021   4.949   4.049   7.897
12021SOL    HW138022   5.014   3.975   7.886
12021SOL    HW238023   4.969   4.099   7.981
12022SOL     OW38024   4.318   4.469   8.100
12022SOL    HW138025   4.368   4.554   8.081
12022SOL    HW238026   4.230   4.471   8.052
12023SOL     OW38027   5.501   4.066   0.090
12023SOL    HW138028   5.484   4.097  -0.004
12023SOL    HW238029   5.417   4.029   0.128
12024SOL     OW38030   5.454   4.658   8.965
12024SOL    HW138031   5.492   4.749   8.980
12024SOL    HW238032   5.446   4.641   8.866
12025SOL     OW38033   4.583   5.098   7.464
12025SOL    HW138034   4.537   5.113   7.552
12025SOL    HW238035   4.627   5.183   7.434
12026SOL     OW38036   4.385   5.514   8.401
12026SOL    HW138037   4.339   5.602   8.388
12026SOL    HW238038   4.484   5.526   8.394
12027SOL     OW38039   5.132   5.575   0.168
12027SOL    HW138040   5.036   5.564   0.141
12027SOL    HW238041   5.188   5.508   0.120
12028SOL     OW38042   4.583   4.680   8.309
12028SOL    HW138043   4.637   4.611   8.357
12028SOL    HW238044   4.551   4.749   8.375
12029SOL     OW38045   4.807   4.708   7.535
12029SOL    HW138046   4.784   4.761   7.453
12029SOL    HW238047   4.888   4.652   7.516
12030SOL     OW38048   5.585   5.293   8.299
12030SOL    HW138049   5.514   5.281   8.229
12030SOL    HW238050   5.586   5.214   8.359
12031SOL     OW38051   3.803   4.964   8.101
12031SOL    HW138052   3.802   4.917   8.189
12031SOL    HW238053   3.885   4.936   8.050
12032SOL     OW38054   5.548   3.916   8.675
12032SOL    HW138055   5.544   3.826   8.719
12032SOL    HW238056   5.551   3.905   8.576
12033SOL     OW38057   4.152   4.148   7.968
12033SOL    HW138058   4.182   4.076   7.906
12033SOL    HW238059   4.113   4.108   8.051
12034SOL     OW38060   5.429   5.211   8.552
12034SOL    HW138061   5.336   5.186   8.525
12034SOL    HW238062   5.455   5.161   8.634
12035SOL     OW38063   4.041   4.271   8.728
12035SOL    HW138064   4.079   4.212   8.800
12035SOL    HW238065   4.081   4.245   8.640
12036SOL     OW38066   4.536   5.310   8.135
12036SOL    HW138067   4.568   5.320   8.041
12036SOL    HW238068   4.457   5.248   8.137
12037SOL     OW38069   5.148   3.938   8.560
12037SOL    HW138070   5.200   3.873   8.615
12037SOL    HW238071   5.099   4.001   8.621
12038SOL     OW38072   4.725   3.758   8.602
12038SOL    HW138073   4.662   3.686   8.571
12038SOL    HW238074   4.818   3.722   8.602
12039SOL     OW38075   4.494   5.054   7.749
12039SOL    HW138076   4.448   4.967   7.766
12039SOL    HW238077   4.585   5.051   7.790
12040SOL     OW38078   4.342   5.291   8.732
12040SOL    HW138079   4.337   5.373   8.789
12040SOL    HW238080   4.431   5.288   8.687
12041SOL     OW38081   5.076   3.776   7.616
12041SOL    HW138082   5.111   3.735   7.532
12041SOL    HW238083   4.986   3.738   7.636
12042SOL     OW38084   5.024   4.177   8.139
12042SOL    HW138085   4.965   4.257   8.143
12042SOL    HW238086   5.039   4.142   8.232
12043SOL     OW38087   5.317   3.945   8.330
12043SOL    HW138088   5.233   3.944   8.384
12043SOL    HW238089   5.319   4.028   8.274
12044SOL     OW38090   3.763   4.801   7.748
12044SOL    HW138091   3.862   4.790   7.739
12044SOL    HW238092   3.723   4.715   7.780
12045SOL     OW38093   4.599   5.370   7.785
12045SOL    HW138094   4.522   5.335   7.731
12045SOL    HW238095   4.567   5.441   7.847
12046SOL     OW38096   3.954   6.214   0.113
12046SOL    HW138097   3.861   6.212   0.150
12046SOL    HW238098   3.955   6.175   0.021
12047SOL     OW38099   3.949   5.861   0.996
12047SOL    HW138100   3.984   5.844   1.088
12047SOL    HW238101   3.861   5.816   0.984
12048SOL     OW38102   3.743   5.954   0.647
12048SOL    HW138103   3.661   5.997   0.686
12048SOL    HW238104   3.715   5.881   0.584
12049SOL     OW38105   4.293   6.861   1.165
12049SOL    HW138106   4.200   6.854   1.128
12049SOL    HW238107   4.304   6.950   1.209
12050SOL     OW38108   5.279   7.097   0.703
12050SOL    HW138109   5.222   7.081   0.784
12050SOL    HW238110   5.220   7.107   0.623
12051SOL     OW38111   5.467   6.204   0.856
12051SOL    HW138112   5.500   6.298   0.856
12051SOL    HW238113   5.518   6.150   0.922
12052SOL     OW38114   4.859   6.289   0.717
12052SOL    HW138115   4.916   6.367   0.692
12052SOL    HW238116   4.799   6.315   0.793
12053SOL     OW38117   5.479   6.193   0.231
12053SOL    HW138118   5.467   6.180   0.132
12053SOL    HW238119   5.449   6.112   0.280
12054SOL     OW38120   4.492   6.730   1.023
12054SOL    HW138121   4.414   6.747   1.083
12054SOL    HW238122   4.526   6.817   0.987
12055SOL     OW38123   4.574   6.384   1.823
12055SOL    HW138124   4.570   6.460   1.888
12055SOL    HW238125   4.596   6.420   1.732
12056SOL     OW38126   4.409   6.598   0.665
12056SOL    HW138127   4.478   6.582   0.735
12056SOL    HW238128   4.336   6.655   0.703
12057SOL     OW38129   4.410   6.747   1.803
12057SOL    HW138130   4.470   6.826   1.817
12057SOL    HW238131   4.324   6.778   1.762
12058SOL     OW38132   4.059   7.021   1.061
12058SOL    HW138133   3.981   6.990   1.008
12058SOL    HW238134   4.117   7.079   1.004
12059SOL     OW38135   5.184   7.091   1.339
12059SOL    HW138136   5.208   7.185   1.365
12059SOL    HW238137   5.168   7.037   1.421
12060SOL     OW38138   4.162   5.978   1.499
12060SOL    HW138139   4.244   5.922   1.508
12060SOL    HW238140   4.081   5.920   1.503
12061SOL     OW38141   5.327   6.033   0.737
12061SOL    HW138142   5.253   6.079   0.687
12061SOL    HW238143   5.378   6.101   0.790
12062SOL     OW38144   3.955   7.299   0.483
12062SOL    HW138145   3.989   7.376   0.537
12062SOL    HW238146   3.999   7.299   0.393
12063SOL     OW38147   4.851   6.927   1.690
12063SOL    HW138148   4.898   6.927   1.778
12063SOL    HW238149   4.803   6.840   1.679
12064SOL     OW38150   3.954   7.020   0.538
12064SOL    HW138151   3.928   7.116   0.538
12064SOL    HW238152   3.883   6.966   0.583
12065SOL     OW38153   3.964   6.677   0.886
12065SOL    HW138154   3.978   6.593   0.938
12065SOL    HW238155   3.909   6.741   0.941
12066SOL     OW38156   4.344   7.372   1.439
12066SOL    HW138157   4.252   7.355   1.474
12066SOL    HW238158   4.372   7.464   1.465
12067SOL     OW38159   4.330   6.550   0.123
12067SOL    HW138160   4.337   6.634   0.069
12067SOL    HW238161   4.376   6.563   0.211
12068SOL     OW38162   5.318   5.700   1.480
12068SOL    HW138163   5.300   5.767   1.408
12068SOL    HW238164   5.315   5.746   1.569
12069SOL     OW38165   3.846   6.229   0.563
12069SOL    HW138166   3.801   6.141   0.580
12069SOL    HW238167   3.845   6.283   0.647
12070SOL     OW38168   5.566   7.353   0.359
12070SOL    HW138169   5.620   7.324   0.439
12070SOL    HW238170   5.596   7.443   0.330
12071SOL     OW38171   5.413   6.508   0.612
12071SOL    HW138172   5.508   6.479   0.620
12071SOL    HW238173   5.405   6.573   0.537
12072SOL     OW38174   5.365   6.694   0.432
12072SOL    HW138175   5.451   6.696   0.380
12072SOL    HW238176   5.379   6.741   0.520
12073SOL     OW38177   3.837   6.323   1.597
12073SOL    HW138178   3.925   6.310   1.642
12073SOL    HW238179   3.824   6.420   1.575
12074SOL     OW38180   4.337   6.951   0.726
12074SOL    HW138181   4.288   6.864   0.735
12074SOL    HW238182   4.314   6.994   0.639
12075SOL     OW38183   5.017   6.814   1.423
12075SOL    HW138184   5.054   6.741   1.365
12075SOL    HW238185   5.069   6.819   1.508
12076SOL     OW38186   4.533   5.590   0.502
12076SOL    HW138187   4.573   5.681   0.493
12076SOL    HW238188   4.433   5.598   0.508
12077SOL     OW38189   3.921   6.562   1.264
12077SOL    HW138190   4.010   6.517   1.250
12077SOL    HW238191   3.848   6.497   1.245
12078SOL     OW38192   5.249   6.585   0.190
12078SOL    HW138193   5.186   6.509   0.203
12078SOL    HW238194   5.297   6.603   0.276
12079SOL     OW38195   4.911   7.378   1.616
12079SOL    HW138196   4.935   7.438   1.540
12079SOL    HW238197   4.918   7.283   1.586
12080SOL     OW38198   4.041   5.837   1.801
12080SOL    HW138199   4.112   5.908   1.807
12080SOL    HW238200   3.953   5.876   1.829
12081SOL     OW38201   5.190   7.003   0.953
12081SOL    HW138202   5.131   7.009   1.033
12081SOL    HW238203   5.175   6.915   0.907
12082SOL     OW38204   5.391   7.300   0.572
12082SOL    HW138205   5.350   7.277   0.484
12082SOL    HW238206   5.373   7.226   0.637
12083SOL     OW38207   4.322   6.315   0.270
12083SOL    HW138208   4.346   6.384   0.202
12083SOL    HW238209   4.244   6.348   0.324
12084SOL     OW38210   5.005   5.931   0.944
12084SOL    HW138211   4.919   5.881   0.931
12084SOL    HW238212   5.067   5.877   1.000
12085SOL     OW38213   5.300   7.248   0.307
12085SOL    HW138214   5.389   7.294   0.310
12085SOL    HW238215   5.279   7.224   0.212
12086SOL     OW38216   4.531   6.191   1.465
12086SOL    HW138217   4.484   6.188   1.554
12086SOL    HW238218   4.480   6.136   1.399
12087SOL     OW38219   5.118   6.055   1.674
12087SOL    HW138220   5.098   6.098   1.762
12087SOL    HW238221   5.196   5.993   1.683
12088SOL     OW38222   4.697   6.476   1.572
12088SOL    HW138223   4.743   6.392   1.543
12088SOL    HW238224   4.641   6.510   1.497
12089SOL     OW38225   4.715   5.996   1.242
12089SOL    HW138226   4.638   6.030   1.296
12089SOL    HW238227   4.681   5.945   1.163
12090SOL     OW38228   4.765   6.287   0.429
12090SOL    HW138229   4.791   6.283   0.525
12090SOL    HW238230   4.680   6.236   0.415
12091SOL     OW38231   3.800   6.397   0.789
12091SOL    HW138232   3.899   6.385   0.798
12091SOL    HW238233   3.776   6.492   0.810
12092SOL     OW38234   3.854   7.407   1.571
12092SOL    HW138235   3.844   7.392   1.670
12092SOL    HW238236   3.768   7.443   1.535
12093SOL     OW38237   4.589   5.934   0.195
12093SOL    HW138238   4.648   5.997   0.146
12093SOL    HW238239   4.608   5.840   0.166
12094SOL     OW38240   5.443   6.171   1.831
12094SOL    HW138241   5.417   6.260   1.795
12094SOL    HW238242   5.441   6.103   1.758
12095SOL     OW38243   5.086   6.730   0.545
12095SOL    HW138244   5.169   6.701   0.497
12095SOL    HW238245   5.037   6.797   0.489
12096SOL     OW38246   4.274   5.782   0.885
12096SOL    HW138247   4.269   5.777   0.985
12096SOL    HW238248   4.276   5.878   0.856
12097SOL     OW38249   4.732   7.042   0.477
12097SOL    HW138250   4.686   7.114   0.425
12097SOL    HW238251   4.728   7.062   0.575
12098SOL     OW38252   4.075   7.387   0.853
12098SOL    HW138253   4.125   7.301   0.859
12098SOL    HW238254   4.140   7.464   0.850
12099SOL     OW38255   5.519   6.652   0.873
12099SOL    HW138256   5.457   6.637   0.797
12099SOL    HW238257   5.467   6.663   0.958
12100SOL     OW38258   4.951   7.136   1.506
12100SOL    HW138259   4.957   7.059   1.570
12100SOL    HW238260   4.899   7.110   1.426
12101SOL     OW38261   4.045   6.529   0.242
12101SOL    HW138262   4.127   6.568   0.200
12101SOL    HW238263   4.018   6.447   0.193
12102SOL     OW38264   5.182   6.321   0.728
12102SOL    HW138265   5.177   6.256   0.803
12102SOL    HW238266   5.262   6.380   0.741
12103SOL     OW38267   4.185   6.852   1.727
12103SOL    HW138268   4.135   6.853   1.641
12103SOL    HW238269   4.122   6.834   1.803
12104SOL     OW38270   4.835   7.362   0.237
12104SOL    HW138271   4.775   7.300   0.287
12104SOL    HW238272   4.866   7.318   0.152
12105SOL     OW38273   3.926   5.871   1.498
12105SOL    HW138274   3.846   5.931   1.485
12105SOL    HW238275   3.916   5.822   1.584
12106SOL     OW38276   5.356   6.963   0.081
12106SOL    HW138277   5.324   7.057   0.071
12106SOL    HW238278   5.280   6.900   0.069
12107SOL     OW38279   4.188   7.329   0.323
12107SOL    HW138280   4.221   7.368   0.409
12107SOL    HW238281   4.264   7.322   0.258
12108SOL     OW38282   5.124   5.693   0.426
12108SOL    HW138283   5.100   5.656   0.336
12108SOL    HW238284   5.223   5.709   0.430
12109SOL     OW38285   3.973   7.371   1.241
12109SOL    HW138286   4.030   7.306   1.291
12109SOL    HW238287   3.957   7.338   1.148
12110SOL     OW38288   4.664   7.284   0.904
12110SOL    HW138289   4.744   7.227   0.925
12110SOL    HW238290   4.615   7.244   0.827
12111SOL     OW38291   4.106   6.286   0.480
12111SOL    HW138292   4.151   6.196   0.477
12111SOL    HW238293   4.012   6.275   0.513
12112SOL     OW38294   5.271   5.808   1.729
12112SOL    HW138295   5.266   5.845   1.821
12112SOL    HW238296   5.199   5.739   1.717
12113SOL     OW38297   4.338   5.708   0.117
12113SOL    HW138298   4.436   5.686   0.124
12113SOL    HW238299   4.307   5.691   0.024
12114SOL     OW38300   4.505   5.850   1.749
12114SOL    HW138301   4.572   5.789   1.792
12114SOL    HW238302   4.432   5.869   1.814
12115SOL     OW38303   4.612   7.100   1.195
12115SOL    HW138304   4.589   7.075   1.101
12115SOL    HW238305   4.673   7.031   1.234
12116SOL     OW38306   5.075   6.176   1.433
12116SOL    HW138307   5.103   6.133   1.518
12116SOL    HW238308   5.100   6.272   1.434
12117SOL     OW38309   4.527   6.988   0.924
12117SOL    HW138310   4.617   7.002   0.882
12117SOL    HW238311   4.456   6.990   0.853
12118SOL     OW38312   4.646   6.089   0.899
12118SOL    HW138313   4.621   6.080   0.803
12118SOL    HW238314   4.694   6.007   0.930
12119SOL     OW38315   4.263   5.650   0.512
12119SOL    HW138316   4.182   5.651   0.570
12119SOL    HW238317   4.266   5.733   0.457
12120SOL     OW38318   5.158   6.774   0.041
12120SOL    HW138319   5.190   6.698   0.098
12120SOL    HW238320   5.066   6.801   0.071
12121SOL     OW38321   4.021   5.621   0.171
12121SOL    HW138322   4.070   5.705   0.150
12121SOL    HW238323   4.083   5.556   0.216
12122SOL     OW38324   4.659   5.822   0.480
12122SOL    HW138325   4.611   5.863   0.402
12122SOL    HW238326   4.758   5.820   0.461
12123SOL     OW38327   4.800   6.269   1.464
12123SOL    HW138328   4.720   6.208   1.467
12123SOL    HW238329   4.881   6.216   1.440
12124SOL     OW38330   4.951   7.156   0.793
12124SOL    HW138331   4.972   7.230   0.728
12124SOL    HW238332   5.019   7.156   0.866
12125SOL     OW38333   4.183   6.738   0.741
12125SOL    HW138334   4.112   6.711   0.806
12125SOL    HW238335   4.157   6.710   0.648
12126SOL     OW38336   4.995   7.383   0.591
12126SOL    HW138337   5.039   7.447   0.527
12126SOL    HW238338   4.945   7.435   0.661
12127SOL     OW38339   4.756   6.135   0.016
12127SOL    HW138340   4.715   6.217  -0.023
12127SOL    HW238341   4.820   6.161   0.089
12128SOL     OW38342   3.802   6.142   1.386
12128SOL    HW138343   3.894   6.141   1.345
12128SOL    HW238344   3.796   6.216   1.453
12129SOL     OW38345   4.285   5.808   1.147
12129SOL    HW138346   4.323   5.724   1.184
12129SOL    HW238347   4.197   5.827   1.191
12130SOL     OW38348   4.590   6.040   0.642
12130SOL    HW138349   4.558   6.112   0.580
12130SOL    HW238350   4.614   5.959   0.589
12131SOL     OW38351   4.741   5.625   0.753
12131SOL    HW138352   4.669   5.630   0.684
12131SOL    HW238353   4.717   5.556   0.822
12132SOL     OW38354   5.153   6.759   0.867
12132SOL    HW138355   5.098   6.675   0.860
12132SOL    HW238356   5.179   6.788   0.775
12133SOL     OW38357   5.190   6.176   0.992
12133SOL    HW138358   5.160   6.081   0.999
12133SOL    HW238359   5.263   6.192   1.058
12134SOL     OW38360   5.581   6.419   0.377
12134SOL    HW138361   5.623   6.355   0.441
12134SOL    HW238362   5.543   6.368   0.299
12135SOL     OW38363   4.212   6.971   0.174
12135SOL    HW138364   4.125   6.956   0.221
12135SOL    HW238365   4.195   6.997   0.079
12136SOL     OW38366   5.388   6.866   0.657
12136SOL    HW138367   5.487   6.874   0.671
12136SOL    HW238368   5.343   6.950   0.688
12137SOL     OW38369   5.114   6.161   0.078
12137SOL    HW138370   5.060   6.140   0.159
12137SOL    HW238371   5.205   6.120   0.087
12138SOL     OW38372   4.251   5.842   0.328
12138SOL    HW138373   4.278   5.783   0.253
12138SOL    HW238374   4.251   5.937   0.297
12139SOL     OW38375   5.478   6.809   1.588
12139SOL    HW138376   5.569   6.770   1.575
12139SOL    HW238377   5.486   6.905   1.612
12140SOL     OW38378   4.788   6.933   1.340
12140SOL    HW138379   4.708   6.910   1.395
12140SOL    HW238380   4.871   6.907   1.389
12141SOL     OW38381   5.316   7.215   1.625
12141SOL    HW138382   5.343   7.249   1.535
12141SOL    HW238383   5.395   7.177   1.671
12142SOL     OW38384   4.835   6.781   1.100
12142SOL    HW138385   4.795   6.825   1.181
12142SOL    HW238386   4.794   6.818   1.017
12143SOL     OW38387   5.362   6.685   1.079
12143SOL    HW138388   5.367   6.766   1.138
12143SOL    HW238389   5.276   6.687   1.028
12144SOL     OW38390   4.639   5.675   1.402
12144SOL    HW138391   4.664   5.655   1.307
12144SOL    HW238392   4.711   5.731   1.444
12145SOL     OW38393   4.704   6.702   1.719
12145SOL    HW138394   4.605   6.708   1.729
12145SOL    HW238395   4.727   6.622   1.663
12146SOL     OW38396   4.429   6.636   0.368
12146SOL    HW138397   4.415   6.643   0.467
12146SOL    HW238398   4.513   6.585   0.350
12147SOL     OW38399   4.134   6.399   1.251
12147SOL    HW138400   4.220   6.411   1.301
12147SOL    HW238401   4.092   6.312   1.278
12148SOL     OW38402   4.998   5.972   1.262
12148SOL    HW138403   5.019   6.046   1.326
12148SOL    HW238404   4.909   5.989   1.219
12149SOL     OW38405   3.788   7.150   1.331
12149SOL    HW138406   3.742   7.232   1.297
12149SOL    HW238407   3.886   7.169   1.340
12150SOL     OW38408   4.091   6.686   0.501
12150SOL    HW138409   4.084   6.769   0.445
12150SOL    HW238410   4.095   6.606   0.441
12151SOL     OW38411   4.290   6.123   0.865
12151SOL    HW138412   4.302   6.189   0.791
12151SOL    HW238413   4.336   6.157   0.948
12152SOL     OW38414   4.976   6.934   0.388
12152SOL    HW138415   5.026   7.011   0.428
12152SOL    HW238416   4.881   6.936   0.420
12153SOL     OW38417   4.996   7.031   1.142
12153SOL    HW138418   5.043   7.044   1.229
12153SOL    HW238419   4.930   6.957   1.151
12154SOL     OW38420   5.306   6.225   0.472
12154SOL    HW138421   5.275   6.286   0.545
12154SOL    HW238422   5.356   6.277   0.403
12155SOL     OW38423   4.078   7.096   1.329
12155SOL    HW138424   4.057   7.052   1.242
12155SOL    HW238425   4.175   7.122   1.332
12156SOL     OW38426   4.126   6.337   1.598
12156SOL    HW138427   4.194   6.392   1.551
12156SOL    HW238428   4.166   6.249   1.625
12157SOL     OW38429   5.311   6.365   1.670
12157SOL    HW138430   5.219   6.403   1.665
12157SOL    HW238431   5.371   6.412   1.605
12158SOL     OW38432   4.737   5.691   1.770
12158SOL    HW138433   4.743   5.776   1.718
12158SOL    HW238434   4.769   5.615   1.713
12159SOL     OW38435   4.228   5.636   1.740
12159SOL    HW138436   4.186   5.579   1.670
12159SOL    HW238437   4.162   5.705   1.772
12160SOL     OW38438   4.297   6.456   1.029
12160SOL    HW138439   4.341   6.545   1.020
12160SOL    HW238440   4.234   6.456   1.106
12161SOL     OW38441   5.084   6.448   1.045
12161SOL    HW138442   5.009   6.448   0.979
12161SOL    HW238443   5.121   6.356   1.054
12162SOL     OW38444   4.933   6.111   0.275
12162SOL    HW138445   4.946   6.027   0.329
12162SOL    HW238446   4.904   6.185   0.335
12163SOL     OW38447   4.031   5.799   1.231
12163SOL    HW138448   4.008   5.836   1.321
12163SOL    HW238449   4.001   5.704   1.225
12164SOL     OW38450   3.761   6.896   1.282
12164SOL    HW138451   3.814   6.847   1.350
12164SOL    HW238452   3.783   6.994   1.287
12165SOL     OW38453   4.456   6.220   1.064
12165SOL    HW138454   4.515   6.194   0.988
12165SOL    HW238455   4.428   6.316   1.053
12166SOL     OW38456   5.452   6.521   1.854
12166SOL    HW138457   5.406   6.514   1.765
12166SOL    HW238458   5.390   6.565   1.920
12167SOL     OW38459   4.031   5.649   0.618
12167SOL    HW138460   4.020   5.743   0.651
12167SOL    HW238461   4.026   5.586   0.695
12168SOL     OW38462   5.346   5.953   0.374
12168SOL    HW138463   5.348   5.877   0.438
12168SOL    HW238464   5.298   6.030   0.414
12169SOL     OW38465   4.747   6.352   0.966
12169SOL    HW138466   4.762   6.373   1.062
12169SOL    HW238467   4.717   6.257   0.957
12170SOL     OW38468   4.704   7.159   1.700
12170SOL    HW138469   4.684   7.203   1.612
12170SOL    HW238470   4.743   7.068   1.684
12171SOL     OW38471   5.583   7.104   1.605
12171SOL    HW138472   5.597   7.131   1.510
12171SOL    HW238473   5.666   7.126   1.658
12172SOL     OW38474   4.074   6.484   1.804
12172SOL    HW138475   4.150   6.528   1.852
12172SOL    HW238476   4.109   6.437   1.722
12173SOL     OW38477   5.264   5.860   0.125
12173SOL    HW138478   5.203   5.785   0.148
12173SOL    HW238479   5.286   5.912   0.208
12174SOL     OW38480   5.027   6.424   0.042
12174SOL    HW138481   5.061   6.331   0.057
12174SOL    HW238482   5.045   6.451  -0.053
12175SOL     OW38483   4.792   6.919   0.849
12175SOL    HW138484   4.799   6.835   0.794
12175SOL    HW238485   4.854   6.988   0.813
12176SOL     OW38486   4.043   6.396   0.949
12176SOL    HW138487   4.136   6.432   0.954
12176SOL    HW238488   4.037   6.311   1.001
12177SOL     OW38489   4.063   6.095   1.006
12177SOL    HW138490   4.011   6.012   0.989
12177SOL    HW238491   4.140   6.100   0.942
12178SOL     OW38492   4.235   6.001   1.808
12178SOL    HW138493   4.217   6.046   1.896
12178SOL    HW238494   4.277   6.066   1.745
12179SOL     OW38495   4.862   5.966   1.678
12179SOL    HW138496   4.817   6.029   1.742
12179SOL    HW238497   4.955   5.997   1.661
12180SOL     OW38498   4.884   5.793   1.477
12180SOL    HW138499   4.884   5.857   1.554
12180SOL    HW238500   4.912   5.841   1.394
12181SOL     OW38501   3.732   6.912   0.200
12181SOL    HW138502   3.639   6.933   0.169
12181SOL    HW238503   3.742   6.813   0.213
12182SOL     OW38504   3.812   7.387   0.927
12182SOL    HW138505   3.770   7.301   0.900
12182SOL    HW238506   3.906   7.390   0.893
12183SOL     OW38507   4.228   7.154   0.910
12183SOL    HW138508   4.294   7.228   0.919
12183SOL    HW238509   4.272   7.075   0.868
12184SOL     OW38510   4.726   6.382   1.238
12184SOL    HW138511   4.767   6.350   1.324
12184SOL    HW238512   4.630   6.355   1.235
12185SOL     OW38513   3.764   6.130   1.114
12185SOL    HW138514   3.849   6.097   1.073
12185SOL    HW238515   3.777   6.145   1.212
12186SOL     OW38516   3.913   6.106   1.722
12186SOL    HW138517   3.972   6.066   1.652
12186SOL    HW238518   3.855   6.177   1.681
12187SOL     OW38519   5.093   6.536   1.660
12187SOL    HW138520   5.132   6.625   1.680
12187SOL    HW238521   5.103   6.516   1.563
12188SOL     OW38522   4.539   6.158   0.325
12188SOL    HW138523   4.546   6.069   0.279
12188SOL    HW238524   4.445   6.192   0.317
12189SOL     OW38525   5.381   6.190   1.206
12189SOL    HW138526   5.343   6.121   1.268
12189SOL    HW238527   5.463   6.154   1.162
12190SOL     OW38528   3.976   7.150   1.744
12190SOL    HW138529   3.946   7.207   1.820
12190SOL    HW238530   3.969   7.053   1.770
12191SOL     OW38531   4.395   6.050   1.269
12191SOL    HW138532   4.361   5.961   1.239
12191SOL    HW238533   4.421   6.104   1.189
12192SOL     OW38534   4.654   7.264   1.465
12192SOL    HW138535   4.630   7.246   1.370
12192SOL    HW238536   4.684   7.358   1.475
12193SOL     OW38537   4.197   6.086   0.191
12193SOL    HW138538   4.258   6.166   0.195
12193SOL    HW238539   4.102   6.117   0.198
12194SOL     OW38540   3.883   6.723   1.466
12194SOL    HW138541   3.905   6.662   1.542
12194SOL    HW238542   3.893   6.674   1.380
12195SOL     OW38543   5.071   6.645   1.234
12195SOL    HW138544   5.095   6.582   1.160
12195SOL    HW238545   4.981   6.685   1.216
12196SOL     OW38546   5.026   6.441   0.309
12196SOL    HW138547   4.940   6.410   0.351
12196SOL    HW238548   5.022   6.427   0.210
12197SOL     OW38549   5.483   7.333   1.154
12197SOL    HW138550   5.544   7.363   1.081
12197SOL    HW238551   5.445   7.244   1.132
12198SOL     OW38552   4.976   7.317   1.128
12198SOL    HW138553   5.060   7.322   1.074
12198SOL    HW238554   4.953   7.221   1.146
12199SOL     OW38555   3.807   6.844   1.022
12199SOL    HW138556   3.802   6.843   1.122
12199SOL    HW238557   3.724   6.803   0.984
12200SOL     OW38558   4.412   7.248   1.716
12200SOL    HW138559   4.356   7.329   1.725
12200SOL    HW238560   4.464   7.252   1.630
12201SOL     OW38561   4.627   5.672   0.133
12201SOL    HW138562   4.678   5.673   0.047
12201SOL    HW238563   4.683   5.630   0.204
12202SOL     OW38564   5.450   5.721   0.523
12202SOL    HW138565   5.523   5.704   0.456
12202SOL    HW238566   5.419   5.634   0.561
12203SOL     OW38567   5.112   7.159   0.477
12203SOL    HW138568   5.179   7.171   0.403
12203SOL    HW238569   5.072   7.248   0.500
12204SOL     OW38570   3.854   7.380   1.851
12204SOL    HW138571   3.813   7.306   1.904
12204SOL    HW238572   3.918   7.431   1.909
12205SOL     OW38573   5.004   6.513   0.672
12205SOL    HW138574   5.064   6.432   0.674
12205SOL    HW238575   5.044   6.582   0.612
12206SOL     OW38576   4.554   6.859   1.422
12206SOL    HW138577   4.549   6.892   1.517
12206SOL    HW238578   4.468   6.878   1.376
12207SOL     OW38579   4.396   7.202   0.154
12207SOL    HW138580   4.405   7.212   0.055
12207SOL    HW238581   4.356   7.113   0.175
12208SOL     OW38582   5.374   7.306   1.394
12208SOL    HW138583   5.427   7.316   1.310
12208SOL    HW238584   5.347   7.396   1.428
12209SOL     OW38585   5.565   5.761   0.963
12209SOL    HW138586   5.604   5.676   0.927
12209SOL    HW238587   5.467   5.763   0.944
12210SOL     OW38588   3.987   5.912   0.720
12210SOL    HW138589   3.908   5.963   0.686
12210SOL    HW238590   3.978   5.897   0.818
12211SOL     OW38591   4.918   7.198   0.031
12211SOL    HW138592   4.924   7.105   0.068
12211SOL    HW238593   4.859   7.198  -0.049
12212SOL     OW38594   4.546   6.588   1.372
12212SOL    HW138595   4.586   6.587   1.280
12212SOL    HW238596   4.556   6.680   1.412
12213SOL     OW38597   4.640   6.496   0.291
12213SOL    HW138598   4.703   6.534   0.223
12213SOL    HW238599   4.680   6.413   0.330
12214SOL     OW38600   5.228   7.193   0.044
12214SOL    HW138601   5.136   7.230   0.051
12214SOL    HW238602   5.266   7.213  -0.046
12215SOL     OW38603   4.096   6.874   1.490
12215SOL    HW138604   4.083   6.967   1.456
12215SOL    HW238605   4.012   6.822   1.477
12216SOL     OW38606   5.338   6.878   1.289
12216SOL    HW138607   5.398   6.881   1.369
12216SOL    HW238608   5.263   6.942   1.302
12217SOL     OW38609   4.763   6.684   0.696
12217SOL    HW138610   4.693   6.637   0.750
12217SOL    HW238611   4.822   6.616   0.653
12218SOL     OW38612   4.738   5.822   0.971
12218SOL    HW138613   4.730   5.786   0.878
12218SOL    HW238614   4.736   5.746   1.036
12219SOL     OW38615   4.314   7.073   0.491
12219SOL    HW138616   4.356   7.015   0.421
12219SOL    HW238617   4.270   7.152   0.447
12220SOL     OW38618   5.433   5.971   1.381
12220SOL    HW138619   5.506   6.040   1.385
12220SOL    HW238620   5.461   5.896   1.322
12221SOL     OW38621   3.979   6.934   0.290
12221SOL    HW138622   3.883   6.935   0.263
12221SOL    HW238623   3.991   6.987   0.374
12222SOL     OW38624   3.829   6.599   1.726
12222SOL    HW138625   3.752   6.566   1.780
12222SOL    HW238626   3.914   6.569   1.768
12223SOL     OW38627   4.396   5.789   1.489
12223SOL    HW138628   4.486   5.773   1.449
12223SOL    HW238629   4.404   5.794   1.588
12224SOL     OW38630   5.164   6.442   1.398
12224SOL    HW138631   5.107   6.494   1.335
12224SOL    HW238632   5.260   6.454   1.374
12225SOL     OW38633   3.796   5.752   0.318
12225SOL    HW138634   3.779   5.835   0.264
12225SOL    HW238635   3.886   5.715   0.296
12226SOL     OW38636   4.907   6.921   0.119
12226SOL    HW138637   4.808   6.910   0.121
12226SOL    HW238638   4.941   6.936   0.212
12227SOL     OW38639   4.337   6.428   1.431
12227SOL    HW138640   4.393   6.509   1.414
12227SOL    HW238641   4.396   6.348   1.434
12228SOL     OW38642   5.217   7.353   0.959
12228SOL    HW138643   5.250   7.417   0.890
12228SOL    HW238644   5.283   7.347   1.034
12229SOL     OW38645   4.440   6.151   1.708
12229SOL    HW138646   4.459   6.216   1.782
12229SOL    HW238647   4.500   6.071   1.717
12230SOL     OW38648   5.174   6.806   1.633
12230SOL    HW138649   5.165   6.796   1.732
12230SOL    HW238650   5.270   6.799   1.607
12231SOL     OW38651   4.114   7.327   1.560
12231SOL    HW138652   4.023   7.368   1.558
12231SOL    HW238653   4.107   7.233   1.592
12232SOL     OW38654   5.398   6.469   1.254
12232SOL    HW138655   5.371   6.380   1.217
12232SOL    HW238656   5.399   6.537   1.181
12233SOL     OW38657   4.949   5.911   0.449
12233SOL    HW138658   5.014   5.837   0.438
12233SOL    HW238659   4.969   5.961   0.533
12234SOL     OW38660   4.318   6.331   0.652
12234SOL    HW138661   4.368   6.416   0.633
12234SOL    HW238662   4.230   6.333   0.604
12235SOL     OW38663   5.501   5.928   1.642
12235SOL    HW138664   5.484   5.959   1.548
12235SOL    HW238665   5.417   5.891   1.680
12236SOL     OW38666   5.454   6.520   1.517
12236SOL    HW138667   5.492   6.611   1.532
12236SOL    HW238668   5.446   6.503   1.418
12237SOL     OW38669   4.583   6.960   0.016
12237SOL    HW138670   4.537   6.975   0.104
12237SOL    HW238671   4.627   7.045  -0.014
12238SOL     OW38672   4.385   7.376   0.953
12238SOL    HW138673   4.339   7.464   0.940
12238SOL    HW238674   4.484   7.388   0.946
12239SOL     OW38675   5.132   7.437   1.720
12239SOL    HW138676   5.036   7.426   1.693
12239SOL    HW238677   5.188   7.370   1.672
12240SOL     OW38678   4.583   6.542   0.861
12240SOL    HW138679   4.637   6.473   0.909
12240SOL    HW238680   4.551   6.611   0.927
12241SOL     OW38681   4.807   6.570   0.087
12241SOL    HW138682   4.784   6.623   0.005
12241SOL    HW238683   4.888   6.514   0.068
12242SOL     OW38684   5.585   7.155   0.851
12242SOL    HW138685   5.514   7.143   0.781
12242SOL    HW238686   5.586   7.076   0.911
12243SOL     OW38687   3.945   6.900   1.844
12243SOL    HW138688   3.880   6.827   1.823
12243SOL    HW238689   3.949   6.914   1.942
12244SOL     OW38690   3.803   6.826   0.653
12244SOL    HW138691   3.802   6.779   0.741
12244SOL    HW238692   3.885   6.798   0.602
12245SOL     OW38693   4.396   6.977   1.624
12245SOL    HW138694   4.318   6.927   1.662
12245SOL    HW238695   4.393   7.072   1.655
12246SOL     OW38696   5.548   5.778   1.227
12246SOL    HW138697   5.544   5.688   1.271
12246SOL    HW238698   5.551   5.767   1.128
12247SOL     OW38699   4.152   6.010   0.520
12247SOL    HW138700   4.182   5.938   0.458
12247SOL    HW238701   4.113   5.970   0.603
12248SOL     OW38702   5.429   7.073   1.104
12248SOL    HW138703   5.336   7.048   1.077
12248SOL    HW238704   5.455   7.023   1.186
12249SOL     OW38705   4.041   6.133   1.280
12249SOL    HW138706   4.079   6.074   1.352
12249SOL    HW238707   4.081   6.107   1.192
12250SOL     OW38708   4.536   7.172   0.687
12250SOL    HW138709   4.568   7.182   0.593
12250SOL    HW238710   4.457   7.110   0.689
12251SOL     OW38711   5.148   5.800   1.112
12251SOL    HW138712   5.200   5.735   1.167
12251SOL    HW238713   5.099   5.863   1.173
12252SOL     OW38714   4.725   5.620   1.154
12252SOL    HW138715   4.662   5.548   1.123
12252SOL    HW238716   4.818   5.584   1.154
12253SOL     OW38717   4.494   6.916   0.301
12253SOL    HW138718   4.448   6.829   0.318
12253SOL    HW238719   4.585   6.913   0.342
12254SOL     OW38720   4.342   7.153   1.284
12254SOL    HW138721   4.337   7.235   1.341
12254SOL    HW238722   4.431   7.150   1.239
12255SOL     OW38723   5.024   6.039   0.691
12255SOL    HW138724   4.965   6.119   0.695
12255SOL    HW238725   5.039   6.004   0.784
12256SOL     OW38726   5.317   5.807   0.882
12256SOL    HW138727   5.233   5.806   0.936
12256SOL    HW238728   5.319   5.890   0.826
12257SOL     OW38729   3.763   6.663   0.300
12257SOL    HW138730   3.862   6.652   0.291
12257SOL    HW238731   3.723   6.577   0.332
12258SOL     OW38732   4.599   7.232   0.337
12258SOL    HW138733   4.522   7.197   0.283
12258SOL    HW238734   4.567   7.303   0.399
12259SOL     OW38735   3.954   6.214   1.975
12259SOL    HW138736   3.861   6.212   2.012
12259SOL    HW238737   3.955   6.175   1.883
12260SOL     OW38738   3.949   5.861   2.858
12260SOL    HW138739   3.984   5.844   2.950
12260SOL    HW238740   3.861   5.816   2.846
12261SOL     OW38741   3.743   5.954   2.509
12261SOL    HW138742   3.661   5.997   2.548
12261SOL    HW238743   3.715   5.881   2.446
12262SOL     OW38744   4.293   6.861   3.027
12262SOL    HW138745   4.200   6.854   2.990
12262SOL    HW238746   4.304   6.950   3.071
12263SOL     OW38747   5.279   7.097   2.565
12263SOL    HW138748   5.222   7.081   2.646
12263SOL    HW238749   5.220   7.107   2.485
12264SOL     OW38750   5.467   6.204   2.718
12264SOL    HW138751   5.500   6.298   2.718
12264SOL    HW238752   5.518   6.150   2.784
12265SOL     OW38753   4.859   6.289   2.579
12265SOL    HW138754   4.916   6.367   2.554
12265SOL    HW238755   4.799   6.315   2.655
12266SOL     OW38756   5.479   6.193   2.093
12266SOL    HW138757   5.467   6.180   1.994
12266SOL    HW238758   5.449   6.112   2.142
12267SOL     OW38759   4.492   6.730   2.885
12267SOL    HW138760   4.414   6.747   2.945
12267SOL    HW238761   4.526   6.817   2.849
12268SOL     OW38762   4.574   6.384   3.685
12268SOL    HW138763   4.570   6.460   3.750
12268SOL    HW238764   4.596   6.420   3.594
12269SOL     OW38765   4.409   6.598   2.527
12269SOL    HW138766   4.478   6.582   2.597
12269SOL    HW238767   4.336   6.655   2.565
12270SOL     OW38768   4.410   6.747   3.665
12270SOL    HW138769   4.470   6.826   3.679
12270SOL    HW238770   4.324   6.778   3.624
12271SOL     OW38771   4.059   7.021   2.923
12271SOL    HW138772   3.981   6.990   2.870
12271SOL    HW238773   4.117   7.079   2.866
12272SOL     OW38774   5.184   7.091   3.201
12272SOL    HW138775   5.208   7.185   3.227
12272SOL    HW238776   5.168   7.037   3.283
12273SOL     OW38777   4.162   5.978   3.361
12273SOL    HW138778   4.244   5.922   3.370
12273SOL    HW238779   4.081   5.920   3.365
12274SOL     OW38780   5.327   6.033   2.599
12274SOL    HW138781   5.253   6.079   2.549
12274SOL    HW238782   5.378   6.101   2.652
12275SOL     OW38783   3.955   7.299   2.345
12275SOL    HW138784   3.989   7.376   2.399
12275SOL    HW238785   3.999   7.299   2.255
12276SOL     OW38786   4.851   6.927   3.552
12276SOL    HW138787   4.898   6.927   3.640
12276SOL    HW238788   4.803   6.840   3.541
12277SOL     OW38789   3.954   7.020   2.400
12277SOL    HW138790   3.928   7.116   2.400
12277SOL    HW238791   3.883   6.966   2.445
12278SOL     OW38792   3.964   6.677   2.748
12278SOL    HW138793   3.978   6.593   2.800
12278SOL    HW238794   3.909   6.741   2.803
12279SOL     OW38795   4.344   7.372   3.301
12279SOL    HW138796   4.252   7.355   3.336
12279SOL    HW238797   4.372   7.464   3.327
12280SOL     OW38798   4.330   6.550   1.985
12280SOL    HW138799   4.337   6.634   1.931
12280SOL    HW238800   4.376   6.563   2.073
12281SOL     OW38801   5.318   5.700   3.342
12281SOL    HW138802   5.300   5.767   3.270
12281SOL    HW238803   5.315   5.746   3.431
12282SOL     OW38804   3.846   6.229   2.425
12282SOL    HW138805   3.801   6.141   2.442
12282SOL    HW238806   3.845   6.283   2.509
12283SOL     OW38807   5.566   7.353   2.221
12283SOL    HW138808   5.620   7.324   2.301
12283SOL    HW238809   5.596   7.443   2.192
12284SOL     OW38810   3.751   7.182   1.979
12284SOL    HW138811   3.732   7.086   2.000
12284SOL    HW238812   3.718   7.240   2.054
12285SOL     OW38813   5.413   6.508   2.474
12285SOL    HW138814   5.508   6.479   2.482
12285SOL    HW238815   5.405   6.573   2.399
12286SOL     OW38816   5.365   6.694   2.294
12286SOL    HW138817   5.451   6.696   2.242
12286SOL    HW238818   5.379   6.741   2.382
12287SOL     OW38819   3.837   6.323   3.459
12287SOL    HW138820   3.925   6.310   3.504
12287SOL    HW238821   3.824   6.420   3.437
12288SOL     OW38822   4.337   6.951   2.588
12288SOL    HW138823   4.288   6.864   2.597
12288SOL    HW238824   4.314   6.994   2.501
12289SOL     OW38825   5.017   6.814   3.285
12289SOL    HW138826   5.054   6.741   3.227
12289SOL    HW238827   5.069   6.819   3.370
12290SOL     OW38828   4.533   5.590   2.364
12290SOL    HW138829   4.573   5.681   2.355
12290SOL    HW238830   4.433   5.598   2.370
12291SOL     OW38831   3.921   6.562   3.126
12291SOL    HW138832   4.010   6.517   3.112
12291SOL    HW238833   3.848   6.497   3.107
12292SOL     OW38834   5.249   6.585   2.052
12292SOL    HW138835   5.186   6.509   2.065
12292SOL    HW238836   5.297   6.603   2.138
12293SOL     OW38837   4.911   7.378   3.478
12293SOL    HW138838   4.935   7.438   3.402
12293SOL    HW238839   4.918   7.283   3.448
12294SOL     OW38840   4.041   5.837   3.663
12294SOL    HW138841   4.112   5.908   3.669
12294SOL    HW238842   3.953   5.876   3.691
12295SOL     OW38843   5.190   7.003   2.815
12295SOL    HW138844   5.131   7.009   2.895
12295SOL    HW238845   5.175   6.915   2.769
12296SOL     OW38846   5.391   7.300   2.434
12296SOL    HW138847   5.350   7.277   2.346
12296SOL    HW238848   5.373   7.226   2.499
12297SOL     OW38849   4.322   6.315   2.132
12297SOL    HW138850   4.346   6.384   2.064
12297SOL    HW238851   4.244   6.348   2.186
12298SOL     OW38852   5.005   5.931   2.806
12298SOL    HW138853   4.919   5.881   2.793
12298SOL    HW238854   5.067   5.877   2.862
12299SOL     OW38855   5.300   7.248   2.169
12299SOL    HW138856   5.389   7.294   2.172
12299SOL    HW238857   5.279   7.224   2.074
12300SOL     OW38858   4.531   6.191   3.327
12300SOL    HW138859   4.484   6.188   3.416
12300SOL    HW238860   4.480   6.136   3.261
12301SOL     OW38861   5.118   6.055   3.536
12301SOL    HW138862   5.098   6.098   3.624
12301SOL    HW238863   5.196   5.993   3.545
12302SOL     OW38864   4.697   6.476   3.434
12302SOL    HW138865   4.743   6.392   3.405
12302SOL    HW238866   4.641   6.510   3.359
12303SOL     OW38867   4.715   5.996   3.104
12303SOL    HW138868   4.638   6.030   3.158
12303SOL    HW238869   4.681   5.945   3.025
12304SOL     OW38870   4.765   6.287   2.291
12304SOL    HW138871   4.791   6.283   2.387
12304SOL    HW238872   4.680   6.236   2.277
12305SOL     OW38873   3.800   6.397   2.651
12305SOL    HW138874   3.899   6.385   2.660
12305SOL    HW238875   3.776   6.492   2.672
12306SOL     OW38876   3.854   7.407   3.433
12306SOL    HW138877   3.844   7.392   3.532
12306SOL    HW238878   3.768   7.443   3.397
12307SOL     OW38879   4.589   5.934   2.057
12307SOL    HW138880   4.648   5.997   2.008
12307SOL    HW238881   4.608   5.840   2.028
12308SOL     OW38882   5.443   6.171   3.693
12308SOL    HW138883   5.417   6.260   3.657
12308SOL    HW238884   5.441   6.103   3.620
12309SOL     OW38885   5.086   6.730   2.407
12309SOL    HW138886   5.169   6.701   2.359
12309SOL    HW238887   5.037   6.797   2.351
12310SOL     OW38888   4.274   5.782   2.747
12310SOL    HW138889   4.269   5.777   2.847
12310SOL    HW238890   4.276   5.878   2.718
12311SOL     OW38891   4.732   7.042   2.339
12311SOL    HW138892   4.686   7.114   2.287
12311SOL    HW238893   4.728   7.062   2.437
12312SOL     OW38894   4.075   7.387   2.715
12312SOL    HW138895   4.125   7.301   2.721
12312SOL    HW238896   4.140   7.464   2.712
12313SOL     OW38897   5.519   6.652   2.735
12313SOL    HW138898   5.457   6.637   2.659
12313SOL    HW238899   5.467   6.663   2.820
12314SOL     OW38900   4.951   7.136   3.368
12314SOL    HW138901   4.957   7.059   3.432
12314SOL    HW238902   4.899   7.110   3.288
12315SOL     OW38903   4.045   6.529   2.104
12315SOL    HW138904   4.127   6.568   2.062
12315SOL    HW238905   4.018   6.447   2.055
12316SOL     OW38906   5.182   6.321   2.590
12316SOL    HW138907   5.177   6.256   2.665
12316SOL    HW238908   5.262   6.380   2.603
12317SOL     OW38909   4.185   6.852   3.589
12317SOL    HW138910   4.135   6.853   3.503
12317SOL    HW238911   4.122   6.834   3.665
12318SOL     OW38912   4.835   7.362   2.099
12318SOL    HW138913   4.775   7.300   2.149
12318SOL    HW238914   4.866   7.318   2.014
12319SOL     OW38915   3.926   5.871   3.360
12319SOL    HW138916   3.846   5.931   3.347
12319SOL    HW238917   3.916   5.822   3.446
12320SOL     OW38918   5.356   6.963   1.943
12320SOL    HW138919   5.324   7.057   1.933
12320SOL    HW238920   5.280   6.900   1.931
12321SOL     OW38921   4.188   7.329   2.185
12321SOL    HW138922   4.221   7.368   2.271
12321SOL    HW238923   4.264   7.322   2.120
12322SOL     OW38924   5.124   5.693   2.288
12322SOL    HW138925   5.100   5.656   2.198
12322SOL    HW238926   5.223   5.709   2.292
12323SOL     OW38927   3.973   7.371   3.103
12323SOL    HW138928   4.030   7.306   3.153
12323SOL    HW238929   3.957   7.338   3.010
12324SOL     OW38930   4.664   7.284   2.766
12324SOL    HW138931   4.744   7.227   2.787
12324SOL    HW238932   4.615   7.244   2.689
12325SOL     OW38933   4.106   6.286   2.342
12325SOL    HW138934   4.151   6.196   2.339
12325SOL    HW238935   4.012   6.275   2.375
12326SOL     OW38936   5.271   5.808   3.591
12326SOL    HW138937   5.266   5.845   3.683
12326SOL    HW238938   5.199   5.739   3.579
12327SOL     OW38939   4.338   5.708   1.979
12327SOL    HW138940   4.436   5.686   1.986
12327SOL    HW238941   4.307   5.691   1.886
12328SOL     OW38942   4.505   5.850   3.611
12328SOL    HW138943   4.572   5.789   3.654
12328SOL    HW238944   4.432   5.869   3.676
12329SOL     OW38945   4.612   7.100   3.057
12329SOL    HW138946   4.589   7.075   2.963
12329SOL    HW238947   4.673   7.031   3.096
12330SOL     OW38948   5.075   6.176   3.295
12330SOL    HW138949   5.103   6.133   3.380
12330SOL    HW238950   5.100   6.272   3.296
12331SOL     OW38951   4.527   6.988   2.786
12331SOL    HW138952   4.617   7.002   2.744
12331SOL    HW238953   4.456   6.990   2.715
12332SOL     OW38954   4.646   6.089   2.761
12332SOL    HW138955   4.621   6.080   2.665
12332SOL    HW238956   4.694   6.007   2.792
12333SOL     OW38957   4.263   5.650   2.374
12333SOL    HW138958   4.182   5.651   2.432
12333SOL    HW238959   4.266   5.733   2.319
12334SOL     OW38960   5.158   6.774   1.903
12334SOL    HW138961   5.190   6.698   1.960
12334SOL    HW238962   5.066   6.801   1.933
12335SOL     OW38963   4.021   5.621   2.033
12335SOL    HW138964   4.070   5.705   2.012
12335SOL    HW238965   4.083   5.556   2.078
12336SOL     OW38966   4.659   5.822   2.342
12336SOL    HW138967   4.611   5.863   2.264
12336SOL    HW238968   4.758   5.820   2.323
12337SOL     OW38969   4.800   6.269   3.326
12337SOL    HW138970   4.720   6.208   3.329
12337SOL    HW238971   4.881   6.216   3.302
12338SOL     OW38972   4.951   7.156   2.655
12338SOL    HW138973   4.972   7.230   2.590
12338SOL    HW238974   5.019   7.156   2.728
12339SOL     OW38975   4.183   6.738   2.603
12339SOL    HW138976   4.112   6.711   2.668
12339SOL    HW238977   4.157   6.710   2.510
12340SOL     OW38978   4.995   7.383   2.453
12340SOL    HW138979   5.039   7.447   2.389
12340SOL    HW238980   4.945   7.435   2.523
12341SOL     OW38981   4.756   6.135   1.878
12341SOL    HW138982   4.715   6.217   1.839
12341SOL    HW238983   4.820   6.161   1.951
12342SOL     OW38984   3.802   6.142   3.248
12342SOL    HW138985   3.894   6.141   3.207
12342SOL    HW238986   3.796   6.216   3.315
12343SOL     OW38987   4.285   5.808   3.009
12343SOL    HW138988   4.323   5.724   3.046
12343SOL    HW238989   4.197   5.827   3.053
12344SOL     OW38990   4.590   6.040   2.504
12344SOL    HW138991   4.558   6.112   2.442
12344SOL    HW238992   4.614   5.959   2.451
12345SOL     OW38993   4.741   5.625   2.615
12345SOL    HW138994   4.669   5.630   2.546
12345SOL    HW238995   4.717   5.556   2.684
12346SOL     OW38996   5.153   6.759   2.729
12346SOL    HW138997   5.098   6.675   2.722
12346SOL    HW238998   5.179   6.788   2.637
12347SOL     OW38999   5.190   6.176   2.854
12347SOL    HW139000   5.160   6.081   2.861
12347SOL    HW239001   5.263   6.192   2.920
12348SOL     OW39002   5.581   6.419   2.239
12348SOL    HW139003   5.623   6.355   2.303
12348SOL    HW239004   5.543   6.368   2.161
12349SOL     OW39005   4.212   6.971   2.036
12349SOL    HW139006   4.125   6.956   2.083
12349SOL    HW239007   4.195   6.997   1.941
12350SOL     OW39008   5.388   6.866   2.519
12350SOL    HW139009   5.487   6.874   2.533
12350SOL    HW239010   5.343   6.950   2.550
12351SOL     OW39011   5.114   6.161   1.940
12351SOL    HW139012   5.060   6.140   2.021
12351SOL    HW239013   5.205   6.120   1.949
12352SOL     OW39014   4.251   5.842   2.190
12352SOL    HW139015   4.278   5.783   2.115
12352SOL    HW239016   4.251   5.937   2.159
12353SOL     OW39017   5.478   6.809   3.450
12353SOL    HW139018   5.569   6.770   3.437
12353SOL    HW239019   5.486   6.905   3.474
12354SOL     OW39020   4.788   6.933   3.202
12354SOL    HW139021   4.708   6.910   3.257
12354SOL    HW239022   4.871   6.907   3.251
12355SOL     OW39023   5.316   7.215   3.487
12355SOL    HW139024   5.343   7.249   3.397
12355SOL    HW239025   5.395   7.177   3.533
12356SOL     OW39026   4.835   6.781   2.962
12356SOL    HW139027   4.795   6.825   3.043
12356SOL    HW239028   4.794   6.818   2.879
12357SOL     OW39029   5.362   6.685   2.941
12357SOL    HW139030   5.367   6.766   3.000
12357SOL    HW239031   5.276   6.687   2.890
12358SOL     OW39032   4.639   5.675   3.264
12358SOL    HW139033   4.664   5.655   3.169
12358SOL    HW239034   4.711   5.731   3.306
12359SOL     OW39035   4.704   6.702   3.581
12359SOL    HW139036   4.605   6.708   3.591
12359SOL    HW239037   4.727   6.622   3.525
12360SOL     OW39038   4.429   6.636   2.230
12360SOL    HW139039   4.415   6.643   2.329
12360SOL    HW239040   4.513   6.585   2.212
12361SOL     OW39041   4.134   6.399   3.113
12361SOL    HW139042   4.220   6.411   3.163
12361SOL    HW239043   4.092   6.312   3.140
12362SOL     OW39044   4.998   5.972   3.124
12362SOL    HW139045   5.019   6.046   3.188
12362SOL    HW239046   4.909   5.989   3.081
12363SOL     OW39047   3.788   7.150   3.193
12363SOL    HW139048   3.742   7.232   3.159
12363SOL    HW239049   3.886   7.169   3.202
12364SOL     OW39050   4.091   6.686   2.363
12364SOL    HW139051   4.084   6.769   2.307
12364SOL    HW239052   4.095   6.606   2.303
12365SOL     OW39053   4.290   6.123   2.727
12365SOL    HW139054   4.302   6.189   2.653
12365SOL    HW239055   4.336   6.157   2.810
12366SOL     OW39056   4.976   6.934   2.250
12366SOL    HW139057   5.026   7.011   2.290
12366SOL    HW239058   4.881   6.936   2.282
12367SOL     OW39059   4.996   7.031   3.004
12367SOL    HW139060   5.043   7.044   3.091
12367SOL    HW239061   4.930   6.957   3.013
12368SOL     OW39062   5.306   6.225   2.334
12368SOL    HW139063   5.275   6.286   2.407
12368SOL    HW239064   5.356   6.277   2.265
12369SOL     OW39065   4.078   7.096   3.191
12369SOL    HW139066   4.057   7.052   3.104
12369SOL    HW239067   4.175   7.122   3.194
12370SOL     OW39068   4.126   6.337   3.460
12370SOL    HW139069   4.194   6.392   3.413
12370SOL    HW239070   4.166   6.249   3.487
12371SOL     OW39071   5.311   6.365   3.532
12371SOL    HW139072   5.219   6.403   3.527
12371SOL    HW239073   5.371   6.412   3.467
12372SOL     OW39074   4.737   5.691   3.632
12372SOL    HW139075   4.743   5.776   3.580
12372SOL    HW239076   4.769   5.615   3.575
12373SOL     OW39077   4.228   5.636   3.602
12373SOL    HW139078   4.186   5.579   3.532
12373SOL    HW239079   4.162   5.705   3.634
12374SOL     OW39080   4.297   6.456   2.891
12374SOL    HW139081   4.341   6.545   2.882
12374SOL    HW239082   4.234   6.456   2.968
12375SOL     OW39083   5.084   6.448   2.907
12375SOL    HW139084   5.009   6.448   2.841
12375SOL    HW239085   5.121   6.356   2.916
12376SOL     OW39086   4.933   6.111   2.137
12376SOL    HW139087   4.946   6.027   2.191
12376SOL    HW239088   4.904   6.185   2.197
12377SOL     OW39089   4.031   5.799   3.093
12377SOL    HW139090   4.008   5.836   3.183
12377SOL    HW239091   4.001   5.704   3.087
12378SOL     OW39092   3.761   6.896   3.144
12378SOL    HW139093   3.814   6.847   3.212
12378SOL    HW239094   3.783   6.994   3.149
12379SOL     OW39095   4.456   6.220   2.926
12379SOL    HW139096   4.515   6.194   2.850
12379SOL    HW239097   4.428   6.316   2.915
12380SOL     OW39098   5.452   6.521   3.716
12380SOL    HW139099   5.406   6.514   3.627
12380SOL    HW239100   5.390   6.565   3.782
12381SOL     OW39101   4.031   5.649   2.480
12381SOL    HW139102   4.020   5.743   2.513
12381SOL    HW239103   4.026   5.586   2.557
12382SOL     OW39104   5.346   5.953   2.236
12382SOL    HW139105   5.348   5.877   2.300
12382SOL    HW239106   5.298   6.030   2.276
12383SOL     OW39107   4.747   6.352   2.828
12383SOL    HW139108   4.762   6.373   2.924
12383SOL    HW239109   4.717   6.257   2.819
12384SOL     OW39110   4.704   7.159   3.562
12384SOL    HW139111   4.684   7.203   3.474
12384SOL    HW239112   4.743   7.068   3.546
12385SOL     OW39113   5.583   7.104   3.467
12385SOL    HW139114   5.597   7.131   3.372
12385SOL    HW239115   5.666   7.126   3.520
12386SOL     OW39116   4.074   6.484   3.666
12386SOL    HW139117   4.150   6.528   3.714
12386SOL    HW239118   4.109   6.437   3.584
12387SOL     OW39119   5.264   5.860   1.987
12387SOL    HW139120   5.203   5.785   2.010
12387SOL    HW239121   5.286   5.912   2.070
12388SOL     OW39122   5.027   6.424   1.904
12388SOL    HW139123   5.061   6.331   1.919
12388SOL    HW239124   5.045   6.451   1.809
12389SOL     OW39125   4.792   6.919   2.711
12389SOL    HW139126   4.799   6.835   2.656
12389SOL    HW239127   4.854   6.988   2.675
12390SOL     OW39128   4.043   6.396   2.811
12390SOL    HW139129   4.136   6.432   2.816
12390SOL    HW239130   4.037   6.311   2.863
12391SOL     OW39131   4.063   6.095   2.868
12391SOL    HW139132   4.011   6.012   2.851
12391SOL    HW239133   4.140   6.100   2.804
12392SOL     OW39134   4.235   6.001   3.670
12392SOL    HW139135   4.217   6.046   3.758
12392SOL    HW239136   4.277   6.066   3.607
12393SOL     OW39137   4.862   5.966   3.540
12393SOL    HW139138   4.817   6.029   3.604
12393SOL    HW239139   4.955   5.997   3.523
12394SOL     OW39140   4.884   5.793   3.339
12394SOL    HW139141   4.884   5.857   3.416
12394SOL    HW239142   4.912   5.841   3.256
12395SOL     OW39143   3.732   6.912   2.062
12395SOL    HW139144   3.639   6.933   2.031
12395SOL    HW239145   3.742   6.813   2.075
12396SOL     OW39146   3.812   7.387   2.789
12396SOL    HW139147   3.770   7.301   2.762
12396SOL    HW239148   3.906   7.390   2.755
12397SOL     OW39149   4.228   7.154   2.772
12397SOL    HW139150   4.294   7.228   2.781
12397SOL    HW239151   4.272   7.075   2.730
12398SOL     OW39152   4.726   6.382   3.100
12398SOL    HW139153   4.767   6.350   3.186
12398SOL    HW239154   4.630   6.355   3.097
12399SOL     OW39155   3.764   6.130   2.976
12399SOL    HW139156   3.849   6.097   2.935
12399SOL    HW239157   3.777   6.145   3.074
12400SOL     OW39158   3.913   6.106   3.584
12400SOL    HW139159   3.972   6.066   3.514
12400SOL    HW239160   3.855   6.177   3.543
12401SOL     OW39161   5.093   6.536   3.522
12401SOL    HW139162   5.132   6.625   3.542
12401SOL    HW239163   5.103   6.516   3.425
12402SOL     OW39164   4.539   6.158   2.187
12402SOL    HW139165   4.546   6.069   2.141
12402SOL    HW239166   4.445   6.192   2.179
12403SOL     OW39167   5.381   6.190   3.068
12403SOL    HW139168   5.343   6.121   3.130
12403SOL    HW239169   5.463   6.154   3.024
12404SOL     OW39170   3.976   7.150   3.606
12404SOL    HW139171   3.946   7.207   3.682
12404SOL    HW239172   3.969   7.053   3.632
12405SOL     OW39173   4.395   6.050   3.131
12405SOL    HW139174   4.361   5.961   3.101
12405SOL    HW239175   4.421   6.104   3.051
12406SOL     OW39176   4.654   7.264   3.327
12406SOL    HW139177   4.630   7.246   3.232
12406SOL    HW239178   4.684   7.358   3.337
12407SOL     OW39179   4.197   6.086   2.053
12407SOL    HW139180   4.258   6.166   2.057
12407SOL    HW239181   4.102   6.117   2.060
12408SOL     OW39182   3.883   6.723   3.328
12408SOL    HW139183   3.905   6.662   3.404
12408SOL    HW239184   3.893   6.674   3.242
12409SOL     OW39185   5.071   6.645   3.096
12409SOL    HW139186   5.095   6.582   3.022
12409SOL    HW239187   4.981   6.685   3.078
12410SOL     OW39188   5.026   6.441   2.171
12410SOL    HW139189   4.940   6.410   2.213
12410SOL    HW239190   5.022   6.427   2.072
12411SOL     OW39191   5.483   7.333   3.016
12411SOL    HW139192   5.544   7.363   2.943
12411SOL    HW239193   5.445   7.244   2.994
12412SOL     OW39194   4.976   7.317   2.990
12412SOL    HW139195   5.060   7.322   2.936
12412SOL    HW239196   4.953   7.221   3.008
12413SOL     OW39197   3.807   6.844   2.884
12413SOL    HW139198   3.802   6.843   2.984
12413SOL    HW239199   3.724   6.803   2.846
12414SOL     OW39200   4.412   7.248   3.578
12414SOL    HW139201   4.356   7.329   3.587
12414SOL    HW239202   4.464   7.252   3.492
12415SOL     OW39203   4.627   5.672   1.995
12415SOL    HW139204   4.678   5.673   1.909
12415SOL    HW239205   4.683   5.630   2.066
12416SOL     OW39206   5.450   5.721   2.385
12416SOL    HW139207   5.523   5.704   2.318
12416SOL    HW239208   5.419   5.634   2.423
12417SOL     OW39209   5.112   7.159   2.339
12417SOL    HW139210   5.179   7.171   2.265
12417SOL    HW239211   5.072   7.248   2.362
12418SOL     OW39212   3.854   7.380   3.713
12418SOL    HW139213   3.813   7.306   3.766
12418SOL    HW239214   3.918   7.431   3.771
12419SOL     OW39215   5.004   6.513   2.534
12419SOL    HW139216   5.064   6.432   2.536
12419SOL    HW239217   5.044   6.582   2.474
12420SOL     OW39218   4.554   6.859   3.284
12420SOL    HW139219   4.549   6.892   3.379
12420SOL    HW239220   4.468   6.878   3.238
12421SOL     OW39221   4.396   7.202   2.016
12421SOL    HW139222   4.405   7.212   1.917
12421SOL    HW239223   4.356   7.113   2.037
12422SOL     OW39224   5.374   7.306   3.256
12422SOL    HW139225   5.427   7.316   3.172
12422SOL    HW239226   5.347   7.396   3.290
12423SOL     OW39227   5.565   5.761   2.825
12423SOL    HW139228   5.604   5.676   2.789
12423SOL    HW239229   5.467   5.763   2.806
12424SOL     OW39230   3.987   5.912   2.582
12424SOL    HW139231   3.908   5.963   2.548
12424SOL    HW239232   3.978   5.897   2.680
12425SOL     OW39233   4.918   7.198   1.893
12425SOL    HW139234   4.924   7.105   1.930
12425SOL    HW239235   4.859   7.198   1.813
12426SOL     OW39236   4.546   6.588   3.234
12426SOL    HW139237   4.586   6.587   3.142
12426SOL    HW239238   4.556   6.680   3.274
12427SOL     OW39239   4.640   6.496   2.153
12427SOL    HW139240   4.703   6.534   2.085
12427SOL    HW239241   4.680   6.413   2.192
12428SOL     OW39242   5.228   7.193   1.906
12428SOL    HW139243   5.136   7.230   1.913
12428SOL    HW239244   5.266   7.213   1.816
12429SOL     OW39245   4.096   6.874   3.352
12429SOL    HW139246   4.083   6.967   3.318
12429SOL    HW239247   4.012   6.822   3.339
12430SOL     OW39248   5.338   6.878   3.151
12430SOL    HW139249   5.398   6.881   3.231
12430SOL    HW239250   5.263   6.942   3.164
12431SOL     OW39251   4.763   6.684   2.558
12431SOL    HW139252   4.693   6.637   2.612
12431SOL    HW239253   4.822   6.616   2.515
12432SOL     OW39254   4.738   5.822   2.833
12432SOL    HW139255   4.730   5.786   2.740
12432SOL    HW239256   4.736   5.746   2.898
12433SOL     OW39257   4.314   7.073   2.353
12433SOL    HW139258   4.356   7.015   2.283
12433SOL    HW239259   4.270   7.152   2.309
12434SOL     OW39260   5.433   5.971   3.243
12434SOL    HW139261   5.506   6.040   3.247
12434SOL    HW239262   5.461   5.896   3.184
12435SOL     OW39263   3.979   6.934   2.152
12435SOL    HW139264   3.883   6.935   2.125
12435SOL    HW239265   3.991   6.987   2.236
12436SOL     OW39266   3.829   6.599   3.588
12436SOL    HW139267   3.752   6.566   3.642
12436SOL    HW239268   3.914   6.569   3.630
12437SOL     OW39269   4.396   5.789   3.351
12437SOL    HW139270   4.486   5.773   3.311
12437SOL    HW239271   4.404   5.794   3.450
12438SOL     OW39272   3.799   5.931   1.895
12438SOL    HW139273   3.707   5.903   1.866
12438SOL    HW239274   3.830   6.008   1.839
12439SOL     OW39275   5.164   6.442   3.260
12439SOL    HW139276   5.107   6.494   3.197
12439SOL    HW239277   5.260   6.454   3.236
12440SOL     OW39278   3.796   5.752   2.180
12440SOL    HW139279   3.779   5.835   2.126
12440SOL    HW239280   3.886   5.715   2.158
12441SOL     OW39281   4.907   6.921   1.981
12441SOL    HW139282   4.808   6.910   1.983
12441SOL    HW239283   4.941   6.936   2.074
12442SOL     OW39284   4.337   6.428   3.293
12442SOL    HW139285   4.393   6.509   3.276
12442SOL    HW239286   4.396   6.348   3.296
12443SOL     OW39287   5.217   7.353   2.821
12443SOL    HW139288   5.250   7.417   2.752
12443SOL    HW239289   5.283   7.347   2.896
12444SOL     OW39290   4.440   6.151   3.570
12444SOL    HW139291   4.459   6.216   3.644
12444SOL    HW239292   4.500   6.071   3.579
12445SOL     OW39293   5.174   6.806   3.495
12445SOL    HW139294   5.165   6.796   3.594
12445SOL    HW239295   5.270   6.799   3.469
12446SOL     OW39296   4.114   7.327   3.422
12446SOL    HW139297   4.023   7.368   3.420
12446SOL    HW239298   4.107   7.233   3.454
12447SOL     OW39299   5.398   6.469   3.116
12447SOL    HW139300   5.371   6.380   3.079
12447SOL    HW239301   5.399   6.537   3.043
12448SOL     OW39302   4.949   5.911   2.311
12448SOL    HW139303   5.014   5.837   2.300
12448SOL    HW239304   4.969   5.961   2.395
12449SOL     OW39305   4.318   6.331   2.514
12449SOL    HW139306   4.368   6.416   2.495
12449SOL    HW239307   4.230   6.333   2.466
12450SOL     OW39308   5.501   5.928   3.504
12450SOL    HW139309   5.484   5.959   3.410
12450SOL    HW239310   5.417   5.891   3.542
12451SOL     OW39311   5.454   6.520   3.379
12451SOL    HW139312   5.492   6.611   3.394
12451SOL    HW239313   5.446   6.503   3.280
12452SOL     OW39314   4.583   6.960   1.878
12452SOL    HW139315   4.537   6.975   1.966
12452SOL    HW239316   4.627   7.045   1.848
12453SOL     OW39317   4.385   7.376   2.815
12453SOL    HW139318   4.339   7.464   2.802
12453SOL    HW239319   4.484   7.388   2.808
12454SOL     OW39320   5.132   7.437   3.582
12454SOL    HW139321   5.036   7.426   3.555
12454SOL    HW239322   5.188   7.370   3.534
12455SOL     OW39323   4.583   6.542   2.723
12455SOL    HW139324   4.637   6.473   2.771
12455SOL    HW239325   4.551   6.611   2.789
12456SOL     OW39326   4.807   6.570   1.949
12456SOL    HW139327   4.784   6.623   1.867
12456SOL    HW239328   4.888   6.514   1.930
12457SOL     OW39329   5.585   7.155   2.713
12457SOL    HW139330   5.514   7.143   2.643
12457SOL    HW239331   5.586   7.076   2.773
12458SOL     OW39332   3.945   6.900   3.706
12458SOL    HW139333   3.880   6.827   3.685
12458SOL    HW239334   3.949   6.914   3.804
12459SOL     OW39335   3.803   6.826   2.515
12459SOL    HW139336   3.802   6.779   2.603
12459SOL    HW239337   3.885   6.798   2.464
12460SOL     OW39338   4.396   6.977   3.486
12460SOL    HW139339   4.318   6.927   3.524
12460SOL    HW239340   4.393   7.072   3.517
12461SOL     OW39341   5.548   5.778   3.089
12461SOL    HW139342   5.544   5.688   3.133
12461SOL    HW239343   5.551   5.767   2.990
12462SOL     OW39344   4.152   6.010   2.382
12462SOL    HW139345   4.182   5.938   2.320
12462SOL    HW239346   4.113   5.970   2.465
12463SOL     OW39347   5.429   7.073   2.966
12463SOL    HW139348   5.336   7.048   2.939
12463SOL    HW239349   5.455   7.023   3.048
12464SOL     OW39350   4.041   6.133   3.142
12464SOL    HW139351   4.079   6.074   3.214
12464SOL    HW239352   4.081   6.107   3.054
12465SOL     OW39353   4.536   7.172   2.549
12465SOL    HW139354   4.568   7.182   2.455
12465SOL    HW239355   4.457   7.110   2.551
12466SOL     OW39356   5.148   5.800   2.974
12466SOL    HW139357   5.200   5.735   3.029
12466SOL    HW239358   5.099   5.863   3.035
12467SOL     OW39359   4.725   5.620   3.016
12467SOL    HW139360   4.662   5.548   2.985
12467SOL    HW239361   4.818   5.584   3.016
12468SOL     OW39362   4.494   6.916   2.163
12468SOL    HW139363   4.448   6.829   2.180
12468SOL    HW239364   4.585   6.913   2.204
12469SOL     OW39365   4.342   7.153   3.146
12469SOL    HW139366   4.337   7.235   3.203
12469SOL    HW239367   4.431   7.150   3.101
12470SOL     OW39368   5.076   5.638   2.030
12470SOL    HW139369   5.111   5.597   1.946
12470SOL    HW239370   4.986   5.600   2.050
12471SOL     OW39371   5.024   6.039   2.553
12471SOL    HW139372   4.965   6.119   2.557
12471SOL    HW239373   5.039   6.004   2.646
12472SOL     OW39374   5.317   5.807   2.744
12472SOL    HW139375   5.233   5.806   2.798
12472SOL    HW239376   5.319   5.890   2.688
12473SOL     OW39377   3.763   6.663   2.162
12473SOL    HW139378   3.862   6.652   2.153
12473SOL    HW239379   3.723   6.577   2.194
12474SOL     OW39380   4.599   7.232   2.199
12474SOL    HW139381   4.522   7.197   2.145
12474SOL    HW239382   4.567   7.303   2.261
12475SOL     OW39383   3.954   6.214   3.837
12475SOL    HW139384   3.861   6.212   3.874
12475SOL    HW239385   3.955   6.175   3.745
12476SOL     OW39386   3.949   5.861   4.720
12476SOL    HW139387   3.984   5.844   4.812
12476SOL    HW239388   3.861   5.816   4.708
12477SOL     OW39389   3.743   5.954   4.371
12477SOL    HW139390   3.661   5.997   4.410
12477SOL    HW239391   3.715   5.881   4.308
12478SOL     OW39392   4.293   6.861   4.889
12478SOL    HW139393   4.200   6.854   4.852
12478SOL    HW239394   4.304   6.950   4.933
12479SOL     OW39395   5.279   7.097   4.427
12479SOL    HW139396   5.222   7.081   4.508
12479SOL    HW239397   5.220   7.107   4.347
12480SOL     OW39398   5.467   6.204   4.580
12480SOL    HW139399   5.500   6.298   4.580
12480SOL    HW239400   5.518   6.150   4.646
12481SOL     OW39401   4.859   6.289   4.441
12481SOL    HW139402   4.916   6.367   4.416
12481SOL    HW239403   4.799   6.315   4.517
12482SOL     OW39404   5.479   6.193   3.955
12482SOL    HW139405   5.467   6.180   3.856
12482SOL    HW239406   5.449   6.112   4.004
12483SOL     OW39407   4.492   6.730   4.747
12483SOL    HW139408   4.414   6.747   4.807
12483SOL    HW239409   4.526   6.817   4.711
12484SOL     OW39410   4.574   6.384   5.547
12484SOL    HW139411   4.570   6.460   5.612
12484SOL    HW239412   4.596   6.420   5.456
12485SOL     OW39413   4.409   6.598   4.389
12485SOL    HW139414   4.478   6.582   4.459
12485SOL    HW239415   4.336   6.655   4.427
12486SOL     OW39416   4.410   6.747   5.527
12486SOL    HW139417   4.470   6.826   5.541
12486SOL    HW239418   4.324   6.778   5.486
12487SOL     OW39419   4.059   7.021   4.785
12487SOL    HW139420   3.981   6.990   4.732
12487SOL    HW239421   4.117   7.079   4.728
12488SOL     OW39422   5.184   7.091   5.063
12488SOL    HW139423   5.208   7.185   5.089
12488SOL    HW239424   5.168   7.037   5.145
12489SOL     OW39425   4.162   5.978   5.223
12489SOL    HW139426   4.244   5.922   5.232
12489SOL    HW239427   4.081   5.920   5.227
12490SOL     OW39428   5.327   6.033   4.461
12490SOL    HW139429   5.253   6.079   4.411
12490SOL    HW239430   5.378   6.101   4.514
12491SOL     OW39431   3.955   7.299   4.207
12491SOL    HW139432   3.989   7.376   4.261
12491SOL    HW239433   3.999   7.299   4.117
12492SOL     OW39434   4.851   6.927   5.414
12492SOL    HW139435   4.898   6.927   5.502
12492SOL    HW239436   4.803   6.840   5.403
12493SOL     OW39437   3.954   7.020   4.262
12493SOL    HW139438   3.928   7.116   4.262
12493SOL    HW239439   3.883   6.966   4.307
12494SOL     OW39440   3.964   6.677   4.610
12494SOL    HW139441   3.978   6.593   4.662
12494SOL    HW239442   3.909   6.741   4.665
12495SOL     OW39443   4.344   7.372   5.163
12495SOL    HW139444   4.252   7.355   5.198
12495SOL    HW239445   4.372   7.464   5.189
12496SOL     OW39446   4.330   6.550   3.847
12496SOL    HW139447   4.337   6.634   3.793
12496SOL    HW239448   4.376   6.563   3.935
12497SOL     OW39449   5.318   5.700   5.204
12497SOL    HW139450   5.300   5.767   5.132
12497SOL    HW239451   5.315   5.746   5.293
12498SOL     OW39452   3.846   6.229   4.287
12498SOL    HW139453   3.801   6.141   4.304
12498SOL    HW239454   3.845   6.283   4.371
12499SOL     OW39455   5.566   7.353   4.083
12499SOL    HW139456   5.620   7.324   4.163
12499SOL    HW239457   5.596   7.443   4.054
12500SOL     OW39458   3.751   7.182   3.841
12500SOL    HW139459   3.732   7.086   3.862
12500SOL    HW239460   3.718   7.240   3.916
12501SOL     OW39461   5.413   6.508   4.336
12501SOL    HW139462   5.508   6.479   4.344
12501SOL    HW239463   5.405   6.573   4.261
12502SOL     OW39464   5.365   6.694   4.156
12502SOL    HW139465   5.451   6.696   4.104
12502SOL    HW239466   5.379   6.741   4.244
12503SOL     OW39467   3.837   6.323   5.321
12503SOL    HW139468   3.925   6.310   5.366
12503SOL    HW239469   3.824   6.420   5.299
12504SOL     OW39470   4.337   6.951   4.450
12504SOL    HW139471   4.288   6.864   4.459
12504SOL    HW239472   4.314   6.994   4.363
12505SOL     OW39473   5.017   6.814   5.147
12505SOL    HW139474   5.054   6.741   5.089
12505SOL    HW239475   5.069   6.819   5.232
12506SOL     OW39476   4.533   5.590   4.226
12506SOL    HW139477   4.573   5.681   4.217
12506SOL    HW239478   4.433   5.598   4.232
12507SOL     OW39479   3.921   6.562   4.988
12507SOL    HW139480   4.010   6.517   4.974
12507SOL    HW239481   3.848   6.497   4.969
12508SOL     OW39482   5.249   6.585   3.914
12508SOL    HW139483   5.186   6.509   3.927
12508SOL    HW239484   5.297   6.603   4.000
12509SOL     OW39485   4.911   7.378   5.340
12509SOL    HW139486   4.935   7.438   5.264
12509SOL    HW239487   4.918   7.283   5.310
12510SOL     OW39488   4.041   5.837   5.525
12510SOL    HW139489   4.112   5.908   5.531
12510SOL    HW239490   3.953   5.876   5.553
12511SOL     OW39491   5.190   7.003   4.677
12511SOL    HW139492   5.131   7.009   4.757
12511SOL    HW239493   5.175   6.915   4.631
12512SOL     OW39494   5.391   7.300   4.296
12512SOL    HW139495   5.350   7.277   4.208
12512SOL    HW239496   5.373   7.226   4.361
12513SOL     OW39497   4.322   6.315   3.994
12513SOL    HW139498   4.346   6.384   3.926
12513SOL    HW239499   4.244   6.348   4.048
12514SOL     OW39500   5.005   5.931   4.668
12514SOL    HW139501   4.919   5.881   4.655
12514SOL    HW239502   5.067   5.877   4.724
12515SOL     OW39503   5.300   7.248   4.031
12515SOL    HW139504   5.389   7.294   4.034
12515SOL    HW239505   5.279   7.224   3.936
12516SOL     OW39506   4.531   6.191   5.189
12516SOL    HW139507   4.484   6.188   5.278
12516SOL    HW239508   4.480   6.136   5.123
12517SOL     OW39509   5.118   6.055   5.398
12517SOL    HW139510   5.098   6.098   5.486
12517SOL    HW239511   5.196   5.993   5.407
12518SOL     OW39512   4.697   6.476   5.296
12518SOL    HW139513   4.743   6.392   5.267
12518SOL    HW239514   4.641   6.510   5.221
12519SOL     OW39515   4.715   5.996   4.966
12519SOL    HW139516   4.638   6.030   5.020
12519SOL    HW239517   4.681   5.945   4.887
12520SOL     OW39518   4.765   6.287   4.153
12520SOL    HW139519   4.791   6.283   4.249
12520SOL    HW239520   4.680   6.236   4.139
12521SOL     OW39521   3.800   6.397   4.513
12521SOL    HW139522   3.899   6.385   4.522
12521SOL    HW239523   3.776   6.492   4.534
12522SOL     OW39524   3.854   7.407   5.295
12522SOL    HW139525   3.844   7.392   5.394
12522SOL    HW239526   3.768   7.443   5.259
12523SOL     OW39527   4.589   5.934   3.919
12523SOL    HW139528   4.648   5.997   3.870
12523SOL    HW239529   4.608   5.840   3.890
12524SOL     OW39530   5.443   6.171   5.555
12524SOL    HW139531   5.417   6.260   5.519
12524SOL    HW239532   5.441   6.103   5.482
12525SOL     OW39533   5.086   6.730   4.269
12525SOL    HW139534   5.169   6.701   4.221
12525SOL    HW239535   5.037   6.797   4.213
12526SOL     OW39536   4.274   5.782   4.609
12526SOL    HW139537   4.269   5.777   4.709
12526SOL    HW239538   4.276   5.878   4.580
12527SOL     OW39539   4.732   7.042   4.201
12527SOL    HW139540   4.686   7.114   4.149
12527SOL    HW239541   4.728   7.062   4.299
12528SOL     OW39542   4.075   7.387   4.577
12528SOL    HW139543   4.125   7.301   4.583
12528SOL    HW239544   4.140   7.464   4.574
12529SOL     OW39545   5.519   6.652   4.597
12529SOL    HW139546   5.457   6.637   4.521
12529SOL    HW239547   5.467   6.663   4.682
12530SOL     OW39548   4.951   7.136   5.230
12530SOL    HW139549   4.957   7.059   5.294
12530SOL    HW239550   4.899   7.110   5.150
12531SOL     OW39551   4.045   6.529   3.966
12531SOL    HW139552   4.127   6.568   3.924
12531SOL    HW239553   4.018   6.447   3.917
12532SOL     OW39554   5.182   6.321   4.452
12532SOL    HW139555   5.177   6.256   4.527
12532SOL    HW239556   5.262   6.380   4.465
12533SOL     OW39557   4.185   6.852   5.451
12533SOL    HW139558   4.135   6.853   5.365
12533SOL    HW239559   4.122   6.834   5.527
12534SOL     OW39560   4.835   7.362   3.961
12534SOL    HW139561   4.775   7.300   4.011
12534SOL    HW239562   4.866   7.318   3.876
12535SOL     OW39563   3.926   5.871   5.222
12535SOL    HW139564   3.846   5.931   5.209
12535SOL    HW239565   3.916   5.822   5.308
12536SOL     OW39566   5.356   6.963   3.805
12536SOL    HW139567   5.324   7.057   3.795
12536SOL    HW239568   5.280   6.900   3.793
12537SOL     OW39569   4.188   7.329   4.047
12537SOL    HW139570   4.221   7.368   4.133
12537SOL    HW239571   4.264   7.322   3.982
12538SOL     OW39572   5.124   5.693   4.150
12538SOL    HW139573   5.100   5.656   4.060
12538SOL    HW239574   5.223   5.709   4.154
12539SOL     OW39575   3.973   7.371   4.965
12539SOL    HW139576   4.030   7.306   5.015
12539SOL    HW239577   3.957   7.338   4.872
12540SOL     OW39578   4.664   7.284   4.628
12540SOL    HW139579   4.744   7.227   4.649
12540SOL    HW239580   4.615   7.244   4.551
12541SOL     OW39581   4.106   6.286   4.204
12541SOL    HW139582   4.151   6.196   4.201
12541SOL    HW239583   4.012   6.275   4.237
12542SOL     OW39584   5.271   5.808   5.453
12542SOL    HW139585   5.266   5.845   5.545
12542SOL    HW239586   5.199   5.739   5.441
12543SOL     OW39587   4.338   5.708   3.841
12543SOL    HW139588   4.436   5.686   3.848
12543SOL    HW239589   4.307   5.691   3.748
12544SOL     OW39590   4.505   5.850   5.473
12544SOL    HW139591   4.572   5.789   5.516
12544SOL    HW239592   4.432   5.869   5.538
12545SOL     OW39593   4.612   7.100   4.919
12545SOL    HW139594   4.589   7.075   4.825
12545SOL    HW239595   4.673   7.031   4.958
12546SOL     OW39596   5.075   6.176   5.157
12546SOL    HW139597   5.103   6.133   5.242
12546SOL    HW239598   5.100   6.272   5.158
12547SOL     OW39599   4.527   6.988   4.648
12547SOL    HW139600   4.617   7.002   4.606
12547SOL    HW239601   4.456   6.990   4.577
12548SOL     OW39602   4.646   6.089   4.623
12548SOL    HW139603   4.621   6.080   4.527
12548SOL    HW239604   4.694   6.007   4.654
12549SOL     OW39605   4.263   5.650   4.236
12549SOL    HW139606   4.182   5.651   4.294
12549SOL    HW239607   4.266   5.733   4.181
12550SOL     OW39608   5.158   6.774   3.765
12550SOL    HW139609   5.190   6.698   3.822
12550SOL    HW239610   5.066   6.801   3.795
12551SOL     OW39611   4.021   5.621   3.895
12551SOL    HW139612   4.070   5.705   3.874
12551SOL    HW239613   4.083   5.556   3.940
12552SOL     OW39614   4.659   5.822   4.204
12552SOL    HW139615   4.611   5.863   4.126
12552SOL    HW239616   4.758   5.820   4.185
12553SOL     OW39617   4.800   6.269   5.188
12553SOL    HW139618   4.720   6.208   5.191
12553SOL    HW239619   4.881   6.216   5.164
12554SOL     OW39620   4.951   7.156   4.517
12554SOL    HW139621   4.972   7.230   4.452
12554SOL    HW239622   5.019   7.156   4.590
12555SOL     OW39623   4.183   6.738   4.465
12555SOL    HW139624   4.112   6.711   4.530
12555SOL    HW239625   4.157   6.710   4.372
12556SOL     OW39626   4.995   7.383   4.315
12556SOL    HW139627   5.039   7.447   4.251
12556SOL    HW239628   4.945   7.435   4.385
12557SOL     OW39629   4.756   6.135   3.740
12557SOL    HW139630   4.715   6.217   3.701
12557SOL    HW239631   4.820   6.161   3.813
12558SOL     OW39632   3.802   6.142   5.110
12558SOL    HW139633   3.894   6.141   5.069
12558SOL    HW239634   3.796   6.216   5.177
12559SOL     OW39635   4.285   5.808   4.871
12559SOL    HW139636   4.323   5.724   4.908
12559SOL    HW239637   4.197   5.827   4.915
12560SOL     OW39638   4.590   6.040   4.366
12560SOL    HW139639   4.558   6.112   4.304
12560SOL    HW239640   4.614   5.959   4.313
12561SOL     OW39641   4.741   5.625   4.477
12561SOL    HW139642   4.669   5.630   4.408
12561SOL    HW239643   4.717   5.556   4.546
12562SOL     OW39644   5.153   6.759   4.591
12562SOL    HW139645   5.098   6.675   4.584
12562SOL    HW239646   5.179   6.788   4.499
12563SOL     OW39647   5.190   6.176   4.716
12563SOL    HW139648   5.160   6.081   4.723
12563SOL    HW239649   5.263   6.192   4.782
12564SOL     OW39650   5.581   6.419   4.101
12564SOL    HW139651   5.623   6.355   4.165
12564SOL    HW239652   5.543   6.368   4.023
12565SOL     OW39653   4.212   6.971   3.898
12565SOL    HW139654   4.125   6.956   3.945
12565SOL    HW239655   4.195   6.997   3.803
12566SOL     OW39656   5.388   6.866   4.381
12566SOL    HW139657   5.487   6.874   4.395
12566SOL    HW239658   5.343   6.950   4.412
12567SOL     OW39659   5.114   6.161   3.802
12567SOL    HW139660   5.060   6.140   3.883
12567SOL    HW239661   5.205   6.120   3.811
12568SOL     OW39662   4.251   5.842   4.052
12568SOL    HW139663   4.278   5.783   3.977
12568SOL    HW239664   4.251   5.937   4.021
12569SOL     OW39665   5.478   6.809   5.312
12569SOL    HW139666   5.569   6.770   5.299
12569SOL    HW239667   5.486   6.905   5.336
12570SOL     OW39668   4.788   6.933   5.064
12570SOL    HW139669   4.708   6.910   5.119
12570SOL    HW239670   4.871   6.907   5.113
12571SOL     OW39671   5.316   7.215   5.349
12571SOL    HW139672   5.343   7.249   5.259
12571SOL    HW239673   5.395   7.177   5.395
12572SOL     OW39674   4.835   6.781   4.824
12572SOL    HW139675   4.795   6.825   4.905
12572SOL    HW239676   4.794   6.818   4.741
12573SOL     OW39677   5.362   6.685   4.803
12573SOL    HW139678   5.367   6.766   4.862
12573SOL    HW239679   5.276   6.687   4.752
12574SOL     OW39680   4.639   5.675   5.126
12574SOL    HW139681   4.664   5.655   5.031
12574SOL    HW239682   4.711   5.731   5.168
12575SOL     OW39683   4.704   6.702   5.443
12575SOL    HW139684   4.605   6.708   5.453
12575SOL    HW239685   4.727   6.622   5.387
12576SOL     OW39686   4.429   6.636   4.092
12576SOL    HW139687   4.415   6.643   4.191
12576SOL    HW239688   4.513   6.585   4.074
12577SOL     OW39689   4.134   6.399   4.975
12577SOL    HW139690   4.220   6.411   5.025
12577SOL    HW239691   4.092   6.312   5.002
12578SOL     OW39692   4.998   5.972   4.986
12578SOL    HW139693   5.019   6.046   5.050
12578SOL    HW239694   4.909   5.989   4.943
12579SOL     OW39695   3.788   7.150   5.055
12579SOL    HW139696   3.742   7.232   5.021
12579SOL    HW239697   3.886   7.169   5.064
12580SOL     OW39698   4.091   6.686   4.225
12580SOL    HW139699   4.084   6.769   4.169
12580SOL    HW239700   4.095   6.606   4.165
12581SOL     OW39701   4.290   6.123   4.589
12581SOL    HW139702   4.302   6.189   4.515
12581SOL    HW239703   4.336   6.157   4.672
12582SOL     OW39704   4.976   6.934   4.112
12582SOL    HW139705   5.026   7.011   4.152
12582SOL    HW239706   4.881   6.936   4.144
12583SOL     OW39707   4.996   7.031   4.866
12583SOL    HW139708   5.043   7.044   4.953
12583SOL    HW239709   4.930   6.957   4.875
12584SOL     OW39710   5.306   6.225   4.196
12584SOL    HW139711   5.275   6.286   4.269
12584SOL    HW239712   5.356   6.277   4.127
12585SOL     OW39713   4.078   7.096   5.053
12585SOL    HW139714   4.057   7.052   4.966
12585SOL    HW239715   4.175   7.122   5.056
12586SOL     OW39716   4.126   6.337   5.322
12586SOL    HW139717   4.194   6.392   5.275
12586SOL    HW239718   4.166   6.249   5.349
12587SOL     OW39719   5.311   6.365   5.394
12587SOL    HW139720   5.219   6.403   5.389
12587SOL    HW239721   5.371   6.412   5.329
12588SOL     OW39722   4.737   5.691   5.494
12588SOL    HW139723   4.743   5.776   5.442
12588SOL    HW239724   4.769   5.615   5.437
12589SOL     OW39725   4.228   5.636   5.464
12589SOL    HW139726   4.186   5.579   5.394
12589SOL    HW239727   4.162   5.705   5.496
12590SOL     OW39728   4.297   6.456   4.753
12590SOL    HW139729   4.341   6.545   4.744
12590SOL    HW239730   4.234   6.456   4.830
12591SOL     OW39731   5.084   6.448   4.769
12591SOL    HW139732   5.009   6.448   4.703
12591SOL    HW239733   5.121   6.356   4.778
12592SOL     OW39734   4.933   6.111   3.999
12592SOL    HW139735   4.946   6.027   4.053
12592SOL    HW239736   4.904   6.185   4.059
12593SOL     OW39737   4.031   5.799   4.955
12593SOL    HW139738   4.008   5.836   5.045
12593SOL    HW239739   4.001   5.704   4.949
12594SOL     OW39740   3.761   6.896   5.006
12594SOL    HW139741   3.814   6.847   5.074
12594SOL    HW239742   3.783   6.994   5.011
12595SOL     OW39743   4.456   6.220   4.788
12595SOL    HW139744   4.515   6.194   4.712
12595SOL    HW239745   4.428   6.316   4.777
12596SOL     OW39746   5.452   6.521   5.578
12596SOL    HW139747   5.406   6.514   5.489
12596SOL    HW239748   5.390   6.565   5.644
12597SOL     OW39749   4.031   5.649   4.342
12597SOL    HW139750   4.020   5.743   4.375
12597SOL    HW239751   4.026   5.586   4.419
12598SOL     OW39752   5.346   5.953   4.098
12598SOL    HW139753   5.348   5.877   4.162
12598SOL    HW239754   5.298   6.030   4.138
12599SOL     OW39755   4.747   6.352   4.690
12599SOL    HW139756   4.762   6.373   4.786
12599SOL    HW239757   4.717   6.257   4.681
12600SOL     OW39758   4.704   7.159   5.424
12600SOL    HW139759   4.684   7.203   5.336
12600SOL    HW239760   4.743   7.068   5.408
12601SOL     OW39761   5.583   7.104   5.329
12601SOL    HW139762   5.597   7.131   5.234
12601SOL    HW239763   5.666   7.126   5.382
12602SOL     OW39764   4.074   6.484   5.528
12602SOL    HW139765   4.150   6.528   5.576
12602SOL    HW239766   4.109   6.437   5.446
12603SOL     OW39767   5.264   5.860   3.849
12603SOL    HW139768   5.203   5.785   3.872
12603SOL    HW239769   5.286   5.912   3.932
12604SOL     OW39770   5.027   6.424   3.766
12604SOL    HW139771   5.061   6.331   3.781
12604SOL    HW239772   5.045   6.451   3.671
12605SOL     OW39773   4.792   6.919   4.573
12605SOL    HW139774   4.799   6.835   4.518
12605SOL    HW239775   4.854   6.988   4.537
12606SOL     OW39776   4.043   6.396   4.673
12606SOL    HW139777   4.136   6.432   4.678
12606SOL    HW239778   4.037   6.311   4.725
12607SOL     OW39779   4.063   6.095   4.730
12607SOL    HW139780   4.011   6.012   4.713
12607SOL    HW239781   4.140   6.100   4.666
12608SOL     OW39782   4.235   6.001   5.532
12608SOL    HW139783   4.217   6.046   5.620
12608SOL    HW239784   4.277   6.066   5.469
12609SOL     OW39785   4.862   5.966   5.402
12609SOL    HW139786   4.817   6.029   5.466
12609SOL    HW239787   4.955   5.997   5.385
12610SOL     OW39788   4.884   5.793   5.201
12610SOL    HW139789   4.884   5.857   5.278
12610SOL    HW239790   4.912   5.841   5.118
12611SOL     OW39791   3.732   6.912   3.924
12611SOL    HW139792   3.639   6.933   3.893
12611SOL    HW239793   3.742   6.813   3.937
12612SOL     OW39794   3.812   7.387   4.651
12612SOL    HW139795   3.770   7.301   4.624
12612SOL    HW239796   3.906   7.390   4.617
12613SOL     OW39797   4.228   7.154   4.634
12613SOL    HW139798   4.294   7.228   4.643
12613SOL    HW239799   4.272   7.075   4.592
12614SOL     OW39800   4.726   6.382   4.962
12614SOL    HW139801   4.767   6.350   5.048
12614SOL    HW239802   4.630   6.355   4.959
12615SOL     OW39803   3.764   6.130   4.838
12615SOL    HW139804   3.849   6.097   4.797
12615SOL    HW239805   3.777   6.145   4.936
12616SOL     OW39806   3.913   6.106   5.446
12616SOL    HW139807   3.972   6.066   5.376
12616SOL    HW239808   3.855   6.177   5.405
12617SOL     OW39809   5.093   6.536   5.384
12617SOL    HW139810   5.132   6.625   5.404
12617SOL    HW239811   5.103   6.516   5.287
12618SOL     OW39812   4.539   6.158   4.049
12618SOL    HW139813   4.546   6.069   4.003
12618SOL    HW239814   4.445   6.192   4.041
12619SOL     OW39815   5.381   6.190   4.930
12619SOL    HW139816   5.343   6.121   4.992
12619SOL    HW239817   5.463   6.154   4.886
12620SOL     OW39818   3.976   7.150   5.468
12620SOL    HW139819   3.946   7.207   5.544
12620SOL    HW239820   3.969   7.053   5.494
12621SOL     OW39821   4.395   6.050   4.993
12621SOL    HW139822   4.361   5.961   4.963
12621SOL    HW239823   4.421   6.104   4.913
12622SOL     OW39824   4.654   7.264   5.189
12622SOL    HW139825   4.630   7.246   5.094
12622SOL    HW239826   4.684   7.358   5.199
12623SOL     OW39827   4.197   6.086   3.915
12623SOL    HW139828   4.258   6.166   3.919
12623SOL    HW239829   4.102   6.117   3.922
12624SOL     OW39830   3.883   6.723   5.190
12624SOL    HW139831   3.905   6.662   5.266
12624SOL    HW239832   3.893   6.674   5.104
12625SOL     OW39833   5.071   6.645   4.958
12625SOL    HW139834   5.095   6.582   4.884
12625SOL    HW239835   4.981   6.685   4.940
12626SOL     OW39836   5.026   6.441   4.033
12626SOL    HW139837   4.940   6.410   4.075
12626SOL    HW239838   5.022   6.427   3.934
12627SOL     OW39839   5.483   7.333   4.878
12627SOL    HW139840   5.544   7.363   4.805
12627SOL    HW239841   5.445   7.244   4.856
12628SOL     OW39842   4.976   7.317   4.852
12628SOL    HW139843   5.060   7.322   4.798
12628SOL    HW239844   4.953   7.221   4.870
12629SOL     OW39845   3.807   6.844   4.746
12629SOL    HW139846   3.802   6.843   4.846
12629SOL    HW239847   3.724   6.803   4.708
12630SOL     OW39848   4.412   7.248   5.440
12630SOL    HW139849   4.356   7.329   5.449
12630SOL    HW239850   4.464   7.252   5.354
12631SOL     OW39851   4.627   5.672   3.857
12631SOL    HW139852   4.678   5.673   3.771
12631SOL    HW239853   4.683   5.630   3.928
12632SOL     OW39854   5.450   5.721   4.247
12632SOL    HW139855   5.523   5.704   4.180
12632SOL    HW239856   5.419   5.634   4.285
12633SOL     OW39857   5.112   7.159   4.201
12633SOL    HW139858   5.179   7.171   4.127
12633SOL    HW239859   5.072   7.248   4.224
12634SOL     OW39860   3.854   7.380   5.575
12634SOL    HW139861   3.813   7.306   5.628
12634SOL    HW239862   3.918   7.431   5.633
12635SOL     OW39863   5.004   6.513   4.396
12635SOL    HW139864   5.064   6.432   4.398
12635SOL    HW239865   5.044   6.582   4.336
12636SOL     OW39866   4.554   6.859   5.146
12636SOL    HW139867   4.549   6.892   5.241
12636SOL    HW239868   4.468   6.878   5.100
12637SOL     OW39869   4.396   7.202   3.878
12637SOL    HW139870   4.405   7.212   3.779
12637SOL    HW239871   4.356   7.113   3.899
12638SOL     OW39872   5.374   7.306   5.118
12638SOL    HW139873   5.427   7.316   5.034
12638SOL    HW239874   5.347   7.396   5.152
12639SOL     OW39875   5.565   5.761   4.687
12639SOL    HW139876   5.604   5.676   4.651
12639SOL    HW239877   5.467   5.763   4.668
12640SOL     OW39878   3.987   5.912   4.444
12640SOL    HW139879   3.908   5.963   4.410
12640SOL    HW239880   3.978   5.897   4.542
12641SOL     OW39881   4.918   7.198   3.755
12641SOL    HW139882   4.924   7.105   3.792
12641SOL    HW239883   4.859   7.198   3.675
12642SOL     OW39884   4.546   6.588   5.096
12642SOL    HW139885   4.586   6.587   5.004
12642SOL    HW239886   4.556   6.680   5.136
12643SOL     OW39887   4.640   6.496   4.015
12643SOL    HW139888   4.703   6.534   3.947
12643SOL    HW239889   4.680   6.413   4.054
12644SOL     OW39890   5.228   7.193   3.768
12644SOL    HW139891   5.136   7.230   3.775
12644SOL    HW239892   5.266   7.213   3.678
12645SOL     OW39893   4.096   6.874   5.214
12645SOL    HW139894   4.083   6.967   5.180
12645SOL    HW239895   4.012   6.822   5.201
12646SOL     OW39896   5.338   6.878   5.013
12646SOL    HW139897   5.398   6.881   5.093
12646SOL    HW239898   5.263   6.942   5.026
12647SOL     OW39899   4.763   6.684   4.420
12647SOL    HW139900   4.693   6.637   4.474
12647SOL    HW239901   4.822   6.616   4.377
12648SOL     OW39902   4.738   5.822   4.695
12648SOL    HW139903   4.730   5.786   4.602
12648SOL    HW239904   4.736   5.746   4.760
12649SOL     OW39905   4.314   7.073   4.215
12649SOL    HW139906   4.356   7.015   4.145
12649SOL    HW239907   4.270   7.152   4.171
12650SOL     OW39908   5.433   5.971   5.105
12650SOL    HW139909   5.506   6.040   5.109
12650SOL    HW239910   5.461   5.896   5.046
12651SOL     OW39911   3.979   6.934   4.014
12651SOL    HW139912   3.883   6.935   3.987
12651SOL    HW239913   3.991   6.987   4.098
12652SOL     OW39914   3.829   6.599   5.450
12652SOL    HW139915   3.752   6.566   5.504
12652SOL    HW239916   3.914   6.569   5.492
12653SOL     OW39917   4.396   5.789   5.213
12653SOL    HW139918   4.486   5.773   5.173
12653SOL    HW239919   4.404   5.794   5.312
12654SOL     OW39920   3.799   5.931   3.757
12654SOL    HW139921   3.707   5.903   3.728
12654SOL    HW239922   3.830   6.008   3.701
12655SOL     OW39923   5.164   6.442   5.122
12655SOL    HW139924   5.107   6.494   5.059
12655SOL    HW239925   5.260   6.454   5.098
12656SOL     OW39926   3.796   5.752   4.042
12656SOL    HW139927   3.779   5.835   3.988
12656SOL    HW239928   3.886   5.715   4.020
12657SOL     OW39929   4.907   6.921   3.843
12657SOL    HW139930   4.808   6.910   3.845
12657SOL    HW239931   4.941   6.936   3.936
12658SOL     OW39932   4.337   6.428   5.155
12658SOL    HW139933   4.393   6.509   5.138
12658SOL    HW239934   4.396   6.348   5.158
12659SOL     OW39935   5.217   7.353   4.683
12659SOL    HW139936   5.250   7.417   4.614
12659SOL    HW239937   5.283   7.347   4.758
12660SOL     OW39938   4.440   6.151   5.432
12660SOL    HW139939   4.459   6.216   5.506
12660SOL    HW239940   4.500   6.071   5.441
12661SOL     OW39941   5.174   6.806   5.357
12661SOL    HW139942   5.165   6.796   5.456
12661SOL    HW239943   5.270   6.799   5.331
12662SOL     OW39944   4.114   7.327   5.284
12662SOL    HW139945   4.023   7.368   5.282
12662SOL    HW239946   4.107   7.233   5.316
12663SOL     OW39947   5.398   6.469   4.978
12663SOL    HW139948   5.371   6.380   4.941
12663SOL    HW239949   5.399   6.537   4.905
12664SOL     OW39950   4.949   5.911   4.173
12664SOL    HW139951   5.014   5.837   4.162
12664SOL    HW239952   4.969   5.961   4.257
12665SOL     OW39953   4.318   6.331   4.376
12665SOL    HW139954   4.368   6.416   4.357
12665SOL    HW239955   4.230   6.333   4.328
12666SOL     OW39956   5.501   5.928   5.366
12666SOL    HW139957   5.484   5.959   5.272
12666SOL    HW239958   5.417   5.891   5.404
12667SOL     OW39959   5.454   6.520   5.241
12667SOL    HW139960   5.492   6.611   5.256
12667SOL    HW239961   5.446   6.503   5.142
12668SOL     OW39962   4.583   6.960   3.740
12668SOL    HW139963   4.537   6.975   3.828
12668SOL    HW239964   4.627   7.045   3.710
12669SOL     OW39965   4.385   7.376   4.677
12669SOL    HW139966   4.339   7.464   4.664
12669SOL    HW239967   4.484   7.388   4.670
12670SOL     OW39968   5.132   7.437   5.444
12670SOL    HW139969   5.036   7.426   5.417
12670SOL    HW239970   5.188   7.370   5.396
12671SOL     OW39971   4.583   6.542   4.585
12671SOL    HW139972   4.637   6.473   4.633
12671SOL    HW239973   4.551   6.611   4.651
12672SOL     OW39974   4.807   6.570   3.811
12672SOL    HW139975   4.784   6.623   3.729
12672SOL    HW239976   4.888   6.514   3.792
12673SOL     OW39977   5.585   7.155   4.575
12673SOL    HW139978   5.514   7.143   4.505
12673SOL    HW239979   5.586   7.076   4.635
12674SOL     OW39980   3.945   6.900   5.568
12674SOL    HW139981   3.880   6.827   5.547
12674SOL    HW239982   3.949   6.914   5.666
12675SOL     OW39983   3.803   6.826   4.377
12675SOL    HW139984   3.802   6.779   4.465
12675SOL    HW239985   3.885   6.798   4.326
12676SOL     OW39986   4.396   6.977   5.348
12676SOL    HW139987   4.318   6.927   5.386
12676SOL    HW239988   4.393   7.072   5.379
12677SOL     OW39989   5.548   5.778   4.951
12677SOL    HW139990   5.544   5.688   4.995
12677SOL    HW239991   5.551   5.767   4.852
12678SOL     OW39992   4.152   6.010   4.244
12678SOL    HW139993   4.182   5.938   4.182
12678SOL    HW239994   4.113   5.970   4.327
12679SOL     OW39995   5.429   7.073   4.828
12679SOL    HW139996   5.336   7.048   4.801
12679SOL    HW239997   5.455   7.023   4.910
12680SOL     OW39998   4.041   6.133   5.004
12680SOL    HW139999   4.079   6.074   5.076
12680SOL    HW240000   4.081   6.107   4.916
12681SOL     OW40001   4.536   7.172   4.411
12681SOL    HW140002   4.568   7.182   4.317
12681SOL    HW240003   4.457   7.110   4.413
12682SOL     OW40004   5.148   5.800   4.836
12682SOL    HW140005   5.200   5.735   4.891
12682SOL    HW240006   5.099   5.863   4.897
12683SOL     OW40007   4.725   5.620   4.878
12683SOL    HW140008   4.662   5.548   4.847
12683SOL    HW240009   4.818   5.584   4.878
12684SOL     OW40010   4.494   6.916   4.025
12684SOL    HW140011   4.448   6.829   4.042
12684SOL    HW240012   4.585   6.913   4.066
12685SOL     OW40013   4.342   7.153   5.008
12685SOL    HW140014   4.337   7.235   5.065
12685SOL    HW240015   4.431   7.150   4.963
12686SOL     OW40016   5.076   5.638   3.892
12686SOL    HW140017   5.111   5.597   3.808
12686SOL    HW240018   4.986   5.600   3.912
12687SOL     OW40019   5.024   6.039   4.415
12687SOL    HW140020   4.965   6.119   4.419
12687SOL    HW240021   5.039   6.004   4.508
12688SOL     OW40022   5.317   5.807   4.606
12688SOL    HW140023   5.233   5.806   4.660
12688SOL    HW240024   5.319   5.890   4.550
12689SOL     OW40025   3.763   6.663   4.024
12689SOL    HW140026   3.862   6.652   4.015
12689SOL    HW240027   3.723   6.577   4.056
12690SOL     OW40028   4.599   7.232   4.061
12690SOL    HW140029   4.522   7.197   4.007
12690SOL    HW240030   4.567   7.303   4.123
12691SOL     OW40031   3.954   6.214   5.699
12691SOL    HW140032   3.861   6.212   5.736
12691SOL    HW240033   3.955   6.175   5.607
12692SOL     OW40034   3.949   5.861   6.582
12692SOL    HW140035   3.984   5.844   6.674
12692SOL    HW240036   3.861   5.816   6.570
12693SOL     OW40037   3.743   5.954   6.233
12693SOL    HW140038   3.661   5.997   6.272
12693SOL    HW240039   3.715   5.881   6.170
12694SOL     OW40040   4.293   6.861   6.751
12694SOL    HW140041   4.200   6.854   6.714
12694SOL    HW240042   4.304   6.950   6.795
12695SOL     OW40043   5.279   7.097   6.289
12695SOL    HW140044   5.222   7.081   6.370
12695SOL    HW240045   5.220   7.107   6.209
12696SOL     OW40046   5.467   6.204   6.442
12696SOL    HW140047   5.500   6.298   6.442
12696SOL    HW240048   5.518   6.150   6.508
12697SOL     OW40049   5.479   6.193   5.817
12697SOL    HW140050   5.467   6.180   5.718
12697SOL    HW240051   5.449   6.112   5.866
12698SOL     OW40052   4.492   6.730   6.609
12698SOL    HW140053   4.414   6.747   6.669
12698SOL    HW240054   4.526   6.817   6.573
12699SOL     OW40055   4.574   6.384   7.409
12699SOL    HW140056   4.570   6.460   7.474
12699SOL    HW240057   4.596   6.420   7.318
12700SOL     OW40058   4.409   6.598   6.251
12700SOL    HW140059   4.478   6.582   6.321
12700SOL    HW240060   4.336   6.655   6.289
12701SOL     OW40061   4.410   6.747   7.389
12701SOL    HW140062   4.470   6.826   7.403
12701SOL    HW240063   4.324   6.778   7.348
12702SOL     OW40064   4.059   7.021   6.647
12702SOL    HW140065   3.981   6.990   6.594
12702SOL    HW240066   4.117   7.079   6.590
12703SOL     OW40067   5.184   7.091   6.925
12703SOL    HW140068   5.208   7.185   6.951
12703SOL    HW240069   5.168   7.037   7.007
12704SOL     OW40070   4.162   5.978   7.085
12704SOL    HW140071   4.244   5.922   7.094
12704SOL    HW240072   4.081   5.920   7.089
12705SOL     OW40073   5.327   6.033   6.323
12705SOL    HW140074   5.253   6.079   6.273
12705SOL    HW240075   5.378   6.101   6.376
12706SOL     OW40076   3.955   7.299   6.069
12706SOL    HW140077   3.989   7.376   6.123
12706SOL    HW240078   3.999   7.299   5.979
12707SOL     OW40079   4.851   6.927   7.276
12707SOL    HW140080   4.898   6.927   7.364
12707SOL    HW240081   4.803   6.840   7.265
12708SOL     OW40082   3.954   7.020   6.124
12708SOL    HW140083   3.928   7.116   6.124
12708SOL    HW240084   3.883   6.966   6.169
12709SOL     OW40085   3.964   6.677   6.472
12709SOL    HW140086   3.978   6.593   6.524
12709SOL    HW240087   3.909   6.741   6.527
12710SOL     OW40088   4.344   7.372   7.025
12710SOL    HW140089   4.252   7.355   7.060
12710SOL    HW240090   4.372   7.464   7.051
12711SOL     OW40091   4.330   6.550   5.709
12711SOL    HW140092   4.337   6.634   5.655
12711SOL    HW240093   4.376   6.563   5.797
12712SOL     OW40094   5.318   5.700   7.066
12712SOL    HW140095   5.300   5.767   6.994
12712SOL    HW240096   5.315   5.746   7.155
12713SOL     OW40097   3.846   6.229   6.149
12713SOL    HW140098   3.801   6.141   6.166
12713SOL    HW240099   3.845   6.283   6.233
12714SOL     OW40100   5.566   7.353   5.945
12714SOL    HW140101   5.620   7.324   6.025
12714SOL    HW240102   5.596   7.443   5.916
12715SOL     OW40103   3.751   7.182   5.703
12715SOL    HW140104   3.732   7.086   5.724
12715SOL    HW240105   3.718   7.240   5.778
12716SOL     OW40106   5.413   6.508   6.198
12716SOL    HW140107   5.508   6.479   6.206
12716SOL    HW240108   5.405   6.573   6.123
12717SOL     OW40109   5.365   6.694   6.018
12717SOL    HW140110   5.451   6.696   5.966
12717SOL    HW240111   5.379   6.741   6.106
12718SOL     OW40112   3.837   6.323   7.183
12718SOL    HW140113   3.925   6.310   7.228
12718SOL    HW240114   3.824   6.420   7.161
12719SOL     OW40115   4.337   6.951   6.312
12719SOL    HW140116   4.288   6.864   6.321
12719SOL    HW240117   4.314   6.994   6.225
12720SOL     OW40118   5.017   6.814   7.009
12720SOL    HW140119   5.054   6.741   6.951
12720SOL    HW240120   5.069   6.819   7.094
12721SOL     OW40121   4.533   5.590   6.088
12721SOL    HW140122   4.573   5.681   6.079
12721SOL    HW240123   4.433   5.598   6.094
12722SOL     OW40124   3.921   6.562   6.850
12722SOL    HW140125   4.010   6.517   6.836
12722SOL    HW240126   3.848   6.497   6.831
12723SOL     OW40127   5.249   6.585   5.776
12723SOL    HW140128   5.186   6.509   5.789
12723SOL    HW240129   5.297   6.603   5.862
12724SOL     OW40130   4.911   7.378   7.202
12724SOL    HW140131   4.935   7.438   7.126
12724SOL    HW240132   4.918   7.283   7.172
12725SOL     OW40133   4.041   5.837   7.387
12725SOL    HW140134   4.112   5.908   7.393
12725SOL    HW240135   3.953   5.876   7.415
12726SOL     OW40136   5.190   7.003   6.539
12726SOL    HW140137   5.131   7.009   6.619
12726SOL    HW240138   5.175   6.915   6.493
12727SOL     OW40139   5.391   7.300   6.158
12727SOL    HW140140   5.350   7.277   6.070
12727SOL    HW240141   5.373   7.226   6.223
12728SOL     OW40142   4.322   6.315   5.856
12728SOL    HW140143   4.346   6.384   5.788
12728SOL    HW240144   4.244   6.348   5.910
12729SOL     OW40145   5.005   5.931   6.530
12729SOL    HW140146   4.919   5.881   6.517
12729SOL    HW240147   5.067   5.877   6.586
12730SOL     OW40148   5.300   7.248   5.893
12730SOL    HW140149   5.389   7.294   5.896
12730SOL    HW240150   5.279   7.224   5.798
12731SOL     OW40151   4.531   6.191   7.051
12731SOL    HW140152   4.484   6.188   7.140
12731SOL    HW240153   4.480   6.136   6.985
12732SOL     OW40154   5.118   6.055   7.260
12732SOL    HW140155   5.098   6.098   7.348
12732SOL    HW240156   5.196   5.993   7.269
12733SOL     OW40157   4.697   6.476   7.158
12733SOL    HW140158   4.743   6.392   7.129
12733SOL    HW240159   4.641   6.510   7.083
12734SOL     OW40160   4.715   5.996   6.828
12734SOL    HW140161   4.638   6.030   6.882
12734SOL    HW240162   4.681   5.945   6.749
12735SOL     OW40163   4.765   6.287   6.015
12735SOL    HW140164   4.791   6.283   6.111
12735SOL    HW240165   4.680   6.236   6.001
12736SOL     OW40166   3.800   6.397   6.375
12736SOL    HW140167   3.899   6.385   6.384
12736SOL    HW240168   3.776   6.492   6.396
12737SOL     OW40169   3.854   7.407   7.157
12737SOL    HW140170   3.844   7.392   7.256
12737SOL    HW240171   3.768   7.443   7.121
12738SOL     OW40172   4.589   5.934   5.781
12738SOL    HW140173   4.648   5.997   5.732
12738SOL    HW240174   4.608   5.840   5.752
12739SOL     OW40175   5.443   6.171   7.417
12739SOL    HW140176   5.417   6.260   7.381
12739SOL    HW240177   5.441   6.103   7.344
12740SOL     OW40178   5.086   6.730   6.131
12740SOL    HW140179   5.169   6.701   6.083
12740SOL    HW240180   5.037   6.797   6.075
12741SOL     OW40181   4.274   5.782   6.471
12741SOL    HW140182   4.269   5.777   6.571
12741SOL    HW240183   4.276   5.878   6.442
12742SOL     OW40184   4.732   7.042   6.063
12742SOL    HW140185   4.686   7.114   6.011
12742SOL    HW240186   4.728   7.062   6.161
12743SOL     OW40187   4.075   7.387   6.439
12743SOL    HW140188   4.125   7.301   6.445
12743SOL    HW240189   4.140   7.464   6.436
12744SOL     OW40190   5.519   6.652   6.459
12744SOL    HW140191   5.457   6.637   6.383
12744SOL    HW240192   5.467   6.663   6.544
12745SOL     OW40193   4.951   7.136   7.092
12745SOL    HW140194   4.957   7.059   7.156
12745SOL    HW240195   4.899   7.110   7.012
12746SOL     OW40196   4.045   6.529   5.828
12746SOL    HW140197   4.127   6.568   5.786
12746SOL    HW240198   4.018   6.447   5.779
12747SOL     OW40199   5.182   6.321   6.314
12747SOL    HW140200   5.177   6.256   6.389
12747SOL    HW240201   5.262   6.380   6.327
12748SOL     OW40202   4.185   6.852   7.313
12748SOL    HW140203   4.135   6.853   7.227
12748SOL    HW240204   4.122   6.834   7.389
12749SOL     OW40205   4.835   7.362   5.823
12749SOL    HW140206   4.775   7.300   5.873
12749SOL    HW240207   4.866   7.318   5.738
12750SOL     OW40208   3.926   5.871   7.084
12750SOL    HW140209   3.846   5.931   7.071
12750SOL    HW240210   3.916   5.822   7.170
12751SOL     OW40211   5.356   6.963   5.667
12751SOL    HW140212   5.324   7.057   5.657
12751SOL    HW240213   5.280   6.900   5.655
12752SOL     OW40214   4.188   7.329   5.909
12752SOL    HW140215   4.221   7.368   5.995
12752SOL    HW240216   4.264   7.322   5.844
12753SOL     OW40217   5.124   5.693   6.012
12753SOL    HW140218   5.100   5.656   5.922
12753SOL    HW240219   5.223   5.709   6.016
12754SOL     OW40220   3.973   7.371   6.827
12754SOL    HW140221   4.030   7.306   6.877
12754SOL    HW240222   3.957   7.338   6.734
12755SOL     OW40223   4.664   7.284   6.490
12755SOL    HW140224   4.744   7.227   6.511
12755SOL    HW240225   4.615   7.244   6.413
12756SOL     OW40226   4.106   6.286   6.066
12756SOL    HW140227   4.151   6.196   6.063
12756SOL    HW240228   4.012   6.275   6.099
12757SOL     OW40229   5.271   5.808   7.315
12757SOL    HW140230   5.266   5.845   7.407
12757SOL    HW240231   5.199   5.739   7.303
12758SOL     OW40232   4.338   5.708   5.703
12758SOL    HW140233   4.436   5.686   5.710
12758SOL    HW240234   4.307   5.691   5.610
12759SOL     OW40235   4.505   5.850   7.335
12759SOL    HW140236   4.572   5.789   7.378
12759SOL    HW240237   4.432   5.869   7.400
12760SOL     OW40238   4.612   7.100   6.781
12760SOL    HW140239   4.589   7.075   6.687
12760SOL    HW240240   4.673   7.031   6.820
12761SOL     OW40241   5.075   6.176   7.019
12761SOL    HW140242   5.103   6.133   7.104
12761SOL    HW240243   5.100   6.272   7.020
12762SOL     OW40244   4.527   6.988   6.510
12762SOL    HW140245   4.617   7.002   6.468
12762SOL    HW240246   4.456   6.990   6.439
12763SOL     OW40247   4.646   6.089   6.485
12763SOL    HW140248   4.621   6.080   6.389
12763SOL    HW240249   4.694   6.007   6.516
12764SOL     OW40250   4.263   5.650   6.098
12764SOL    HW140251   4.182   5.651   6.156
12764SOL    HW240252   4.266   5.733   6.043
12765SOL     OW40253   5.158   6.774   5.627
12765SOL    HW140254   5.190   6.698   5.684
12765SOL    HW240255   5.066   6.801   5.657
12766SOL     OW40256   4.021   5.621   5.757
12766SOL    HW140257   4.070   5.705   5.736
12766SOL    HW240258   4.083   5.556   5.802
12767SOL     OW40259   4.659   5.822   6.066
12767SOL    HW140260   4.611   5.863   5.988
12767SOL    HW240261   4.758   5.820   6.047
12768SOL     OW40262   4.800   6.269   7.050
12768SOL    HW140263   4.720   6.208   7.053
12768SOL    HW240264   4.881   6.216   7.026
12769SOL     OW40265   4.951   7.156   6.379
12769SOL    HW140266   4.972   7.230   6.314
12769SOL    HW240267   5.019   7.156   6.452
12770SOL     OW40268   4.183   6.738   6.327
12770SOL    HW140269   4.112   6.711   6.392
12770SOL    HW240270   4.157   6.710   6.234
12771SOL     OW40271   4.995   7.383   6.177
12771SOL    HW140272   5.039   7.447   6.113
12771SOL    HW240273   4.945   7.435   6.247
12772SOL     OW40274   4.756   6.135   5.602
12772SOL    HW140275   4.715   6.217   5.563
12772SOL    HW240276   4.820   6.161   5.675
12773SOL     OW40277   3.802   6.142   6.972
12773SOL    HW140278   3.894   6.141   6.931
12773SOL    HW240279   3.796   6.216   7.039
12774SOL     OW40280   4.285   5.808   6.733
12774SOL    HW140281   4.323   5.724   6.770
12774SOL    HW240282   4.197   5.827   6.777
12775SOL     OW40283   4.590   6.040   6.228
12775SOL    HW140284   4.558   6.112   6.166
12775SOL    HW240285   4.614   5.959   6.175
12776SOL     OW40286   4.741   5.625   6.339
12776SOL    HW140287   4.669   5.630   6.270
12776SOL    HW240288   4.717   5.556   6.408
12777SOL     OW40289   5.153   6.759   6.453
12777SOL    HW140290   5.098   6.675   6.446
12777SOL    HW240291   5.179   6.788   6.361
12778SOL     OW40292   5.190   6.176   6.578
12778SOL    HW140293   5.160   6.081   6.585
12778SOL    HW240294   5.263   6.192   6.644
12779SOL     OW40295   5.581   6.419   5.963
12779SOL    HW140296   5.623   6.355   6.027
12779SOL    HW240297   5.543   6.368   5.885
12780SOL     OW40298   4.212   6.971   5.760
12780SOL    HW140299   4.125   6.956   5.807
12780SOL    HW240300   4.195   6.997   5.665
12781SOL     OW40301   5.388   6.866   6.243
12781SOL    HW140302   5.487   6.874   6.257
12781SOL    HW240303   5.343   6.950   6.274
12782SOL     OW40304   4.251   5.842   5.914
12782SOL    HW140305   4.278   5.783   5.839
12782SOL    HW240306   4.251   5.937   5.883
12783SOL     OW40307   5.478   6.809   7.174
12783SOL    HW140308   5.569   6.770   7.161
12783SOL    HW240309   5.486   6.905   7.198
12784SOL     OW40310   4.788   6.933   6.926
12784SOL    HW140311   4.708   6.910   6.981
12784SOL    HW240312   4.871   6.907   6.975
12785SOL     OW40313   5.316   7.215   7.211
12785SOL    HW140314   5.343   7.249   7.121
12785SOL    HW240315   5.395   7.177   7.257
12786SOL     OW40316   4.835   6.781   6.686
12786SOL    HW140317   4.795   6.825   6.767
12786SOL    HW240318   4.794   6.818   6.603
12787SOL     OW40319   5.362   6.685   6.665
12787SOL    HW140320   5.367   6.766   6.724
12787SOL    HW240321   5.276   6.687   6.614
12788SOL     OW40322   4.639   5.675   6.988
12788SOL    HW140323   4.664   5.655   6.893
12788SOL    HW240324   4.711   5.731   7.030
12789SOL     OW40325   4.704   6.702   7.305
12789SOL    HW140326   4.605   6.708   7.315
12789SOL    HW240327   4.727   6.622   7.249
12790SOL     OW40328   4.429   6.636   5.954
12790SOL    HW140329   4.415   6.643   6.053
12790SOL    HW240330   4.513   6.585   5.936
12791SOL     OW40331   4.134   6.399   6.837
12791SOL    HW140332   4.220   6.411   6.887
12791SOL    HW240333   4.092   6.312   6.864
12792SOL     OW40334   4.998   5.972   6.848
12792SOL    HW140335   5.019   6.046   6.912
12792SOL    HW240336   4.909   5.989   6.805
12793SOL     OW40337   3.788   7.150   6.917
12793SOL    HW140338   3.742   7.232   6.883
12793SOL    HW240339   3.886   7.169   6.926
12794SOL     OW40340   4.091   6.686   6.087
12794SOL    HW140341   4.084   6.769   6.031
12794SOL    HW240342   4.095   6.606   6.027
12795SOL     OW40343   4.290   6.123   6.451
12795SOL    HW140344   4.302   6.189   6.377
12795SOL    HW240345   4.336   6.157   6.534
12796SOL     OW40346   4.976   6.934   5.974
12796SOL    HW140347   5.026   7.011   6.014
12796SOL    HW240348   4.881   6.936   6.006
12797SOL     OW40349   4.996   7.031   6.728
12797SOL    HW140350   5.043   7.044   6.815
12797SOL    HW240351   4.930   6.957   6.737
12798SOL     OW40352   4.078   7.096   6.915
12798SOL    HW140353   4.057   7.052   6.828
12798SOL    HW240354   4.175   7.122   6.918
12799SOL     OW40355   4.126   6.337   7.184
12799SOL    HW140356   4.194   6.392   7.137
12799SOL    HW240357   4.166   6.249   7.211
12800SOL     OW40358   5.311   6.365   7.256
12800SOL    HW140359   5.219   6.403   7.251
12800SOL    HW240360   5.371   6.412   7.191
12801SOL     OW40361   4.737   5.691   7.356
12801SOL    HW140362   4.743   5.776   7.304
12801SOL    HW240363   4.769   5.615   7.299
12802SOL     OW40364   4.228   5.636   7.326
12802SOL    HW140365   4.186   5.579   7.256
12802SOL    HW240366   4.162   5.705   7.358
12803SOL     OW40367   4.297   6.456   6.615
12803SOL    HW140368   4.341   6.545   6.606
12803SOL    HW240369   4.234   6.456   6.692
12804SOL     OW40370   5.084   6.448   6.631
12804SOL    HW140371   5.009   6.448   6.565
12804SOL    HW240372   5.121   6.356   6.640
12805SOL     OW40373   4.933   6.111   5.861
12805SOL    HW140374   4.946   6.027   5.915
12805SOL    HW240375   4.904   6.185   5.921
12806SOL     OW40376   4.031   5.799   6.817
12806SOL    HW140377   4.008   5.836   6.907
12806SOL    HW240378   4.001   5.704   6.811
12807SOL     OW40379   3.761   6.896   6.868
12807SOL    HW140380   3.814   6.847   6.936
12807SOL    HW240381   3.783   6.994   6.873
12808SOL     OW40382   4.456   6.220   6.650
12808SOL    HW140383   4.515   6.194   6.574
12808SOL    HW240384   4.428   6.316   6.639
12809SOL     OW40385   5.452   6.521   7.440
12809SOL    HW140386   5.406   6.514   7.351
12809SOL    HW240387   5.390   6.565   7.506
12810SOL     OW40388   4.031   5.649   6.204
12810SOL    HW140389   4.020   5.743   6.237
12810SOL    HW240390   4.026   5.586   6.281
12811SOL     OW40391   4.747   6.352   6.552
12811SOL    HW140392   4.762   6.373   6.648
12811SOL    HW240393   4.717   6.257   6.543
12812SOL     OW40394   4.704   7.159   7.286
12812SOL    HW140395   4.684   7.203   7.198
12812SOL    HW240396   4.743   7.068   7.270
12813SOL     OW40397   5.583   7.104   7.191
12813SOL    HW140398   5.597   7.131   7.096
12813SOL    HW240399   5.666   7.126   7.244
12814SOL     OW40400   4.074   6.484   7.390
12814SOL    HW140401   4.150   6.528   7.438
12814SOL    HW240402   4.109   6.437   7.308
12815SOL     OW40403   4.792   6.919   6.435
12815SOL    HW140404   4.799   6.835   6.380
12815SOL    HW240405   4.854   6.988   6.399
12816SOL     OW40406   4.043   6.396   6.535
12816SOL    HW140407   4.136   6.432   6.540
12816SOL    HW240408   4.037   6.311   6.587
12817SOL     OW40409   4.063   6.095   6.592
12817SOL    HW140410   4.011   6.012   6.575
12817SOL    HW240411   4.140   6.100   6.528
12818SOL     OW40412   4.235   6.001   7.394
12818SOL    HW140413   4.217   6.046   7.482
12818SOL    HW240414   4.277   6.066   7.331
12819SOL     OW40415   4.862   5.966   7.264
12819SOL    HW140416   4.817   6.029   7.328
12819SOL    HW240417   4.955   5.997   7.247
12820SOL     OW40418   4.884   5.793   7.063
12820SOL    HW140419   4.884   5.857   7.140
12820SOL    HW240420   4.912   5.841   6.980
12821SOL     OW40421   3.732   6.912   5.786
12821SOL    HW140422   3.639   6.933   5.755
12821SOL    HW240423   3.742   6.813   5.799
12822SOL     OW40424   3.812   7.387   6.513
12822SOL    HW140425   3.770   7.301   6.486
12822SOL    HW240426   3.906   7.390   6.479
12823SOL     OW40427   4.228   7.154   6.496
12823SOL    HW140428   4.294   7.228   6.505
12823SOL    HW240429   4.272   7.075   6.454
12824SOL     OW40430   4.726   6.382   6.824
12824SOL    HW140431   4.767   6.350   6.910
12824SOL    HW240432   4.630   6.355   6.821
12825SOL     OW40433   3.764   6.130   6.700
12825SOL    HW140434   3.849   6.097   6.659
12825SOL    HW240435   3.777   6.145   6.798
12826SOL     OW40436   3.913   6.106   7.308
12826SOL    HW140437   3.972   6.066   7.238
12826SOL    HW240438   3.855   6.177   7.267
12827SOL     OW40439   5.093   6.536   7.246
12827SOL    HW140440   5.132   6.625   7.266
12827SOL    HW240441   5.103   6.516   7.149
12828SOL     OW40442   4.539   6.158   5.911
12828SOL    HW140443   4.546   6.069   5.865
12828SOL    HW240444   4.445   6.192   5.903
12829SOL     OW40445   5.381   6.190   6.792
12829SOL    HW140446   5.343   6.121   6.854
12829SOL    HW240447   5.463   6.154   6.748
12830SOL     OW40448   3.976   7.150   7.330
12830SOL    HW140449   3.946   7.207   7.406
12830SOL    HW240450   3.969   7.053   7.356
12831SOL     OW40451   4.395   6.050   6.855
12831SOL    HW140452   4.361   5.961   6.825
12831SOL    HW240453   4.421   6.104   6.775
12832SOL     OW40454   4.654   7.264   7.051
12832SOL    HW140455   4.630   7.246   6.956
12832SOL    HW240456   4.684   7.358   7.061
12833SOL     OW40457   4.197   6.086   5.777
12833SOL    HW140458   4.258   6.166   5.781
12833SOL    HW240459   4.102   6.117   5.784
12834SOL     OW40460   3.883   6.723   7.052
12834SOL    HW140461   3.905   6.662   7.128
12834SOL    HW240462   3.893   6.674   6.966
12835SOL     OW40463   5.071   6.645   6.820
12835SOL    HW140464   5.095   6.582   6.746
12835SOL    HW240465   4.981   6.685   6.802
12836SOL     OW40466   5.483   7.333   6.740
12836SOL    HW140467   5.544   7.363   6.667
12836SOL    HW240468   5.445   7.244   6.718
12837SOL     OW40469   4.976   7.317   6.714
12837SOL    HW140470   5.060   7.322   6.660
12837SOL    HW240471   4.953   7.221   6.732
12838SOL     OW40472   3.807   6.844   6.608
12838SOL    HW140473   3.802   6.843   6.708
12838SOL    HW240474   3.724   6.803   6.570
12839SOL     OW40475   4.412   7.248   7.302
12839SOL    HW140476   4.356   7.329   7.311
12839SOL    HW240477   4.464   7.252   7.216
12840SOL     OW40478   4.627   5.672   5.719
12840SOL    HW140479   4.678   5.673   5.633
12840SOL    HW240480   4.683   5.630   5.790
12841SOL     OW40481   5.450   5.721   6.109
12841SOL    HW140482   5.523   5.704   6.042
12841SOL    HW240483   5.419   5.634   6.147
12842SOL     OW40484   5.112   7.159   6.063
12842SOL    HW140485   5.179   7.171   5.989
12842SOL    HW240486   5.072   7.248   6.086
12843SOL     OW40487   3.854   7.380   7.437
12843SOL    HW140488   3.813   7.306   7.490
12843SOL    HW240489   3.918   7.431   7.495
12844SOL     OW40490   4.554   6.859   7.008
12844SOL    HW140491   4.549   6.892   7.103
12844SOL    HW240492   4.468   6.878   6.962
12845SOL     OW40493   4.396   7.202   5.740
12845SOL    HW140494   4.405   7.212   5.641
12845SOL    HW240495   4.356   7.113   5.761
12846SOL     OW40496   5.374   7.306   6.980
12846SOL    HW140497   5.427   7.316   6.896
12846SOL    HW240498   5.347   7.396   7.014
12847SOL     OW40499   5.565   5.761   6.549
12847SOL    HW140500   5.604   5.676   6.513
12847SOL    HW240501   5.467   5.763   6.530
12848SOL     OW40502   3.987   5.912   6.306
12848SOL    HW140503   3.908   5.963   6.272
12848SOL    HW240504   3.978   5.897   6.404
12849SOL     OW40505   4.918   7.198   5.617
12849SOL    HW140506   4.924   7.105   5.654
12849SOL    HW240507   4.859   7.198   5.537
12850SOL     OW40508   4.546   6.588   6.958
12850SOL    HW140509   4.586   6.587   6.866
12850SOL    HW240510   4.556   6.680   6.998
12851SOL     OW40511   4.640   6.496   5.877
12851SOL    HW140512   4.703   6.534   5.809
12851SOL    HW240513   4.680   6.413   5.916
12852SOL     OW40514   5.228   7.193   5.630
12852SOL    HW140515   5.136   7.230   5.637
12852SOL    HW240516   5.266   7.213   5.540
12853SOL     OW40517   4.096   6.874   7.076
12853SOL    HW140518   4.083   6.967   7.042
12853SOL    HW240519   4.012   6.822   7.063
12854SOL     OW40520   5.338   6.878   6.875
12854SOL    HW140521   5.398   6.881   6.955
12854SOL    HW240522   5.263   6.942   6.888
12855SOL     OW40523   4.763   6.684   6.282
12855SOL    HW140524   4.693   6.637   6.336
12855SOL    HW240525   4.822   6.616   6.239
12856SOL     OW40526   4.738   5.822   6.557
12856SOL    HW140527   4.730   5.786   6.464
12856SOL    HW240528   4.736   5.746   6.622
12857SOL     OW40529   4.314   7.073   6.077
12857SOL    HW140530   4.356   7.015   6.007
12857SOL    HW240531   4.270   7.152   6.033
12858SOL     OW40532   5.433   5.971   6.967
12858SOL    HW140533   5.506   6.040   6.971
12858SOL    HW240534   5.461   5.896   6.908
12859SOL     OW40535   3.979   6.934   5.876
12859SOL    HW140536   3.883   6.935   5.849
12859SOL    HW240537   3.991   6.987   5.960
12860SOL     OW40538   3.829   6.599   7.312
12860SOL    HW140539   3.752   6.566   7.366
12860SOL    HW240540   3.914   6.569   7.354
12861SOL     OW40541   4.396   5.789   7.075
12861SOL    HW140542   4.486   5.773   7.035
12861SOL    HW240543   4.404   5.794   7.174
12862SOL     OW40544   3.799   5.931   5.619
12862SOL    HW140545   3.707   5.903   5.590
12862SOL    HW240546   3.830   6.008   5.563
12863SOL     OW40547   5.164   6.442   6.984
12863SOL    HW140548   5.107   6.494   6.921
12863SOL    HW240549   5.260   6.454   6.960
12864SOL     OW40550   3.796   5.752   5.904
12864SOL    HW140551   3.779   5.835   5.850
12864SOL    HW240552   3.886   5.715   5.882
12865SOL     OW40553   4.907   6.921   5.705
12865SOL    HW140554   4.808   6.910   5.707
12865SOL    HW240555   4.941   6.936   5.798
12866SOL     OW40556   4.337   6.428   7.017
12866SOL    HW140557   4.393   6.509   7.000
12866SOL    HW240558   4.396   6.348   7.020
12867SOL     OW40559   5.217   7.353   6.545
12867SOL    HW140560   5.250   7.417   6.476
12867SOL    HW240561   5.283   7.347   6.620
12868SOL     OW40562   4.440   6.151   7.294
12868SOL    HW140563   4.459   6.216   7.368
12868SOL    HW240564   4.500   6.071   7.303
12869SOL     OW40565   5.174   6.806   7.219
12869SOL    HW140566   5.165   6.796   7.318
12869SOL    HW240567   5.270   6.799   7.193
12870SOL     OW40568   4.114   7.327   7.146
12870SOL    HW140569   4.023   7.368   7.144
12870SOL    HW240570   4.107   7.233   7.178
12871SOL     OW40571   5.398   6.469   6.840
12871SOL    HW140572   5.371   6.380   6.803
12871SOL    HW240573   5.399   6.537   6.767
12872SOL     OW40574   4.949   5.911   6.035
12872SOL    HW140575   5.014   5.837   6.024
12872SOL    HW240576   4.969   5.961   6.119
12873SOL     OW40577   4.318   6.331   6.238
12873SOL    HW140578   4.368   6.416   6.219
12873SOL    HW240579   4.230   6.333   6.190
12874SOL     OW40580   5.501   5.928   7.228
12874SOL    HW140581   5.484   5.959   7.134
12874SOL    HW240582   5.417   5.891   7.266
12875SOL     OW40583   5.454   6.520   7.103
12875SOL    HW140584   5.492   6.611   7.118
12875SOL    HW240585   5.446   6.503   7.004
12876SOL     OW40586   4.583   6.960   5.602
12876SOL    HW140587   4.537   6.975   5.690
12876SOL    HW240588   4.627   7.045   5.572
12877SOL     OW40589   4.385   7.376   6.539
12877SOL    HW140590   4.339   7.464   6.526
12877SOL    HW240591   4.484   7.388   6.532
12878SOL     OW40592   5.132   7.437   7.306
12878SOL    HW140593   5.036   7.426   7.279
12878SOL    HW240594   5.188   7.370   7.258
12879SOL     OW40595   4.583   6.542   6.447
12879SOL    HW140596   4.637   6.473   6.495
12879SOL    HW240597   4.551   6.611   6.513
12880SOL     OW40598   4.807   6.570   5.673
12880SOL    HW140599   4.784   6.623   5.591
12880SOL    HW240600   4.888   6.514   5.654
12881SOL     OW40601   5.585   7.155   6.437
12881SOL    HW140602   5.514   7.143   6.367
12881SOL    HW240603   5.586   7.076   6.497
12882SOL     OW40604   3.945   6.900   7.430
12882SOL    HW140605   3.880   6.827   7.409
12882SOL    HW240606   3.949   6.914   7.528
12883SOL     OW40607   3.803   6.826   6.239
12883SOL    HW140608   3.802   6.779   6.327
12883SOL    HW240609   3.885   6.798   6.188
12884SOL     OW40610   4.396   6.977   7.210
12884SOL    HW140611   4.318   6.927   7.248
12884SOL    HW240612   4.393   7.072   7.241
12885SOL     OW40613   5.548   5.778   6.813
12885SOL    HW140614   5.544   5.688   6.857
12885SOL    HW240615   5.551   5.767   6.714
12886SOL     OW40616   4.152   6.010   6.106
12886SOL    HW140617   4.182   5.938   6.044
12886SOL    HW240618   4.113   5.970   6.189
12887SOL     OW40619   5.429   7.073   6.690
12887SOL    HW140620   5.336   7.048   6.663
12887SOL    HW240621   5.455   7.023   6.772
12888SOL     OW40622   4.041   6.133   6.866
12888SOL    HW140623   4.079   6.074   6.938
12888SOL    HW240624   4.081   6.107   6.778
12889SOL     OW40625   4.536   7.172   6.273
12889SOL    HW140626   4.568   7.182   6.179
12889SOL    HW240627   4.457   7.110   6.275
12890SOL     OW40628   5.148   5.800   6.698
12890SOL    HW140629   5.200   5.735   6.753
12890SOL    HW240630   5.099   5.863   6.759
12891SOL     OW40631   4.725   5.620   6.740
12891SOL    HW140632   4.662   5.548   6.709
12891SOL    HW240633   4.818   5.584   6.740
12892SOL     OW40634   4.494   6.916   5.887
12892SOL    HW140635   4.448   6.829   5.904
12892SOL    HW240636   4.585   6.913   5.928
12893SOL     OW40637   4.342   7.153   6.870
12893SOL    HW140638   4.337   7.235   6.927
12893SOL    HW240639   4.431   7.150   6.825
12894SOL     OW40640   5.076   5.638   5.754
12894SOL    HW140641   5.111   5.597   5.670
12894SOL    HW240642   4.986   5.600   5.774
12895SOL     OW40643   5.024   6.039   6.277
12895SOL    HW140644   4.965   6.119   6.281
12895SOL    HW240645   5.039   6.004   6.370
12896SOL     OW40646   5.317   5.807   6.468
12896SOL    HW140647   5.233   5.806   6.522
12896SOL    HW240648   5.319   5.890   6.412
12897SOL     OW40649   3.763   6.663   5.886
12897SOL    HW140650   3.862   6.652   5.877
12897SOL    HW240651   3.723   6.577   5.918
12898SOL     OW40652   4.599   7.232   5.923
12898SOL    HW140653   4.522   7.197   5.869
12898SOL    HW240654   4.567   7.303   5.985
12899SOL     OW40655   3.954   6.214   7.561
12899SOL    HW140656   3.861   6.212   7.598
12899SOL    HW240657   3.955   6.175   7.469
12900SOL     OW40658   3.949   5.861   8.444
12900SOL    HW140659   3.984   5.844   8.536
12900SOL    HW240660   3.861   5.816   8.432
12901SOL     OW40661   3.743   5.954   8.095
12901SOL    HW140662   3.661   5.997   8.134
12901SOL    HW240663   3.715   5.881   8.032
12902SOL     OW40664   4.293   6.861   8.613
12902SOL    HW140665   4.200   6.854   8.576
12902SOL    HW240666   4.304   6.950   8.657
12903SOL     OW40667   5.279   7.097   8.151
12903SOL    HW140668   5.222   7.081   8.232
12903SOL    HW240669   5.220   7.107   8.071
12904SOL     OW40670   5.467   6.204   8.304
12904SOL    HW140671   5.500   6.298   8.304
12904SOL    HW240672   5.518   6.150   8.370
12905SOL     OW40673   4.859   6.289   8.165
12905SOL    HW140674   4.916   6.367   8.140
12905SOL    HW240675   4.799   6.315   8.241
12906SOL     OW40676   5.479   6.193   7.679
12906SOL    HW140677   5.467   6.180   7.580
12906SOL    HW240678   5.449   6.112   7.728
12907SOL     OW40679   4.492   6.730   8.471
12907SOL    HW140680   4.414   6.747   8.531
12907SOL    HW240681   4.526   6.817   8.435
12908SOL     OW40682   4.409   6.598   8.113
12908SOL    HW140683   4.478   6.582   8.183
12908SOL    HW240684   4.336   6.655   8.151
12909SOL     OW40685   4.059   7.021   8.509
12909SOL    HW140686   3.981   6.990   8.456
12909SOL    HW240687   4.117   7.079   8.452
12910SOL     OW40688   5.184   7.091   8.787
12910SOL    HW140689   5.208   7.185   8.813
12910SOL    HW240690   5.168   7.037   8.869
12911SOL     OW40691   4.162   5.978   8.947
12911SOL    HW140692   4.244   5.922   8.956
12911SOL    HW240693   4.081   5.920   8.951
12912SOL     OW40694   5.327   6.033   8.185
12912SOL    HW140695   5.253   6.079   8.135
12912SOL    HW240696   5.378   6.101   8.238
12913SOL     OW40697   3.955   7.299   7.931
12913SOL    HW140698   3.989   7.376   7.985
12913SOL    HW240699   3.999   7.299   7.841
12914SOL     OW40700   3.954   7.020   7.986
12914SOL    HW140701   3.928   7.116   7.986
12914SOL    HW240702   3.883   6.966   8.031
12915SOL     OW40703   3.964   6.677   8.334
12915SOL    HW140704   3.978   6.593   8.386
12915SOL    HW240705   3.909   6.741   8.389
12916SOL     OW40706   4.344   7.372   8.887
12916SOL    HW140707   4.252   7.355   8.922
12916SOL    HW240708   4.372   7.464   8.913
12917SOL     OW40709   4.330   6.550   7.571
12917SOL    HW140710   4.337   6.634   7.517
12917SOL    HW240711   4.376   6.563   7.659
12918SOL     OW40712   5.318   5.700   8.928
12918SOL    HW140713   5.300   5.767   8.856
12918SOL    HW240714   5.315   5.746   9.017
12919SOL     OW40715   3.846   6.229   8.011
12919SOL    HW140716   3.801   6.141   8.028
12919SOL    HW240717   3.845   6.283   8.095
12920SOL     OW40718   5.566   7.353   7.807
12920SOL    HW140719   5.620   7.324   7.887
12920SOL    HW240720   5.596   7.443   7.778
12921SOL     OW40721   3.751   7.182   7.565
12921SOL    HW140722   3.732   7.086   7.586
12921SOL    HW240723   3.718   7.240   7.640
12922SOL     OW40724   5.413   6.508   8.060
12922SOL    HW140725   5.508   6.479   8.068
12922SOL    HW240726   5.405   6.573   7.985
12923SOL     OW40727   5.365   6.694   7.880
12923SOL    HW140728   5.451   6.696   7.828
12923SOL    HW240729   5.379   6.741   7.968
12924SOL     OW40730   4.337   6.951   8.174
12924SOL    HW140731   4.288   6.864   8.183
12924SOL    HW240732   4.314   6.994   8.087
12925SOL     OW40733   4.533   5.590   7.950
12925SOL    HW140734   4.573   5.681   7.941
12925SOL    HW240735   4.433   5.598   7.956
12926SOL     OW40736   3.921   6.562   8.712
12926SOL    HW140737   4.010   6.517   8.698
12926SOL    HW240738   3.848   6.497   8.693
12927SOL     OW40739   5.249   6.585   7.638
12927SOL    HW140740   5.186   6.509   7.651
12927SOL    HW240741   5.297   6.603   7.724
12928SOL     OW40742   5.190   7.003   8.401
12928SOL    HW140743   5.131   7.009   8.481
12928SOL    HW240744   5.175   6.915   8.355
12929SOL     OW40745   5.391   7.300   8.020
12929SOL    HW140746   5.350   7.277   7.932
12929SOL    HW240747   5.373   7.226   8.085
12930SOL     OW40748   4.322   6.315   7.718
12930SOL    HW140749   4.346   6.384   7.650
12930SOL    HW240750   4.244   6.348   7.772
12931SOL     OW40751   5.005   5.931   8.392
12931SOL    HW140752   4.919   5.881   8.379
12931SOL    HW240753   5.067   5.877   8.448
12932SOL     OW40754   5.300   7.248   7.755
12932SOL    HW140755   5.389   7.294   7.758
12932SOL    HW240756   5.279   7.224   7.660
12933SOL     OW40757   4.531   6.191   8.913
12933SOL    HW140758   4.484   6.188   9.002
12933SOL    HW240759   4.480   6.136   8.847
12934SOL     OW40760   4.715   5.996   8.690
12934SOL    HW140761   4.638   6.030   8.744
12934SOL    HW240762   4.681   5.945   8.611
12935SOL     OW40763   4.765   6.287   7.877
12935SOL    HW140764   4.791   6.283   7.973
12935SOL    HW240765   4.680   6.236   7.863
12936SOL     OW40766   3.800   6.397   8.237
12936SOL    HW140767   3.899   6.385   8.246
12936SOL    HW240768   3.776   6.492   8.258
12937SOL     OW40769   3.854   7.407   0.019
12937SOL    HW140770   3.844   7.392   0.118
12937SOL    HW240771   3.768   7.443  -0.017
12938SOL     OW40772   4.589   5.934   7.643
12938SOL    HW140773   4.648   5.997   7.594
12938SOL    HW240774   4.608   5.840   7.614
12939SOL     OW40775   5.086   6.730   7.993
12939SOL    HW140776   5.169   6.701   7.945
12939SOL    HW240777   5.037   6.797   7.937
12940SOL     OW40778   4.274   5.782   8.333
12940SOL    HW140779   4.269   5.777   8.433
12940SOL    HW240780   4.276   5.878   8.304
12941SOL     OW40781   4.732   7.042   7.925
12941SOL    HW140782   4.686   7.114   7.873
12941SOL    HW240783   4.728   7.062   8.023
12942SOL     OW40784   4.075   7.387   8.301
12942SOL    HW140785   4.125   7.301   8.307
12942SOL    HW240786   4.140   7.464   8.298
12943SOL     OW40787   5.519   6.652   8.321
12943SOL    HW140788   5.457   6.637   8.245
12943SOL    HW240789   5.467   6.663   8.406
12944SOL     OW40790   4.045   6.529   7.690
12944SOL    HW140791   4.127   6.568   7.648
12944SOL    HW240792   4.018   6.447   7.641
12945SOL     OW40793   5.182   6.321   8.176
12945SOL    HW140794   5.177   6.256   8.251
12945SOL    HW240795   5.262   6.380   8.189
12946SOL     OW40796   4.835   7.362   7.685
12946SOL    HW140797   4.775   7.300   7.735
12946SOL    HW240798   4.866   7.318   7.600
12947SOL     OW40799   3.926   5.871   8.946
12947SOL    HW140800   3.846   5.931   8.933
12947SOL    HW240801   3.916   5.822   9.032
12948SOL     OW40802   5.356   6.963   7.529
12948SOL    HW140803   5.324   7.057   7.519
12948SOL    HW240804   5.280   6.900   7.517
12949SOL     OW40805   4.188   7.329   7.771
12949SOL    HW140806   4.221   7.368   7.857
12949SOL    HW240807   4.264   7.322   7.706
12950SOL     OW40808   5.124   5.693   7.874
12950SOL    HW140809   5.100   5.656   7.784
12950SOL    HW240810   5.223   5.709   7.878
12951SOL     OW40811   3.973   7.371   8.689
12951SOL    HW140812   4.030   7.306   8.739
12951SOL    HW240813   3.957   7.338   8.596
12952SOL     OW40814   4.664   7.284   8.352
12952SOL    HW140815   4.744   7.227   8.373
12952SOL    HW240816   4.615   7.244   8.275
12953SOL     OW40817   4.106   6.286   7.928
12953SOL    HW140818   4.151   6.196   7.925
12953SOL    HW240819   4.012   6.275   7.961
12954SOL     OW40820   4.338   5.708   7.565
12954SOL    HW140821   4.436   5.686   7.572
12954SOL    HW240822   4.307   5.691   7.472
12955SOL     OW40823   4.612   7.100   8.643
12955SOL    HW140824   4.589   7.075   8.549
12955SOL    HW240825   4.673   7.031   8.682
12956SOL     OW40826   4.527   6.988   8.372
12956SOL    HW140827   4.617   7.002   8.330
12956SOL    HW240828   4.456   6.990   8.301
12957SOL     OW40829   4.646   6.089   8.347
12957SOL    HW140830   4.621   6.080   8.251
12957SOL    HW240831   4.694   6.007   8.378
12958SOL     OW40832   4.263   5.650   7.960
12958SOL    HW140833   4.182   5.651   8.018
12958SOL    HW240834   4.266   5.733   7.905
12959SOL     OW40835   5.158   6.774   7.489
12959SOL    HW140836   5.190   6.698   7.546
12959SOL    HW240837   5.066   6.801   7.519
12960SOL     OW40838   4.021   5.621   7.619
12960SOL    HW140839   4.070   5.705   7.598
12960SOL    HW240840   4.083   5.556   7.664
12961SOL     OW40841   4.659   5.822   7.928
12961SOL    HW140842   4.611   5.863   7.850
12961SOL    HW240843   4.758   5.820   7.909
12962SOL     OW40844   4.951   7.156   8.241
12962SOL    HW140845   4.972   7.230   8.176
12962SOL    HW240846   5.019   7.156   8.314
12963SOL     OW40847   4.183   6.738   8.189
12963SOL    HW140848   4.112   6.711   8.254
12963SOL    HW240849   4.157   6.710   8.096
12964SOL     OW40850   4.995   7.383   8.039
12964SOL    HW140851   5.039   7.447   7.975
12964SOL    HW240852   4.945   7.435   8.109
12965SOL     OW40853   4.756   6.135   7.464
12965SOL    HW140854   4.715   6.217   7.425
12965SOL    HW240855   4.820   6.161   7.537
12966SOL     OW40856   3.802   6.142   8.834
12966SOL    HW140857   3.894   6.141   8.793
12966SOL    HW240858   3.796   6.216   8.901
12967SOL     OW40859   4.285   5.808   8.595
12967SOL    HW140860   4.323   5.724   8.632
12967SOL    HW240861   4.197   5.827   8.639
12968SOL     OW40862   4.590   6.040   8.090
12968SOL    HW140863   4.558   6.112   8.028
12968SOL    HW240864   4.614   5.959   8.037
12969SOL     OW40865   4.741   5.625   8.201
12969SOL    HW140866   4.669   5.630   8.132
12969SOL    HW240867   4.717   5.556   8.270
12970SOL     OW40868   5.153   6.759   8.315
12970SOL    HW140869   5.098   6.675   8.308
12970SOL    HW240870   5.179   6.788   8.223
12971SOL     OW40871   5.190   6.176   8.440
12971SOL    HW140872   5.160   6.081   8.447
12971SOL    HW240873   5.263   6.192   8.506
12972SOL     OW40874   5.581   6.419   7.825
12972SOL    HW140875   5.623   6.355   7.889
12972SOL    HW240876   5.543   6.368   7.747
12973SOL     OW40877   4.212   6.971   7.622
12973SOL    HW140878   4.125   6.956   7.669
12973SOL    HW240879   4.195   6.997   7.527
12974SOL     OW40880   5.388   6.866   8.105
12974SOL    HW140881   5.487   6.874   8.119
12974SOL    HW240882   5.343   6.950   8.136
12975SOL     OW40883   5.114   6.161   7.526
12975SOL    HW140884   5.060   6.140   7.607
12975SOL    HW240885   5.205   6.120   7.535
12976SOL     OW40886   4.251   5.842   7.776
12976SOL    HW140887   4.278   5.783   7.701
12976SOL    HW240888   4.251   5.937   7.745
12977SOL     OW40889   4.788   6.933   8.788
12977SOL    HW140890   4.708   6.910   8.843
12977SOL    HW240891   4.871   6.907   8.837
12978SOL     OW40892   4.835   6.781   8.548
12978SOL    HW140893   4.795   6.825   8.629
12978SOL    HW240894   4.794   6.818   8.465
12979SOL     OW40895   5.362   6.685   8.527
12979SOL    HW140896   5.367   6.766   8.586
12979SOL    HW240897   5.276   6.687   8.476
12980SOL     OW40898   4.639   5.675   8.850
12980SOL    HW140899   4.664   5.655   8.755
12980SOL    HW240900   4.711   5.731   8.892
12981SOL     OW40901   4.429   6.636   7.816
12981SOL    HW140902   4.415   6.643   7.915
12981SOL    HW240903   4.513   6.585   7.798
12982SOL     OW40904   4.134   6.399   8.699
12982SOL    HW140905   4.220   6.411   8.749
12982SOL    HW240906   4.092   6.312   8.726
12983SOL     OW40907   4.998   5.972   8.710
12983SOL    HW140908   5.019   6.046   8.774
12983SOL    HW240909   4.909   5.989   8.667
12984SOL     OW40910   3.788   7.150   8.779
12984SOL    HW140911   3.742   7.232   8.745
12984SOL    HW240912   3.886   7.169   8.788
12985SOL     OW40913   4.091   6.686   7.949
12985SOL    HW140914   4.084   6.769   7.893
12985SOL    HW240915   4.095   6.606   7.889
12986SOL     OW40916   4.290   6.123   8.313
12986SOL    HW140917   4.302   6.189   8.239
12986SOL    HW240918   4.336   6.157   8.396
12987SOL     OW40919   4.976   6.934   7.836
12987SOL    HW140920   5.026   7.011   7.876
12987SOL    HW240921   4.881   6.936   7.868
12988SOL     OW40922   4.996   7.031   8.590
12988SOL    HW140923   5.043   7.044   8.677
12988SOL    HW240924   4.930   6.957   8.599
12989SOL     OW40925   5.306   6.225   7.920
12989SOL    HW140926   5.275   6.286   7.993
12989SOL    HW240927   5.356   6.277   7.851
12990SOL     OW40928   4.078   7.096   8.777
12990SOL    HW140929   4.057   7.052   8.690
12990SOL    HW240930   4.175   7.122   8.780
12991SOL     OW40931   4.126   6.337   0.046
12991SOL    HW140932   4.194   6.392  -0.001
12991SOL    HW240933   4.166   6.249   0.073
12992SOL     OW40934   5.311   6.365   0.118
12992SOL    HW140935   5.219   6.403   0.113
12992SOL    HW240936   5.371   6.412   0.053
12993SOL     OW40937   4.297   6.456   8.477
12993SOL    HW140938   4.341   6.545   8.468
12993SOL    HW240939   4.234   6.456   8.554
12994SOL     OW40940   5.084   6.448   8.493
12994SOL    HW140941   5.009   6.448   8.427
12994SOL    HW240942   5.121   6.356   8.502
12995SOL     OW40943   4.933   6.111   7.723
12995SOL    HW140944   4.946   6.027   7.777
12995SOL    HW240945   4.904   6.185   7.783
12996SOL     OW40946   4.031   5.799   8.679
12996SOL    HW140947   4.008   5.836   8.769
12996SOL    HW240948   4.001   5.704   8.673
12997SOL     OW40949   3.761   6.896   8.730
12997SOL    HW140950   3.814   6.847   8.798
12997SOL    HW240951   3.783   6.994   8.735
12998SOL     OW40952   4.456   6.220   8.512
12998SOL    HW140953   4.515   6.194   8.436
12998SOL    HW240954   4.428   6.316   8.501
12999SOL     OW40955   4.031   5.649   8.066
12999SOL    HW140956   4.020   5.743   8.099
12999SOL    HW240957   4.026   5.586   8.143
13000SOL     OW40958   5.346   5.953   7.822
13000SOL    HW140959   5.348   5.877   7.886
13000SOL    HW240960   5.298   6.030   7.862
13001SOL     OW40961   4.747   6.352   8.414
13001SOL    HW140962   4.762   6.373   8.510
13001SOL    HW240963   4.717   6.257   8.405
13002SOL     OW40964   4.704   7.159   0.148
13002SOL    HW140965   4.684   7.203   0.060
13002SOL    HW240966   4.743   7.068   0.132
13003SOL     OW40967   5.583   7.104   0.053
13003SOL    HW140968   5.597   7.131  -0.042
13003SOL    HW240969   5.666   7.126   0.106
13004SOL     OW40970   5.264   5.860   7.573
13004SOL    HW140971   5.203   5.785   7.596
13004SOL    HW240972   5.286   5.912   7.656
13005SOL     OW40973   5.027   6.424   7.490
13005SOL    HW140974   5.061   6.331   7.505
13005SOL    HW240975   5.045   6.451   7.395
13006SOL     OW40976   4.792   6.919   8.297
13006SOL    HW140977   4.799   6.835   8.242
13006SOL    HW240978   4.854   6.988   8.261
13007SOL     OW40979   4.043   6.396   8.397
13007SOL    HW140980   4.136   6.432   8.402
13007SOL    HW240981   4.037   6.311   8.449
13008SOL     OW40982   4.063   6.095   8.454
13008SOL    HW140983   4.011   6.012   8.437
13008SOL    HW240984   4.140   6.100   8.390
13009SOL     OW40985   4.862   5.966   0.126
13009SOL    HW140986   4.817   6.029   0.190
13009SOL    HW240987   4.955   5.997   0.109
13010SOL     OW40988   4.884   5.793   8.925
13010SOL    HW140989   4.884   5.857   9.002
13010SOL    HW240990   4.912   5.841   8.842
13011SOL     OW40991   3.732   6.912   7.648
13011SOL    HW140992   3.639   6.933   7.617
13011SOL    HW240993   3.742   6.813   7.661
13012SOL     OW40994   3.812   7.387   8.375
13012SOL    HW140995   3.770   7.301   8.348
13012SOL    HW240996   3.906   7.390   8.341
13013SOL     OW40997   4.228   7.154   8.358
13013SOL    HW140998   4.294   7.228   8.367
13013SOL    HW240999   4.272   7.075   8.316
13014SOL     OW41000   4.726   6.382   8.686
13014SOL    HW141001   4.767   6.350   8.772
13014SOL    HW241002   4.630   6.355   8.683
13015SOL     OW41003   3.764   6.130   8.562
13015SOL    HW141004   3.849   6.097   8.521
13015SOL    HW241005   3.777   6.145   8.660
13016SOL     OW41006   4.539   6.158   7.773
13016SOL    HW141007   4.546   6.069   7.727
13016SOL    HW241008   4.445   6.192   7.765
13017SOL     OW41009   5.381   6.190   8.654
13017SOL    HW141010   5.343   6.121   8.716
13017SOL    HW241011   5.463   6.154   8.610
13018SOL     OW41012   4.395   6.050   8.717
13018SOL    HW141013   4.361   5.961   8.687
13018SOL    HW241014   4.421   6.104   8.637
13019SOL     OW41015   4.654   7.264   8.913
13019SOL    HW141016   4.630   7.246   8.818
13019SOL    HW241017   4.684   7.358   8.923
13020SOL     OW41018   4.197   6.086   7.639
13020SOL    HW141019   4.258   6.166   7.643
13020SOL    HW241020   4.102   6.117   7.646
13021SOL     OW41021   3.883   6.723   8.914
13021SOL    HW141022   3.905   6.662   8.990
13021SOL    HW241023   3.893   6.674   8.828
13022SOL     OW41024   5.071   6.645   8.682
13022SOL    HW141025   5.095   6.582   8.608
13022SOL    HW241026   4.981   6.685   8.664
13023SOL     OW41027   5.026   6.441   7.757
13023SOL    HW141028   4.940   6.410   7.799
13023SOL    HW241029   5.022   6.427   7.658
13024SOL     OW41030   5.483   7.333   8.602
13024SOL    HW141031   5.544   7.363   8.529
13024SOL    HW241032   5.445   7.244   8.580
13025SOL     OW41033   4.976   7.317   8.576
13025SOL    HW141034   5.060   7.322   8.522
13025SOL    HW241035   4.953   7.221   8.594
13026SOL     OW41036   3.807   6.844   8.470
13026SOL    HW141037   3.802   6.843   8.570
13026SOL    HW241038   3.724   6.803   8.432
13027SOL     OW41039   4.627   5.672   7.581
13027SOL    HW141040   4.678   5.673   7.495
13027SOL    HW241041   4.683   5.630   7.652
13028SOL     OW41042   5.450   5.721   7.971
13028SOL    HW141043   5.523   5.704   7.904
13028SOL    HW241044   5.419   5.634   8.009
13029SOL     OW41045   5.112   7.159   7.925
13029SOL    HW141046   5.179   7.171   7.851
13029SOL    HW241047   5.072   7.248   7.948
13030SOL     OW41048   5.004   6.513   8.120
13030SOL    HW141049   5.064   6.432   8.122
13030SOL    HW241050   5.044   6.582   8.060
13031SOL     OW41051   4.396   7.202   7.602
13031SOL    HW141052   4.405   7.212   7.503
13031SOL    HW241053   4.356   7.113   7.623
13032SOL     OW41054   5.374   7.306   8.842
13032SOL    HW141055   5.427   7.316   8.758
13032SOL    HW241056   5.347   7.396   8.876
13033SOL     OW41057   5.565   5.761   8.411
13033SOL    HW141058   5.604   5.676   8.375
13033SOL    HW241059   5.467   5.763   8.392
13034SOL     OW41060   3.987   5.912   8.168
13034SOL    HW141061   3.908   5.963   8.134
13034SOL    HW241062   3.978   5.897   8.266
13035SOL     OW41063   4.918   7.198   7.479
13035SOL    HW141064   4.924   7.105   7.516
13035SOL    HW241065   4.859   7.198   7.399
13036SOL     OW41066   4.546   6.588   8.820
13036SOL    HW141067   4.586   6.587   8.728
13036SOL    HW241068   4.556   6.680   8.860
13037SOL     OW41069   4.640   6.496   7.739
13037SOL    HW141070   4.703   6.534   7.671
13037SOL    HW241071   4.680   6.413   7.778
13038SOL     OW41072   5.228   7.193   7.492
13038SOL    HW141073   5.136   7.230   7.499
13038SOL    HW241074   5.266   7.213   7.402
13039SOL     OW41075   4.096   6.874   8.938
13039SOL    HW141076   4.083   6.967   8.904
13039SOL    HW241077   4.012   6.822   8.925
13040SOL     OW41078   5.338   6.878   8.737
13040SOL    HW141079   5.398   6.881   8.817
13040SOL    HW241080   5.263   6.942   8.750
13041SOL     OW41081   4.763   6.684   8.144
13041SOL    HW141082   4.693   6.637   8.198
13041SOL    HW241083   4.822   6.616   8.101
13042SOL     OW41084   4.738   5.822   8.419
13042SOL    HW141085   4.730   5.786   8.326
13042SOL    HW241086   4.736   5.746   8.484
13043SOL     OW41087   4.314   7.073   7.939
13043SOL    HW141088   4.356   7.015   7.869
13043SOL    HW241089   4.270   7.152   7.895
13044SOL     OW41090   5.433   5.971   8.829
13044SOL    HW141091   5.506   6.040   8.833
13044SOL    HW241092   5.461   5.896   8.770
13045SOL     OW41093   3.979   6.934   7.738
13045SOL    HW141094   3.883   6.935   7.711
13045SOL    HW241095   3.991   6.987   7.822
13046SOL     OW41096   3.799   5.931   7.481
13046SOL    HW141097   3.707   5.903   7.452
13046SOL    HW241098   3.830   6.008   7.425
13047SOL     OW41099   5.164   6.442   8.846
13047SOL    HW141100   5.107   6.494   8.783
13047SOL    HW241101   5.260   6.454   8.822
13048SOL     OW41102   3.796   5.752   7.766
13048SOL    HW141103   3.779   5.835   7.712
13048SOL    HW241104   3.886   5.715   7.744
13049SOL     OW41105   4.907   6.921   7.567
13049SOL    HW141106   4.808   6.910   7.569
13049SOL    HW241107   4.941   6.936   7.660
13050SOL     OW41108   4.337   6.428   8.879
13050SOL    HW141109   4.393   6.509   8.862
13050SOL    HW241110   4.396   6.348   8.882
13051SOL     OW41111   5.217   7.353   8.407
13051SOL    HW141112   5.250   7.417   8.338
13051SOL    HW241113   5.283   7.347   8.482
13052SOL     OW41114   4.114   7.327   0.008
13052SOL    HW141115   4.023   7.368   0.006
13052SOL    HW241116   4.107   7.233   0.040
13053SOL     OW41117   5.398   6.469   8.702
13053SOL    HW141118   5.371   6.380   8.665
13053SOL    HW241119   5.399   6.537   8.629
13054SOL     OW41120   4.949   5.911   7.897
13054SOL    HW141121   5.014   5.837   7.886
13054SOL    HW241122   4.969   5.961   7.981
13055SOL     OW41123   4.318   6.331   8.100
13055SOL    HW141124   4.368   6.416   8.081
13055SOL    HW241125   4.230   6.333   8.052
13056SOL     OW41126   5.501   5.928   0.090
13056SOL    HW141127   5.484   5.959  -0.004
13056SOL    HW241128   5.417   5.891   0.128
13057SOL     OW41129   5.454   6.520   8.965
13057SOL    HW141130   5.492   6.611   8.980
13057SOL    HW241131   5.446   6.503   8.866
13058SOL     OW41132   4.583   6.960   7.464
13058SOL    HW141133   4.537   6.975   7.552
13058SOL    HW241134   4.627   7.045   7.434
13059SOL     OW41135   4.385   7.376   8.401
13059SOL    HW141136   4.339   7.464   8.388
13059SOL    HW241137   4.484   7.388   8.394
13060SOL     OW41138   5.132   7.437   0.168
13060SOL    HW141139   5.036   7.426   0.141
13060SOL    HW241140   5.188   7.370   0.120
13061SOL     OW41141   4.583   6.542   8.309
13061SOL    HW141142   4.637   6.473   8.357
13061SOL    HW241143   4.551   6.611   8.375
13062SOL     OW41144   4.807   6.570   7.535
13062SOL    HW141145   4.784   6.623   7.453
13062SOL    HW241146   4.888   6.514   7.516
13063SOL     OW41147   5.585   7.155   8.299
13063SOL    HW141148   5.514   7.143   8.229
13063SOL    HW241149   5.586   7.076   8.359
13064SOL     OW41150   3.803   6.826   8.101
13064SOL    HW141151   3.802   6.779   8.189
13064SOL    HW241152   3.885   6.798   8.050
13065SOL     OW41153   5.548   5.778   8.675
13065SOL    HW141154   5.544   5.688   8.719
13065SOL    HW241155   5.551   5.767   8.576
13066SOL     OW41156   4.152   6.010   7.968
13066SOL    HW141157   4.182   5.938   7.906
13066SOL    HW241158   4.113   5.970   8.051
13067SOL     OW41159   5.429   7.073   8.552
13067SOL    HW141160   5.336   7.048   8.525
13067SOL    HW241161   5.455   7.023   8.634
13068SOL     OW41162   4.041   6.133   8.728
13068SOL    HW141163   4.079   6.074   8.800
13068SOL    HW241164   4.081   6.107   8.640
13069SOL     OW41165   4.536   7.172   8.135
13069SOL    HW141166   4.568   7.182   8.041
13069SOL    HW241167   4.457   7.110   8.137
13070SOL     OW41168   5.148   5.800   8.560
13070SOL    HW141169   5.200   5.735   8.615
13070SOL    HW241170   5.099   5.863   8.621
13071SOL     OW41171   4.725   5.620   8.602
13071SOL    HW141172   4.662   5.548   8.571
13071SOL    HW241173   4.818   5.584   8.602
13072SOL     OW41174   4.494   6.916   7.749
13072SOL    HW141175   4.448   6.829   7.766
13072SOL    HW241176   4.585   6.913   7.790
13073SOL     OW41177   4.342   7.153   8.732
13073SOL    HW141178   4.337   7.235   8.789
13073SOL    HW241179   4.431   7.150   8.687
13074SOL     OW41180   5.076   5.638   7.616
13074SOL    HW141181   5.111   5.597   7.532
13074SOL    HW241182   4.986   5.600   7.636
13075SOL     OW41183   5.024   6.039   8.139
13075SOL    HW141184   4.965   6.119   8.143
13075SOL    HW241185   5.039   6.004   8.232
13076SOL     OW41186   5.317   5.807   8.330
13076SOL    HW141187   5.233   5.806   8.384
13076SOL    HW241188   5.319   5.890   8.274
13077SOL     OW41189   3.763   6.663   7.748
13077SOL    HW141190   3.862   6.652   7.739
13077SOL    HW241191   3.723   6.577   7.780
13078SOL     OW41192   4.599   7.232   7.785
13078SOL    HW141193   4.522   7.197   7.731
13078SOL    HW241194   4.567   7.303   7.847
13079SOL     OW41195   3.954   8.076   0.113
13079SOL    HW141196   3.861   8.074   0.150
13079SOL    HW241197   3.955   8.037   0.021
13080SOL     OW41198   3.949   7.723   0.996
13080SOL    HW141199   3.984   7.706   1.088
13080SOL    HW241200   3.861   7.678   0.984
13081SOL     OW41201   3.743   7.816   0.647
13081SOL    HW141202   3.661   7.859   0.686
13081SOL    HW241203   3.715   7.743   0.584
13082SOL     OW41204   4.293   8.723   1.165
13082SOL    HW141205   4.200   8.716   1.128
13082SOL    HW241206   4.304   8.812   1.209
13083SOL     OW41207   5.279   8.959   0.703
13083SOL    HW141208   5.222   8.943   0.784
13083SOL    HW241209   5.220   8.969   0.623
13084SOL     OW41210   5.467   8.066   0.856
13084SOL    HW141211   5.500   8.160   0.856
13084SOL    HW241212   5.518   8.012   0.922
13085SOL     OW41213   4.859   8.151   0.717
13085SOL    HW141214   4.916   8.229   0.692
13085SOL    HW241215   4.799   8.177   0.793
13086SOL     OW41216   5.479   8.055   0.231
13086SOL    HW141217   5.467   8.042   0.132
13086SOL    HW241218   5.449   7.974   0.280
13087SOL     OW41219   4.492   8.592   1.023
13087SOL    HW141220   4.414   8.609   1.083
13087SOL    HW241221   4.526   8.679   0.987
13088SOL     OW41222   4.574   8.246   1.823
13088SOL    HW141223   4.570   8.322   1.888
13088SOL    HW241224   4.596   8.282   1.732
13089SOL     OW41225   4.409   8.460   0.665
13089SOL    HW141226   4.478   8.444   0.735
13089SOL    HW241227   4.336   8.517   0.703
13090SOL     OW41228   4.410   8.609   1.803
13090SOL    HW141229   4.470   8.688   1.817
13090SOL    HW241230   4.324   8.640   1.762
13091SOL     OW41231   4.059   8.883   1.061
13091SOL    HW141232   3.981   8.852   1.008
13091SOL    HW241233   4.117   8.941   1.004
13092SOL     OW41234   5.184   8.953   1.339
13092SOL    HW141235   5.208   9.047   1.365
13092SOL    HW241236   5.168   8.899   1.421
13093SOL     OW41237   4.162   7.840   1.499
13093SOL    HW141238   4.244   7.784   1.508
13093SOL    HW241239   4.081   7.782   1.503
13094SOL     OW41240   5.327   7.895   0.737
13094SOL    HW141241   5.253   7.941   0.687
13094SOL    HW241242   5.378   7.963   0.790
13095SOL     OW41243   3.955   0.161   0.483
13095SOL    HW141244   3.989   0.238   0.537
13095SOL    HW241245   3.999   0.161   0.393
13096SOL     OW41246   4.851   8.789   1.690
13096SOL    HW141247   4.898   8.789   1.778
13096SOL    HW241248   4.803   8.702   1.679
13097SOL     OW41249   3.954   8.882   0.538
13097SOL    HW141250   3.928   8.978   0.538
13097SOL    HW241251   3.883   8.828   0.583
13098SOL     OW41252   3.964   8.539   0.886
13098SOL    HW141253   3.978   8.455   0.938
13098SOL    HW241254   3.909   8.603   0.941
13099SOL     OW41255   4.330   8.412   0.123
13099SOL    HW141256   4.337   8.496   0.069
13099SOL    HW241257   4.376   8.425   0.211
13100SOL     OW41258   5.318   7.562   1.480
13100SOL    HW141259   5.300   7.629   1.408
13100SOL    HW241260   5.315   7.608   1.569
13101SOL     OW41261   3.846   8.091   0.563
13101SOL    HW141262   3.801   8.003   0.580
13101SOL    HW241263   3.845   8.145   0.647
13102SOL     OW41264   5.413   8.370   0.612
13102SOL    HW141265   5.508   8.341   0.620
13102SOL    HW241266   5.405   8.435   0.537
13103SOL     OW41267   5.365   8.556   0.432
13103SOL    HW141268   5.451   8.558   0.380
13103SOL    HW241269   5.379   8.603   0.520
13104SOL     OW41270   3.837   8.185   1.597
13104SOL    HW141271   3.925   8.172   1.642
13104SOL    HW241272   3.824   8.282   1.575
13105SOL     OW41273   4.337   8.813   0.726
13105SOL    HW141274   4.288   8.726   0.735
13105SOL    HW241275   4.314   8.856   0.639
13106SOL     OW41276   5.017   8.676   1.423
13106SOL    HW141277   5.054   8.603   1.365
13106SOL    HW241278   5.069   8.681   1.508
13107SOL     OW41279   4.533   7.452   0.502
13107SOL    HW141280   4.573   7.543   0.493
13107SOL    HW241281   4.433   7.460   0.508
13108SOL     OW41282   3.921   8.424   1.264
13108SOL    HW141283   4.010   8.379   1.250
13108SOL    HW241284   3.848   8.359   1.245
13109SOL     OW41285   5.249   8.447   0.190
13109SOL    HW141286   5.186   8.371   0.203
13109SOL    HW241287   5.297   8.465   0.276
13110SOL     OW41288   4.041   7.699   1.801
13110SOL    HW141289   4.112   7.770   1.807
13110SOL    HW241290   3.953   7.738   1.829
13111SOL     OW41291   5.190   8.865   0.953
13111SOL    HW141292   5.131   8.871   1.033
13111SOL    HW241293   5.175   8.777   0.907
13112SOL     OW41294   4.322   8.177   0.270
13112SOL    HW141295   4.346   8.246   0.202
13112SOL    HW241296   4.244   8.210   0.324
13113SOL     OW41297   5.005   7.793   0.944
13113SOL    HW141298   4.919   7.743   0.931
13113SOL    HW241299   5.067   7.739   1.000
13114SOL     OW41300   4.531   8.053   1.465
13114SOL    HW141301   4.484   8.050   1.554
13114SOL    HW241302   4.480   7.998   1.399
13115SOL     OW41303   5.118   7.917   1.674
13115SOL    HW141304   5.098   7.960   1.762
13115SOL    HW241305   5.196   7.855   1.683
13116SOL     OW41306   4.697   8.338   1.572
13116SOL    HW141307   4.743   8.254   1.543
13116SOL    HW241308   4.641   8.372   1.497
13117SOL     OW41309   4.715   7.858   1.242
13117SOL    HW141310   4.638   7.892   1.296
13117SOL    HW241311   4.681   7.807   1.163
13118SOL     OW41312   4.765   8.149   0.429
13118SOL    HW141313   4.791   8.145   0.525
13118SOL    HW241314   4.680   8.098   0.415
13119SOL     OW41315   3.800   8.259   0.789
13119SOL    HW141316   3.899   8.247   0.798
13119SOL    HW241317   3.776   8.354   0.810
13120SOL     OW41318   4.589   7.796   0.195
13120SOL    HW141319   4.648   7.859   0.146
13120SOL    HW241320   4.608   7.702   0.166
13121SOL     OW41321   5.443   8.033   1.831
13121SOL    HW141322   5.417   8.122   1.795
13121SOL    HW241323   5.441   7.965   1.758
13122SOL     OW41324   5.086   8.592   0.545
13122SOL    HW141325   5.169   8.563   0.497
13122SOL    HW241326   5.037   8.659   0.489
13123SOL     OW41327   4.274   7.644   0.885
13123SOL    HW141328   4.269   7.639   0.985
13123SOL    HW241329   4.276   7.740   0.856
13124SOL     OW41330   4.732   8.904   0.477
13124SOL    HW141331   4.686   8.976   0.425
13124SOL    HW241332   4.728   8.924   0.575
13125SOL     OW41333   5.519   8.514   0.873
13125SOL    HW141334   5.457   8.499   0.797
13125SOL    HW241335   5.467   8.525   0.958
13126SOL     OW41336   4.951   8.998   1.506
13126SOL    HW141337   4.957   8.921   1.570
13126SOL    HW241338   4.899   8.972   1.426
13127SOL     OW41339   4.045   8.391   0.242
13127SOL    HW141340   4.127   8.430   0.200
13127SOL    HW241341   4.018   8.309   0.193
13128SOL     OW41342   5.182   8.183   0.728
13128SOL    HW141343   5.177   8.118   0.803
13128SOL    HW241344   5.262   8.242   0.741
13129SOL     OW41345   4.185   8.714   1.727
13129SOL    HW141346   4.135   8.715   1.641
13129SOL    HW241347   4.122   8.696   1.803
13130SOL     OW41348   4.835   0.224   0.237
13130SOL    HW141349   4.775   0.162   0.287
13130SOL    HW241350   4.866   0.180   0.152
13131SOL     OW41351   3.926   7.733   1.498
13131SOL    HW141352   3.846   7.793   1.485
13131SOL    HW241353   3.916   7.684   1.584
13132SOL     OW41354   5.356   8.825   0.081
13132SOL    HW141355   5.324   8.919   0.071
13132SOL    HW241356   5.280   8.762   0.069
13133SOL     OW41357   5.124   7.555   0.426
13133SOL    HW141358   5.100   7.518   0.336
13133SOL    HW241359   5.223   7.571   0.430
13134SOL     OW41360   4.106   8.148   0.480
13134SOL    HW141361   4.151   8.058   0.477
13134SOL    HW241362   4.012   8.137   0.513
13135SOL     OW41363   5.271   7.670   1.729
13135SOL    HW141364   5.266   7.707   1.821
13135SOL    HW241365   5.199   7.601   1.717
13136SOL     OW41366   4.338   7.570   0.117
13136SOL    HW141367   4.436   7.548   0.124
13136SOL    HW241368   4.307   7.553   0.024
13137SOL     OW41369   4.505   7.712   1.749
13137SOL    HW141370   4.572   7.651   1.792
13137SOL    HW241371   4.432   7.731   1.814
13138SOL     OW41372   5.075   8.038   1.433
13138SOL    HW141373   5.103   7.995   1.518
13138SOL    HW241374   5.100   8.134   1.434
13139SOL     OW41375   4.527   8.850   0.924
13139SOL    HW141376   4.617   8.864   0.882
13139SOL    HW241377   4.456   8.852   0.853
13140SOL     OW41378   4.646   7.951   0.899
13140SOL    HW141379   4.621   7.942   0.803
13140SOL    HW241380   4.694   7.869   0.930
13141SOL     OW41381   4.263   7.512   0.512
13141SOL    HW141382   4.182   7.513   0.570
13141SOL    HW241383   4.266   7.595   0.457
13142SOL     OW41384   5.158   8.636   0.041
13142SOL    HW141385   5.190   8.560   0.098
13142SOL    HW241386   5.066   8.663   0.071
13143SOL     OW41387   4.021   7.483   0.171
13143SOL    HW141388   4.070   7.567   0.150
13143SOL    HW241389   4.083   7.418   0.216
13144SOL     OW41390   4.659   7.684   0.480
13144SOL    HW141391   4.611   7.725   0.402
13144SOL    HW241392   4.758   7.682   0.461
13145SOL     OW41393   4.800   8.131   1.464
13145SOL    HW141394   4.720   8.070   1.467
13145SOL    HW241395   4.881   8.078   1.440
13146SOL     OW41396   4.951   0.018   0.793
13146SOL    HW141397   4.972   0.092   0.728
13146SOL    HW241398   5.019   0.018   0.866
13147SOL     OW41399   4.183   8.600   0.741
13147SOL    HW141400   4.112   8.573   0.806
13147SOL    HW241401   4.157   8.572   0.648
13148SOL     OW41402   4.756   7.997   0.016
13148SOL    HW141403   4.715   8.079  -0.023
13148SOL    HW241404   4.820   8.023   0.089
13149SOL     OW41405   3.802   8.004   1.386
13149SOL    HW141406   3.894   8.003   1.345
13149SOL    HW241407   3.796   8.078   1.453
13150SOL     OW41408   4.285   7.670   1.147
13150SOL    HW141409   4.323   7.586   1.184
13150SOL    HW241410   4.197   7.689   1.191
13151SOL     OW41411   4.590   7.902   0.642
13151SOL    HW141412   4.558   7.974   0.580
13151SOL    HW241413   4.614   7.821   0.589
13152SOL     OW41414   4.741   7.487   0.753
13152SOL    HW141415   4.669   7.492   0.684
13152SOL    HW241416   4.717   7.418   0.822
13153SOL     OW41417   5.153   8.621   0.867
13153SOL    HW141418   5.098   8.537   0.860
13153SOL    HW241419   5.179   8.650   0.775
13154SOL     OW41420   5.190   8.038   0.992
13154SOL    HW141421   5.160   7.943   0.999
13154SOL    HW241422   5.263   8.054   1.058
13155SOL     OW41423   5.581   8.281   0.377
13155SOL    HW141424   5.623   8.217   0.441
13155SOL    HW241425   5.543   8.230   0.299
13156SOL     OW41426   4.212   8.833   0.174
13156SOL    HW141427   4.125   8.818   0.221
13156SOL    HW241428   4.195   8.859   0.079
13157SOL     OW41429   5.388   8.728   0.657
13157SOL    HW141430   5.487   8.736   0.671
13157SOL    HW241431   5.343   8.812   0.688
13158SOL     OW41432   5.114   8.023   0.078
13158SOL    HW141433   5.060   8.002   0.159
13158SOL    HW241434   5.205   7.982   0.087
13159SOL     OW41435   4.251   7.704   0.328
13159SOL    HW141436   4.278   7.645   0.253
13159SOL    HW241437   4.251   7.799   0.297
13160SOL     OW41438   5.478   8.671   1.588
13160SOL    HW141439   5.569   8.632   1.575
13160SOL    HW241440   5.486   8.767   1.612
13161SOL     OW41441   4.788   8.795   1.340
13161SOL    HW141442   4.708   8.772   1.395
13161SOL    HW241443   4.871   8.769   1.389
13162SOL     OW41444   4.835   8.643   1.100
13162SOL    HW141445   4.795   8.687   1.181
13162SOL    HW241446   4.794   8.680   1.017
13163SOL     OW41447   5.362   8.547   1.079
13163SOL    HW141448   5.367   8.628   1.138
13163SOL    HW241449   5.276   8.549   1.028
13164SOL     OW41450   4.639   7.537   1.402
13164SOL    HW141451   4.664   7.517   1.307
13164SOL    HW241452   4.711   7.593   1.444
13165SOL     OW41453   4.704   8.564   1.719
13165SOL    HW141454   4.605   8.570   1.729
13165SOL    HW241455   4.727   8.484   1.663
13166SOL     OW41456   4.429   8.498   0.368
13166SOL    HW141457   4.415   8.505   0.467
13166SOL    HW241458   4.513   8.447   0.350
13167SOL     OW41459   4.134   8.261   1.251
13167SOL    HW141460   4.220   8.273   1.301
13167SOL    HW241461   4.092   8.174   1.278
13168SOL     OW41462   4.998   7.834   1.262
13168SOL    HW141463   5.019   7.908   1.326
13168SOL    HW241464   4.909   7.851   1.219
13169SOL     OW41465   4.091   8.548   0.501
13169SOL    HW141466   4.084   8.631   0.445
13169SOL    HW241467   4.095   8.468   0.441
13170SOL     OW41468   4.290   7.985   0.865
13170SOL    HW141469   4.302   8.051   0.791
13170SOL    HW241470   4.336   8.019   0.948
13171SOL     OW41471   4.976   8.796   0.388
13171SOL    HW141472   5.026   8.873   0.428
13171SOL    HW241473   4.881   8.798   0.420
13172SOL     OW41474   4.996   8.893   1.142
13172SOL    HW141475   5.043   8.906   1.229
13172SOL    HW241476   4.930   8.819   1.151
13173SOL     OW41477   5.306   8.087   0.472
13173SOL    HW141478   5.275   8.148   0.545
13173SOL    HW241479   5.356   8.139   0.403
13174SOL     OW41480   4.078   8.958   1.329
13174SOL    HW141481   4.057   8.914   1.242
13174SOL    HW241482   4.175   8.984   1.332
13175SOL     OW41483   4.126   8.199   1.598
13175SOL    HW141484   4.194   8.254   1.551
13175SOL    HW241485   4.166   8.111   1.625
13176SOL     OW41486   5.311   8.227   1.670
13176SOL    HW141487   5.219   8.265   1.665
13176SOL    HW241488   5.371   8.274   1.605
13177SOL     OW41489   4.737   7.553   1.770
13177SOL    HW141490   4.743   7.638   1.718
13177SOL    HW241491   4.769   7.477   1.713
13178SOL     OW41492   4.228   7.498   1.740
13178SOL    HW141493   4.186   7.441   1.670
13178SOL    HW241494   4.162   7.567   1.772
13179SOL     OW41495   4.297   8.318   1.029
13179SOL    HW141496   4.341   8.407   1.020
13179SOL    HW241497   4.234   8.318   1.106
13180SOL     OW41498   5.084   8.310   1.045
13180SOL    HW141499   5.009   8.310   0.979
13180SOL    HW241500   5.121   8.218   1.054
13181SOL     OW41501   4.933   7.973   0.275
13181SOL    HW141502   4.946   7.889   0.329
13181SOL    HW241503   4.904   8.047   0.335
13182SOL     OW41504   4.031   7.661   1.231
13182SOL    HW141505   4.008   7.698   1.321
13182SOL    HW241506   4.001   7.566   1.225
13183SOL     OW41507   3.761   8.758   1.282
13183SOL    HW141508   3.814   8.709   1.350
13183SOL    HW241509   3.783   8.856   1.287
13184SOL     OW41510   4.456   8.082   1.064
13184SOL    HW141511   4.515   8.056   0.988
13184SOL    HW241512   4.428   8.178   1.053
13185SOL     OW41513   5.452   8.383   1.854
13185SOL    HW141514   5.406   8.376   1.765
13185SOL    HW241515   5.390   8.427   1.920
13186SOL     OW41516   4.031   7.511   0.618
13186SOL    HW141517   4.020   7.605   0.651
13186SOL    HW241518   4.026   7.448   0.695
13187SOL     OW41519   5.346   7.815   0.374
13187SOL    HW141520   5.348   7.739   0.438
13187SOL    HW241521   5.298   7.892   0.414
13188SOL     OW41522   4.747   8.214   0.966
13188SOL    HW141523   4.762   8.235   1.062
13188SOL    HW241524   4.717   8.119   0.957
13189SOL     OW41525   5.583   8.966   1.605
13189SOL    HW141526   5.597   8.993   1.510
13189SOL    HW241527   5.666   8.988   1.658
13190SOL     OW41528   4.074   8.346   1.804
13190SOL    HW141529   4.150   8.390   1.852
13190SOL    HW241530   4.109   8.299   1.722
13191SOL     OW41531   5.264   7.722   0.125
13191SOL    HW141532   5.203   7.647   0.148
13191SOL    HW241533   5.286   7.774   0.208
13192SOL     OW41534   5.027   8.286   0.042
13192SOL    HW141535   5.061   8.193   0.057
13192SOL    HW241536   5.045   8.313  -0.053
13193SOL     OW41537   4.792   8.781   0.849
13193SOL    HW141538   4.799   8.697   0.794
13193SOL    HW241539   4.854   8.850   0.813
13194SOL     OW41540   4.043   8.258   0.949
13194SOL    HW141541   4.136   8.294   0.954
13194SOL    HW241542   4.037   8.173   1.001
13195SOL     OW41543   4.063   7.957   1.006
13195SOL    HW141544   4.011   7.874   0.989
13195SOL    HW241545   4.140   7.962   0.942
13196SOL     OW41546   4.235   7.863   1.808
13196SOL    HW141547   4.217   7.908   1.896
13196SOL    HW241548   4.277   7.928   1.745
13197SOL     OW41549   4.862   7.828   1.678
13197SOL    HW141550   4.817   7.891   1.742
13197SOL    HW241551   4.955   7.859   1.661
13198SOL     OW41552   4.884   7.655   1.477
13198SOL    HW141553   4.884   7.719   1.554
13198SOL    HW241554   4.912   7.703   1.394
13199SOL     OW41555   3.732   8.774   0.200
13199SOL    HW141556   3.639   8.795   0.169
13199SOL    HW241557   3.742   8.675   0.213
13200SOL     OW41558   4.726   8.244   1.238
13200SOL    HW141559   4.767   8.212   1.324
13200SOL    HW241560   4.630   8.217   1.235
13201SOL     OW41561   3.764   7.992   1.114
13201SOL    HW141562   3.849   7.959   1.073
13201SOL    HW241563   3.777   8.007   1.212
13202SOL     OW41564   3.913   7.968   1.722
13202SOL    HW141565   3.972   7.928   1.652
13202SOL    HW241566   3.855   8.039   1.681
13203SOL     OW41567   5.093   8.398   1.660
13203SOL    HW141568   5.132   8.487   1.680
13203SOL    HW241569   5.103   8.378   1.563
13204SOL     OW41570   4.539   8.020   0.325
13204SOL    HW141571   4.546   7.931   0.279
13204SOL    HW241572   4.445   8.054   0.317
13205SOL     OW41573   5.381   8.052   1.206
13205SOL    HW141574   5.343   7.983   1.268
13205SOL    HW241575   5.463   8.016   1.162
13206SOL     OW41576   3.976   0.012   1.744
13206SOL    HW141577   3.946   0.069   1.820
13206SOL    HW241578   3.969  -0.085   1.770
13207SOL     OW41579   4.395   7.912   1.269
13207SOL    HW141580   4.361   7.823   1.239
13207SOL    HW241581   4.421   7.966   1.189
13208SOL     OW41582   4.197   7.948   0.191
13208SOL    HW141583   4.258   8.028   0.195
13208SOL    HW241584   4.102   7.979   0.198
13209SOL     OW41585   3.883   8.585   1.466
13209SOL    HW141586   3.905   8.524   1.542
13209SOL    HW241587   3.893   8.536   1.380
13210SOL     OW41588   5.071   8.507   1.234
13210SOL    HW141589   5.095   8.444   1.160
13210SOL    HW241590   4.981   8.547   1.216
13211SOL     OW41591   5.026   8.303   0.309
13211SOL    HW141592   4.940   8.272   0.351
13211SOL    HW241593   5.022   8.289   0.210
13212SOL     OW41594   3.807   8.706   1.022
13212SOL    HW141595   3.802   8.705   1.122
13212SOL    HW241596   3.724   8.665   0.984
13213SOL     OW41597   4.627   7.534   0.133
13213SOL    HW141598   4.678   7.535   0.047
13213SOL    HW241599   4.683   7.492   0.204
13214SOL     OW41600   5.450   7.583   0.523
13214SOL    HW141601   5.523   7.566   0.456
13214SOL    HW241602   5.419   7.496   0.561
13215SOL     OW41603   5.004   8.375   0.672
13215SOL    HW141604   5.064   8.294   0.674
13215SOL    HW241605   5.044   8.444   0.612
13216SOL     OW41606   4.554   8.721   1.422
13216SOL    HW141607   4.549   8.754   1.517
13216SOL    HW241608   4.468   8.740   1.376
13217SOL     OW41609   5.565   7.623   0.963
13217SOL    HW141610   5.604   7.538   0.927
13217SOL    HW241611   5.467   7.625   0.944
13218SOL     OW41612   3.987   7.774   0.720
13218SOL    HW141613   3.908   7.825   0.686
13218SOL    HW241614   3.978   7.759   0.818
13219SOL     OW41615   4.546   8.450   1.372
13219SOL    HW141616   4.586   8.449   1.280
13219SOL    HW241617   4.556   8.542   1.412
13220SOL     OW41618   4.640   8.358   0.291
13220SOL    HW141619   4.703   8.396   0.223
13220SOL    HW241620   4.680   8.275   0.330
13221SOL     OW41621   4.096   8.736   1.490
13221SOL    HW141622   4.083   8.829   1.456
13221SOL    HW241623   4.012   8.684   1.477
13222SOL     OW41624   5.338   8.740   1.289
13222SOL    HW141625   5.398   8.743   1.369
13222SOL    HW241626   5.263   8.804   1.302
13223SOL     OW41627   4.763   8.546   0.696
13223SOL    HW141628   4.693   8.499   0.750
13223SOL    HW241629   4.822   8.478   0.653
13224SOL     OW41630   4.738   7.684   0.971
13224SOL    HW141631   4.730   7.648   0.878
13224SOL    HW241632   4.736   7.608   1.036
13225SOL     OW41633   5.433   7.833   1.381
13225SOL    HW141634   5.506   7.902   1.385
13225SOL    HW241635   5.461   7.758   1.322
13226SOL     OW41636   3.979   8.796   0.290
13226SOL    HW141637   3.883   8.797   0.263
13226SOL    HW241638   3.991   8.849   0.374
13227SOL     OW41639   3.829   8.461   1.726
13227SOL    HW141640   3.752   8.428   1.780
13227SOL    HW241641   3.914   8.431   1.768
13228SOL     OW41642   4.396   7.651   1.489
13228SOL    HW141643   4.486   7.635   1.449
13228SOL    HW241644   4.404   7.656   1.588
13229SOL     OW41645   5.164   8.304   1.398
13229SOL    HW141646   5.107   8.356   1.335
13229SOL    HW241647   5.260   8.316   1.374
13230SOL     OW41648   3.796   7.614   0.318
13230SOL    HW141649   3.779   7.697   0.264
13230SOL    HW241650   3.886   7.577   0.296
13231SOL     OW41651   4.907   8.783   0.119
13231SOL    HW141652   4.808   8.772   0.121
13231SOL    HW241653   4.941   8.798   0.212
13232SOL     OW41654   4.337   8.290   1.431
13232SOL    HW141655   4.393   8.371   1.414
13232SOL    HW241656   4.396   8.210   1.434
13233SOL     OW41657   4.440   8.013   1.708
13233SOL    HW141658   4.459   8.078   1.782
13233SOL    HW241659   4.500   7.933   1.717
13234SOL     OW41660   5.174   8.668   1.633
13234SOL    HW141661   5.165   8.658   1.732
13234SOL    HW241662   5.270   8.661   1.607
13235SOL     OW41663   5.398   8.331   1.254
13235SOL    HW141664   5.371   8.242   1.217
13235SOL    HW241665   5.399   8.399   1.181
13236SOL     OW41666   4.949   7.773   0.449
13236SOL    HW141667   5.014   7.699   0.438
13236SOL    HW241668   4.969   7.823   0.533
13237SOL     OW41669   4.318   8.193   0.652
13237SOL    HW141670   4.368   8.278   0.633
13237SOL    HW241671   4.230   8.195   0.604
13238SOL     OW41672   5.501   7.790   1.642
13238SOL    HW141673   5.484   7.821   1.548
13238SOL    HW241674   5.417   7.753   1.680
13239SOL     OW41675   5.454   8.382   1.517
13239SOL    HW141676   5.492   8.473   1.532
13239SOL    HW241677   5.446   8.365   1.418
13240SOL     OW41678   4.583   8.822   0.016
13240SOL    HW141679   4.537   8.837   0.104
13240SOL    HW241680   4.627   8.907  -0.014
13241SOL     OW41681   4.583   8.404   0.861
13241SOL    HW141682   4.637   8.335   0.909
13241SOL    HW241683   4.551   8.473   0.927
13242SOL     OW41684   4.807   8.432   0.087
13242SOL    HW141685   4.784   8.485   0.005
13242SOL    HW241686   4.888   8.376   0.068
13243SOL     OW41687   3.945   8.762   1.844
13243SOL    HW141688   3.880   8.689   1.823
13243SOL    HW241689   3.949   8.776   1.942
13244SOL     OW41690   3.803   8.688   0.653
13244SOL    HW141691   3.802   8.641   0.741
13244SOL    HW241692   3.885   8.660   0.602
13245SOL     OW41693   4.396   8.839   1.624
13245SOL    HW141694   4.318   8.789   1.662
13245SOL    HW241695   4.393   8.934   1.655
13246SOL     OW41696   5.548   7.640   1.227
13246SOL    HW141697   5.544   7.550   1.271
13246SOL    HW241698   5.551   7.629   1.128
13247SOL     OW41699   4.152   7.872   0.520
13247SOL    HW141700   4.182   7.800   0.458
13247SOL    HW241701   4.113   7.832   0.603
13248SOL     OW41702   5.429   8.935   1.104
13248SOL    HW141703   5.336   8.910   1.077
13248SOL    HW241704   5.455   8.885   1.186
13249SOL     OW41705   4.041   7.995   1.280
13249SOL    HW141706   4.079   7.936   1.352
13249SOL    HW241707   4.081   7.969   1.192
13250SOL     OW41708   5.148   7.662   1.112
13250SOL    HW141709   5.200   7.597   1.167
13250SOL    HW241710   5.099   7.725   1.173
13251SOL     OW41711   4.725   7.482   1.154
13251SOL    HW141712   4.662   7.410   1.123
13251SOL    HW241713   4.818   7.446   1.154
13252SOL     OW41714   4.494   8.778   0.301
13252SOL    HW141715   4.448   8.691   0.318
13252SOL    HW241716   4.585   8.775   0.342
13253SOL     OW41717   4.342   0.015   1.284
13253SOL    HW141718   4.337   0.097   1.341
13253SOL    HW241719   4.431   0.012   1.239
13254SOL     OW41720   5.024   7.901   0.691
13254SOL    HW141721   4.965   7.981   0.695
13254SOL    HW241722   5.039   7.866   0.784
13255SOL     OW41723   5.317   7.669   0.882
13255SOL    HW141724   5.233   7.668   0.936
13255SOL    HW241725   5.319   7.752   0.826
13256SOL     OW41726   3.763   8.525   0.300
13256SOL    HW141727   3.862   8.514   0.291
13256SOL    HW241728   3.723   8.439   0.332
13257SOL     OW41729   3.954   8.076   1.975
13257SOL    HW141730   3.861   8.074   2.012
13257SOL    HW241731   3.955   8.037   1.883
13258SOL     OW41732   3.949   7.723   2.858
13258SOL    HW141733   3.984   7.706   2.950
13258SOL    HW241734   3.861   7.678   2.846
13259SOL     OW41735   3.743   7.816   2.509
13259SOL    HW141736   3.661   7.859   2.548
13259SOL    HW241737   3.715   7.743   2.446
13260SOL     OW41738   4.293   8.723   3.027
13260SOL    HW141739   4.200   8.716   2.990
13260SOL    HW241740   4.304   8.812   3.071
13261SOL     OW41741   5.279   8.959   2.565
13261SOL    HW141742   5.222   8.943   2.646
13261SOL    HW241743   5.220   8.969   2.485
13262SOL     OW41744   5.467   8.066   2.718
13262SOL    HW141745   5.500   8.160   2.718
13262SOL    HW241746   5.518   8.012   2.784
13263SOL     OW41747   4.859   8.151   2.579
13263SOL    HW141748   4.916   8.229   2.554
13263SOL    HW241749   4.799   8.177   2.655
13264SOL     OW41750   5.479   8.055   2.093
13264SOL    HW141751   5.467   8.042   1.994
13264SOL    HW241752   5.449   7.974   2.142
13265SOL     OW41753   4.492   8.592   2.885
13265SOL    HW141754   4.414   8.609   2.945
13265SOL    HW241755   4.526   8.679   2.849
13266SOL     OW41756   4.574   8.246   3.685
13266SOL    HW141757   4.570   8.322   3.750
13266SOL    HW241758   4.596   8.282   3.594
13267SOL     OW41759   4.409   8.460   2.527
13267SOL    HW141760   4.478   8.444   2.597
13267SOL    HW241761   4.336   8.517   2.565
13268SOL     OW41762   4.410   8.609   3.665
13268SOL    HW141763   4.470   8.688   3.679
13268SOL    HW241764   4.324   8.640   3.624
13269SOL     OW41765   4.059   8.883   2.923
13269SOL    HW141766   3.981   8.852   2.870
13269SOL    HW241767   4.117   8.941   2.866
13270SOL     OW41768   5.184   8.953   3.201
13270SOL    HW141769   5.208   9.047   3.227
13270SOL    HW241770   5.168   8.899   3.283
13271SOL     OW41771   4.162   7.840   3.361
13271SOL    HW141772   4.244   7.784   3.370
13271SOL    HW241773   4.081   7.782   3.365
13272SOL     OW41774   5.327   7.895   2.599
13272SOL    HW141775   5.253   7.941   2.549
13272SOL    HW241776   5.378   7.963   2.652
13273SOL     OW41777   3.955   0.161   2.345
13273SOL    HW141778   3.989   0.238   2.399
13273SOL    HW241779   3.999   0.161   2.255
13274SOL     OW41780   4.851   8.789   3.552
13274SOL    HW141781   4.898   8.789   3.640
13274SOL    HW241782   4.803   8.702   3.541
13275SOL     OW41783   3.954   8.882   2.400
13275SOL    HW141784   3.928   8.978   2.400
13275SOL    HW241785   3.883   8.828   2.445
13276SOL     OW41786   3.964   8.539   2.748
13276SOL    HW141787   3.978   8.455   2.800
13276SOL    HW241788   3.909   8.603   2.803
13277SOL     OW41789   4.330   8.412   1.985
13277SOL    HW141790   4.337   8.496   1.931
13277SOL    HW241791   4.376   8.425   2.073
13278SOL     OW41792   5.318   7.562   3.342
13278SOL    HW141793   5.300   7.629   3.270
13278SOL    HW241794   5.315   7.608   3.431
13279SOL     OW41795   3.846   8.091   2.425
13279SOL    HW141796   3.801   8.003   2.442
13279SOL    HW241797   3.845   8.145   2.509
13280SOL     OW41798   3.751   0.044   1.979
13280SOL    HW141799   3.732  -0.052   2.000
13280SOL    HW241800   3.718   0.102   2.054
13281SOL     OW41801   5.413   8.370   2.474
13281SOL    HW141802   5.508   8.341   2.482
13281SOL    HW241803   5.405   8.435   2.399
13282SOL     OW41804   5.365   8.556   2.294
13282SOL    HW141805   5.451   8.558   2.242
13282SOL    HW241806   5.379   8.603   2.382
13283SOL     OW41807   3.837   8.185   3.459
13283SOL    HW141808   3.925   8.172   3.504
13283SOL    HW241809   3.824   8.282   3.437
13284SOL     OW41810   4.337   8.813   2.588
13284SOL    HW141811   4.288   8.726   2.597
13284SOL    HW241812   4.314   8.856   2.501
13285SOL     OW41813   5.017   8.676   3.285
13285SOL    HW141814   5.054   8.603   3.227
13285SOL    HW241815   5.069   8.681   3.370
13286SOL     OW41816   4.533   7.452   2.364
13286SOL    HW141817   4.573   7.543   2.355
13286SOL    HW241818   4.433   7.460   2.370
13287SOL     OW41819   3.921   8.424   3.126
13287SOL    HW141820   4.010   8.379   3.112
13287SOL    HW241821   3.848   8.359   3.107
13288SOL     OW41822   5.249   8.447   2.052
13288SOL    HW141823   5.186   8.371   2.065
13288SOL    HW241824   5.297   8.465   2.138
13289SOL     OW41825   4.041   7.699   3.663
13289SOL    HW141826   4.112   7.770   3.669
13289SOL    HW241827   3.953   7.738   3.691
13290SOL     OW41828   5.190   8.865   2.815
13290SOL    HW141829   5.131   8.871   2.895
13290SOL    HW241830   5.175   8.777   2.769
13291SOL     OW41831   4.322   8.177   2.132
13291SOL    HW141832   4.346   8.246   2.064
13291SOL    HW241833   4.244   8.210   2.186
13292SOL     OW41834   5.005   7.793   2.806
13292SOL    HW141835   4.919   7.743   2.793
13292SOL    HW241836   5.067   7.739   2.862
13293SOL     OW41837   4.531   8.053   3.327
13293SOL    HW141838   4.484   8.050   3.416
13293SOL    HW241839   4.480   7.998   3.261
13294SOL     OW41840   5.118   7.917   3.536
13294SOL    HW141841   5.098   7.960   3.624
13294SOL    HW241842   5.196   7.855   3.545
13295SOL     OW41843   4.697   8.338   3.434
13295SOL    HW141844   4.743   8.254   3.405
13295SOL    HW241845   4.641   8.372   3.359
13296SOL     OW41846   4.715   7.858   3.104
13296SOL    HW141847   4.638   7.892   3.158
13296SOL    HW241848   4.681   7.807   3.025
13297SOL     OW41849   4.765   8.149   2.291
13297SOL    HW141850   4.791   8.145   2.387
13297SOL    HW241851   4.680   8.098   2.277
13298SOL     OW41852   3.800   8.259   2.651
13298SOL    HW141853   3.899   8.247   2.660
13298SOL    HW241854   3.776   8.354   2.672
13299SOL     OW41855   4.589   7.796   2.057
13299SOL    HW141856   4.648   7.859   2.008
13299SOL    HW241857   4.608   7.702   2.028
13300SOL     OW41858   5.443   8.033   3.693
13300SOL    HW141859   5.417   8.122   3.657
13300SOL    HW241860   5.441   7.965   3.620
13301SOL     OW41861   5.086   8.592   2.407
13301SOL    HW141862   5.169   8.563   2.359
13301SOL    HW241863   5.037   8.659   2.351
13302SOL     OW41864   4.274   7.644   2.747
13302SOL    HW141865   4.269   7.639   2.847
13302SOL    HW241866   4.276   7.740   2.718
13303SOL     OW41867   4.732   8.904   2.339
13303SOL    HW141868   4.686   8.976   2.287
13303SOL    HW241869   4.728   8.924   2.437
13304SOL     OW41870   5.519   8.514   2.735
13304SOL    HW141871   5.457   8.499   2.659
13304SOL    HW241872   5.467   8.525   2.820
13305SOL     OW41873   4.951   8.998   3.368
13305SOL    HW141874   4.957   8.921   3.432
13305SOL    HW241875   4.899   8.972   3.288
13306SOL     OW41876   4.045   8.391   2.104
13306SOL    HW141877   4.127   8.430   2.062
13306SOL    HW241878   4.018   8.309   2.055
13307SOL     OW41879   5.182   8.183   2.590
13307SOL    HW141880   5.177   8.118   2.665
13307SOL    HW241881   5.262   8.242   2.603
13308SOL     OW41882   4.185   8.714   3.589
13308SOL    HW141883   4.135   8.715   3.503
13308SOL    HW241884   4.122   8.696   3.665
13309SOL     OW41885   4.835   0.224   2.099
13309SOL    HW141886   4.775   0.162   2.149
13309SOL    HW241887   4.866   0.180   2.014
13310SOL     OW41888   3.926   7.733   3.360
13310SOL    HW141889   3.846   7.793   3.347
13310SOL    HW241890   3.916   7.684   3.446
13311SOL     OW41891   5.356   8.825   1.943
13311SOL    HW141892   5.324   8.919   1.933
13311SOL    HW241893   5.280   8.762   1.931
13312SOL     OW41894   5.124   7.555   2.288
13312SOL    HW141895   5.100   7.518   2.198
13312SOL    HW241896   5.223   7.571   2.292
13313SOL     OW41897   4.106   8.148   2.342
13313SOL    HW141898   4.151   8.058   2.339
13313SOL    HW241899   4.012   8.137   2.375
13314SOL     OW41900   5.271   7.670   3.591
13314SOL    HW141901   5.266   7.707   3.683
13314SOL    HW241902   5.199   7.601   3.579
13315SOL     OW41903   4.338   7.570   1.979
13315SOL    HW141904   4.436   7.548   1.986
13315SOL    HW241905   4.307   7.553   1.886
13316SOL     OW41906   4.505   7.712   3.611
13316SOL    HW141907   4.572   7.651   3.654
13316SOL    HW241908   4.432   7.731   3.676
13317SOL     OW41909   5.075   8.038   3.295
13317SOL    HW141910   5.103   7.995   3.380
13317SOL    HW241911   5.100   8.134   3.296
13318SOL     OW41912   4.527   8.850   2.786
13318SOL    HW141913   4.617   8.864   2.744
13318SOL    HW241914   4.456   8.852   2.715
13319SOL     OW41915   4.646   7.951   2.761
13319SOL    HW141916   4.621   7.942   2.665
13319SOL    HW241917   4.694   7.869   2.792
13320SOL     OW41918   4.263   7.512   2.374
13320SOL    HW141919   4.182   7.513   2.432
13320SOL    HW241920   4.266   7.595   2.319
13321SOL     OW41921   5.158   8.636   1.903
13321SOL    HW141922   5.190   8.560   1.960
13321SOL    HW241923   5.066   8.663   1.933
13322SOL     OW41924   4.021   7.483   2.033
13322SOL    HW141925   4.070   7.567   2.012
13322SOL    HW241926   4.083   7.418   2.078
13323SOL     OW41927   4.659   7.684   2.342
13323SOL    HW141928   4.611   7.725   2.264
13323SOL    HW241929   4.758   7.682   2.323
13324SOL     OW41930   4.800   8.131   3.326
13324SOL    HW141931   4.720   8.070   3.329
13324SOL    HW241932   4.881   8.078   3.302
13325SOL     OW41933   4.951   0.018   2.655
13325SOL    HW141934   4.972   0.092   2.590
13325SOL    HW241935   5.019   0.018   2.728
13326SOL     OW41936   4.183   8.600   2.603
13326SOL    HW141937   4.112   8.573   2.668
13326SOL    HW241938   4.157   8.572   2.510
13327SOL     OW41939   4.756   7.997   1.878
13327SOL    HW141940   4.715   8.079   1.839
13327SOL    HW241941   4.820   8.023   1.951
13328SOL     OW41942   3.802   8.004   3.248
13328SOL    HW141943   3.894   8.003   3.207
13328SOL    HW241944   3.796   8.078   3.315
13329SOL     OW41945   4.285   7.670   3.009
13329SOL    HW141946   4.323   7.586   3.046
13329SOL    HW241947   4.197   7.689   3.053
13330SOL     OW41948   4.590   7.902   2.504
13330SOL    HW141949   4.558   7.974   2.442
13330SOL    HW241950   4.614   7.821   2.451
13331SOL     OW41951   4.741   7.487   2.615
13331SOL    HW141952   4.669   7.492   2.546
13331SOL    HW241953   4.717   7.418   2.684
13332SOL     OW41954   5.153   8.621   2.729
13332SOL    HW141955   5.098   8.537   2.722
13332SOL    HW241956   5.179   8.650   2.637
13333SOL     OW41957   5.190   8.038   2.854
13333SOL    HW141958   5.160   7.943   2.861
13333SOL    HW241959   5.263   8.054   2.920
13334SOL     OW41960   5.581   8.281   2.239
13334SOL    HW141961   5.623   8.217   2.303
13334SOL    HW241962   5.543   8.230   2.161
13335SOL     OW41963   4.212   8.833   2.036
13335SOL    HW141964   4.125   8.818   2.083
13335SOL    HW241965   4.195   8.859   1.941
13336SOL     OW41966   5.388   8.728   2.519
13336SOL    HW141967   5.487   8.736   2.533
13336SOL    HW241968   5.343   8.812   2.550
13337SOL     OW41969   5.114   8.023   1.940
13337SOL    HW141970   5.060   8.002   2.021
13337SOL    HW241971   5.205   7.982   1.949
13338SOL     OW41972   4.251   7.704   2.190
13338SOL    HW141973   4.278   7.645   2.115
13338SOL    HW241974   4.251   7.799   2.159
13339SOL     OW41975   5.478   8.671   3.450
13339SOL    HW141976   5.569   8.632   3.437
13339SOL    HW241977   5.486   8.767   3.474
13340SOL     OW41978   4.788   8.795   3.202
13340SOL    HW141979   4.708   8.772   3.257
13340SOL    HW241980   4.871   8.769   3.251
13341SOL     OW41981   4.835   8.643   2.962
13341SOL    HW141982   4.795   8.687   3.043
13341SOL    HW241983   4.794   8.680   2.879
13342SOL     OW41984   5.362   8.547   2.941
13342SOL    HW141985   5.367   8.628   3.000
13342SOL    HW241986   5.276   8.549   2.890
13343SOL     OW41987   4.639   7.537   3.264
13343SOL    HW141988   4.664   7.517   3.169
13343SOL    HW241989   4.711   7.593   3.306
13344SOL     OW41990   4.704   8.564   3.581
13344SOL    HW141991   4.605   8.570   3.591
13344SOL    HW241992   4.727   8.484   3.525
13345SOL     OW41993   4.429   8.498   2.230
13345SOL    HW141994   4.415   8.505   2.329
13345SOL    HW241995   4.513   8.447   2.212
13346SOL     OW41996   4.134   8.261   3.113
13346SOL    HW141997   4.220   8.273   3.163
13346SOL    HW241998   4.092   8.174   3.140
13347SOL     OW41999   4.998   7.834   3.124
13347SOL    HW142000   5.019   7.908   3.188
13347SOL    HW242001   4.909   7.851   3.081
13348SOL     OW42002   4.091   8.548   2.363
13348SOL    HW142003   4.084   8.631   2.307
13348SOL    HW242004   4.095   8.468   2.303
13349SOL     OW42005   4.290   7.985   2.727
13349SOL    HW142006   4.302   8.051   2.653
13349SOL    HW242007   4.336   8.019   2.810
13350SOL     OW42008   4.976   8.796   2.250
13350SOL    HW142009   5.026   8.873   2.290
13350SOL    HW242010   4.881   8.798   2.282
13351SOL     OW42011   4.996   8.893   3.004
13351SOL    HW142012   5.043   8.906   3.091
13351SOL    HW242013   4.930   8.819   3.013
13352SOL     OW42014   5.306   8.087   2.334
13352SOL    HW142015   5.275   8.148   2.407
13352SOL    HW242016   5.356   8.139   2.265
13353SOL     OW42017   4.078   8.958   3.191
13353SOL    HW142018   4.057   8.914   3.104
13353SOL    HW242019   4.175   8.984   3.194
13354SOL     OW42020   4.126   8.199   3.460
13354SOL    HW142021   4.194   8.254   3.413
13354SOL    HW242022   4.166   8.111   3.487
13355SOL     OW42023   5.311   8.227   3.532
13355SOL    HW142024   5.219   8.265   3.527
13355SOL    HW242025   5.371   8.274   3.467
13356SOL     OW42026   4.737   7.553   3.632
13356SOL    HW142027   4.743   7.638   3.580
13356SOL    HW242028   4.769   7.477   3.575
13357SOL     OW42029   4.228   7.498   3.602
13357SOL    HW142030   4.186   7.441   3.532
13357SOL    HW242031   4.162   7.567   3.634
13358SOL     OW42032   4.297   8.318   2.891
13358SOL    HW142033   4.341   8.407   2.882
13358SOL    HW242034   4.234   8.318   2.968
13359SOL     OW42035   5.084   8.310   2.907
13359SOL    HW142036   5.009   8.310   2.841
13359SOL    HW242037   5.121   8.218   2.916
13360SOL     OW42038   4.933   7.973   2.137
13360SOL    HW142039   4.946   7.889   2.191
13360SOL    HW242040   4.904   8.047   2.197
13361SOL     OW42041   4.031   7.661   3.093
13361SOL    HW142042   4.008   7.698   3.183
13361SOL    HW242043   4.001   7.566   3.087
13362SOL     OW42044   3.761   8.758   3.144
13362SOL    HW142045   3.814   8.709   3.212
13362SOL    HW242046   3.783   8.856   3.149
13363SOL     OW42047   4.456   8.082   2.926
13363SOL    HW142048   4.515   8.056   2.850
13363SOL    HW242049   4.428   8.178   2.915
13364SOL     OW42050   5.452   8.383   3.716
13364SOL    HW142051   5.406   8.376   3.627
13364SOL    HW242052   5.390   8.427   3.782
13365SOL     OW42053   4.031   7.511   2.480
13365SOL    HW142054   4.020   7.605   2.513
13365SOL    HW242055   4.026   7.448   2.557
13366SOL     OW42056   5.346   7.815   2.236
13366SOL    HW142057   5.348   7.739   2.300
13366SOL    HW242058   5.298   7.892   2.276
13367SOL     OW42059   4.747   8.214   2.828
13367SOL    HW142060   4.762   8.235   2.924
13367SOL    HW242061   4.717   8.119   2.819
13368SOL     OW42062   5.583   8.966   3.467
13368SOL    HW142063   5.597   8.993   3.372
13368SOL    HW242064   5.666   8.988   3.520
13369SOL     OW42065   4.074   8.346   3.666
13369SOL    HW142066   4.150   8.390   3.714
13369SOL    HW242067   4.109   8.299   3.584
13370SOL     OW42068   5.264   7.722   1.987
13370SOL    HW142069   5.203   7.647   2.010
13370SOL    HW242070   5.286   7.774   2.070
13371SOL     OW42071   5.027   8.286   1.904
13371SOL    HW142072   5.061   8.193   1.919
13371SOL    HW242073   5.045   8.313   1.809
13372SOL     OW42074   4.792   8.781   2.711
13372SOL    HW142075   4.799   8.697   2.656
13372SOL    HW242076   4.854   8.850   2.675
13373SOL     OW42077   4.043   8.258   2.811
13373SOL    HW142078   4.136   8.294   2.816
13373SOL    HW242079   4.037   8.173   2.863
13374SOL     OW42080   4.063   7.957   2.868
13374SOL    HW142081   4.011   7.874   2.851
13374SOL    HW242082   4.140   7.962   2.804
13375SOL     OW42083   4.235   7.863   3.670
13375SOL    HW142084   4.217   7.908   3.758
13375SOL    HW242085   4.277   7.928   3.607
13376SOL     OW42086   4.862   7.828   3.540
13376SOL    HW142087   4.817   7.891   3.604
13376SOL    HW242088   4.955   7.859   3.523
13377SOL     OW42089   4.884   7.655   3.339
13377SOL    HW142090   4.884   7.719   3.416
13377SOL    HW242091   4.912   7.703   3.256
13378SOL     OW42092   3.732   8.774   2.062
13378SOL    HW142093   3.639   8.795   2.031
13378SOL    HW242094   3.742   8.675   2.075
13379SOL     OW42095   4.726   8.244   3.100
13379SOL    HW142096   4.767   8.212   3.186
13379SOL    HW242097   4.630   8.217   3.097
13380SOL     OW42098   3.764   7.992   2.976
13380SOL    HW142099   3.849   7.959   2.935
13380SOL    HW242100   3.777   8.007   3.074
13381SOL     OW42101   3.913   7.968   3.584
13381SOL    HW142102   3.972   7.928   3.514
13381SOL    HW242103   3.855   8.039   3.543
13382SOL     OW42104   5.093   8.398   3.522
13382SOL    HW142105   5.132   8.487   3.542
13382SOL    HW242106   5.103   8.378   3.425
13383SOL     OW42107   4.539   8.020   2.187
13383SOL    HW142108   4.546   7.931   2.141
13383SOL    HW242109   4.445   8.054   2.179
13384SOL     OW42110   5.381   8.052   3.068
13384SOL    HW142111   5.343   7.983   3.130
13384SOL    HW242112   5.463   8.016   3.024
13385SOL     OW42113   3.976   0.012   3.606
13385SOL    HW142114   3.946   0.069   3.682
13385SOL    HW242115   3.969  -0.085   3.632
13386SOL     OW42116   4.395   7.912   3.131
13386SOL    HW142117   4.361   7.823   3.101
13386SOL    HW242118   4.421   7.966   3.051
13387SOL     OW42119   4.197   7.948   2.053
13387SOL    HW142120   4.258   8.028   2.057
13387SOL    HW242121   4.102   7.979   2.060
13388SOL     OW42122   3.883   8.585   3.328
13388SOL    HW142123   3.905   8.524   3.404
13388SOL    HW242124   3.893   8.536   3.242
13389SOL     OW42125   5.071   8.507   3.096
13389SOL    HW142126   5.095   8.444   3.022
13389SOL    HW242127   4.981   8.547   3.078
13390SOL     OW42128   5.026   8.303   2.171
13390SOL    HW142129   4.940   8.272   2.213
13390SOL    HW242130   5.022   8.289   2.072
13391SOL     OW42131   3.807   8.706   2.884
13391SOL    HW142132   3.802   8.705   2.984
13391SOL    HW242133   3.724   8.665   2.846
13392SOL     OW42134   4.627   7.534   1.995
13392SOL    HW142135   4.678   7.535   1.909
13392SOL    HW242136   4.683   7.492   2.066
13393SOL     OW42137   5.450   7.583   2.385
13393SOL    HW142138   5.523   7.566   2.318
13393SOL    HW242139   5.419   7.496   2.423
13394SOL     OW42140   5.004   8.375   2.534
13394SOL    HW142141   5.064   8.294   2.536
13394SOL    HW242142   5.044   8.444   2.474
13395SOL     OW42143   4.554   8.721   3.284
13395SOL    HW142144   4.549   8.754   3.379
13395SOL    HW242145   4.468   8.740   3.238
13396SOL     OW42146   5.565   7.623   2.825
13396SOL    HW142147   5.604   7.538   2.789
13396SOL    HW242148   5.467   7.625   2.806
13397SOL     OW42149   3.987   7.774   2.582
13397SOL    HW142150   3.908   7.825   2.548
13397SOL    HW242151   3.978   7.759   2.680
13398SOL     OW42152   4.546   8.450   3.234
13398SOL    HW142153   4.586   8.449   3.142
13398SOL    HW242154   4.556   8.542   3.274
13399SOL     OW42155   4.640   8.358   2.153
13399SOL    HW142156   4.703   8.396   2.085
13399SOL    HW242157   4.680   8.275   2.192
13400SOL     OW42158   4.096   8.736   3.352
13400SOL    HW142159   4.083   8.829   3.318
13400SOL    HW242160   4.012   8.684   3.339
13401SOL     OW42161   5.338   8.740   3.151
13401SOL    HW142162   5.398   8.743   3.231
13401SOL    HW242163   5.263   8.804   3.164
13402SOL     OW42164   4.763   8.546   2.558
13402SOL    HW142165   4.693   8.499   2.612
13402SOL    HW242166   4.822   8.478   2.515
13403SOL     OW42167   4.738   7.684   2.833
13403SOL    HW142168   4.730   7.648   2.740
13403SOL    HW242169   4.736   7.608   2.898
13404SOL     OW42170   5.433   7.833   3.243
13404SOL    HW142171   5.506   7.902   3.247
13404SOL    HW242172   5.461   7.758   3.184
13405SOL     OW42173   3.979   8.796   2.152
13405SOL    HW142174   3.883   8.797   2.125
13405SOL    HW242175   3.991   8.849   2.236
13406SOL     OW42176   3.829   8.461   3.588
13406SOL    HW142177   3.752   8.428   3.642
13406SOL    HW242178   3.914   8.431   3.630
13407SOL     OW42179   4.396   7.651   3.351
13407SOL    HW142180   4.486   7.635   3.311
13407SOL    HW242181   4.404   7.656   3.450
13408SOL     OW42182   3.799   7.793   1.895
13408SOL    HW142183   3.707   7.765   1.866
13408SOL    HW242184   3.830   7.870   1.839
13409SOL     OW42185   5.164   8.304   3.260
13409SOL    HW142186   5.107   8.356   3.197
13409SOL    HW242187   5.260   8.316   3.236
13410SOL     OW42188   3.796   7.614   2.180
13410SOL    HW142189   3.779   7.697   2.126
13410SOL    HW242190   3.886   7.577   2.158
13411SOL     OW42191   4.907   8.783   1.981
13411SOL    HW142192   4.808   8.772   1.983
13411SOL    HW242193   4.941   8.798   2.074
13412SOL     OW42194   4.337   8.290   3.293
13412SOL    HW142195   4.393   8.371   3.276
13412SOL    HW242196   4.396   8.210   3.296
13413SOL     OW42197   4.440   8.013   3.570
13413SOL    HW142198   4.459   8.078   3.644
13413SOL    HW242199   4.500   7.933   3.579
13414SOL     OW42200   5.174   8.668   3.495
13414SOL    HW142201   5.165   8.658   3.594
13414SOL    HW242202   5.270   8.661   3.469
13415SOL     OW42203   5.398   8.331   3.116
13415SOL    HW142204   5.371   8.242   3.079
13415SOL    HW242205   5.399   8.399   3.043
13416SOL     OW42206   4.949   7.773   2.311
13416SOL    HW142207   5.014   7.699   2.300
13416SOL    HW242208   4.969   7.823   2.395
13417SOL     OW42209   4.318   8.193   2.514
13417SOL    HW142210   4.368   8.278   2.495
13417SOL    HW242211   4.230   8.195   2.466
13418SOL     OW42212   5.501   7.790   3.504
13418SOL    HW142213   5.484   7.821   3.410
13418SOL    HW242214   5.417   7.753   3.542
13419SOL     OW42215   5.454   8.382   3.379
13419SOL    HW142216   5.492   8.473   3.394
13419SOL    HW242217   5.446   8.365   3.280
13420SOL     OW42218   4.583   8.822   1.878
13420SOL    HW142219   4.537   8.837   1.966
13420SOL    HW242220   4.627   8.907   1.848
13421SOL     OW42221   4.583   8.404   2.723
13421SOL    HW142222   4.637   8.335   2.771
13421SOL    HW242223   4.551   8.473   2.789
13422SOL     OW42224   4.807   8.432   1.949
13422SOL    HW142225   4.784   8.485   1.867
13422SOL    HW242226   4.888   8.376   1.930
13423SOL     OW42227   3.945   8.762   3.706
13423SOL    HW142228   3.880   8.689   3.685
13423SOL    HW242229   3.949   8.776   3.804
13424SOL     OW42230   3.803   8.688   2.515
13424SOL    HW142231   3.802   8.641   2.603
13424SOL    HW242232   3.885   8.660   2.464
13425SOL     OW42233   4.396   8.839   3.486
13425SOL    HW142234   4.318   8.789   3.524
13425SOL    HW242235   4.393   8.934   3.517
13426SOL     OW42236   5.548   7.640   3.089
13426SOL    HW142237   5.544   7.550   3.133
13426SOL    HW242238   5.551   7.629   2.990
13427SOL     OW42239   4.152   7.872   2.382
13427SOL    HW142240   4.182   7.800   2.320
13427SOL    HW242241   4.113   7.832   2.465
13428SOL     OW42242   5.429   8.935   2.966
13428SOL    HW142243   5.336   8.910   2.939
13428SOL    HW242244   5.455   8.885   3.048
13429SOL     OW42245   4.041   7.995   3.142
13429SOL    HW142246   4.079   7.936   3.214
13429SOL    HW242247   4.081   7.969   3.054
13430SOL     OW42248   5.148   7.662   2.974
13430SOL    HW142249   5.200   7.597   3.029
13430SOL    HW242250   5.099   7.725   3.035
13431SOL     OW42251   4.725   7.482   3.016
13431SOL    HW142252   4.662   7.410   2.985
13431SOL    HW242253   4.818   7.446   3.016
13432SOL     OW42254   4.494   8.778   2.163
13432SOL    HW142255   4.448   8.691   2.180
13432SOL    HW242256   4.585   8.775   2.204
13433SOL     OW42257   4.342   0.015   3.146
13433SOL    HW142258   4.337   0.097   3.203
13433SOL    HW242259   4.431   0.012   3.101
13434SOL     OW42260   5.076   7.500   2.030
13434SOL    HW142261   5.111   7.459   1.946
13434SOL    HW242262   4.986   7.462   2.050
13435SOL     OW42263   5.024   7.901   2.553
13435SOL    HW142264   4.965   7.981   2.557
13435SOL    HW242265   5.039   7.866   2.646
13436SOL     OW42266   5.317   7.669   2.744
13436SOL    HW142267   5.233   7.668   2.798
13436SOL    HW242268   5.319   7.752   2.688
13437SOL     OW42269   3.763   8.525   2.162
13437SOL    HW142270   3.862   8.514   2.153
13437SOL    HW242271   3.723   8.439   2.194
13438SOL     OW42272   3.954   8.076   3.837
13438SOL    HW142273   3.861   8.074   3.874
13438SOL    HW242274   3.955   8.037   3.745
13439SOL     OW42275   3.949   7.723   4.720
13439SOL    HW142276   3.984   7.706   4.812
13439SOL    HW242277   3.861   7.678   4.708
13440SOL     OW42278   3.743   7.816   4.371
13440SOL    HW142279   3.661   7.859   4.410
13440SOL    HW242280   3.715   7.743   4.308
13441SOL     OW42281   4.293   8.723   4.889
13441SOL    HW142282   4.200   8.716   4.852
13441SOL    HW242283   4.304   8.812   4.933
13442SOL     OW42284   5.279   8.959   4.427
13442SOL    HW142285   5.222   8.943   4.508
13442SOL    HW242286   5.220   8.969   4.347
13443SOL     OW42287   5.467   8.066   4.580
13443SOL    HW142288   5.500   8.160   4.580
13443SOL    HW242289   5.518   8.012   4.646
13444SOL     OW42290   4.859   8.151   4.441
13444SOL    HW142291   4.916   8.229   4.416
13444SOL    HW242292   4.799   8.177   4.517
13445SOL     OW42293   5.479   8.055   3.955
13445SOL    HW142294   5.467   8.042   3.856
13445SOL    HW242295   5.449   7.974   4.004
13446SOL     OW42296   4.492   8.592   4.747
13446SOL    HW142297   4.414   8.609   4.807
13446SOL    HW242298   4.526   8.679   4.711
13447SOL     OW42299   4.574   8.246   5.547
13447SOL    HW142300   4.570   8.322   5.612
13447SOL    HW242301   4.596   8.282   5.456
13448SOL     OW42302   4.409   8.460   4.389
13448SOL    HW142303   4.478   8.444   4.459
13448SOL    HW242304   4.336   8.517   4.427
13449SOL     OW42305   4.410   8.609   5.527
13449SOL    HW142306   4.470   8.688   5.541
13449SOL    HW242307   4.324   8.640   5.486
13450SOL     OW42308   4.059   8.883   4.785
13450SOL    HW142309   3.981   8.852   4.732
13450SOL    HW242310   4.117   8.941   4.728
13451SOL     OW42311   5.184   8.953   5.063
13451SOL    HW142312   5.208   9.047   5.089
13451SOL    HW242313   5.168   8.899   5.145
13452SOL     OW42314   4.162   7.840   5.223
13452SOL    HW142315   4.244   7.784   5.232
13452SOL    HW242316   4.081   7.782   5.227
13453SOL     OW42317   5.327   7.895   4.461
13453SOL    HW142318   5.253   7.941   4.411
13453SOL    HW242319   5.378   7.963   4.514
13454SOL     OW42320   3.955   0.161   4.207
13454SOL    HW142321   3.989   0.238   4.261
13454SOL    HW242322   3.999   0.161   4.117
13455SOL     OW42323   4.851   8.789   5.414
13455SOL    HW142324   4.898   8.789   5.502
13455SOL    HW242325   4.803   8.702   5.403
13456SOL     OW42326   3.954   8.882   4.262
13456SOL    HW142327   3.928   8.978   4.262
13456SOL    HW242328   3.883   8.828   4.307
13457SOL     OW42329   3.964   8.539   4.610
13457SOL    HW142330   3.978   8.455   4.662
13457SOL    HW242331   3.909   8.603   4.665
13458SOL     OW42332   4.330   8.412   3.847
13458SOL    HW142333   4.337   8.496   3.793
13458SOL    HW242334   4.376   8.425   3.935
13459SOL     OW42335   5.318   7.562   5.204
13459SOL    HW142336   5.300   7.629   5.132
13459SOL    HW242337   5.315   7.608   5.293
13460SOL     OW42338   3.846   8.091   4.287
13460SOL    HW142339   3.801   8.003   4.304
13460SOL    HW242340   3.845   8.145   4.371
13461SOL     OW42341   3.751   0.044   3.841
13461SOL    HW142342   3.732  -0.052   3.862
13461SOL    HW242343   3.718   0.102   3.916
13462SOL     OW42344   5.413   8.370   4.336
13462SOL    HW142345   5.508   8.341   4.344
13462SOL    HW242346   5.405   8.435   4.261
13463SOL     OW42347   5.365   8.556   4.156
13463SOL    HW142348   5.451   8.558   4.104
13463SOL    HW242349   5.379   8.603   4.244
13464SOL     OW42350   3.837   8.185   5.321
13464SOL    HW142351   3.925   8.172   5.366
13464SOL    HW242352   3.824   8.282   5.299
13465SOL     OW42353   4.337   8.813   4.450
13465SOL    HW142354   4.288   8.726   4.459
13465SOL    HW242355   4.314   8.856   4.363
13466SOL     OW42356   5.017   8.676   5.147
13466SOL    HW142357   5.054   8.603   5.089
13466SOL    HW242358   5.069   8.681   5.232
13467SOL     OW42359   4.533   7.452   4.226
13467SOL    HW142360   4.573   7.543   4.217
13467SOL    HW242361   4.433   7.460   4.232
13468SOL     OW42362   3.921   8.424   4.988
13468SOL    HW142363   4.010   8.379   4.974
13468SOL    HW242364   3.848   8.359   4.969
13469SOL     OW42365   5.249   8.447   3.914
13469SOL    HW142366   5.186   8.371   3.927
13469SOL    HW242367   5.297   8.465   4.000
13470SOL     OW42368   4.041   7.699   5.525
13470SOL    HW142369   4.112   7.770   5.531
13470SOL    HW242370   3.953   7.738   5.553
13471SOL     OW42371   5.190   8.865   4.677
13471SOL    HW142372   5.131   8.871   4.757
13471SOL    HW242373   5.175   8.777   4.631
13472SOL     OW42374   4.322   8.177   3.994
13472SOL    HW142375   4.346   8.246   3.926
13472SOL    HW242376   4.244   8.210   4.048
13473SOL     OW42377   5.005   7.793   4.668
13473SOL    HW142378   4.919   7.743   4.655
13473SOL    HW242379   5.067   7.739   4.724
13474SOL     OW42380   4.531   8.053   5.189
13474SOL    HW142381   4.484   8.050   5.278
13474SOL    HW242382   4.480   7.998   5.123
13475SOL     OW42383   5.118   7.917   5.398
13475SOL    HW142384   5.098   7.960   5.486
13475SOL    HW242385   5.196   7.855   5.407
13476SOL     OW42386   4.697   8.338   5.296
13476SOL    HW142387   4.743   8.254   5.267
13476SOL    HW242388   4.641   8.372   5.221
13477SOL     OW42389   4.715   7.858   4.966
13477SOL    HW142390   4.638   7.892   5.020
13477SOL    HW242391   4.681   7.807   4.887
13478SOL     OW42392   4.765   8.149   4.153
13478SOL    HW142393   4.791   8.145   4.249
13478SOL    HW242394   4.680   8.098   4.139
13479SOL     OW42395   3.800   8.259   4.513
13479SOL    HW142396   3.899   8.247   4.522
13479SOL    HW242397   3.776   8.354   4.534
13480SOL     OW42398   4.589   7.796   3.919
13480SOL    HW142399   4.648   7.859   3.870
13480SOL    HW242400   4.608   7.702   3.890
13481SOL     OW42401   5.443   8.033   5.555
13481SOL    HW142402   5.417   8.122   5.519
13481SOL    HW242403   5.441   7.965   5.482
13482SOL     OW42404   5.086   8.592   4.269
13482SOL    HW142405   5.169   8.563   4.221
13482SOL    HW242406   5.037   8.659   4.213
13483SOL     OW42407   4.274   7.644   4.609
13483SOL    HW142408   4.269   7.639   4.709
13483SOL    HW242409   4.276   7.740   4.580
13484SOL     OW42410   4.732   8.904   4.201
13484SOL    HW142411   4.686   8.976   4.149
13484SOL    HW242412   4.728   8.924   4.299
13485SOL     OW42413   5.519   8.514   4.597
13485SOL    HW142414   5.457   8.499   4.521
13485SOL    HW242415   5.467   8.525   4.682
13486SOL     OW42416   4.951   8.998   5.230
13486SOL    HW142417   4.957   8.921   5.294
13486SOL    HW242418   4.899   8.972   5.150
13487SOL     OW42419   4.045   8.391   3.966
13487SOL    HW142420   4.127   8.430   3.924
13487SOL    HW242421   4.018   8.309   3.917
13488SOL     OW42422   5.182   8.183   4.452
13488SOL    HW142423   5.177   8.118   4.527
13488SOL    HW242424   5.262   8.242   4.465
13489SOL     OW42425   4.185   8.714   5.451
13489SOL    HW142426   4.135   8.715   5.365
13489SOL    HW242427   4.122   8.696   5.527
13490SOL     OW42428   4.835   0.224   3.961
13490SOL    HW142429   4.775   0.162   4.011
13490SOL    HW242430   4.866   0.180   3.876
13491SOL     OW42431   3.926   7.733   5.222
13491SOL    HW142432   3.846   7.793   5.209
13491SOL    HW242433   3.916   7.684   5.308
13492SOL     OW42434   5.356   8.825   3.805
13492SOL    HW142435   5.324   8.919   3.795
13492SOL    HW242436   5.280   8.762   3.793
13493SOL     OW42437   5.124   7.555   4.150
13493SOL    HW142438   5.100   7.518   4.060
13493SOL    HW242439   5.223   7.571   4.154
13494SOL     OW42440   4.106   8.148   4.204
13494SOL    HW142441   4.151   8.058   4.201
13494SOL    HW242442   4.012   8.137   4.237
13495SOL     OW42443   5.271   7.670   5.453
13495SOL    HW142444   5.266   7.707   5.545
13495SOL    HW242445   5.199   7.601   5.441
13496SOL     OW42446   4.338   7.570   3.841
13496SOL    HW142447   4.436   7.548   3.848
13496SOL    HW242448   4.307   7.553   3.748
13497SOL     OW42449   4.505   7.712   5.473
13497SOL    HW142450   4.572   7.651   5.516
13497SOL    HW242451   4.432   7.731   5.538
13498SOL     OW42452   5.075   8.038   5.157
13498SOL    HW142453   5.103   7.995   5.242
13498SOL    HW242454   5.100   8.134   5.158
13499SOL     OW42455   4.527   8.850   4.648
13499SOL    HW142456   4.617   8.864   4.606
13499SOL    HW242457   4.456   8.852   4.577
13500SOL     OW42458   4.646   7.951   4.623
13500SOL    HW142459   4.621   7.942   4.527
13500SOL    HW242460   4.694   7.869   4.654
13501SOL     OW42461   4.263   7.512   4.236
13501SOL    HW142462   4.182   7.513   4.294
13501SOL    HW242463   4.266   7.595   4.181
13502SOL     OW42464   5.158   8.636   3.765
13502SOL    HW142465   5.190   8.560   3.822
13502SOL    HW242466   5.066   8.663   3.795
13503SOL     OW42467   4.021   7.483   3.895
13503SOL    HW142468   4.070   7.567   3.874
13503SOL    HW242469   4.083   7.418   3.940
13504SOL     OW42470   4.659   7.684   4.204
13504SOL    HW142471   4.611   7.725   4.126
13504SOL    HW242472   4.758   7.682   4.185
13505SOL     OW42473   4.800   8.131   5.188
13505SOL    HW142474   4.720   8.070   5.191
13505SOL    HW242475   4.881   8.078   5.164
13506SOL     OW42476   4.951   0.018   4.517
13506SOL    HW142477   4.972   0.092   4.452
13506SOL    HW242478   5.019   0.018   4.590
13507SOL     OW42479   4.183   8.600   4.465
13507SOL    HW142480   4.112   8.573   4.530
13507SOL    HW242481   4.157   8.572   4.372
13508SOL     OW42482   4.756   7.997   3.740
13508SOL    HW142483   4.715   8.079   3.701
13508SOL    HW242484   4.820   8.023   3.813
13509SOL     OW42485   3.802   8.004   5.110
13509SOL    HW142486   3.894   8.003   5.069
13509SOL    HW242487   3.796   8.078   5.177
13510SOL     OW42488   4.285   7.670   4.871
13510SOL    HW142489   4.323   7.586   4.908
13510SOL    HW242490   4.197   7.689   4.915
13511SOL     OW42491   4.590   7.902   4.366
13511SOL    HW142492   4.558   7.974   4.304
13511SOL    HW242493   4.614   7.821   4.313
13512SOL     OW42494   4.741   7.487   4.477
13512SOL    HW142495   4.669   7.492   4.408
13512SOL    HW242496   4.717   7.418   4.546
13513SOL     OW42497   5.153   8.621   4.591
13513SOL    HW142498   5.098   8.537   4.584
13513SOL    HW242499   5.179   8.650   4.499
13514SOL     OW42500   5.190   8.038   4.716
13514SOL    HW142501   5.160   7.943   4.723
13514SOL    HW242502   5.263   8.054   4.782
13515SOL     OW42503   5.581   8.281   4.101
13515SOL    HW142504   5.623   8.217   4.165
13515SOL    HW242505   5.543   8.230   4.023
13516SOL     OW42506   4.212   8.833   3.898
13516SOL    HW142507   4.125   8.818   3.945
13516SOL    HW242508   4.195   8.859   3.803
13517SOL     OW42509   5.388   8.728   4.381
13517SOL    HW142510   5.487   8.736   4.395
13517SOL    HW242511   5.343   8.812   4.412
13518SOL     OW42512   5.114   8.023   3.802
13518SOL    HW142513   5.060   8.002   3.883
13518SOL    HW242514   5.205   7.982   3.811
13519SOL     OW42515   4.251   7.704   4.052
13519SOL    HW142516   4.278   7.645   3.977
13519SOL    HW242517   4.251   7.799   4.021
13520SOL     OW42518   5.478   8.671   5.312
13520SOL    HW142519   5.569   8.632   5.299
13520SOL    HW242520   5.486   8.767   5.336
13521SOL     OW42521   4.788   8.795   5.064
13521SOL    HW142522   4.708   8.772   5.119
13521SOL    HW242523   4.871   8.769   5.113
13522SOL     OW42524   4.835   8.643   4.824
13522SOL    HW142525   4.795   8.687   4.905
13522SOL    HW242526   4.794   8.680   4.741
13523SOL     OW42527   5.362   8.547   4.803
13523SOL    HW142528   5.367   8.628   4.862
13523SOL    HW242529   5.276   8.549   4.752
13524SOL     OW42530   4.639   7.537   5.126
13524SOL    HW142531   4.664   7.517   5.031
13524SOL    HW242532   4.711   7.593   5.168
13525SOL     OW42533   4.704   8.564   5.443
13525SOL    HW142534   4.605   8.570   5.453
13525SOL    HW242535   4.727   8.484   5.387
13526SOL     OW42536   4.429   8.498   4.092
13526SOL    HW142537   4.415   8.505   4.191
13526SOL    HW242538   4.513   8.447   4.074
13527SOL     OW42539   4.134   8.261   4.975
13527SOL    HW142540   4.220   8.273   5.025
13527SOL    HW242541   4.092   8.174   5.002
13528SOL     OW42542   4.998   7.834   4.986
13528SOL    HW142543   5.019   7.908   5.050
13528SOL    HW242544   4.909   7.851   4.943
13529SOL     OW42545   4.091   8.548   4.225
13529SOL    HW142546   4.084   8.631   4.169
13529SOL    HW242547   4.095   8.468   4.165
13530SOL     OW42548   4.290   7.985   4.589
13530SOL    HW142549   4.302   8.051   4.515
13530SOL    HW242550   4.336   8.019   4.672
13531SOL     OW42551   4.976   8.796   4.112
13531SOL    HW142552   5.026   8.873   4.152
13531SOL    HW242553   4.881   8.798   4.144
13532SOL     OW42554   4.996   8.893   4.866
13532SOL    HW142555   5.043   8.906   4.953
13532SOL    HW242556   4.930   8.819   4.875
13533SOL     OW42557   5.306   8.087   4.196
13533SOL    HW142558   5.275   8.148   4.269
13533SOL    HW242559   5.356   8.139   4.127
13534SOL     OW42560   4.078   8.958   5.053
13534SOL    HW142561   4.057   8.914   4.966
13534SOL    HW242562   4.175   8.984   5.056
13535SOL     OW42563   4.126   8.199   5.322
13535SOL    HW142564   4.194   8.254   5.275
13535SOL    HW242565   4.166   8.111   5.349
13536SOL     OW42566   5.311   8.227   5.394
13536SOL    HW142567   5.219   8.265   5.389
13536SOL    HW242568   5.371   8.274   5.329
13537SOL     OW42569   4.737   7.553   5.494
13537SOL    HW142570   4.743   7.638   5.442
13537SOL    HW242571   4.769   7.477   5.437
13538SOL     OW42572   4.228   7.498   5.464
13538SOL    HW142573   4.186   7.441   5.394
13538SOL    HW242574   4.162   7.567   5.496
13539SOL     OW42575   4.297   8.318   4.753
13539SOL    HW142576   4.341   8.407   4.744
13539SOL    HW242577   4.234   8.318   4.830
13540SOL     OW42578   5.084   8.310   4.769
13540SOL    HW142579   5.009   8.310   4.703
13540SOL    HW242580   5.121   8.218   4.778
13541SOL     OW42581   4.933   7.973   3.999
13541SOL    HW142582   4.946   7.889   4.053
13541SOL    HW242583   4.904   8.047   4.059
13542SOL     OW42584   4.031   7.661   4.955
13542SOL    HW142585   4.008   7.698   5.045
13542SOL    HW242586   4.001   7.566   4.949
13543SOL     OW42587   3.761   8.758   5.006
13543SOL    HW142588   3.814   8.709   5.074
13543SOL    HW242589   3.783   8.856   5.011
13544SOL     OW42590   4.456   8.082   4.788
13544SOL    HW142591   4.515   8.056   4.712
13544SOL    HW242592   4.428   8.178   4.777
13545SOL     OW42593   5.452   8.383   5.578
13545SOL    HW142594   5.406   8.376   5.489
13545SOL    HW242595   5.390   8.427   5.644
13546SOL     OW42596   4.031   7.511   4.342
13546SOL    HW142597   4.020   7.605   4.375
13546SOL    HW242598   4.026   7.448   4.419
13547SOL     OW42599   5.346   7.815   4.098
13547SOL    HW142600   5.348   7.739   4.162
13547SOL    HW242601   5.298   7.892   4.138
13548SOL     OW42602   4.747   8.214   4.690
13548SOL    HW142603   4.762   8.235   4.786
13548SOL    HW242604   4.717   8.119   4.681
13549SOL     OW42605   5.583   8.966   5.329
13549SOL    HW142606   5.597   8.993   5.234
13549SOL    HW242607   5.666   8.988   5.382
13550SOL     OW42608   4.074   8.346   5.528
13550SOL    HW142609   4.150   8.390   5.576
13550SOL    HW242610   4.109   8.299   5.446
13551SOL     OW42611   5.264   7.722   3.849
13551SOL    HW142612   5.203   7.647   3.872
13551SOL    HW242613   5.286   7.774   3.932
13552SOL     OW42614   5.027   8.286   3.766
13552SOL    HW142615   5.061   8.193   3.781
13552SOL    HW242616   5.045   8.313   3.671
13553SOL     OW42617   4.792   8.781   4.573
13553SOL    HW142618   4.799   8.697   4.518
13553SOL    HW242619   4.854   8.850   4.537
13554SOL     OW42620   4.043   8.258   4.673
13554SOL    HW142621   4.136   8.294   4.678
13554SOL    HW242622   4.037   8.173   4.725
13555SOL     OW42623   4.063   7.957   4.730
13555SOL    HW142624   4.011   7.874   4.713
13555SOL    HW242625   4.140   7.962   4.666
13556SOL     OW42626   4.235   7.863   5.532
13556SOL    HW142627   4.217   7.908   5.620
13556SOL    HW242628   4.277   7.928   5.469
13557SOL     OW42629   4.862   7.828   5.402
13557SOL    HW142630   4.817   7.891   5.466
13557SOL    HW242631   4.955   7.859   5.385
13558SOL     OW42632   4.884   7.655   5.201
13558SOL    HW142633   4.884   7.719   5.278
13558SOL    HW242634   4.912   7.703   5.118
13559SOL     OW42635   3.732   8.774   3.924
13559SOL    HW142636   3.639   8.795   3.893
13559SOL    HW242637   3.742   8.675   3.937
13560SOL     OW42638   4.726   8.244   4.962
13560SOL    HW142639   4.767   8.212   5.048
13560SOL    HW242640   4.630   8.217   4.959
13561SOL     OW42641   3.764   7.992   4.838
13561SOL    HW142642   3.849   7.959   4.797
13561SOL    HW242643   3.777   8.007   4.936
13562SOL     OW42644   3.913   7.968   5.446
13562SOL    HW142645   3.972   7.928   5.376
13562SOL    HW242646   3.855   8.039   5.405
13563SOL     OW42647   5.093   8.398   5.384
13563SOL    HW142648   5.132   8.487   5.404
13563SOL    HW242649   5.103   8.378   5.287
13564SOL     OW42650   4.539   8.020   4.049
13564SOL    HW142651   4.546   7.931   4.003
13564SOL    HW242652   4.445   8.054   4.041
13565SOL     OW42653   5.381   8.052   4.930
13565SOL    HW142654   5.343   7.983   4.992
13565SOL    HW242655   5.463   8.016   4.886
13566SOL     OW42656   3.976   0.012   5.468
13566SOL    HW142657   3.946   0.069   5.544
13566SOL    HW242658   3.969  -0.085   5.494
13567SOL     OW42659   4.395   7.912   4.993
13567SOL    HW142660   4.361   7.823   4.963
13567SOL    HW242661   4.421   7.966   4.913
13568SOL     OW42662   4.197   7.948   3.915
13568SOL    HW142663   4.258   8.028   3.919
13568SOL    HW242664   4.102   7.979   3.922
13569SOL     OW42665   3.883   8.585   5.190
13569SOL    HW142666   3.905   8.524   5.266
13569SOL    HW242667   3.893   8.536   5.104
13570SOL     OW42668   5.071   8.507   4.958
13570SOL    HW142669   5.095   8.444   4.884
13570SOL    HW242670   4.981   8.547   4.940
13571SOL     OW42671   5.026   8.303   4.033
13571SOL    HW142672   4.940   8.272   4.075
13571SOL    HW242673   5.022   8.289   3.934
13572SOL     OW42674   3.807   8.706   4.746
13572SOL    HW142675   3.802   8.705   4.846
13572SOL    HW242676   3.724   8.665   4.708
13573SOL     OW42677   4.627   7.534   3.857
13573SOL    HW142678   4.678   7.535   3.771
13573SOL    HW242679   4.683   7.492   3.928
13574SOL     OW42680   5.450   7.583   4.247
13574SOL    HW142681   5.523   7.566   4.180
13574SOL    HW242682   5.419   7.496   4.285
13575SOL     OW42683   5.004   8.375   4.396
13575SOL    HW142684   5.064   8.294   4.398
13575SOL    HW242685   5.044   8.444   4.336
13576SOL     OW42686   4.554   8.721   5.146
13576SOL    HW142687   4.549   8.754   5.241
13576SOL    HW242688   4.468   8.740   5.100
13577SOL     OW42689   5.565   7.623   4.687
13577SOL    HW142690   5.604   7.538   4.651
13577SOL    HW242691   5.467   7.625   4.668
13578SOL     OW42692   3.987   7.774   4.444
13578SOL    HW142693   3.908   7.825   4.410
13578SOL    HW242694   3.978   7.759   4.542
13579SOL     OW42695   4.546   8.450   5.096
13579SOL    HW142696   4.586   8.449   5.004
13579SOL    HW242697   4.556   8.542   5.136
13580SOL     OW42698   4.640   8.358   4.015
13580SOL    HW142699   4.703   8.396   3.947
13580SOL    HW242700   4.680   8.275   4.054
13581SOL     OW42701   4.096   8.736   5.214
13581SOL    HW142702   4.083   8.829   5.180
13581SOL    HW242703   4.012   8.684   5.201
13582SOL     OW42704   5.338   8.740   5.013
13582SOL    HW142705   5.398   8.743   5.093
13582SOL    HW242706   5.263   8.804   5.026
13583SOL     OW42707   4.763   8.546   4.420
13583SOL    HW142708   4.693   8.499   4.474
13583SOL    HW242709   4.822   8.478   4.377
13584SOL     OW42710   4.738   7.684   4.695
13584SOL    HW142711   4.730   7.648   4.602
13584SOL    HW242712   4.736   7.608   4.760
13585SOL     OW42713   5.433   7.833   5.105
13585SOL    HW142714   5.506   7.902   5.109
13585SOL    HW242715   5.461   7.758   5.046
13586SOL     OW42716   3.979   8.796   4.014
13586SOL    HW142717   3.883   8.797   3.987
13586SOL    HW242718   3.991   8.849   4.098
13587SOL     OW42719   3.829   8.461   5.450
13587SOL    HW142720   3.752   8.428   5.504
13587SOL    HW242721   3.914   8.431   5.492
13588SOL     OW42722   4.396   7.651   5.213
13588SOL    HW142723   4.486   7.635   5.173
13588SOL    HW242724   4.404   7.656   5.312
13589SOL     OW42725   3.799   7.793   3.757
13589SOL    HW142726   3.707   7.765   3.728
13589SOL    HW242727   3.830   7.870   3.701
13590SOL     OW42728   5.164   8.304   5.122
13590SOL    HW142729   5.107   8.356   5.059
13590SOL    HW242730   5.260   8.316   5.098
13591SOL     OW42731   3.796   7.614   4.042
13591SOL    HW142732   3.779   7.697   3.988
13591SOL    HW242733   3.886   7.577   4.020
13592SOL     OW42734   4.907   8.783   3.843
13592SOL    HW142735   4.808   8.772   3.845
13592SOL    HW242736   4.941   8.798   3.936
13593SOL     OW42737   4.337   8.290   5.155
13593SOL    HW142738   4.393   8.371   5.138
13593SOL    HW242739   4.396   8.210   5.158
13594SOL     OW42740   4.440   8.013   5.432
13594SOL    HW142741   4.459   8.078   5.506
13594SOL    HW242742   4.500   7.933   5.441
13595SOL     OW42743   5.174   8.668   5.357
13595SOL    HW142744   5.165   8.658   5.456
13595SOL    HW242745   5.270   8.661   5.331
13596SOL     OW42746   5.398   8.331   4.978
13596SOL    HW142747   5.371   8.242   4.941
13596SOL    HW242748   5.399   8.399   4.905
13597SOL     OW42749   4.949   7.773   4.173
13597SOL    HW142750   5.014   7.699   4.162
13597SOL    HW242751   4.969   7.823   4.257
13598SOL     OW42752   4.318   8.193   4.376
13598SOL    HW142753   4.368   8.278   4.357
13598SOL    HW242754   4.230   8.195   4.328
13599SOL     OW42755   5.501   7.790   5.366
13599SOL    HW142756   5.484   7.821   5.272
13599SOL    HW242757   5.417   7.753   5.404
13600SOL     OW42758   5.454   8.382   5.241
13600SOL    HW142759   5.492   8.473   5.256
13600SOL    HW242760   5.446   8.365   5.142
13601SOL     OW42761   4.583   8.822   3.740
13601SOL    HW142762   4.537   8.837   3.828
13601SOL    HW242763   4.627   8.907   3.710
13602SOL     OW42764   4.583   8.404   4.585
13602SOL    HW142765   4.637   8.335   4.633
13602SOL    HW242766   4.551   8.473   4.651
13603SOL     OW42767   4.807   8.432   3.811
13603SOL    HW142768   4.784   8.485   3.729
13603SOL    HW242769   4.888   8.376   3.792
13604SOL     OW42770   3.945   8.762   5.568
13604SOL    HW142771   3.880   8.689   5.547
13604SOL    HW242772   3.949   8.776   5.666
13605SOL     OW42773   3.803   8.688   4.377
13605SOL    HW142774   3.802   8.641   4.465
13605SOL    HW242775   3.885   8.660   4.326
13606SOL     OW42776   4.396   8.839   5.348
13606SOL    HW142777   4.318   8.789   5.386
13606SOL    HW242778   4.393   8.934   5.379
13607SOL     OW42779   5.548   7.640   4.951
13607SOL    HW142780   5.544   7.550   4.995
13607SOL    HW242781   5.551   7.629   4.852
13608SOL     OW42782   4.152   7.872   4.244
13608SOL    HW142783   4.182   7.800   4.182
13608SOL    HW242784   4.113   7.832   4.327
13609SOL     OW42785   5.429   8.935   4.828
13609SOL    HW142786   5.336   8.910   4.801
13609SOL    HW242787   5.455   8.885   4.910
13610SOL     OW42788   4.041   7.995   5.004
13610SOL    HW142789   4.079   7.936   5.076
13610SOL    HW242790   4.081   7.969   4.916
13611SOL     OW42791   5.148   7.662   4.836
13611SOL    HW142792   5.200   7.597   4.891
13611SOL    HW242793   5.099   7.725   4.897
13612SOL     OW42794   4.725   7.482   4.878
13612SOL    HW142795   4.662   7.410   4.847
13612SOL    HW242796   4.818   7.446   4.878
13613SOL     OW42797   4.494   8.778   4.025
13613SOL    HW142798   4.448   8.691   4.042
13613SOL    HW242799   4.585   8.775   4.066
13614SOL     OW42800   4.342   0.015   5.008
13614SOL    HW142801   4.337   0.097   5.065
13614SOL    HW242802   4.431   0.012   4.963
13615SOL     OW42803   5.076   7.500   3.892
13615SOL    HW142804   5.111   7.459   3.808
13615SOL    HW242805   4.986   7.462   3.912
13616SOL     OW42806   5.024   7.901   4.415
13616SOL    HW142807   4.965   7.981   4.419
13616SOL    HW242808   5.039   7.866   4.508
13617SOL     OW42809   5.317   7.669   4.606
13617SOL    HW142810   5.233   7.668   4.660
13617SOL    HW242811   5.319   7.752   4.550
13618SOL     OW42812   3.763   8.525   4.024
13618SOL    HW142813   3.862   8.514   4.015
13618SOL    HW242814   3.723   8.439   4.056
13619SOL     OW42815   3.954   8.076   5.699
13619SOL    HW142816   3.861   8.074   5.736
13619SOL    HW242817   3.955   8.037   5.607
13620SOL     OW42818   3.949   7.723   6.582
13620SOL    HW142819   3.984   7.706   6.674
13620SOL    HW242820   3.861   7.678   6.570
13621SOL     OW42821   3.743   7.816   6.233
13621SOL    HW142822   3.661   7.859   6.272
13621SOL    HW242823   3.715   7.743   6.170
13622SOL     OW42824   4.293   8.723   6.751
13622SOL    HW142825   4.200   8.716   6.714
13622SOL    HW242826   4.304   8.812   6.795
13623SOL     OW42827   5.279   8.959   6.289
13623SOL    HW142828   5.222   8.943   6.370
13623SOL    HW242829   5.220   8.969   6.209
13624SOL     OW42830   5.467   8.066   6.442
13624SOL    HW142831   5.500   8.160   6.442
13624SOL    HW242832   5.518   8.012   6.508
13625SOL     OW42833   4.859   8.151   6.303
13625SOL    HW142834   4.916   8.229   6.278
13625SOL    HW242835   4.799   8.177   6.379
13626SOL     OW42836   5.479   8.055   5.817
13626SOL    HW142837   5.467   8.042   5.718
13626SOL    HW242838   5.449   7.974   5.866
13627SOL     OW42839   4.492   8.592   6.609
13627SOL    HW142840   4.414   8.609   6.669
13627SOL    HW242841   4.526   8.679   6.573
13628SOL     OW42842   4.574   8.246   7.409
13628SOL    HW142843   4.570   8.322   7.474
13628SOL    HW242844   4.596   8.282   7.318
13629SOL     OW42845   4.409   8.460   6.251
13629SOL    HW142846   4.478   8.444   6.321
13629SOL    HW242847   4.336   8.517   6.289
13630SOL     OW42848   4.410   8.609   7.389
13630SOL    HW142849   4.470   8.688   7.403
13630SOL    HW242850   4.324   8.640   7.348
13631SOL     OW42851   4.059   8.883   6.647
13631SOL    HW142852   3.981   8.852   6.594
13631SOL    HW242853   4.117   8.941   6.590
13632SOL     OW42854   5.184   8.953   6.925
13632SOL    HW142855   5.208   9.047   6.951
13632SOL    HW242856   5.168   8.899   7.007
13633SOL     OW42857   4.162   7.840   7.085
13633SOL    HW142858   4.244   7.784   7.094
13633SOL    HW242859   4.081   7.782   7.089
13634SOL     OW42860   5.327   7.895   6.323
13634SOL    HW142861   5.253   7.941   6.273
13634SOL    HW242862   5.378   7.963   6.376
13635SOL     OW42863   3.955   0.161   6.069
13635SOL    HW142864   3.989   0.238   6.123
13635SOL    HW242865   3.999   0.161   5.979
13636SOL     OW42866   4.851   8.789   7.276
13636SOL    HW142867   4.898   8.789   7.364
13636SOL    HW242868   4.803   8.702   7.265
13637SOL     OW42869   3.954   8.882   6.124
13637SOL    HW142870   3.928   8.978   6.124
13637SOL    HW242871   3.883   8.828   6.169
13638SOL     OW42872   3.964   8.539   6.472
13638SOL    HW142873   3.978   8.455   6.524
13638SOL    HW242874   3.909   8.603   6.527
13639SOL     OW42875   4.330   8.412   5.709
13639SOL    HW142876   4.337   8.496   5.655
13639SOL    HW242877   4.376   8.425   5.797
13640SOL     OW42878   5.318   7.562   7.066
13640SOL    HW142879   5.300   7.629   6.994
13640SOL    HW242880   5.315   7.608   7.155
13641SOL     OW42881   3.846   8.091   6.149
13641SOL    HW142882   3.801   8.003   6.166
13641SOL    HW242883   3.845   8.145   6.233
13642SOL     OW42884   3.751   0.044   5.703
13642SOL    HW142885   3.732  -0.052   5.724
13642SOL    HW242886   3.718   0.102   5.778
13643SOL     OW42887   5.413   8.370   6.198
13643SOL    HW142888   5.508   8.341   6.206
13643SOL    HW242889   5.405   8.435   6.123
13644SOL     OW42890   5.365   8.556   6.018
13644SOL    HW142891   5.451   8.558   5.966
13644SOL    HW242892   5.379   8.603   6.106
13645SOL     OW42893   3.837   8.185   7.183
13645SOL    HW142894   3.925   8.172   7.228
13645SOL    HW242895   3.824   8.282   7.161
13646SOL     OW42896   4.337   8.813   6.312
13646SOL    HW142897   4.288   8.726   6.321
13646SOL    HW242898   4.314   8.856   6.225
13647SOL     OW42899   5.017   8.676   7.009
13647SOL    HW142900   5.054   8.603   6.951
13647SOL    HW242901   5.069   8.681   7.094
13648SOL     OW42902   4.533   7.452   6.088
13648SOL    HW142903   4.573   7.543   6.079
13648SOL    HW242904   4.433   7.460   6.094
13649SOL     OW42905   3.921   8.424   6.850
13649SOL    HW142906   4.010   8.379   6.836
13649SOL    HW242907   3.848   8.359   6.831
13650SOL     OW42908   5.249   8.447   5.776
13650SOL    HW142909   5.186   8.371   5.789
13650SOL    HW242910   5.297   8.465   5.862
13651SOL     OW42911   4.041   7.699   7.387
13651SOL    HW142912   4.112   7.770   7.393
13651SOL    HW242913   3.953   7.738   7.415
13652SOL     OW42914   5.190   8.865   6.539
13652SOL    HW142915   5.131   8.871   6.619
13652SOL    HW242916   5.175   8.777   6.493
13653SOL     OW42917   4.322   8.177   5.856
13653SOL    HW142918   4.346   8.246   5.788
13653SOL    HW242919   4.244   8.210   5.910
13654SOL     OW42920   5.005   7.793   6.530
13654SOL    HW142921   4.919   7.743   6.517
13654SOL    HW242922   5.067   7.739   6.586
13655SOL     OW42923   4.531   8.053   7.051
13655SOL    HW142924   4.484   8.050   7.140
13655SOL    HW242925   4.480   7.998   6.985
13656SOL     OW42926   5.118   7.917   7.260
13656SOL    HW142927   5.098   7.960   7.348
13656SOL    HW242928   5.196   7.855   7.269
13657SOL     OW42929   4.697   8.338   7.158
13657SOL    HW142930   4.743   8.254   7.129
13657SOL    HW242931   4.641   8.372   7.083
13658SOL     OW42932   4.715   7.858   6.828
13658SOL    HW142933   4.638   7.892   6.882
13658SOL    HW242934   4.681   7.807   6.749
13659SOL     OW42935   4.765   8.149   6.015
13659SOL    HW142936   4.791   8.145   6.111
13659SOL    HW242937   4.680   8.098   6.001
13660SOL     OW42938   3.800   8.259   6.375
13660SOL    HW142939   3.899   8.247   6.384
13660SOL    HW242940   3.776   8.354   6.396
13661SOL     OW42941   4.589   7.796   5.781
13661SOL    HW142942   4.648   7.859   5.732
13661SOL    HW242943   4.608   7.702   5.752
13662SOL     OW42944   5.443   8.033   7.417
13662SOL    HW142945   5.417   8.122   7.381
13662SOL    HW242946   5.441   7.965   7.344
13663SOL     OW42947   5.086   8.592   6.131
13663SOL    HW142948   5.169   8.563   6.083
13663SOL    HW242949   5.037   8.659   6.075
13664SOL     OW42950   4.274   7.644   6.471
13664SOL    HW142951   4.269   7.639   6.571
13664SOL    HW242952   4.276   7.740   6.442
13665SOL     OW42953   4.732   8.904   6.063
13665SOL    HW142954   4.686   8.976   6.011
13665SOL    HW242955   4.728   8.924   6.161
13666SOL     OW42956   5.519   8.514   6.459
13666SOL    HW142957   5.457   8.499   6.383
13666SOL    HW242958   5.467   8.525   6.544
13667SOL     OW42959   4.951   8.998   7.092
13667SOL    HW142960   4.957   8.921   7.156
13667SOL    HW242961   4.899   8.972   7.012
13668SOL     OW42962   4.045   8.391   5.828
13668SOL    HW142963   4.127   8.430   5.786
13668SOL    HW242964   4.018   8.309   5.779
13669SOL     OW42965   5.182   8.183   6.314
13669SOL    HW142966   5.177   8.118   6.389
13669SOL    HW242967   5.262   8.242   6.327
13670SOL     OW42968   4.185   8.714   7.313
13670SOL    HW142969   4.135   8.715   7.227
13670SOL    HW242970   4.122   8.696   7.389
13671SOL     OW42971   4.835   0.224   5.823
13671SOL    HW142972   4.775   0.162   5.873
13671SOL    HW242973   4.866   0.180   5.738
13672SOL     OW42974   3.926   7.733   7.084
13672SOL    HW142975   3.846   7.793   7.071
13672SOL    HW242976   3.916   7.684   7.170
13673SOL     OW42977   5.356   8.825   5.667
13673SOL    HW142978   5.324   8.919   5.657
13673SOL    HW242979   5.280   8.762   5.655
13674SOL     OW42980   5.124   7.555   6.012
13674SOL    HW142981   5.100   7.518   5.922
13674SOL    HW242982   5.223   7.571   6.016
13675SOL     OW42983   4.106   8.148   6.066
13675SOL    HW142984   4.151   8.058   6.063
13675SOL    HW242985   4.012   8.137   6.099
13676SOL     OW42986   5.271   7.670   7.315
13676SOL    HW142987   5.266   7.707   7.407
13676SOL    HW242988   5.199   7.601   7.303
13677SOL     OW42989   4.338   7.570   5.703
13677SOL    HW142990   4.436   7.548   5.710
13677SOL    HW242991   4.307   7.553   5.610
13678SOL     OW42992   4.505   7.712   7.335
13678SOL    HW142993   4.572   7.651   7.378
13678SOL    HW242994   4.432   7.731   7.400
13679SOL     OW42995   5.075   8.038   7.019
13679SOL    HW142996   5.103   7.995   7.104
13679SOL    HW242997   5.100   8.134   7.020
13680SOL     OW42998   4.527   8.850   6.510
13680SOL    HW142999   4.617   8.864   6.468
13680SOL    HW243000   4.456   8.852   6.439
13681SOL     OW43001   4.646   7.951   6.485
13681SOL    HW143002   4.621   7.942   6.389
13681SOL    HW243003   4.694   7.869   6.516
13682SOL     OW43004   4.263   7.512   6.098
13682SOL    HW143005   4.182   7.513   6.156
13682SOL    HW243006   4.266   7.595   6.043
13683SOL     OW43007   5.158   8.636   5.627
13683SOL    HW143008   5.190   8.560   5.684
13683SOL    HW243009   5.066   8.663   5.657
13684SOL     OW43010   4.021   7.483   5.757
13684SOL    HW143011   4.070   7.567   5.736
13684SOL    HW243012   4.083   7.418   5.802
13685SOL     OW43013   4.659   7.684   6.066
13685SOL    HW143014   4.611   7.725   5.988
13685SOL    HW243015   4.758   7.682   6.047
13686SOL     OW43016   4.800   8.131   7.050
13686SOL    HW143017   4.720   8.070   7.053
13686SOL    HW243018   4.881   8.078   7.026
13687SOL     OW43019   4.951   0.018   6.379
13687SOL    HW143020   4.972   0.092   6.314
13687SOL    HW243021   5.019   0.018   6.452
13688SOL     OW43022   4.183   8.600   6.327
13688SOL    HW143023   4.112   8.573   6.392
13688SOL    HW243024   4.157   8.572   6.234
13689SOL     OW43025   4.756   7.997   5.602
13689SOL    HW143026   4.715   8.079   5.563
13689SOL    HW243027   4.820   8.023   5.675
13690SOL     OW43028   3.802   8.004   6.972
13690SOL    HW143029   3.894   8.003   6.931
13690SOL    HW243030   3.796   8.078   7.039
13691SOL     OW43031   4.285   7.670   6.733
13691SOL    HW143032   4.323   7.586   6.770
13691SOL    HW243033   4.197   7.689   6.777
13692SOL     OW43034   4.590   7.902   6.228
13692SOL    HW143035   4.558   7.974   6.166
13692SOL    HW243036   4.614   7.821   6.175
13693SOL     OW43037   4.741   7.487   6.339
13693SOL    HW143038   4.669   7.492   6.270
13693SOL    HW243039   4.717   7.418   6.408
13694SOL     OW43040   5.153   8.621   6.453
13694SOL    HW143041   5.098   8.537   6.446
13694SOL    HW243042   5.179   8.650   6.361
13695SOL     OW43043   5.190   8.038   6.578
13695SOL    HW143044   5.160   7.943   6.585
13695SOL    HW243045   5.263   8.054   6.644
13696SOL     OW43046   5.581   8.281   5.963
13696SOL    HW143047   5.623   8.217   6.027
13696SOL    HW243048   5.543   8.230   5.885
13697SOL     OW43049   4.212   8.833   5.760
13697SOL    HW143050   4.125   8.818   5.807
13697SOL    HW243051   4.195   8.859   5.665
13698SOL     OW43052   5.388   8.728   6.243
13698SOL    HW143053   5.487   8.736   6.257
13698SOL    HW243054   5.343   8.812   6.274
13699SOL     OW43055   5.114   8.023   5.664
13699SOL    HW143056   5.060   8.002   5.745
13699SOL    HW243057   5.205   7.982   5.673
13700SOL     OW43058   4.251   7.704   5.914
13700SOL    HW143059   4.278   7.645   5.839
13700SOL    HW243060   4.251   7.799   5.883
13701SOL     OW43061   5.478   8.671   7.174
13701SOL    HW143062   5.569   8.632   7.161
13701SOL    HW243063   5.486   8.767   7.198
13702SOL     OW43064   4.788   8.795   6.926
13702SOL    HW143065   4.708   8.772   6.981
13702SOL    HW243066   4.871   8.769   6.975
13703SOL     OW43067   4.835   8.643   6.686
13703SOL    HW143068   4.795   8.687   6.767
13703SOL    HW243069   4.794   8.680   6.603
13704SOL     OW43070   5.362   8.547   6.665
13704SOL    HW143071   5.367   8.628   6.724
13704SOL    HW243072   5.276   8.549   6.614
13705SOL     OW43073   4.639   7.537   6.988
13705SOL    HW143074   4.664   7.517   6.893
13705SOL    HW243075   4.711   7.593   7.030
13706SOL     OW43076   4.704   8.564   7.305
13706SOL    HW143077   4.605   8.570   7.315
13706SOL    HW243078   4.727   8.484   7.249
13707SOL     OW43079   4.429   8.498   5.954
13707SOL    HW143080   4.415   8.505   6.053
13707SOL    HW243081   4.513   8.447   5.936
13708SOL     OW43082   4.134   8.261   6.837
13708SOL    HW143083   4.220   8.273   6.887
13708SOL    HW243084   4.092   8.174   6.864
13709SOL     OW43085   4.998   7.834   6.848
13709SOL    HW143086   5.019   7.908   6.912
13709SOL    HW243087   4.909   7.851   6.805
13710SOL     OW43088   4.091   8.548   6.087
13710SOL    HW143089   4.084   8.631   6.031
13710SOL    HW243090   4.095   8.468   6.027
13711SOL     OW43091   4.290   7.985   6.451
13711SOL    HW143092   4.302   8.051   6.377
13711SOL    HW243093   4.336   8.019   6.534
13712SOL     OW43094   4.976   8.796   5.974
13712SOL    HW143095   5.026   8.873   6.014
13712SOL    HW243096   4.881   8.798   6.006
13713SOL     OW43097   4.996   8.893   6.728
13713SOL    HW143098   5.043   8.906   6.815
13713SOL    HW243099   4.930   8.819   6.737
13714SOL     OW43100   5.306   8.087   6.058
13714SOL    HW143101   5.275   8.148   6.131
13714SOL    HW243102   5.356   8.139   5.989
13715SOL     OW43103   4.078   8.958   6.915
13715SOL    HW143104   4.057   8.914   6.828
13715SOL    HW243105   4.175   8.984   6.918
13716SOL     OW43106   4.126   8.199   7.184
13716SOL    HW143107   4.194   8.254   7.137
13716SOL    HW243108   4.166   8.111   7.211
13717SOL     OW43109   5.311   8.227   7.256
13717SOL    HW143110   5.219   8.265   7.251
13717SOL    HW243111   5.371   8.274   7.191
13718SOL     OW43112   4.737   7.553   7.356
13718SOL    HW143113   4.743   7.638   7.304
13718SOL    HW243114   4.769   7.477   7.299
13719SOL     OW43115   4.228   7.498   7.326
13719SOL    HW143116   4.186   7.441   7.256
13719SOL    HW243117   4.162   7.567   7.358
13720SOL     OW43118   4.297   8.318   6.615
13720SOL    HW143119   4.341   8.407   6.606
13720SOL    HW243120   4.234   8.318   6.692
13721SOL     OW43121   5.084   8.310   6.631
13721SOL    HW143122   5.009   8.310   6.565
13721SOL    HW243123   5.121   8.218   6.640
13722SOL     OW43124   4.933   7.973   5.861
13722SOL    HW143125   4.946   7.889   5.915
13722SOL    HW243126   4.904   8.047   5.921
13723SOL     OW43127   4.031   7.661   6.817
13723SOL    HW143128   4.008   7.698   6.907
13723SOL    HW243129   4.001   7.566   6.811
13724SOL     OW43130   3.761   8.758   6.868
13724SOL    HW143131   3.814   8.709   6.936
13724SOL    HW243132   3.783   8.856   6.873
13725SOL     OW43133   4.456   8.082   6.650
13725SOL    HW143134   4.515   8.056   6.574
13725SOL    HW243135   4.428   8.178   6.639
13726SOL     OW43136   5.452   8.383   7.440
13726SOL    HW143137   5.406   8.376   7.351
13726SOL    HW243138   5.390   8.427   7.506
13727SOL     OW43139   4.031   7.511   6.204
13727SOL    HW143140   4.020   7.605   6.237
13727SOL    HW243141   4.026   7.448   6.281
13728SOL     OW43142   5.346   7.815   5.960
13728SOL    HW143143   5.348   7.739   6.024
13728SOL    HW243144   5.298   7.892   6.000
13729SOL     OW43145   4.747   8.214   6.552
13729SOL    HW143146   4.762   8.235   6.648
13729SOL    HW243147   4.717   8.119   6.543
13730SOL     OW43148   5.583   8.966   7.191
13730SOL    HW143149   5.597   8.993   7.096
13730SOL    HW243150   5.666   8.988   7.244
13731SOL     OW43151   4.074   8.346   7.390
13731SOL    HW143152   4.150   8.390   7.438
13731SOL    HW243153   4.109   8.299   7.308
13732SOL     OW43154   5.264   7.722   5.711
13732SOL    HW143155   5.203   7.647   5.734
13732SOL    HW243156   5.286   7.774   5.794
13733SOL     OW43157   5.027   8.286   5.628
13733SOL    HW143158   5.061   8.193   5.643
13733SOL    HW243159   5.045   8.313   5.533
13734SOL     OW43160   4.792   8.781   6.435
13734SOL    HW143161   4.799   8.697   6.380
13734SOL    HW243162   4.854   8.850   6.399
13735SOL     OW43163   4.043   8.258   6.535
13735SOL    HW143164   4.136   8.294   6.540
13735SOL    HW243165   4.037   8.173   6.587
13736SOL     OW43166   4.063   7.957   6.592
13736SOL    HW143167   4.011   7.874   6.575
13736SOL    HW243168   4.140   7.962   6.528
13737SOL     OW43169   4.235   7.863   7.394
13737SOL    HW143170   4.217   7.908   7.482
13737SOL    HW243171   4.277   7.928   7.331
13738SOL     OW43172   4.862   7.828   7.264
13738SOL    HW143173   4.817   7.891   7.328
13738SOL    HW243174   4.955   7.859   7.247
13739SOL     OW43175   4.884   7.655   7.063
13739SOL    HW143176   4.884   7.719   7.140
13739SOL    HW243177   4.912   7.703   6.980
13740SOL     OW43178   3.732   8.774   5.786
13740SOL    HW143179   3.639   8.795   5.755
13740SOL    HW243180   3.742   8.675   5.799
13741SOL     OW43181   4.726   8.244   6.824
13741SOL    HW143182   4.767   8.212   6.910
13741SOL    HW243183   4.630   8.217   6.821
13742SOL     OW43184   3.764   7.992   6.700
13742SOL    HW143185   3.849   7.959   6.659
13742SOL    HW243186   3.777   8.007   6.798
13743SOL     OW43187   3.913   7.968   7.308
13743SOL    HW143188   3.972   7.928   7.238
13743SOL    HW243189   3.855   8.039   7.267
13744SOL     OW43190   5.093   8.398   7.246
13744SOL    HW143191   5.132   8.487   7.266
13744SOL    HW243192   5.103   8.378   7.149
13745SOL     OW43193   4.539   8.020   5.911
13745SOL    HW143194   4.546   7.931   5.865
13745SOL    HW243195   4.445   8.054   5.903
13746SOL     OW43196   5.381   8.052   6.792
13746SOL    HW143197   5.343   7.983   6.854
13746SOL    HW243198   5.463   8.016   6.748
13747SOL     OW43199   3.976   0.012   7.330
13747SOL    HW143200   3.946   0.069   7.406
13747SOL    HW243201   3.969  -0.085   7.356
13748SOL     OW43202   4.395   7.912   6.855
13748SOL    HW143203   4.361   7.823   6.825
13748SOL    HW243204   4.421   7.966   6.775
13749SOL     OW43205   4.197   7.948   5.777
13749SOL    HW143206   4.258   8.028   5.781
13749SOL    HW243207   4.102   7.979   5.784
13750SOL     OW43208   3.883   8.585   7.052
13750SOL    HW143209   3.905   8.524   7.128
13750SOL    HW243210   3.893   8.536   6.966
13751SOL     OW43211   5.071   8.507   6.820
13751SOL    HW143212   5.095   8.444   6.746
13751SOL    HW243213   4.981   8.547   6.802
13752SOL     OW43214   5.026   8.303   5.895
13752SOL    HW143215   4.940   8.272   5.937
13752SOL    HW243216   5.022   8.289   5.796
13753SOL     OW43217   3.807   8.706   6.608
13753SOL    HW143218   3.802   8.705   6.708
13753SOL    HW243219   3.724   8.665   6.570
13754SOL     OW43220   4.627   7.534   5.719
13754SOL    HW143221   4.678   7.535   5.633
13754SOL    HW243222   4.683   7.492   5.790
13755SOL     OW43223   5.450   7.583   6.109
13755SOL    HW143224   5.523   7.566   6.042
13755SOL    HW243225   5.419   7.496   6.147
13756SOL     OW43226   5.004   8.375   6.258
13756SOL    HW143227   5.064   8.294   6.260
13756SOL    HW243228   5.044   8.444   6.198
13757SOL     OW43229   4.554   8.721   7.008
13757SOL    HW143230   4.549   8.754   7.103
13757SOL    HW243231   4.468   8.740   6.962
13758SOL     OW43232   5.565   7.623   6.549
13758SOL    HW143233   5.604   7.538   6.513
13758SOL    HW243234   5.467   7.625   6.530
13759SOL     OW43235   3.987   7.774   6.306
13759SOL    HW143236   3.908   7.825   6.272
13759SOL    HW243237   3.978   7.759   6.404
13760SOL     OW43238   4.546   8.450   6.958
13760SOL    HW143239   4.586   8.449   6.866
13760SOL    HW243240   4.556   8.542   6.998
13761SOL     OW43241   4.640   8.358   5.877
13761SOL    HW143242   4.703   8.396   5.809
13761SOL    HW243243   4.680   8.275   5.916
13762SOL     OW43244   4.096   8.736   7.076
13762SOL    HW143245   4.083   8.829   7.042
13762SOL    HW243246   4.012   8.684   7.063
13763SOL     OW43247   5.338   8.740   6.875
13763SOL    HW143248   5.398   8.743   6.955
13763SOL    HW243249   5.263   8.804   6.888
13764SOL     OW43250   4.763   8.546   6.282
13764SOL    HW143251   4.693   8.499   6.336
13764SOL    HW243252   4.822   8.478   6.239
13765SOL     OW43253   4.738   7.684   6.557
13765SOL    HW143254   4.730   7.648   6.464
13765SOL    HW243255   4.736   7.608   6.622
13766SOL     OW43256   5.433   7.833   6.967
13766SOL    HW143257   5.506   7.902   6.971
13766SOL    HW243258   5.461   7.758   6.908
13767SOL     OW43259   3.979   8.796   5.876
13767SOL    HW143260   3.883   8.797   5.849
13767SOL    HW243261   3.991   8.849   5.960
13768SOL     OW43262   3.829   8.461   7.312
13768SOL    HW143263   3.752   8.428   7.366
13768SOL    HW243264   3.914   8.431   7.354
13769SOL     OW43265   4.396   7.651   7.075
13769SOL    HW143266   4.486   7.635   7.035
13769SOL    HW243267   4.404   7.656   7.174
13770SOL     OW43268   3.799   7.793   5.619
13770SOL    HW143269   3.707   7.765   5.590
13770SOL    HW243270   3.830   7.870   5.563
13771SOL     OW43271   5.164   8.304   6.984
13771SOL    HW143272   5.107   8.356   6.921
13771SOL    HW243273   5.260   8.316   6.960
13772SOL     OW43274   3.796   7.614   5.904
13772SOL    HW143275   3.779   7.697   5.850
13772SOL    HW243276   3.886   7.577   5.882
13773SOL     OW43277   4.907   8.783   5.705
13773SOL    HW143278   4.808   8.772   5.707
13773SOL    HW243279   4.941   8.798   5.798
13774SOL     OW43280   4.337   8.290   7.017
13774SOL    HW143281   4.393   8.371   7.000
13774SOL    HW243282   4.396   8.210   7.020
13775SOL     OW43283   4.440   8.013   7.294
13775SOL    HW143284   4.459   8.078   7.368
13775SOL    HW243285   4.500   7.933   7.303
13776SOL     OW43286   5.174   8.668   7.219
13776SOL    HW143287   5.165   8.658   7.318
13776SOL    HW243288   5.270   8.661   7.193
13777SOL     OW43289   5.398   8.331   6.840
13777SOL    HW143290   5.371   8.242   6.803
13777SOL    HW243291   5.399   8.399   6.767
13778SOL     OW43292   4.949   7.773   6.035
13778SOL    HW143293   5.014   7.699   6.024
13778SOL    HW243294   4.969   7.823   6.119
13779SOL     OW43295   4.318   8.193   6.238
13779SOL    HW143296   4.368   8.278   6.219
13779SOL    HW243297   4.230   8.195   6.190
13780SOL     OW43298   5.501   7.790   7.228
13780SOL    HW143299   5.484   7.821   7.134
13780SOL    HW243300   5.417   7.753   7.266
13781SOL     OW43301   5.454   8.382   7.103
13781SOL    HW143302   5.492   8.473   7.118
13781SOL    HW243303   5.446   8.365   7.004
13782SOL     OW43304   4.583   8.822   5.602
13782SOL    HW143305   4.537   8.837   5.690
13782SOL    HW243306   4.627   8.907   5.572
13783SOL     OW43307   4.583   8.404   6.447
13783SOL    HW143308   4.637   8.335   6.495
13783SOL    HW243309   4.551   8.473   6.513
13784SOL     OW43310   4.807   8.432   5.673
13784SOL    HW143311   4.784   8.485   5.591
13784SOL    HW243312   4.888   8.376   5.654
13785SOL     OW43313   3.945   8.762   7.430
13785SOL    HW143314   3.880   8.689   7.409
13785SOL    HW243315   3.949   8.776   7.528
13786SOL     OW43316   3.803   8.688   6.239
13786SOL    HW143317   3.802   8.641   6.327
13786SOL    HW243318   3.885   8.660   6.188
13787SOL     OW43319   4.396   8.839   7.210
13787SOL    HW143320   4.318   8.789   7.248
13787SOL    HW243321   4.393   8.934   7.241
13788SOL     OW43322   5.548   7.640   6.813
13788SOL    HW143323   5.544   7.550   6.857
13788SOL    HW243324   5.551   7.629   6.714
13789SOL     OW43325   4.152   7.872   6.106
13789SOL    HW143326   4.182   7.800   6.044
13789SOL    HW243327   4.113   7.832   6.189
13790SOL     OW43328   5.429   8.935   6.690
13790SOL    HW143329   5.336   8.910   6.663
13790SOL    HW243330   5.455   8.885   6.772
13791SOL     OW43331   4.041   7.995   6.866
13791SOL    HW143332   4.079   7.936   6.938
13791SOL    HW243333   4.081   7.969   6.778
13792SOL     OW43334   5.148   7.662   6.698
13792SOL    HW143335   5.200   7.597   6.753
13792SOL    HW243336   5.099   7.725   6.759
13793SOL     OW43337   4.725   7.482   6.740
13793SOL    HW143338   4.662   7.410   6.709
13793SOL    HW243339   4.818   7.446   6.740
13794SOL     OW43340   4.494   8.778   5.887
13794SOL    HW143341   4.448   8.691   5.904
13794SOL    HW243342   4.585   8.775   5.928
13795SOL     OW43343   4.342   0.015   6.870
13795SOL    HW143344   4.337   0.097   6.927
13795SOL    HW243345   4.431   0.012   6.825
13796SOL     OW43346   5.076   7.500   5.754
13796SOL    HW143347   5.111   7.459   5.670
13796SOL    HW243348   4.986   7.462   5.774
13797SOL     OW43349   5.024   7.901   6.277
13797SOL    HW143350   4.965   7.981   6.281
13797SOL    HW243351   5.039   7.866   6.370
13798SOL     OW43352   5.317   7.669   6.468
13798SOL    HW143353   5.233   7.668   6.522
13798SOL    HW243354   5.319   7.752   6.412
13799SOL     OW43355   3.763   8.525   5.886
13799SOL    HW143356   3.862   8.514   5.877
13799SOL    HW243357   3.723   8.439   5.918
13800SOL     OW43358   3.954   8.076   7.561
13800SOL    HW143359   3.861   8.074   7.598
13800SOL    HW243360   3.955   8.037   7.469
13801SOL     OW43361   3.949   7.723   8.444
13801SOL    HW143362   3.984   7.706   8.536
13801SOL    HW243363   3.861   7.678   8.432
13802SOL     OW43364   3.743   7.816   8.095
13802SOL    HW143365   3.661   7.859   8.134
13802SOL    HW243366   3.715   7.743   8.032
13803SOL     OW43367   4.293   8.723   8.613
13803SOL    HW143368   4.200   8.716   8.576
13803SOL    HW243369   4.304   8.812   8.657
13804SOL     OW43370   5.279   8.959   8.151
13804SOL    HW143371   5.222   8.943   8.232
13804SOL    HW243372   5.220   8.969   8.071
13805SOL     OW43373   5.467   8.066   8.304
13805SOL    HW143374   5.500   8.160   8.304
13805SOL    HW243375   5.518   8.012   8.370
13806SOL     OW43376   4.859   8.151   8.165
13806SOL    HW143377   4.916   8.229   8.140
13806SOL    HW243378   4.799   8.177   8.241
13807SOL     OW43379   5.479   8.055   7.679
13807SOL    HW143380   5.467   8.042   7.580
13807SOL    HW243381   5.449   7.974   7.728
13808SOL     OW43382   4.492   8.592   8.471
13808SOL    HW143383   4.414   8.609   8.531
13808SOL    HW243384   4.526   8.679   8.435
13809SOL     OW43385   4.409   8.460   8.113
13809SOL    HW143386   4.478   8.444   8.183
13809SOL    HW243387   4.336   8.517   8.151
13810SOL     OW43388   4.059   8.883   8.509
13810SOL    HW143389   3.981   8.852   8.456
13810SOL    HW243390   4.117   8.941   8.452
13811SOL     OW43391   5.184   8.953   8.787
13811SOL    HW143392   5.208   9.047   8.813
13811SOL    HW243393   5.168   8.899   8.869
13812SOL     OW43394   4.162   7.840   8.947
13812SOL    HW143395   4.244   7.784   8.956
13812SOL    HW243396   4.081   7.782   8.951
13813SOL     OW43397   5.327   7.895   8.185
13813SOL    HW143398   5.253   7.941   8.135
13813SOL    HW243399   5.378   7.963   8.238
13814SOL     OW43400   3.955   0.161   7.931
13814SOL    HW143401   3.989   0.238   7.985
13814SOL    HW243402   3.999   0.161   7.841
13815SOL     OW43403   3.954   8.882   7.986
13815SOL    HW143404   3.928   8.978   7.986
13815SOL    HW243405   3.883   8.828   8.031
13816SOL     OW43406   3.964   8.539   8.334
13816SOL    HW143407   3.978   8.455   8.386
13816SOL    HW243408   3.909   8.603   8.389
13817SOL     OW43409   4.330   8.412   7.571
13817SOL    HW143410   4.337   8.496   7.517
13817SOL    HW243411   4.376   8.425   7.659
13818SOL     OW43412   5.318   7.562   8.928
13818SOL    HW143413   5.300   7.629   8.856
13818SOL    HW243414   5.315   7.608   9.017
13819SOL     OW43415   3.846   8.091   8.011
13819SOL    HW143416   3.801   8.003   8.028
13819SOL    HW243417   3.845   8.145   8.095
13820SOL     OW43418   3.751   0.044   7.565
13820SOL    HW143419   3.732  -0.052   7.586
13820SOL    HW243420   3.718   0.102   7.640
13821SOL     OW43421   5.413   8.370   8.060
13821SOL    HW143422   5.508   8.341   8.068
13821SOL    HW243423   5.405   8.435   7.985
13822SOL     OW43424   5.365   8.556   7.880
13822SOL    HW143425   5.451   8.558   7.828
13822SOL    HW243426   5.379   8.603   7.968
13823SOL     OW43427   4.337   8.813   8.174
13823SOL    HW143428   4.288   8.726   8.183
13823SOL    HW243429   4.314   8.856   8.087
13824SOL     OW43430   4.533   7.452   7.950
13824SOL    HW143431   4.573   7.543   7.941
13824SOL    HW243432   4.433   7.460   7.956
13825SOL     OW43433   3.921   8.424   8.712
13825SOL    HW143434   4.010   8.379   8.698
13825SOL    HW243435   3.848   8.359   8.693
13826SOL     OW43436   5.249   8.447   7.638
13826SOL    HW143437   5.186   8.371   7.651
13826SOL    HW243438   5.297   8.465   7.724
13827SOL     OW43439   5.190   8.865   8.401
13827SOL    HW143440   5.131   8.871   8.481
13827SOL    HW243441   5.175   8.777   8.355
13828SOL     OW43442   4.322   8.177   7.718
13828SOL    HW143443   4.346   8.246   7.650
13828SOL    HW243444   4.244   8.210   7.772
13829SOL     OW43445   5.005   7.793   8.392
13829SOL    HW143446   4.919   7.743   8.379
13829SOL    HW243447   5.067   7.739   8.448
13830SOL     OW43448   4.531   8.053   8.913
13830SOL    HW143449   4.484   8.050   9.002
13830SOL    HW243450   4.480   7.998   8.847
13831SOL     OW43451   4.715   7.858   8.690
13831SOL    HW143452   4.638   7.892   8.744
13831SOL    HW243453   4.681   7.807   8.611
13832SOL     OW43454   4.765   8.149   7.877
13832SOL    HW143455   4.791   8.145   7.973
13832SOL    HW243456   4.680   8.098   7.863
13833SOL     OW43457   3.800   8.259   8.237
13833SOL    HW143458   3.899   8.247   8.246
13833SOL    HW243459   3.776   8.354   8.258
13834SOL     OW43460   4.589   7.796   7.643
13834SOL    HW143461   4.648   7.859   7.594
13834SOL    HW243462   4.608   7.702   7.614
13835SOL     OW43463   5.086   8.592   7.993
13835SOL    HW143464   5.169   8.563   7.945
13835SOL    HW243465   5.037   8.659   7.937
13836SOL     OW43466   4.274   7.644   8.333
13836SOL    HW143467   4.269   7.639   8.433
13836SOL    HW243468   4.276   7.740   8.304
13837SOL     OW43469   4.732   8.904   7.925
13837SOL    HW143470   4.686   8.976   7.873
13837SOL    HW243471   4.728   8.924   8.023
13838SOL     OW43472   5.519   8.514   8.321
13838SOL    HW143473   5.457   8.499   8.245
13838SOL    HW243474   5.467   8.525   8.406
13839SOL     OW43475   4.951   8.998   8.954
13839SOL    HW143476   4.957   8.921   9.018
13839SOL    HW243477   4.899   8.972   8.874
13840SOL     OW43478   4.045   8.391   7.690
13840SOL    HW143479   4.127   8.430   7.648
13840SOL    HW243480   4.018   8.309   7.641
13841SOL     OW43481   5.182   8.183   8.176
13841SOL    HW143482   5.177   8.118   8.251
13841SOL    HW243483   5.262   8.242   8.189
13842SOL     OW43484   4.835   0.224   7.685
13842SOL    HW143485   4.775   0.162   7.735
13842SOL    HW243486   4.866   0.180   7.600
13843SOL     OW43487   3.926   7.733   8.946
13843SOL    HW143488   3.846   7.793   8.933
13843SOL    HW243489   3.916   7.684   9.032
13844SOL     OW43490   5.356   8.825   7.529
13844SOL    HW143491   5.324   8.919   7.519
13844SOL    HW243492   5.280   8.762   7.517
13845SOL     OW43493   5.124   7.555   7.874
13845SOL    HW143494   5.100   7.518   7.784
13845SOL    HW243495   5.223   7.571   7.878
13846SOL     OW43496   4.106   8.148   7.928
13846SOL    HW143497   4.151   8.058   7.925
13846SOL    HW243498   4.012   8.137   7.961
13847SOL     OW43499   4.338   7.570   7.565
13847SOL    HW143500   4.436   7.548   7.572
13847SOL    HW243501   4.307   7.553   7.472
13848SOL     OW43502   4.527   8.850   8.372
13848SOL    HW143503   4.617   8.864   8.330
13848SOL    HW243504   4.456   8.852   8.301
13849SOL     OW43505   4.646   7.951   8.347
13849SOL    HW143506   4.621   7.942   8.251
13849SOL    HW243507   4.694   7.869   8.378
13850SOL     OW43508   4.263   7.512   7.960
13850SOL    HW143509   4.182   7.513   8.018
13850SOL    HW243510   4.266   7.595   7.905
13851SOL     OW43511   5.158   8.636   7.489
13851SOL    HW143512   5.190   8.560   7.546
13851SOL    HW243513   5.066   8.663   7.519
13852SOL     OW43514   4.021   7.483   7.619
13852SOL    HW143515   4.070   7.567   7.598
13852SOL    HW243516   4.083   7.418   7.664
13853SOL     OW43517   4.659   7.684   7.928
13853SOL    HW143518   4.611   7.725   7.850
13853SOL    HW243519   4.758   7.682   7.909
13854SOL     OW43520   4.951   0.018   8.241
13854SOL    HW143521   4.972   0.092   8.176
13854SOL    HW243522   5.019   0.018   8.314
13855SOL     OW43523   4.183   8.600   8.189
13855SOL    HW143524   4.112   8.573   8.254
13855SOL    HW243525   4.157   8.572   8.096
13856SOL     OW43526   4.756   7.997   7.464
13856SOL    HW143527   4.715   8.079   7.425
13856SOL    HW243528   4.820   8.023   7.537
13857SOL     OW43529   3.802   8.004   8.834
13857SOL    HW143530   3.894   8.003   8.793
13857SOL    HW243531   3.796   8.078   8.901
13858SOL     OW43532   4.285   7.670   8.595
13858SOL    HW143533   4.323   7.586   8.632
13858SOL    HW243534   4.197   7.689   8.639
13859SOL     OW43535   4.590   7.902   8.090
13859SOL    HW143536   4.558   7.974   8.028
13859SOL    HW243537   4.614   7.821   8.037
13860SOL     OW43538   4.741   7.487   8.201
13860SOL    HW143539   4.669   7.492   8.132
13860SOL    HW243540   4.717   7.418   8.270
13861SOL     OW43541   5.153   8.621   8.315
13861SOL    HW143542   5.098   8.537   8.308
13861SOL    HW243543   5.179   8.650   8.223
13862SOL     OW43544   5.190   8.038   8.440
13862SOL    HW143545   5.160   7.943   8.447
13862SOL    HW243546   5.263   8.054   8.506
13863SOL     OW43547   5.581   8.281   7.825
13863SOL    HW143548   5.623   8.217   7.889
13863SOL    HW243549   5.543   8.230   7.747
13864SOL     OW43550   4.212   8.833   7.622
13864SOL    HW143551   4.125   8.818   7.669
13864SOL    HW243552   4.195   8.859   7.527
13865SOL     OW43553   5.388   8.728   8.105
13865SOL    HW143554   5.487   8.736   8.119
13865SOL    HW243555   5.343   8.812   8.136
13866SOL     OW43556   5.114   8.023   7.526
13866SOL    HW143557   5.060   8.002   7.607
13866SOL    HW243558   5.205   7.982   7.535
13867SOL     OW43559   4.251   7.704   7.776
13867SOL    HW143560   4.278   7.645   7.701
13867SOL    HW243561   4.251   7.799   7.745
13868SOL     OW43562   4.788   8.795   8.788
13868SOL    HW143563   4.708   8.772   8.843
13868SOL    HW243564   4.871   8.769   8.837
13869SOL     OW43565   4.835   8.643   8.548
13869SOL    HW143566   4.795   8.687   8.629
13869SOL    HW243567   4.794   8.680   8.465
13870SOL     OW43568   5.362   8.547   8.527
13870SOL    HW143569   5.367   8.628   8.586
13870SOL    HW243570   5.276   8.549   8.476
13871SOL     OW43571   4.639   7.537   8.850
13871SOL    HW143572   4.664   7.517   8.755
13871SOL    HW243573   4.711   7.593   8.892
13872SOL     OW43574   4.429   8.498   7.816
13872SOL    HW143575   4.415   8.505   7.915
13872SOL    HW243576   4.513   8.447   7.798
13873SOL     OW43577   4.134   8.261   8.699
13873SOL    HW143578   4.220   8.273   8.749
13873SOL    HW243579   4.092   8.174   8.726
13874SOL     OW43580   4.998   7.834   8.710
13874SOL    HW143581   5.019   7.908   8.774
13874SOL    HW243582   4.909   7.851   8.667
13875SOL     OW43583   4.091   8.548   7.949
13875SOL    HW143584   4.084   8.631   7.893
13875SOL    HW243585   4.095   8.468   7.889
13876SOL     OW43586   4.290   7.985   8.313
13876SOL    HW143587   4.302   8.051   8.239
13876SOL    HW243588   4.336   8.019   8.396
13877SOL     OW43589   4.976   8.796   7.836
13877SOL    HW143590   5.026   8.873   7.876
13877SOL    HW243591   4.881   8.798   7.868
13878SOL     OW43592   4.996   8.893   8.590
13878SOL    HW143593   5.043   8.906   8.677
13878SOL    HW243594   4.930   8.819   8.599
13879SOL     OW43595   5.306   8.087   7.920
13879SOL    HW143596   5.275   8.148   7.993
13879SOL    HW243597   5.356   8.139   7.851
13880SOL     OW43598   4.078   8.958   8.777
13880SOL    HW143599   4.057   8.914   8.690
13880SOL    HW243600   4.175   8.984   8.780
13881SOL     OW43601   4.126   8.199   0.046
13881SOL    HW143602   4.194   8.254  -0.001
13881SOL    HW243603   4.166   8.111   0.073
13882SOL     OW43604   5.311   8.227   0.118
13882SOL    HW143605   5.219   8.265   0.113
13882SOL    HW243606   5.371   8.274   0.053
13883SOL     OW43607   4.297   8.318   8.477
13883SOL    HW143608   4.341   8.407   8.468
13883SOL    HW243609   4.234   8.318   8.554
13884SOL     OW43610   5.084   8.310   8.493
13884SOL    HW143611   5.009   8.310   8.427
13884SOL    HW243612   5.121   8.218   8.502
13885SOL     OW43613   4.933   7.973   7.723
13885SOL    HW143614   4.946   7.889   7.777
13885SOL    HW243615   4.904   8.047   7.783
13886SOL     OW43616   4.031   7.661   8.679
13886SOL    HW143617   4.008   7.698   8.769
13886SOL    HW243618   4.001   7.566   8.673
13887SOL     OW43619   3.761   8.758   8.730
13887SOL    HW143620   3.814   8.709   8.798
13887SOL    HW243621   3.783   8.856   8.735
13888SOL     OW43622   4.456   8.082   8.512
13888SOL    HW143623   4.515   8.056   8.436
13888SOL    HW243624   4.428   8.178   8.501
13889SOL     OW43625   4.031   7.511   8.066
13889SOL    HW143626   4.020   7.605   8.099
13889SOL    HW243627   4.026   7.448   8.143
13890SOL     OW43628   5.346   7.815   7.822
13890SOL    HW143629   5.348   7.739   7.886
13890SOL    HW243630   5.298   7.892   7.862
13891SOL     OW43631   4.747   8.214   8.414
13891SOL    HW143632   4.762   8.235   8.510
13891SOL    HW243633   4.717   8.119   8.405
13892SOL     OW43634   5.583   8.966   0.053
13892SOL    HW143635   5.597   8.993  -0.042
13892SOL    HW243636   5.666   8.988   0.106
13893SOL     OW43637   5.264   7.722   7.573
13893SOL    HW143638   5.203   7.647   7.596
13893SOL    HW243639   5.286   7.774   7.656
13894SOL     OW43640   5.027   8.286   7.490
13894SOL    HW143641   5.061   8.193   7.505
13894SOL    HW243642   5.045   8.313   7.395
13895SOL     OW43643   4.792   8.781   8.297
13895SOL    HW143644   4.799   8.697   8.242
13895SOL    HW243645   4.854   8.850   8.261
13896SOL     OW43646   4.043   8.258   8.397
13896SOL    HW143647   4.136   8.294   8.402
13896SOL    HW243648   4.037   8.173   8.449
13897SOL     OW43649   4.063   7.957   8.454
13897SOL    HW143650   4.011   7.874   8.437
13897SOL    HW243651   4.140   7.962   8.390
13898SOL     OW43652   4.862   7.828   0.126
13898SOL    HW143653   4.817   7.891   0.190
13898SOL    HW243654   4.955   7.859   0.109
13899SOL     OW43655   4.884   7.655   8.925
13899SOL    HW143656   4.884   7.719   9.002
13899SOL    HW243657   4.912   7.703   8.842
13900SOL     OW43658   3.732   8.774   7.648
13900SOL    HW143659   3.639   8.795   7.617
13900SOL    HW243660   3.742   8.675   7.661
13901SOL     OW43661   4.726   8.244   8.686
13901SOL    HW143662   4.767   8.212   8.772
13901SOL    HW243663   4.630   8.217   8.683
13902SOL     OW43664   3.764   7.992   8.562
13902SOL    HW143665   3.849   7.959   8.521
13902SOL    HW243666   3.777   8.007   8.660
13903SOL     OW43667   4.539   8.020   7.773
13903SOL    HW143668   4.546   7.931   7.727
13903SOL    HW243669   4.445   8.054   7.765
13904SOL     OW43670   5.381   8.052   8.654
13904SOL    HW143671   5.343   7.983   8.716
13904SOL    HW243672   5.463   8.016   8.610
13905SOL     OW43673   4.395   7.912   8.717
13905SOL    HW143674   4.361   7.823   8.687
13905SOL    HW243675   4.421   7.966   8.637
13906SOL     OW43676   4.197   7.948   7.639
13906SOL    HW143677   4.258   8.028   7.643
13906SOL    HW243678   4.102   7.979   7.646
13907SOL     OW43679   3.883   8.585   8.914
13907SOL    HW143680   3.905   8.524   8.990
13907SOL    HW243681   3.893   8.536   8.828
13908SOL     OW43682   5.071   8.507   8.682
13908SOL    HW143683   5.095   8.444   8.608
13908SOL    HW243684   4.981   8.547   8.664
13909SOL     OW43685   5.026   8.303   7.757
13909SOL    HW143686   4.940   8.272   7.799
13909SOL    HW243687   5.022   8.289   7.658
13910SOL     OW43688   3.807   8.706   8.470
13910SOL    HW143689   3.802   8.705   8.570
13910SOL    HW243690   3.724   8.665   8.432
13911SOL     OW43691   4.627   7.534   7.581
13911SOL    HW143692   4.678   7.535   7.495
13911SOL    HW243693   4.683   7.492   7.652
13912SOL     OW43694   5.450   7.583   7.971
13912SOL    HW143695   5.523   7.566   7.904
13912SOL    HW243696   5.419   7.496   8.009
13913SOL     OW43697   5.004   8.375   8.120
13913SOL    HW143698   5.064   8.294   8.122
13913SOL    HW243699   5.044   8.444   8.060
13914SOL     OW43700   5.565   7.623   8.411
13914SOL    HW143701   5.604   7.538   8.375
13914SOL    HW243702   5.467   7.625   8.392
13915SOL     OW43703   3.987   7.774   8.168
13915SOL    HW143704   3.908   7.825   8.134
13915SOL    HW243705   3.978   7.759   8.266
13916SOL     OW43706   4.546   8.450   8.820
13916SOL    HW143707   4.586   8.449   8.728
13916SOL    HW243708   4.556   8.542   8.860
13917SOL     OW43709   4.640   8.358   7.739
13917SOL    HW143710   4.703   8.396   7.671
13917SOL    HW243711   4.680   8.275   7.778
13918SOL     OW43712   4.096   8.736   8.938
13918SOL    HW143713   4.083   8.829   8.904
13918SOL    HW243714   4.012   8.684   8.925
13919SOL     OW43715   5.338   8.740   8.737
13919SOL    HW143716   5.398   8.743   8.817
13919SOL    HW243717   5.263   8.804   8.750
13920SOL     OW43718   4.763   8.546   8.144
13920SOL    HW143719   4.693   8.499   8.198
13920SOL    HW243720   4.822   8.478   8.101
13921SOL     OW43721   4.738   7.684   8.419
13921SOL    HW143722   4.730   7.648   8.326
13921SOL    HW243723   4.736   7.608   8.484
13922SOL     OW43724   5.433   7.833   8.829
13922SOL    HW143725   5.506   7.902   8.833
13922SOL    HW243726   5.461   7.758   8.770
13923SOL     OW43727   3.979   8.796   7.738
13923SOL    HW143728   3.883   8.797   7.711
13923SOL    HW243729   3.991   8.849   7.822
13924SOL     OW43730   3.799   7.793   7.481
13924SOL    HW143731   3.707   7.765   7.452
13924SOL    HW243732   3.830   7.870   7.425
13925SOL     OW43733   5.164   8.304   8.846
13925SOL    HW143734   5.107   8.356   8.783
13925SOL    HW243735   5.260   8.316   8.822
13926SOL     OW43736   3.796   7.614   7.766
13926SOL    HW143737   3.779   7.697   7.712
13926SOL    HW243738   3.886   7.577   7.744
13927SOL     OW43739   4.907   8.783   7.567
13927SOL    HW143740   4.808   8.772   7.569
13927SOL    HW243741   4.941   8.798   7.660
13928SOL     OW43742   4.337   8.290   8.879
13928SOL    HW143743   4.393   8.371   8.862
13928SOL    HW243744   4.396   8.210   8.882
13929SOL     OW43745   5.398   8.331   8.702
13929SOL    HW143746   5.371   8.242   8.665
13929SOL    HW243747   5.399   8.399   8.629
13930SOL     OW43748   4.949   7.773   7.897
13930SOL    HW143749   5.014   7.699   7.886
13930SOL    HW243750   4.969   7.823   7.981
13931SOL     OW43751   4.318   8.193   8.100
13931SOL    HW143752   4.368   8.278   8.081
13931SOL    HW243753   4.230   8.195   8.052
13932SOL     OW43754   5.501   7.790   0.090
13932SOL    HW143755   5.484   7.821  -0.004
13932SOL    HW243756   5.417   7.753   0.128
13933SOL     OW43757   5.454   8.382   8.965
13933SOL    HW143758   5.492   8.473   8.980
13933SOL    HW243759   5.446   8.365   8.866
13934SOL     OW43760   4.583   8.822   7.464
13934SOL    HW143761   4.537   8.837   7.552
13934SOL    HW243762   4.627   8.907   7.434
13935SOL     OW43763   4.583   8.404   8.309
13935SOL    HW143764   4.637   8.335   8.357
13935SOL    HW243765   4.551   8.473   8.375
13936SOL     OW43766   4.807   8.432   7.535
13936SOL    HW143767   4.784   8.485   7.453
13936SOL    HW243768   4.888   8.376   7.516
13937SOL     OW43769   3.803   8.688   8.101
13937SOL    HW143770   3.802   8.641   8.189
13937SOL    HW243771   3.885   8.660   8.050
13938SOL     OW43772   5.548   7.640   8.675
13938SOL    HW143773   5.544   7.550   8.719
13938SOL    HW243774   5.551   7.629   8.576
13939SOL     OW43775   4.152   7.872   7.968
13939SOL    HW143776   4.182   7.800   7.906
13939SOL    HW243777   4.113   7.832   8.051
13940SOL     OW43778   5.429   8.935   8.552
13940SOL    HW143779   5.336   8.910   8.525
13940SOL    HW243780   5.455   8.885   8.634
13941SOL     OW43781   4.041   7.995   8.728
13941SOL    HW143782   4.079   7.936   8.800
13941SOL    HW243783   4.081   7.969   8.640
13942SOL     OW43784   5.148   7.662   8.560
13942SOL    HW143785   5.200   7.597   8.615
13942SOL    HW243786   5.099   7.725   8.621
13943SOL     OW43787   4.725   7.482   8.602
13943SOL    HW143788   4.662   7.410   8.571
13943SOL    HW243789   4.818   7.446   8.602
13944SOL     OW43790   4.494   8.778   7.749
13944SOL    HW143791   4.448   8.691   7.766
13944SOL    HW243792   4.585   8.775   7.790
13945SOL     OW43793   4.342   0.015   8.732
13945SOL    HW143794   4.337   0.097   8.789
13945SOL    HW243795   4.431   0.012   8.687
13946SOL     OW43796   5.076   7.500   7.616
13946SOL    HW143797   5.111   7.459   7.532
13946SOL    HW243798   4.986   7.462   7.636
13947SOL     OW43799   5.024   7.901   8.139
13947SOL    HW143800   4.965   7.981   8.143
13947SOL    HW243801   5.039   7.866   8.232
13948SOL     OW43802   5.317   7.669   8.330
13948SOL    HW143803   5.233   7.668   8.384
13948SOL    HW243804   5.319   7.752   8.274
13949SOL     OW43805   3.763   8.525   7.748
13949SOL    HW143806   3.862   8.514   7.739
13949SOL    HW243807   3.723   8.439   7.780
13950SOL     OW43808   5.816   0.628   0.113
13950SOL    HW143809   5.723   0.626   0.150
13950SOL    HW243810   5.817   0.589   0.021
13951SOL     OW43811   5.811   0.275   0.996
13951SOL    HW143812   5.846   0.258   1.088
13951SOL    HW243813   5.723   0.230   0.984
13952SOL     OW43814   5.605   0.368   0.647
13952SOL    HW143815   5.523   0.411   0.686
13952SOL    HW243816   5.577   0.295   0.584
13953SOL     OW43817   6.155   1.275   1.165
13953SOL    HW143818   6.062   1.268   1.128
13953SOL    HW243819   6.166   1.364   1.209
13954SOL     OW43820   7.141   1.511   0.703
13954SOL    HW143821   7.084   1.495   0.784
13954SOL    HW243822   7.082   1.521   0.623
13955SOL     OW43823   7.329   0.618   0.856
13955SOL    HW143824   7.362   0.712   0.856
13955SOL    HW243825   7.380   0.564   0.922
13956SOL     OW43826   6.721   0.703   0.717
13956SOL    HW143827   6.778   0.781   0.692
13956SOL    HW243828   6.661   0.729   0.793
13957SOL     OW43829   7.341   0.607   0.231
13957SOL    HW143830   7.329   0.594   0.132
13957SOL    HW243831   7.311   0.526   0.280
13958SOL     OW43832   6.354   1.144   1.023
13958SOL    HW143833   6.276   1.161   1.083
13958SOL    HW243834   6.388   1.231   0.987
13959SOL     OW43835   6.436   0.798   1.823
13959SOL    HW143836   6.432   0.874   1.888
13959SOL    HW243837   6.458   0.834   1.732
13960SOL     OW43838   6.271   1.012   0.665
13960SOL    HW143839   6.340   0.996   0.735
13960SOL    HW243840   6.198   1.069   0.703
13961SOL     OW43841   7.046   1.505   1.339
13961SOL    HW143842   7.070   1.599   1.365
13961SOL    HW243843   7.030   1.451   1.421
13962SOL     OW43844   6.024   0.392   1.499
13962SOL    HW143845   6.106   0.336   1.508
13962SOL    HW243846   5.943   0.334   1.503
13963SOL     OW43847   7.189   0.447   0.737
13963SOL    HW143848   7.115   0.493   0.687
13963SOL    HW243849   7.240   0.515   0.790
13964SOL     OW43850   5.817   1.713   0.483
13964SOL    HW143851   5.851   1.790   0.537
13964SOL    HW243852   5.861   1.713   0.393
13965SOL     OW43853   6.713   1.341   1.690
13965SOL    HW143854   6.760   1.341   1.778
13965SOL    HW243855   6.665   1.254   1.679
13966SOL     OW43856   5.816   1.434   0.538
13966SOL    HW143857   5.790   1.530   0.538
13966SOL    HW243858   5.745   1.380   0.583
13967SOL     OW43859   5.826   1.091   0.886
13967SOL    HW143860   5.840   1.007   0.938
13967SOL    HW243861   5.771   1.155   0.941
13968SOL     OW43862   6.192   0.964   0.123
13968SOL    HW143863   6.199   1.048   0.069
13968SOL    HW243864   6.238   0.977   0.211
13969SOL     OW43865   7.180   0.114   1.480
13969SOL    HW143866   7.162   0.181   1.408
13969SOL    HW243867   7.177   0.160   1.569
13970SOL     OW43868   5.708   0.643   0.563
13970SOL    HW143869   5.663   0.555   0.580
13970SOL    HW243870   5.707   0.697   0.647
13971SOL     OW43871   7.428   1.767   0.359
13971SOL    HW143872   7.482   1.738   0.439
13971SOL    HW243873   7.458   1.857   0.330
13972SOL     OW43874   7.275   0.922   0.612
13972SOL    HW143875   7.370   0.893   0.620
13972SOL    HW243876   7.267   0.987   0.537
13973SOL     OW43877   7.227   1.108   0.432
13973SOL    HW143878   7.313   1.110   0.380
13973SOL    HW243879   7.241   1.155   0.520
13974SOL     OW43880   5.699   0.737   1.597
13974SOL    HW143881   5.787   0.724   1.642
13974SOL    HW243882   5.686   0.834   1.575
13975SOL     OW43883   6.199   1.365   0.726
13975SOL    HW143884   6.150   1.278   0.735
13975SOL    HW243885   6.176   1.408   0.639
13976SOL     OW43886   6.879   1.228   1.423
13976SOL    HW143887   6.916   1.155   1.365
13976SOL    HW243888   6.931   1.233   1.508
13977SOL     OW43889   6.395   0.004   0.502
13977SOL    HW143890   6.435   0.095   0.493
13977SOL    HW243891   6.295   0.012   0.508
13978SOL     OW43892   5.783   0.976   1.264
13978SOL    HW143893   5.872   0.931   1.250
13978SOL    HW243894   5.710   0.911   1.245
13979SOL     OW43895   7.111   0.999   0.190
13979SOL    HW143896   7.048   0.923   0.203
13979SOL    HW243897   7.159   1.017   0.276
13980SOL     OW43898   6.773   1.792   1.616
13980SOL    HW143899   6.797   1.852   1.540
13980SOL    HW243900   6.780   1.697   1.586
13981SOL     OW43901   5.903   0.251   1.801
13981SOL    HW143902   5.974   0.322   1.807
13981SOL    HW243903   5.815   0.290   1.829
13982SOL     OW43904   7.052   1.417   0.953
13982SOL    HW143905   6.993   1.423   1.033
13982SOL    HW243906   7.037   1.329   0.907
13983SOL     OW43907   7.253   1.714   0.572
13983SOL    HW143908   7.212   1.691   0.484
13983SOL    HW243909   7.235   1.640   0.637
13984SOL     OW43910   6.184   0.729   0.270
13984SOL    HW143911   6.208   0.798   0.202
13984SOL    HW243912   6.106   0.762   0.324
13985SOL     OW43913   6.867   0.345   0.944
13985SOL    HW143914   6.781   0.295   0.931
13985SOL    HW243915   6.929   0.291   1.000
13986SOL     OW43916   7.162   1.662   0.307
13986SOL    HW143917   7.251   1.708   0.310
13986SOL    HW243918   7.141   1.638   0.212
13987SOL     OW43919   6.393   0.605   1.465
13987SOL    HW143920   6.346   0.602   1.554
13987SOL    HW243921   6.342   0.550   1.399
13988SOL     OW43922   6.980   0.469   1.674
13988SOL    HW143923   6.960   0.512   1.762
13988SOL    HW243924   7.058   0.407   1.683
13989SOL     OW43925   6.559   0.890   1.572
13989SOL    HW143926   6.605   0.806   1.543
13989SOL    HW243927   6.503   0.924   1.497
13990SOL     OW43928   6.577   0.410   1.242
13990SOL    HW143929   6.500   0.444   1.296
13990SOL    HW243930   6.543   0.359   1.163
13991SOL     OW43931   6.627   0.701   0.429
13991SOL    HW143932   6.653   0.697   0.525
13991SOL    HW243933   6.542   0.650   0.415
13992SOL     OW43934   5.662   0.811   0.789
13992SOL    HW143935   5.761   0.799   0.798
13992SOL    HW243936   5.638   0.906   0.810
13993SOL     OW43937   5.716   1.821   1.571
13993SOL    HW143938   5.706   1.806   1.670
13993SOL    HW243939   5.630   1.857   1.535
13994SOL     OW43940   6.451   0.348   0.195
13994SOL    HW143941   6.510   0.411   0.146
13994SOL    HW243942   6.470   0.254   0.166
13995SOL     OW43943   7.305   0.585   1.831
13995SOL    HW143944   7.279   0.674   1.795
13995SOL    HW243945   7.303   0.517   1.758
13996SOL     OW43946   6.948   1.144   0.545
13996SOL    HW143947   7.031   1.115   0.497
13996SOL    HW243948   6.899   1.211   0.489
13997SOL     OW43949   6.136   0.196   0.885
13997SOL    HW143950   6.131   0.191   0.985
13997SOL    HW243951   6.138   0.292   0.856
13998SOL     OW43952   6.594   1.456   0.477
13998SOL    HW143953   6.548   1.528   0.425
13998SOL    HW243954   6.590   1.476   0.575
13999SOL     OW43955   5.937   1.801   0.853
13999SOL    HW143956   5.987   1.715   0.859
13999SOL    HW243957   6.002   1.878   0.850
14000SOL     OW43958   7.381   1.066   0.873
14000SOL    HW143959   7.319   1.051   0.797
14000SOL    HW243960   7.329   1.077   0.958
14001SOL     OW43961   6.813   1.550   1.506
14001SOL    HW143962   6.819   1.473   1.570
14001SOL    HW243963   6.761   1.524   1.426
14002SOL     OW43964   5.907   0.943   0.242
14002SOL    HW143965   5.989   0.982   0.200
14002SOL    HW243966   5.880   0.861   0.193
14003SOL     OW43967   7.044   0.735   0.728
14003SOL    HW143968   7.039   0.670   0.803
14003SOL    HW243969   7.124   0.794   0.741
14004SOL     OW43970   6.047   1.266   1.727
14004SOL    HW143971   5.997   1.267   1.641
14004SOL    HW243972   5.984   1.248   1.803
14005SOL     OW43973   6.697   1.776   0.237
14005SOL    HW143974   6.637   1.714   0.287
14005SOL    HW243975   6.728   1.732   0.152
14006SOL     OW43976   5.788   0.285   1.498
14006SOL    HW143977   5.708   0.345   1.485
14006SOL    HW243978   5.778   0.236   1.584
14007SOL     OW43979   7.218   1.377   0.081
14007SOL    HW143980   7.186   1.471   0.071
14007SOL    HW243981   7.142   1.314   0.069
14008SOL     OW43982   6.050   1.743   0.323
14008SOL    HW143983   6.083   1.782   0.409
14008SOL    HW243984   6.126   1.736   0.258
14009SOL     OW43985   6.986   0.107   0.426
14009SOL    HW143986   6.962   0.070   0.336
14009SOL    HW243987   7.085   0.123   0.430
14010SOL     OW43988   5.968   0.700   0.480
14010SOL    HW143989   6.013   0.610   0.477
14010SOL    HW243990   5.874   0.689   0.513
14011SOL     OW43991   7.133   0.222   1.729
14011SOL    HW143992   7.128   0.259   1.821
14011SOL    HW243993   7.061   0.153   1.717
14012SOL     OW43994   6.200   0.122   0.117
14012SOL    HW143995   6.298   0.100   0.124
14012SOL    HW243996   6.169   0.105   0.024
14013SOL     OW43997   6.367   0.264   1.749
14013SOL    HW143998   6.434   0.203   1.792
14013SOL    HW243999   6.294   0.283   1.814
14014SOL     OW44000   6.937   0.590   1.433
14014SOL    HW144001   6.965   0.547   1.518
14014SOL    HW244002   6.962   0.686   1.434
14015SOL     OW44003   6.508   0.503   0.899
14015SOL    HW144004   6.483   0.494   0.803
14015SOL    HW244005   6.556   0.421   0.930
14016SOL     OW44006   6.125   0.064   0.512
14016SOL    HW144007   6.044   0.065   0.570
14016SOL    HW244008   6.128   0.147   0.457
14017SOL     OW44009   7.020   1.188   0.041
14017SOL    HW144010   7.052   1.112   0.098
14017SOL    HW244011   6.928   1.215   0.071
14018SOL     OW44012   5.883   0.035   0.171
14018SOL    HW144013   5.932   0.119   0.150
14018SOL    HW244014   5.945  -0.030   0.216
14019SOL     OW44015   6.521   0.236   0.480
14019SOL    HW144016   6.473   0.277   0.402
14019SOL    HW244017   6.620   0.234   0.461
14020SOL     OW44018   6.662   0.683   1.464
14020SOL    HW144019   6.582   0.622   1.467
14020SOL    HW244020   6.743   0.630   1.440
14021SOL     OW44021   6.045   1.152   0.741
14021SOL    HW144022   5.974   1.125   0.806
14021SOL    HW244023   6.019   1.124   0.648
14022SOL     OW44024   6.857   1.797   0.591
14022SOL    HW144025   6.901   1.861   0.527
14022SOL    HW244026   6.807   1.849   0.661
14023SOL     OW44027   6.618   0.549   0.016
14023SOL    HW144028   6.577   0.631  -0.023
14023SOL    HW244029   6.682   0.575   0.089
14024SOL     OW44030   5.664   0.556   1.386
14024SOL    HW144031   5.756   0.555   1.345
14024SOL    HW244032   5.658   0.630   1.453
14025SOL     OW44033   6.147   0.222   1.147
14025SOL    HW144034   6.185   0.138   1.184
14025SOL    HW244035   6.059   0.241   1.191
14026SOL     OW44036   6.452   0.454   0.642
14026SOL    HW144037   6.420   0.526   0.580
14026SOL    HW244038   6.476   0.373   0.589
14027SOL     OW44039   6.603   0.039   0.753
14027SOL    HW144040   6.531   0.044   0.684
14027SOL    HW244041   6.579  -0.030   0.822
14028SOL     OW44042   7.015   1.173   0.867
14028SOL    HW144043   6.960   1.089   0.860
14028SOL    HW244044   7.041   1.202   0.775
14029SOL     OW44045   7.052   0.590   0.992
14029SOL    HW144046   7.022   0.495   0.999
14029SOL    HW244047   7.125   0.606   1.058
14030SOL     OW44048   7.443   0.833   0.377
14030SOL    HW144049   7.485   0.769   0.441
14030SOL    HW244050   7.405   0.782   0.299
14031SOL     OW44051   6.074   1.385   0.174
14031SOL    HW144052   5.987   1.370   0.221
14031SOL    HW244053   6.057   1.411   0.079
14032SOL     OW44054   7.250   1.280   0.657
14032SOL    HW144055   7.349   1.288   0.671
14032SOL    HW244056   7.205   1.364   0.688
14033SOL     OW44057   6.976   0.575   0.078
14033SOL    HW144058   6.922   0.554   0.159
14033SOL    HW244059   7.067   0.534   0.087
14034SOL     OW44060   6.113   0.256   0.328
14034SOL    HW144061   6.140   0.197   0.253
14034SOL    HW244062   6.113   0.351   0.297
14035SOL     OW44063   7.340   1.223   1.588
14035SOL    HW144064   7.431   1.184   1.575
14035SOL    HW244065   7.348   1.319   1.612
14036SOL     OW44066   7.178   1.629   1.625
14036SOL    HW144067   7.205   1.663   1.535
14036SOL    HW244068   7.257   1.591   1.671
14037SOL     OW44069   6.697   1.195   1.100
14037SOL    HW144070   6.657   1.239   1.181
14037SOL    HW244071   6.656   1.232   1.017
14038SOL     OW44072   7.224   1.099   1.079
14038SOL    HW144073   7.229   1.180   1.138
14038SOL    HW244074   7.138   1.101   1.028
14039SOL     OW44075   6.501   0.089   1.402
14039SOL    HW144076   6.526   0.069   1.307
14039SOL    HW244077   6.573   0.145   1.444
14040SOL     OW44078   6.291   1.050   0.368
14040SOL    HW144079   6.277   1.057   0.467
14040SOL    HW244080   6.375   0.999   0.350
14041SOL     OW44081   5.996   0.813   1.251
14041SOL    HW144082   6.082   0.825   1.301
14041SOL    HW244083   5.954   0.726   1.278
14042SOL     OW44084   6.860   0.386   1.262
14042SOL    HW144085   6.881   0.460   1.326
14042SOL    HW244086   6.771   0.403   1.219
14043SOL     OW44087   5.953   1.100   0.501
14043SOL    HW144088   5.946   1.183   0.445
14043SOL    HW244089   5.957   1.020   0.441
14044SOL     OW44090   6.152   0.537   0.865
14044SOL    HW144091   6.164   0.603   0.791
14044SOL    HW244092   6.198   0.571   0.948
14045SOL     OW44093   6.838   1.348   0.388
14045SOL    HW144094   6.888   1.425   0.428
14045SOL    HW244095   6.743   1.350   0.420
14046SOL     OW44096   6.858   1.445   1.142
14046SOL    HW144097   6.905   1.458   1.229
14046SOL    HW244098   6.792   1.371   1.151
14047SOL     OW44099   7.168   0.639   0.472
14047SOL    HW144100   7.137   0.700   0.545
14047SOL    HW244101   7.218   0.691   0.403
14048SOL     OW44102   5.988   0.751   1.598
14048SOL    HW144103   6.056   0.806   1.551
14048SOL    HW244104   6.028   0.663   1.625
14049SOL     OW44105   7.173   0.779   1.670
14049SOL    HW144106   7.081   0.817   1.665
14049SOL    HW244107   7.233   0.826   1.605
14050SOL     OW44108   6.599   0.105   1.770
14050SOL    HW144109   6.605   0.190   1.718
14050SOL    HW244110   6.631   0.029   1.713
14051SOL     OW44111   6.090   0.050   1.740
14051SOL    HW144112   6.048  -0.007   1.670
14051SOL    HW244113   6.024   0.119   1.772
14052SOL     OW44114   6.159   0.870   1.029
14052SOL    HW144115   6.203   0.959   1.020
14052SOL    HW244116   6.096   0.870   1.106
14053SOL     OW44117   6.946   0.862   1.045
14053SOL    HW144118   6.871   0.862   0.979
14053SOL    HW244119   6.983   0.770   1.054
14054SOL     OW44120   6.795   0.525   0.275
14054SOL    HW144121   6.808   0.441   0.329
14054SOL    HW244122   6.766   0.599   0.335
14055SOL     OW44123   5.893   0.213   1.231
14055SOL    HW144124   5.870   0.250   1.321
14055SOL    HW244125   5.863   0.118   1.225
14056SOL     OW44126   5.623   1.310   1.282
14056SOL    HW144127   5.676   1.261   1.350
14056SOL    HW244128   5.645   1.408   1.287
14057SOL     OW44129   6.318   0.634   1.064
14057SOL    HW144130   6.377   0.608   0.988
14057SOL    HW244131   6.290   0.730   1.053
14058SOL     OW44132   7.314   0.935   1.854
14058SOL    HW144133   7.268   0.928   1.765
14058SOL    HW244134   7.252   0.979   1.920
14059SOL     OW44135   5.893   0.063   0.618
14059SOL    HW144136   5.882   0.157   0.651
14059SOL    HW244137   5.888   0.000   0.695
14060SOL     OW44138   7.208   0.367   0.374
14060SOL    HW144139   7.210   0.291   0.438
14060SOL    HW244140   7.160   0.444   0.414
14061SOL     OW44141   6.609   0.766   0.966
14061SOL    HW144142   6.624   0.787   1.062
14061SOL    HW244143   6.579   0.671   0.957
14062SOL     OW44144   6.566   1.573   1.700
14062SOL    HW144145   6.546   1.617   1.612
14062SOL    HW244146   6.605   1.482   1.684
14063SOL     OW44147   7.445   1.518   1.605
14063SOL    HW144148   7.459   1.545   1.510
14063SOL    HW244149   7.528   1.540   1.658
14064SOL     OW44150   5.936   0.898   1.804
14064SOL    HW144151   6.012   0.942   1.852
14064SOL    HW244152   5.971   0.851   1.722
14065SOL     OW44153   7.126   0.274   0.125
14065SOL    HW144154   7.065   0.199   0.148
14065SOL    HW244155   7.148   0.326   0.208
14066SOL     OW44156   6.889   0.838   0.042
14066SOL    HW144157   6.923   0.745   0.057
14066SOL    HW244158   6.907   0.865  -0.053
14067SOL     OW44159   5.905   0.810   0.949
14067SOL    HW144160   5.998   0.846   0.954
14067SOL    HW244161   5.899   0.725   1.001
14068SOL     OW44162   5.925   0.509   1.006
14068SOL    HW144163   5.873   0.426   0.989
14068SOL    HW244164   6.002   0.514   0.942
14069SOL     OW44165   6.724   0.380   1.678
14069SOL    HW144166   6.679   0.443   1.742
14069SOL    HW244167   6.817   0.411   1.661
14070SOL     OW44168   6.746   0.207   1.477
14070SOL    HW144169   6.746   0.271   1.554
14070SOL    HW244170   6.774   0.255   1.394
14071SOL     OW44171   5.594   1.326   0.200
14071SOL    HW144172   5.501   1.347   0.169
14071SOL    HW244173   5.604   1.227   0.213
14072SOL     OW44174   5.674   1.801   0.927
14072SOL    HW144175   5.632   1.715   0.900
14072SOL    HW244176   5.768   1.804   0.893
14073SOL     OW44177   6.090   1.568   0.910
14073SOL    HW144178   6.156   1.642   0.919
14073SOL    HW244179   6.134   1.489   0.868
14074SOL     OW44180   6.588   0.796   1.238
14074SOL    HW144181   6.629   0.764   1.324
14074SOL    HW244182   6.492   0.769   1.235
14075SOL     OW44183   5.626   0.544   1.114
14075SOL    HW144184   5.711   0.511   1.073
14075SOL    HW244185   5.639   0.559   1.212
14076SOL     OW44186   5.775   0.520   1.722
14076SOL    HW144187   5.834   0.480   1.652
14076SOL    HW244188   5.717   0.591   1.681
14077SOL     OW44189   6.955   0.950   1.660
14077SOL    HW144190   6.994   1.039   1.680
14077SOL    HW244191   6.965   0.930   1.563
14078SOL     OW44192   6.401   0.572   0.325
14078SOL    HW144193   6.408   0.483   0.279
14078SOL    HW244194   6.307   0.606   0.317
14079SOL     OW44195   7.243   0.604   1.206
14079SOL    HW144196   7.205   0.535   1.268
14079SOL    HW244197   7.325   0.568   1.162
14080SOL     OW44198   5.838   1.564   1.744
14080SOL    HW144199   5.808   1.621   1.820
14080SOL    HW244200   5.831   1.467   1.770
14081SOL     OW44201   6.257   0.464   1.269
14081SOL    HW144202   6.223   0.375   1.239
14081SOL    HW244203   6.283   0.518   1.189
14082SOL     OW44204   6.059   0.500   0.191
14082SOL    HW144205   6.120   0.580   0.195
14082SOL    HW244206   5.964   0.531   0.198
14083SOL     OW44207   5.745   1.137   1.466
14083SOL    HW144208   5.767   1.076   1.542
14083SOL    HW244209   5.755   1.088   1.380
14084SOL     OW44210   6.933   1.059   1.234
14084SOL    HW144211   6.957   0.996   1.160
14084SOL    HW244212   6.843   1.099   1.216
14085SOL     OW44213   6.888   0.855   0.309
14085SOL    HW144214   6.802   0.824   0.351
14085SOL    HW244215   6.884   0.841   0.210
14086SOL     OW44216   7.345   1.747   1.154
14086SOL    HW144217   7.406   1.777   1.081
14086SOL    HW244218   7.307   1.658   1.132
14087SOL     OW44219   6.838   1.731   1.128
14087SOL    HW144220   6.922   1.736   1.074
14087SOL    HW244221   6.815   1.635   1.146
14088SOL     OW44222   5.669   1.258   1.022
14088SOL    HW144223   5.664   1.257   1.122
14088SOL    HW244224   5.586   1.217   0.984
14089SOL     OW44225   6.489   0.086   0.133
14089SOL    HW144226   6.540   0.087   0.047
14089SOL    HW244227   6.545   0.044   0.204
14090SOL     OW44228   7.312   0.135   0.523
14090SOL    HW144229   7.385   0.118   0.456
14090SOL    HW244230   7.281   0.048   0.561
14091SOL     OW44231   6.974   1.573   0.477
14091SOL    HW144232   7.041   1.585   0.403
14091SOL    HW244233   6.934   1.662   0.500
14092SOL     OW44234   6.866   0.927   0.672
14092SOL    HW144235   6.926   0.846   0.674
14092SOL    HW244236   6.906   0.996   0.612
14093SOL     OW44237   6.258   1.616   0.154
14093SOL    HW144238   6.267   1.626   0.055
14093SOL    HW244239   6.218   1.527   0.175
14094SOL     OW44240   7.236   1.720   1.394
14094SOL    HW144241   7.289   1.730   1.310
14094SOL    HW244242   7.209   1.810   1.428
14095SOL     OW44243   7.427   0.175   0.963
14095SOL    HW144244   7.466   0.090   0.927
14095SOL    HW244245   7.329   0.177   0.944
14096SOL     OW44246   5.849   0.326   0.720
14096SOL    HW144247   5.770   0.377   0.686
14096SOL    HW244248   5.840   0.311   0.818
14097SOL     OW44249   6.780   1.612   0.031
14097SOL    HW144250   6.786   1.519   0.068
14097SOL    HW244251   6.721   1.612  -0.049
14098SOL     OW44252   6.408   1.002   1.372
14098SOL    HW144253   6.448   1.001   1.280
14098SOL    HW244254   6.418   1.094   1.412
14099SOL     OW44255   6.502   0.910   0.291
14099SOL    HW144256   6.565   0.948   0.223
14099SOL    HW244257   6.542   0.827   0.330
14100SOL     OW44258   7.090   1.607   0.044
14100SOL    HW144259   6.998   1.644   0.051
14100SOL    HW244260   7.128   1.627  -0.046
14101SOL     OW44261   5.958   1.288   1.490
14101SOL    HW144262   5.945   1.381   1.456
14101SOL    HW244263   5.874   1.236   1.477
14102SOL     OW44264   7.200   1.292   1.289
14102SOL    HW144265   7.260   1.295   1.369
14102SOL    HW244266   7.125   1.356   1.302
14103SOL     OW44267   6.625   1.098   0.696
14103SOL    HW144268   6.555   1.051   0.750
14103SOL    HW244269   6.684   1.030   0.653
14104SOL     OW44270   6.600   0.236   0.971
14104SOL    HW144271   6.592   0.200   0.878
14104SOL    HW244272   6.598   0.160   1.036
14105SOL     OW44273   6.176   1.487   0.491
14105SOL    HW144274   6.218   1.429   0.421
14105SOL    HW244275   6.132   1.566   0.447
14106SOL     OW44276   7.295   0.385   1.381
14106SOL    HW144277   7.368   0.454   1.385
14106SOL    HW244278   7.323   0.310   1.322
14107SOL     OW44279   5.841   1.348   0.290
14107SOL    HW144280   5.745   1.349   0.263
14107SOL    HW244281   5.853   1.401   0.374
14108SOL     OW44282   5.691   1.013   1.726
14108SOL    HW144283   5.614   0.980   1.780
14108SOL    HW244284   5.776   0.983   1.768
14109SOL     OW44285   6.258   0.203   1.489
14109SOL    HW144286   6.348   0.187   1.449
14109SOL    HW244287   6.266   0.208   1.588
14110SOL     OW44288   7.026   0.856   1.398
14110SOL    HW144289   6.969   0.908   1.335
14110SOL    HW244290   7.122   0.868   1.374
14111SOL     OW44291   5.658   0.166   0.318
14111SOL    HW144292   5.641   0.249   0.264
14111SOL    HW244293   5.748   0.129   0.296
14112SOL     OW44294   6.769   1.335   0.119
14112SOL    HW144295   6.670   1.324   0.121
14112SOL    HW244296   6.803   1.350   0.212
14113SOL     OW44297   6.199   0.842   1.431
14113SOL    HW144298   6.255   0.923   1.414
14113SOL    HW244299   6.258   0.762   1.434
14114SOL     OW44300   7.079   1.767   0.959
14114SOL    HW144301   7.112   1.831   0.890
14114SOL    HW244302   7.145   1.761   1.034
14115SOL     OW44303   6.302   0.565   1.708
14115SOL    HW144304   6.321   0.630   1.782
14115SOL    HW244305   6.362   0.485   1.717
14116SOL     OW44306   7.036   1.220   1.633
14116SOL    HW144307   7.027   1.210   1.732
14116SOL    HW244308   7.132   1.213   1.607
14117SOL     OW44309   7.260   0.883   1.254
14117SOL    HW144310   7.233   0.794   1.217
14117SOL    HW244311   7.261   0.951   1.181
14118SOL     OW44312   6.811   0.325   0.449
14118SOL    HW144313   6.876   0.251   0.438
14118SOL    HW244314   6.831   0.375   0.533
14119SOL     OW44315   6.180   0.745   0.652
14119SOL    HW144316   6.230   0.830   0.633
14119SOL    HW244317   6.092   0.747   0.604
14120SOL     OW44318   7.363   0.342   1.642
14120SOL    HW144319   7.346   0.373   1.548
14120SOL    HW244320   7.279   0.305   1.680
14121SOL     OW44321   7.316   0.934   1.517
14121SOL    HW144322   7.354   1.025   1.532
14121SOL    HW244323   7.308   0.917   1.418
14122SOL     OW44324   6.445   1.374   0.016
14122SOL    HW144325   6.399   1.389   0.104
14122SOL    HW244326   6.489   1.459  -0.014
14123SOL     OW44327   6.994   1.851   1.720
14123SOL    HW144328   6.898   1.840   1.693
14123SOL    HW244329   7.050   1.784   1.672
14124SOL     OW44330   6.445   0.956   0.861
14124SOL    HW144331   6.499   0.887   0.909
14124SOL    HW244332   6.413   1.025   0.927
14125SOL     OW44333   6.669   0.984   0.087
14125SOL    HW144334   6.646   1.037   0.005
14125SOL    HW244335   6.750   0.928   0.068
14126SOL     OW44336   7.447   1.569   0.851
14126SOL    HW144337   7.376   1.557   0.781
14126SOL    HW244338   7.448   1.490   0.911
14127SOL     OW44339   5.807   1.314   1.844
14127SOL    HW144340   5.742   1.241   1.823
14127SOL    HW244341   5.811   1.328   1.942
14128SOL     OW44342   5.665   1.240   0.653
14128SOL    HW144343   5.664   1.193   0.741
14128SOL    HW244344   5.747   1.212   0.602
14129SOL     OW44345   7.410   0.192   1.227
14129SOL    HW144346   7.406   0.102   1.271
14129SOL    HW244347   7.413   0.181   1.128
14130SOL     OW44348   6.014   0.424   0.520
14130SOL    HW144349   6.044   0.352   0.458
14130SOL    HW244350   5.975   0.384   0.603
14131SOL     OW44351   7.291   1.487   1.104
14131SOL    HW144352   7.198   1.462   1.077
14131SOL    HW244353   7.317   1.437   1.186
14132SOL     OW44354   5.903   0.547   1.280
14132SOL    HW144355   5.941   0.488   1.352
14132SOL    HW244356   5.943   0.521   1.192
14133SOL     OW44357   7.010   0.214   1.112
14133SOL    HW144358   7.062   0.149   1.167
14133SOL    HW244359   6.961   0.277   1.173
14134SOL     OW44360   6.587   0.034   1.154
14134SOL    HW144361   6.524  -0.038   1.123
14134SOL    HW244362   6.680  -0.002   1.154
14135SOL     OW44363   6.356   1.330   0.301
14135SOL    HW144364   6.310   1.243   0.318
14135SOL    HW244365   6.447   1.327   0.342
14136SOL     OW44366   6.938   0.052   0.168
14136SOL    HW144367   6.973   0.011   0.084
14136SOL    HW244368   6.848   0.014   0.188
14137SOL     OW44369   6.886   0.453   0.691
14137SOL    HW144370   6.827   0.533   0.695
14137SOL    HW244371   6.901   0.418   0.784
14138SOL     OW44372   7.179   0.221   0.882
14138SOL    HW144373   7.095   0.220   0.936
14138SOL    HW244374   7.181   0.304   0.826
14139SOL     OW44375   5.625   1.077   0.300
14139SOL    HW144376   5.724   1.066   0.291
14139SOL    HW244377   5.585   0.991   0.332
14140SOL     OW44378   6.461   1.646   0.337
14140SOL    HW144379   6.384   1.611   0.283
14140SOL    HW244380   6.429   1.717   0.399
14141SOL     OW44381   5.816   0.628   1.975
14141SOL    HW144382   5.723   0.626   2.012
14141SOL    HW244383   5.817   0.589   1.883
14142SOL     OW44384   5.811   0.275   2.858
14142SOL    HW144385   5.846   0.258   2.950
14142SOL    HW244386   5.723   0.230   2.846
14143SOL     OW44387   5.605   0.368   2.509
14143SOL    HW144388   5.523   0.411   2.548
14143SOL    HW244389   5.577   0.295   2.446
14144SOL     OW44390   6.155   1.275   3.027
14144SOL    HW144391   6.062   1.268   2.990
14144SOL    HW244392   6.166   1.364   3.071
14145SOL     OW44393   7.141   1.511   2.565
14145SOL    HW144394   7.084   1.495   2.646
14145SOL    HW244395   7.082   1.521   2.485
14146SOL     OW44396   7.329   0.618   2.718
14146SOL    HW144397   7.362   0.712   2.718
14146SOL    HW244398   7.380   0.564   2.784
14147SOL     OW44399   6.721   0.703   2.579
14147SOL    HW144400   6.778   0.781   2.554
14147SOL    HW244401   6.661   0.729   2.655
14148SOL     OW44402   7.341   0.607   2.093
14148SOL    HW144403   7.329   0.594   1.994
14148SOL    HW244404   7.311   0.526   2.142
14149SOL     OW44405   6.354   1.144   2.885
14149SOL    HW144406   6.276   1.161   2.945
14149SOL    HW244407   6.388   1.231   2.849
14150SOL     OW44408   6.436   0.798   3.685
14150SOL    HW144409   6.432   0.874   3.750
14150SOL    HW244410   6.458   0.834   3.594
14151SOL     OW44411   6.272   1.161   3.665
14151SOL    HW144412   6.332   1.240   3.679
14151SOL    HW244413   6.186   1.192   3.624
14152SOL     OW44414   5.921   1.435   2.923
14152SOL    HW144415   5.843   1.404   2.870
14152SOL    HW244416   5.979   1.493   2.866
14153SOL     OW44417   7.046   1.505   3.201
14153SOL    HW144418   7.070   1.599   3.227
14153SOL    HW244419   7.030   1.451   3.283
14154SOL     OW44420   6.024   0.392   3.361
14154SOL    HW144421   6.106   0.336   3.370
14154SOL    HW244422   5.943   0.334   3.365
14155SOL     OW44423   7.189   0.447   2.599
14155SOL    HW144424   7.115   0.493   2.549
14155SOL    HW244425   7.240   0.515   2.652
14156SOL     OW44426   5.817   1.713   2.345
14156SOL    HW144427   5.851   1.790   2.399
14156SOL    HW244428   5.861   1.713   2.255
14157SOL     OW44429   6.713   1.341   3.552
14157SOL    HW144430   6.760   1.341   3.640
14157SOL    HW244431   6.665   1.254   3.541
14158SOL     OW44432   5.816   1.434   2.400
14158SOL    HW144433   5.790   1.530   2.400
14158SOL    HW244434   5.745   1.380   2.445
14159SOL     OW44435   5.826   1.091   2.748
14159SOL    HW144436   5.840   1.007   2.800
14159SOL    HW244437   5.771   1.155   2.803
14160SOL     OW44438   6.192   0.964   1.985
14160SOL    HW144439   6.199   1.048   1.931
14160SOL    HW244440   6.238   0.977   2.073
14161SOL     OW44441   7.180   0.114   3.342
14161SOL    HW144442   7.162   0.181   3.270
14161SOL    HW244443   7.177   0.160   3.431
14162SOL     OW44444   5.708   0.643   2.425
14162SOL    HW144445   5.663   0.555   2.442
14162SOL    HW244446   5.707   0.697   2.509
14163SOL     OW44447   7.428   1.767   2.221
14163SOL    HW144448   7.482   1.738   2.301
14163SOL    HW244449   7.458   1.857   2.192
14164SOL     OW44450   5.613   1.596   1.979
14164SOL    HW144451   5.594   1.500   2.000
14164SOL    HW244452   5.580   1.654   2.054
14165SOL     OW44453   7.275   0.922   2.474
14165SOL    HW144454   7.370   0.893   2.482
14165SOL    HW244455   7.267   0.987   2.399
14166SOL     OW44456   7.227   1.108   2.294
14166SOL    HW144457   7.313   1.110   2.242
14166SOL    HW244458   7.241   1.155   2.382
14167SOL     OW44459   5.699   0.737   3.459
14167SOL    HW144460   5.787   0.724   3.504
14167SOL    HW244461   5.686   0.834   3.437
14168SOL     OW44462   6.879   1.228   3.285
14168SOL    HW144463   6.916   1.155   3.227
14168SOL    HW244464   6.931   1.233   3.370
14169SOL     OW44465   6.395   0.004   2.364
14169SOL    HW144466   6.435   0.095   2.355
14169SOL    HW244467   6.295   0.012   2.370
14170SOL     OW44468   5.783   0.976   3.126
14170SOL    HW144469   5.872   0.931   3.112
14170SOL    HW244470   5.710   0.911   3.107
14171SOL     OW44471   7.111   0.999   2.052
14171SOL    HW144472   7.048   0.923   2.065
14171SOL    HW244473   7.159   1.017   2.138
14172SOL     OW44474   6.773   1.792   3.478
14172SOL    HW144475   6.797   1.852   3.402
14172SOL    HW244476   6.780   1.697   3.448
14173SOL     OW44477   5.903   0.251   3.663
14173SOL    HW144478   5.974   0.322   3.669
14173SOL    HW244479   5.815   0.290   3.691
14174SOL     OW44480   7.052   1.417   2.815
14174SOL    HW144481   6.993   1.423   2.895
14174SOL    HW244482   7.037   1.329   2.769
14175SOL     OW44483   7.253   1.714   2.434
14175SOL    HW144484   7.212   1.691   2.346
14175SOL    HW244485   7.235   1.640   2.499
14176SOL     OW44486   6.184   0.729   2.132
14176SOL    HW144487   6.208   0.798   2.064
14176SOL    HW244488   6.106   0.762   2.186
14177SOL     OW44489   6.867   0.345   2.806
14177SOL    HW144490   6.781   0.295   2.793
14177SOL    HW244491   6.929   0.291   2.862
14178SOL     OW44492   7.162   1.662   2.169
14178SOL    HW144493   7.251   1.708   2.172
14178SOL    HW244494   7.141   1.638   2.074
14179SOL     OW44495   6.393   0.605   3.327
14179SOL    HW144496   6.346   0.602   3.416
14179SOL    HW244497   6.342   0.550   3.261
14180SOL     OW44498   6.980   0.469   3.536
14180SOL    HW144499   6.960   0.512   3.624
14180SOL    HW244500   7.058   0.407   3.545
14181SOL     OW44501   6.559   0.890   3.434
14181SOL    HW144502   6.605   0.806   3.405
14181SOL    HW244503   6.503   0.924   3.359
14182SOL     OW44504   6.577   0.410   3.104
14182SOL    HW144505   6.500   0.444   3.158
14182SOL    HW244506   6.543   0.359   3.025
14183SOL     OW44507   6.627   0.701   2.291
14183SOL    HW144508   6.653   0.697   2.387
14183SOL    HW244509   6.542   0.650   2.277
14184SOL     OW44510   5.662   0.811   2.651
14184SOL    HW144511   5.761   0.799   2.660
14184SOL    HW244512   5.638   0.906   2.672
14185SOL     OW44513   5.716   1.821   3.433
14185SOL    HW144514   5.706   1.806   3.532
14185SOL    HW244515   5.630   1.857   3.397
14186SOL     OW44516   6.451   0.348   2.057
14186SOL    HW144517   6.510   0.411   2.008
14186SOL    HW244518   6.470   0.254   2.028
14187SOL     OW44519   7.305   0.585   3.693
14187SOL    HW144520   7.279   0.674   3.657
14187SOL    HW244521   7.303   0.517   3.620
14188SOL     OW44522   6.948   1.144   2.407
14188SOL    HW144523   7.031   1.115   2.359
14188SOL    HW244524   6.899   1.211   2.351
14189SOL     OW44525   6.136   0.196   2.747
14189SOL    HW144526   6.131   0.191   2.847
14189SOL    HW244527   6.138   0.292   2.718
14190SOL     OW44528   6.594   1.456   2.339
14190SOL    HW144529   6.548   1.528   2.287
14190SOL    HW244530   6.590   1.476   2.437
14191SOL     OW44531   5.937   1.801   2.715
14191SOL    HW144532   5.987   1.715   2.721
14191SOL    HW244533   6.002   1.878   2.712
14192SOL     OW44534   7.381   1.066   2.735
14192SOL    HW144535   7.319   1.051   2.659
14192SOL    HW244536   7.329   1.077   2.820
14193SOL     OW44537   6.813   1.550   3.368
14193SOL    HW144538   6.819   1.473   3.432
14193SOL    HW244539   6.761   1.524   3.288
14194SOL     OW44540   5.907   0.943   2.104
14194SOL    HW144541   5.989   0.982   2.062
14194SOL    HW244542   5.880   0.861   2.055
14195SOL     OW44543   7.044   0.735   2.590
14195SOL    HW144544   7.039   0.670   2.665
14195SOL    HW244545   7.124   0.794   2.603
14196SOL     OW44546   6.047   1.266   3.589
14196SOL    HW144547   5.997   1.267   3.503
14196SOL    HW244548   5.984   1.248   3.665
14197SOL     OW44549   5.788   0.285   3.360
14197SOL    HW144550   5.708   0.345   3.347
14197SOL    HW244551   5.778   0.236   3.446
14198SOL     OW44552   7.218   1.377   1.943
14198SOL    HW144553   7.186   1.471   1.933
14198SOL    HW244554   7.142   1.314   1.931
14199SOL     OW44555   6.986   0.107   2.288
14199SOL    HW144556   6.962   0.070   2.198
14199SOL    HW244557   7.085   0.123   2.292
14200SOL     OW44558   5.968   0.700   2.342
14200SOL    HW144559   6.013   0.610   2.339
14200SOL    HW244560   5.874   0.689   2.375
14201SOL     OW44561   7.133   0.222   3.591
14201SOL    HW144562   7.128   0.259   3.683
14201SOL    HW244563   7.061   0.153   3.579
14202SOL     OW44564   6.200   0.122   1.979
14202SOL    HW144565   6.298   0.100   1.986
14202SOL    HW244566   6.169   0.105   1.886
14203SOL     OW44567   6.367   0.264   3.611
14203SOL    HW144568   6.434   0.203   3.654
14203SOL    HW244569   6.294   0.283   3.676
14204SOL     OW44570   6.937   0.590   3.295
14204SOL    HW144571   6.965   0.547   3.380
14204SOL    HW244572   6.962   0.686   3.296
14205SOL     OW44573   6.508   0.503   2.761
14205SOL    HW144574   6.483   0.494   2.665
14205SOL    HW244575   6.556   0.421   2.792
14206SOL     OW44576   6.125   0.064   2.374
14206SOL    HW144577   6.044   0.065   2.432
14206SOL    HW244578   6.128   0.147   2.319
14207SOL     OW44579   7.020   1.188   1.903
14207SOL    HW144580   7.052   1.112   1.960
14207SOL    HW244581   6.928   1.215   1.933
14208SOL     OW44582   5.883   0.035   2.033
14208SOL    HW144583   5.932   0.119   2.012
14208SOL    HW244584   5.945  -0.030   2.078
14209SOL     OW44585   6.521   0.236   2.342
14209SOL    HW144586   6.473   0.277   2.264
14209SOL    HW244587   6.620   0.234   2.323
14210SOL     OW44588   6.662   0.683   3.326
14210SOL    HW144589   6.582   0.622   3.329
14210SOL    HW244590   6.743   0.630   3.302
14211SOL     OW44591   6.813   1.570   2.655
14211SOL    HW144592   6.834   1.644   2.590
14211SOL    HW244593   6.881   1.570   2.728
14212SOL     OW44594   6.857   1.797   2.453
14212SOL    HW144595   6.901   1.861   2.389
14212SOL    HW244596   6.807   1.849   2.523
14213SOL     OW44597   6.618   0.549   1.878
14213SOL    HW144598   6.577   0.631   1.839
14213SOL    HW244599   6.682   0.575   1.951
14214SOL     OW44600   5.664   0.556   3.248
14214SOL    HW144601   5.756   0.555   3.207
14214SOL    HW244602   5.658   0.630   3.315
14215SOL     OW44603   6.147   0.222   3.009
14215SOL    HW144604   6.185   0.138   3.046
14215SOL    HW244605   6.059   0.241   3.053
14216SOL     OW44606   6.452   0.454   2.504
14216SOL    HW144607   6.420   0.526   2.442
14216SOL    HW244608   6.476   0.373   2.451
14217SOL     OW44609   6.603   0.039   2.615
14217SOL    HW144610   6.531   0.044   2.546
14217SOL    HW244611   6.579  -0.030   2.684
14218SOL     OW44612   7.015   1.173   2.729
14218SOL    HW144613   6.960   1.089   2.722
14218SOL    HW244614   7.041   1.202   2.637
14219SOL     OW44615   7.052   0.590   2.854
14219SOL    HW144616   7.022   0.495   2.861
14219SOL    HW244617   7.125   0.606   2.920
14220SOL     OW44618   7.443   0.833   2.239
14220SOL    HW144619   7.485   0.769   2.303
14220SOL    HW244620   7.405   0.782   2.161
14221SOL     OW44621   7.250   1.280   2.519
14221SOL    HW144622   7.349   1.288   2.533
14221SOL    HW244623   7.205   1.364   2.550
14222SOL     OW44624   6.976   0.575   1.940
14222SOL    HW144625   6.922   0.554   2.021
14222SOL    HW244626   7.067   0.534   1.949
14223SOL     OW44627   6.113   0.256   2.190
14223SOL    HW144628   6.140   0.197   2.115
14223SOL    HW244629   6.113   0.351   2.159
14224SOL     OW44630   7.340   1.223   3.450
14224SOL    HW144631   7.431   1.184   3.437
14224SOL    HW244632   7.348   1.319   3.474
14225SOL     OW44633   6.650   1.347   3.202
14225SOL    HW144634   6.570   1.324   3.257
14225SOL    HW244635   6.733   1.321   3.251
14226SOL     OW44636   7.178   1.629   3.487
14226SOL    HW144637   7.205   1.663   3.397
14226SOL    HW244638   7.257   1.591   3.533
14227SOL     OW44639   6.697   1.195   2.962
14227SOL    HW144640   6.657   1.239   3.043
14227SOL    HW244641   6.656   1.232   2.879
14228SOL     OW44642   7.224   1.099   2.941
14228SOL    HW144643   7.229   1.180   3.000
14228SOL    HW244644   7.138   1.101   2.890
14229SOL     OW44645   6.501   0.089   3.264
14229SOL    HW144646   6.526   0.069   3.169
14229SOL    HW244647   6.573   0.145   3.306
14230SOL     OW44648   6.566   1.116   3.581
14230SOL    HW144649   6.467   1.122   3.591
14230SOL    HW244650   6.589   1.036   3.525
14231SOL     OW44651   6.291   1.050   2.230
14231SOL    HW144652   6.277   1.057   2.329
14231SOL    HW244653   6.375   0.999   2.212
14232SOL     OW44654   5.996   0.813   3.113
14232SOL    HW144655   6.082   0.825   3.163
14232SOL    HW244656   5.954   0.726   3.140
14233SOL     OW44657   6.860   0.386   3.124
14233SOL    HW144658   6.881   0.460   3.188
14233SOL    HW244659   6.771   0.403   3.081
14234SOL     OW44660   5.953   1.100   2.363
14234SOL    HW144661   5.946   1.183   2.307
14234SOL    HW244662   5.957   1.020   2.303
14235SOL     OW44663   6.152   0.537   2.727
14235SOL    HW144664   6.164   0.603   2.653
14235SOL    HW244665   6.198   0.571   2.810
14236SOL     OW44666   6.838   1.348   2.250
14236SOL    HW144667   6.888   1.425   2.290
14236SOL    HW244668   6.743   1.350   2.282
14237SOL     OW44669   6.858   1.445   3.004
14237SOL    HW144670   6.905   1.458   3.091
14237SOL    HW244671   6.792   1.371   3.013
14238SOL     OW44672   7.168   0.639   2.334
14238SOL    HW144673   7.137   0.700   2.407
14238SOL    HW244674   7.218   0.691   2.265
14239SOL     OW44675   5.940   1.510   3.191
14239SOL    HW144676   5.919   1.466   3.104
14239SOL    HW244677   6.037   1.536   3.194
14240SOL     OW44678   5.988   0.751   3.460
14240SOL    HW144679   6.056   0.806   3.413
14240SOL    HW244680   6.028   0.663   3.487
14241SOL     OW44681   7.173   0.779   3.532
14241SOL    HW144682   7.081   0.817   3.527
14241SOL    HW244683   7.233   0.826   3.467
14242SOL     OW44684   6.599   0.105   3.632
14242SOL    HW144685   6.605   0.190   3.580
14242SOL    HW244686   6.631   0.029   3.575
14243SOL     OW44687   6.090   0.050   3.602
14243SOL    HW144688   6.048  -0.007   3.532
14243SOL    HW244689   6.024   0.119   3.634
14244SOL     OW44690   6.159   0.870   2.891
14244SOL    HW144691   6.203   0.959   2.882
14244SOL    HW244692   6.096   0.870   2.968
14245SOL     OW44693   6.946   0.862   2.907
14245SOL    HW144694   6.871   0.862   2.841
14245SOL    HW244695   6.983   0.770   2.916
14246SOL     OW44696   6.795   0.525   2.137
14246SOL    HW144697   6.808   0.441   2.191
14246SOL    HW244698   6.766   0.599   2.197
14247SOL     OW44699   5.893   0.213   3.093
14247SOL    HW144700   5.870   0.250   3.183
14247SOL    HW244701   5.863   0.118   3.087
14248SOL     OW44702   5.623   1.310   3.144
14248SOL    HW144703   5.676   1.261   3.212
14248SOL    HW244704   5.645   1.408   3.149
14249SOL     OW44705   6.318   0.634   2.926
14249SOL    HW144706   6.377   0.608   2.850
14249SOL    HW244707   6.290   0.730   2.915
14250SOL     OW44708   7.314   0.935   3.716
14250SOL    HW144709   7.268   0.928   3.627
14250SOL    HW244710   7.252   0.979   3.782
14251SOL     OW44711   5.893   0.063   2.480
14251SOL    HW144712   5.882   0.157   2.513
14251SOL    HW244713   5.888   0.000   2.557
14252SOL     OW44714   7.208   0.367   2.236
14252SOL    HW144715   7.210   0.291   2.300
14252SOL    HW244716   7.160   0.444   2.276
14253SOL     OW44717   6.609   0.766   2.828
14253SOL    HW144718   6.624   0.787   2.924
14253SOL    HW244719   6.579   0.671   2.819
14254SOL     OW44720   6.566   1.573   3.562
14254SOL    HW144721   6.546   1.617   3.474
14254SOL    HW244722   6.605   1.482   3.546
14255SOL     OW44723   7.445   1.518   3.467
14255SOL    HW144724   7.459   1.545   3.372
14255SOL    HW244725   7.528   1.540   3.520
14256SOL     OW44726   5.936   0.898   3.666
14256SOL    HW144727   6.012   0.942   3.714
14256SOL    HW244728   5.971   0.851   3.584
14257SOL     OW44729   7.126   0.274   1.987
14257SOL    HW144730   7.065   0.199   2.010
14257SOL    HW244731   7.148   0.326   2.070
14258SOL     OW44732   6.889   0.838   1.904
14258SOL    HW144733   6.923   0.745   1.919
14258SOL    HW244734   6.907   0.865   1.809
14259SOL     OW44735   6.654   1.333   2.711
14259SOL    HW144736   6.661   1.249   2.656
14259SOL    HW244737   6.716   1.402   2.675
14260SOL     OW44738   5.905   0.810   2.811
14260SOL    HW144739   5.998   0.846   2.816
14260SOL    HW244740   5.899   0.725   2.863
14261SOL     OW44741   5.925   0.509   2.868
14261SOL    HW144742   5.873   0.426   2.851
14261SOL    HW244743   6.002   0.514   2.804
14262SOL     OW44744   6.724   0.380   3.540
14262SOL    HW144745   6.679   0.443   3.604
14262SOL    HW244746   6.817   0.411   3.523
14263SOL     OW44747   6.746   0.207   3.339
14263SOL    HW144748   6.746   0.271   3.416
14263SOL    HW244749   6.774   0.255   3.256
14264SOL     OW44750   5.594   1.326   2.062
14264SOL    HW144751   5.501   1.347   2.031
14264SOL    HW244752   5.604   1.227   2.075
14265SOL     OW44753   5.674   1.801   2.789
14265SOL    HW144754   5.632   1.715   2.762
14265SOL    HW244755   5.768   1.804   2.755
14266SOL     OW44756   6.090   1.568   2.772
14266SOL    HW144757   6.156   1.642   2.781
14266SOL    HW244758   6.134   1.489   2.730
14267SOL     OW44759   6.588   0.796   3.100
14267SOL    HW144760   6.629   0.764   3.186
14267SOL    HW244761   6.492   0.769   3.097
14268SOL     OW44762   5.626   0.544   2.976
14268SOL    HW144763   5.711   0.511   2.935
14268SOL    HW244764   5.639   0.559   3.074
14269SOL     OW44765   5.775   0.520   3.584
14269SOL    HW144766   5.834   0.480   3.514
14269SOL    HW244767   5.717   0.591   3.543
14270SOL     OW44768   6.955   0.950   3.522
14270SOL    HW144769   6.994   1.039   3.542
14270SOL    HW244770   6.965   0.930   3.425
14271SOL     OW44771   6.401   0.572   2.187
14271SOL    HW144772   6.408   0.483   2.141
14271SOL    HW244773   6.307   0.606   2.179
14272SOL     OW44774   7.243   0.604   3.068
14272SOL    HW144775   7.205   0.535   3.130
14272SOL    HW244776   7.325   0.568   3.024
14273SOL     OW44777   5.838   1.564   3.606
14273SOL    HW144778   5.808   1.621   3.682
14273SOL    HW244779   5.831   1.467   3.632
14274SOL     OW44780   6.257   0.464   3.131
14274SOL    HW144781   6.223   0.375   3.101
14274SOL    HW244782   6.283   0.518   3.051
14275SOL     OW44783   6.516   1.678   3.327
14275SOL    HW144784   6.492   1.660   3.232
14275SOL    HW244785   6.546   1.772   3.337
14276SOL     OW44786   6.059   0.500   2.053
14276SOL    HW144787   6.120   0.580   2.057
14276SOL    HW244788   5.964   0.531   2.060
14277SOL     OW44789   5.745   1.137   3.328
14277SOL    HW144790   5.767   1.076   3.404
14277SOL    HW244791   5.755   1.088   3.242
14278SOL     OW44792   6.933   1.059   3.096
14278SOL    HW144793   6.957   0.996   3.022
14278SOL    HW244794   6.843   1.099   3.078
14279SOL     OW44795   6.888   0.855   2.171
14279SOL    HW144796   6.802   0.824   2.213
14279SOL    HW244797   6.884   0.841   2.072
14280SOL     OW44798   7.345   1.747   3.016
14280SOL    HW144799   7.406   1.777   2.943
14280SOL    HW244800   7.307   1.658   2.994
14281SOL     OW44801   5.669   1.258   2.884
14281SOL    HW144802   5.664   1.257   2.984
14281SOL    HW244803   5.586   1.217   2.846
14282SOL     OW44804   7.312   0.135   2.385
14282SOL    HW144805   7.385   0.118   2.318
14282SOL    HW244806   7.281   0.048   2.423
14283SOL     OW44807   6.974   1.573   2.339
14283SOL    HW144808   7.041   1.585   2.265
14283SOL    HW244809   6.934   1.662   2.362
14284SOL     OW44810   6.866   0.927   2.534
14284SOL    HW144811   6.926   0.846   2.536
14284SOL    HW244812   6.906   0.996   2.474
14285SOL     OW44813   7.236   1.720   3.256
14285SOL    HW144814   7.289   1.730   3.172
14285SOL    HW244815   7.209   1.810   3.290
14286SOL     OW44816   7.427   0.175   2.825
14286SOL    HW144817   7.466   0.090   2.789
14286SOL    HW244818   7.329   0.177   2.806
14287SOL     OW44819   5.849   0.326   2.582
14287SOL    HW144820   5.770   0.377   2.548
14287SOL    HW244821   5.840   0.311   2.680
14288SOL     OW44822   6.780   1.612   1.893
14288SOL    HW144823   6.786   1.519   1.930
14288SOL    HW244824   6.721   1.612   1.813
14289SOL     OW44825   6.408   1.002   3.234
14289SOL    HW144826   6.448   1.001   3.142
14289SOL    HW244827   6.418   1.094   3.274
14290SOL     OW44828   6.502   0.910   2.153
14290SOL    HW144829   6.565   0.948   2.085
14290SOL    HW244830   6.542   0.827   2.192
14291SOL     OW44831   7.090   1.607   1.906
14291SOL    HW144832   6.998   1.644   1.913
14291SOL    HW244833   7.128   1.627   1.816
14292SOL     OW44834   5.958   1.288   3.352
14292SOL    HW144835   5.945   1.381   3.318
14292SOL    HW244836   5.874   1.236   3.339
14293SOL     OW44837   7.200   1.292   3.151
14293SOL    HW144838   7.260   1.295   3.231
14293SOL    HW244839   7.125   1.356   3.164
14294SOL     OW44840   6.625   1.098   2.558
14294SOL    HW144841   6.555   1.051   2.612
14294SOL    HW244842   6.684   1.030   2.515
14295SOL     OW44843   6.600   0.236   2.833
14295SOL    HW144844   6.592   0.200   2.740
14295SOL    HW244845   6.598   0.160   2.898
14296SOL     OW44846   7.295   0.385   3.243
14296SOL    HW144847   7.368   0.454   3.247
14296SOL    HW244848   7.323   0.310   3.184
14297SOL     OW44849   5.691   1.013   3.588
14297SOL    HW144850   5.614   0.980   3.642
14297SOL    HW244851   5.776   0.983   3.630
14298SOL     OW44852   6.258   0.203   3.351
14298SOL    HW144853   6.348   0.187   3.311
14298SOL    HW244854   6.266   0.208   3.450
14299SOL     OW44855   5.661   0.345   1.895
14299SOL    HW144856   5.569   0.317   1.866
14299SOL    HW244857   5.692   0.422   1.839
14300SOL     OW44858   7.026   0.856   3.260
14300SOL    HW144859   6.969   0.908   3.197
14300SOL    HW244860   7.122   0.868   3.236
14301SOL     OW44861   5.658   0.166   2.180
14301SOL    HW144862   5.641   0.249   2.126
14301SOL    HW244863   5.748   0.129   2.158
14302SOL     OW44864   6.769   1.335   1.981
14302SOL    HW144865   6.670   1.324   1.983
14302SOL    HW244866   6.803   1.350   2.074
14303SOL     OW44867   6.199   0.842   3.293
14303SOL    HW144868   6.255   0.923   3.276
14303SOL    HW244869   6.258   0.762   3.296
14304SOL     OW44870   7.079   1.767   2.821
14304SOL    HW144871   7.112   1.831   2.752
14304SOL    HW244872   7.145   1.761   2.896
14305SOL     OW44873   6.302   0.565   3.570
14305SOL    HW144874   6.321   0.630   3.644
14305SOL    HW244875   6.362   0.485   3.579
14306SOL     OW44876   7.036   1.220   3.495
14306SOL    HW144877   7.027   1.210   3.594
14306SOL    HW244878   7.132   1.213   3.469
14307SOL     OW44879   7.260   0.883   3.116
14307SOL    HW144880   7.233   0.794   3.079
14307SOL    HW244881   7.261   0.951   3.043
14308SOL     OW44882   6.811   0.325   2.311
14308SOL    HW144883   6.876   0.251   2.300
14308SOL    HW244884   6.831   0.375   2.395
14309SOL     OW44885   6.180   0.745   2.514
14309SOL    HW144886   6.230   0.830   2.495
14309SOL    HW244887   6.092   0.747   2.466
14310SOL     OW44888   7.363   0.342   3.504
14310SOL    HW144889   7.346   0.373   3.410
14310SOL    HW244890   7.279   0.305   3.542
14311SOL     OW44891   7.316   0.934   3.379
14311SOL    HW144892   7.354   1.025   3.394
14311SOL    HW244893   7.308   0.917   3.280
14312SOL     OW44894   6.994   1.851   3.582
14312SOL    HW144895   6.898   1.840   3.555
14312SOL    HW244896   7.050   1.784   3.534
14313SOL     OW44897   6.445   0.956   2.723
14313SOL    HW144898   6.499   0.887   2.771
14313SOL    HW244899   6.413   1.025   2.789
14314SOL     OW44900   6.669   0.984   1.949
14314SOL    HW144901   6.646   1.037   1.867
14314SOL    HW244902   6.750   0.928   1.930
14315SOL     OW44903   7.447   1.569   2.713
14315SOL    HW144904   7.376   1.557   2.643
14315SOL    HW244905   7.448   1.490   2.773
14316SOL     OW44906   5.807   1.314   3.706
14316SOL    HW144907   5.742   1.241   3.685
14316SOL    HW244908   5.811   1.328   3.804
14317SOL     OW44909   5.665   1.240   2.515
14317SOL    HW144910   5.664   1.193   2.603
14317SOL    HW244911   5.747   1.212   2.464
14318SOL     OW44912   7.410   0.192   3.089
14318SOL    HW144913   7.406   0.102   3.133
14318SOL    HW244914   7.413   0.181   2.990
14319SOL     OW44915   6.014   0.424   2.382
14319SOL    HW144916   6.044   0.352   2.320
14319SOL    HW244917   5.975   0.384   2.465
14320SOL     OW44918   7.291   1.487   2.966
14320SOL    HW144919   7.198   1.462   2.939
14320SOL    HW244920   7.317   1.437   3.048
14321SOL     OW44921   5.903   0.547   3.142
14321SOL    HW144922   5.941   0.488   3.214
14321SOL    HW244923   5.943   0.521   3.054
14322SOL     OW44924   7.010   0.214   2.974
14322SOL    HW144925   7.062   0.149   3.029
14322SOL    HW244926   6.961   0.277   3.035
14323SOL     OW44927   6.587   0.034   3.016
14323SOL    HW144928   6.524  -0.038   2.985
14323SOL    HW244929   6.680  -0.002   3.016
14324SOL     OW44930   6.356   1.330   2.163
14324SOL    HW144931   6.310   1.243   2.180
14324SOL    HW244932   6.447   1.327   2.204
14325SOL     OW44933   6.204   1.567   3.146
14325SOL    HW144934   6.199   1.649   3.203
14325SOL    HW244935   6.293   1.564   3.101
14326SOL     OW44936   6.938   0.052   2.030
14326SOL    HW144937   6.973   0.011   1.946
14326SOL    HW244938   6.848   0.014   2.050
14327SOL     OW44939   6.886   0.453   2.553
14327SOL    HW144940   6.827   0.533   2.557
14327SOL    HW244941   6.901   0.418   2.646
14328SOL     OW44942   7.179   0.221   2.744
14328SOL    HW144943   7.095   0.220   2.798
14328SOL    HW244944   7.181   0.304   2.688
14329SOL     OW44945   5.625   1.077   2.162
14329SOL    HW144946   5.724   1.066   2.153
14329SOL    HW244947   5.585   0.991   2.194
14330SOL     OW44948   5.816   0.628   3.837
14330SOL    HW144949   5.723   0.626   3.874
14330SOL    HW244950   5.817   0.589   3.745
14331SOL     OW44951   5.811   0.275   4.720
14331SOL    HW144952   5.846   0.258   4.812
14331SOL    HW244953   5.723   0.230   4.708
14332SOL     OW44954   5.605   0.368   4.371
14332SOL    HW144955   5.523   0.411   4.410
14332SOL    HW244956   5.577   0.295   4.308
14333SOL     OW44957   6.155   1.275   4.889
14333SOL    HW144958   6.062   1.268   4.852
14333SOL    HW244959   6.166   1.364   4.933
14334SOL     OW44960   7.141   1.511   4.427
14334SOL    HW144961   7.084   1.495   4.508
14334SOL    HW244962   7.082   1.521   4.347
14335SOL     OW44963   7.329   0.618   4.580
14335SOL    HW144964   7.362   0.712   4.580
14335SOL    HW244965   7.380   0.564   4.646
14336SOL     OW44966   6.721   0.703   4.441
14336SOL    HW144967   6.778   0.781   4.416
14336SOL    HW244968   6.661   0.729   4.517
14337SOL     OW44969   7.341   0.607   3.955
14337SOL    HW144970   7.329   0.594   3.856
14337SOL    HW244971   7.311   0.526   4.004
14338SOL     OW44972   6.354   1.144   4.747
14338SOL    HW144973   6.276   1.161   4.807
14338SOL    HW244974   6.388   1.231   4.711
14339SOL     OW44975   6.436   0.798   5.547
14339SOL    HW144976   6.432   0.874   5.612
14339SOL    HW244977   6.458   0.834   5.456
14340SOL     OW44978   6.271   1.012   4.389
14340SOL    HW144979   6.340   0.996   4.459
14340SOL    HW244980   6.198   1.069   4.427
14341SOL     OW44981   6.272   1.161   5.527
14341SOL    HW144982   6.332   1.240   5.541
14341SOL    HW244983   6.186   1.192   5.486
14342SOL     OW44984   5.921   1.435   4.785
14342SOL    HW144985   5.843   1.404   4.732
14342SOL    HW244986   5.979   1.493   4.728
14343SOL     OW44987   7.046   1.505   5.063
14343SOL    HW144988   7.070   1.599   5.089
14343SOL    HW244989   7.030   1.451   5.145
14344SOL     OW44990   6.024   0.392   5.223
14344SOL    HW144991   6.106   0.336   5.232
14344SOL    HW244992   5.943   0.334   5.227
14345SOL     OW44993   7.189   0.447   4.461
14345SOL    HW144994   7.115   0.493   4.411
14345SOL    HW244995   7.240   0.515   4.514
14346SOL     OW44996   5.817   1.713   4.207
14346SOL    HW144997   5.851   1.790   4.261
14346SOL    HW244998   5.861   1.713   4.117
14347SOL     OW44999   6.713   1.341   5.414
14347SOL    HW145000   6.760   1.341   5.502
14347SOL    HW245001   6.665   1.254   5.403
14348SOL     OW45002   5.826   1.091   4.610
14348SOL    HW145003   5.840   1.007   4.662
14348SOL    HW245004   5.771   1.155   4.665
14349SOL     OW45005   6.192   0.964   3.847
14349SOL    HW145006   6.199   1.048   3.793
14349SOL    HW245007   6.238   0.977   3.935
14350SOL     OW45008   7.180   0.114   5.204
14350SOL    HW145009   7.162   0.181   5.132
14350SOL    HW245010   7.177   0.160   5.293
14351SOL     OW45011   5.708   0.643   4.287
14351SOL    HW145012   5.663   0.555   4.304
14351SOL    HW245013   5.707   0.697   4.371
14352SOL     OW45014   7.428   1.767   4.083
14352SOL    HW145015   7.482   1.738   4.163
14352SOL    HW245016   7.458   1.857   4.054
14353SOL     OW45017   5.613   1.596   3.841
14353SOL    HW145018   5.594   1.500   3.862
14353SOL    HW245019   5.580   1.654   3.916
14354SOL     OW45020   7.275   0.922   4.336
14354SOL    HW145021   7.370   0.893   4.344
14354SOL    HW245022   7.267   0.987   4.261
14355SOL     OW45023   7.227   1.108   4.156
14355SOL    HW145024   7.313   1.110   4.104
14355SOL    HW245025   7.241   1.155   4.244
14356SOL     OW45026   5.699   0.737   5.321
14356SOL    HW145027   5.787   0.724   5.366
14356SOL    HW245028   5.686   0.834   5.299
14357SOL     OW45029   6.199   1.365   4.450
14357SOL    HW145030   6.150   1.278   4.459
14357SOL    HW245031   6.176   1.408   4.363
14358SOL     OW45032   6.879   1.228   5.147
14358SOL    HW145033   6.916   1.155   5.089
14358SOL    HW245034   6.931   1.233   5.232
14359SOL     OW45035   6.395   0.004   4.226
14359SOL    HW145036   6.435   0.095   4.217
14359SOL    HW245037   6.295   0.012   4.232
14360SOL     OW45038   5.783   0.976   4.988
14360SOL    HW145039   5.872   0.931   4.974
14360SOL    HW245040   5.710   0.911   4.969
14361SOL     OW45041   7.111   0.999   3.914
14361SOL    HW145042   7.048   0.923   3.927
14361SOL    HW245043   7.159   1.017   4.000
14362SOL     OW45044   6.773   1.792   5.340
14362SOL    HW145045   6.797   1.852   5.264
14362SOL    HW245046   6.780   1.697   5.310
14363SOL     OW45047   5.903   0.251   5.525
14363SOL    HW145048   5.974   0.322   5.531
14363SOL    HW245049   5.815   0.290   5.553
14364SOL     OW45050   7.052   1.417   4.677
14364SOL    HW145051   6.993   1.423   4.757
14364SOL    HW245052   7.037   1.329   4.631
14365SOL     OW45053   7.253   1.714   4.296
14365SOL    HW145054   7.212   1.691   4.208
14365SOL    HW245055   7.235   1.640   4.361
14366SOL     OW45056   6.184   0.729   3.994
14366SOL    HW145057   6.208   0.798   3.926
14366SOL    HW245058   6.106   0.762   4.048
14367SOL     OW45059   6.867   0.345   4.668
14367SOL    HW145060   6.781   0.295   4.655
14367SOL    HW245061   6.929   0.291   4.724
14368SOL     OW45062   7.162   1.662   4.031
14368SOL    HW145063   7.251   1.708   4.034
14368SOL    HW245064   7.141   1.638   3.936
14369SOL     OW45065   6.393   0.605   5.189
14369SOL    HW145066   6.346   0.602   5.278
14369SOL    HW245067   6.342   0.550   5.123
14370SOL     OW45068   6.980   0.469   5.398
14370SOL    HW145069   6.960   0.512   5.486
14370SOL    HW245070   7.058   0.407   5.407
14371SOL     OW45071   6.559   0.890   5.296
14371SOL    HW145072   6.605   0.806   5.267
14371SOL    HW245073   6.503   0.924   5.221
14372SOL     OW45074   6.577   0.410   4.966
14372SOL    HW145075   6.500   0.444   5.020
14372SOL    HW245076   6.543   0.359   4.887
14373SOL     OW45077   6.627   0.701   4.153
14373SOL    HW145078   6.653   0.697   4.249
14373SOL    HW245079   6.542   0.650   4.139
14374SOL     OW45080   5.662   0.811   4.513
14374SOL    HW145081   5.761   0.799   4.522
14374SOL    HW245082   5.638   0.906   4.534
14375SOL     OW45083   5.716   1.821   5.295
14375SOL    HW145084   5.706   1.806   5.394
14375SOL    HW245085   5.630   1.857   5.259
14376SOL     OW45086   6.451   0.348   3.919
14376SOL    HW145087   6.510   0.411   3.870
14376SOL    HW245088   6.470   0.254   3.890
14377SOL     OW45089   7.305   0.585   5.555
14377SOL    HW145090   7.279   0.674   5.519
14377SOL    HW245091   7.303   0.517   5.482
14378SOL     OW45092   6.948   1.144   4.269
14378SOL    HW145093   7.031   1.115   4.221
14378SOL    HW245094   6.899   1.211   4.213
14379SOL     OW45095   6.136   0.196   4.609
14379SOL    HW145096   6.131   0.191   4.709
14379SOL    HW245097   6.138   0.292   4.580
14380SOL     OW45098   6.594   1.456   4.201
14380SOL    HW145099   6.548   1.528   4.149
14380SOL    HW245100   6.590   1.476   4.299
14381SOL     OW45101   7.381   1.066   4.597
14381SOL    HW145102   7.319   1.051   4.521
14381SOL    HW245103   7.329   1.077   4.682
14382SOL     OW45104   6.813   1.550   5.230
14382SOL    HW145105   6.819   1.473   5.294
14382SOL    HW245106   6.761   1.524   5.150
14383SOL     OW45107   5.907   0.943   3.966
14383SOL    HW145108   5.989   0.982   3.924
14383SOL    HW245109   5.880   0.861   3.917
14384SOL     OW45110   7.044   0.735   4.452
14384SOL    HW145111   7.039   0.670   4.527
14384SOL    HW245112   7.124   0.794   4.465
14385SOL     OW45113   6.047   1.266   5.451
14385SOL    HW145114   5.997   1.267   5.365
14385SOL    HW245115   5.984   1.248   5.527
14386SOL     OW45116   6.697   1.776   3.961
14386SOL    HW145117   6.637   1.714   4.011
14386SOL    HW245118   6.728   1.732   3.876
14387SOL     OW45119   5.788   0.285   5.222
14387SOL    HW145120   5.708   0.345   5.209
14387SOL    HW245121   5.778   0.236   5.308
14388SOL     OW45122   7.218   1.377   3.805
14388SOL    HW145123   7.186   1.471   3.795
14388SOL    HW245124   7.142   1.314   3.793
14389SOL     OW45125   6.986   0.107   4.150
14389SOL    HW145126   6.962   0.070   4.060
14389SOL    HW245127   7.085   0.123   4.154
14390SOL     OW45128   5.835   1.785   4.965
14390SOL    HW145129   5.892   1.720   5.015
14390SOL    HW245130   5.819   1.752   4.872
14391SOL     OW45131   5.968   0.700   4.204
14391SOL    HW145132   6.013   0.610   4.201
14391SOL    HW245133   5.874   0.689   4.237
14392SOL     OW45134   7.133   0.222   5.453
14392SOL    HW145135   7.128   0.259   5.545
14392SOL    HW245136   7.061   0.153   5.441
14393SOL     OW45137   6.200   0.122   3.841
14393SOL    HW145138   6.298   0.100   3.848
14393SOL    HW245139   6.169   0.105   3.748
14394SOL     OW45140   6.367   0.264   5.473
14394SOL    HW145141   6.434   0.203   5.516
14394SOL    HW245142   6.294   0.283   5.538
14395SOL     OW45143   6.474   1.514   4.919
14395SOL    HW145144   6.451   1.489   4.825
14395SOL    HW245145   6.535   1.445   4.958
14396SOL     OW45146   6.937   0.590   5.157
14396SOL    HW145147   6.965   0.547   5.242
14396SOL    HW245148   6.962   0.686   5.158
14397SOL     OW45149   6.389   1.402   4.648
14397SOL    HW145150   6.479   1.416   4.606
14397SOL    HW245151   6.318   1.404   4.577
14398SOL     OW45152   6.508   0.503   4.623
14398SOL    HW145153   6.483   0.494   4.527
14398SOL    HW245154   6.556   0.421   4.654
14399SOL     OW45155   6.125   0.064   4.236
14399SOL    HW145156   6.044   0.065   4.294
14399SOL    HW245157   6.128   0.147   4.181
14400SOL     OW45158   7.020   1.188   3.765
14400SOL    HW145159   7.052   1.112   3.822
14400SOL    HW245160   6.928   1.215   3.795
14401SOL     OW45161   5.883   0.035   3.895
14401SOL    HW145162   5.932   0.119   3.874
14401SOL    HW245163   5.945  -0.030   3.940
14402SOL     OW45164   6.521   0.236   4.204
14402SOL    HW145165   6.473   0.277   4.126
14402SOL    HW245166   6.620   0.234   4.185
14403SOL     OW45167   6.662   0.683   5.188
14403SOL    HW145168   6.582   0.622   5.191
14403SOL    HW245169   6.743   0.630   5.164
14404SOL     OW45170   6.813   1.570   4.517
14404SOL    HW145171   6.834   1.644   4.452
14404SOL    HW245172   6.881   1.570   4.590
14405SOL     OW45173   6.045   1.152   4.465
14405SOL    HW145174   5.974   1.125   4.530
14405SOL    HW245175   6.019   1.124   4.372
14406SOL     OW45176   6.857   1.797   4.315
14406SOL    HW145177   6.901   1.861   4.251
14406SOL    HW245178   6.807   1.849   4.385
14407SOL     OW45179   6.618   0.549   3.740
14407SOL    HW145180   6.577   0.631   3.701
14407SOL    HW245181   6.682   0.575   3.813
14408SOL     OW45182   5.664   0.556   5.110
14408SOL    HW145183   5.756   0.555   5.069
14408SOL    HW245184   5.658   0.630   5.177
14409SOL     OW45185   6.147   0.222   4.871
14409SOL    HW145186   6.185   0.138   4.908
14409SOL    HW245187   6.059   0.241   4.915
14410SOL     OW45188   6.452   0.454   4.366
14410SOL    HW145189   6.420   0.526   4.304
14410SOL    HW245190   6.476   0.373   4.313
14411SOL     OW45191   6.603   0.039   4.477
14411SOL    HW145192   6.531   0.044   4.408
14411SOL    HW245193   6.579  -0.030   4.546
14412SOL     OW45194   7.015   1.173   4.591
14412SOL    HW145195   6.960   1.089   4.584
14412SOL    HW245196   7.041   1.202   4.499
14413SOL     OW45197   7.052   0.590   4.716
14413SOL    HW145198   7.022   0.495   4.723
14413SOL    HW245199   7.125   0.606   4.782
14414SOL     OW45200   7.443   0.833   4.101
14414SOL    HW145201   7.485   0.769   4.165
14414SOL    HW245202   7.405   0.782   4.023
14415SOL     OW45203   7.250   1.280   4.381
14415SOL    HW145204   7.349   1.288   4.395
14415SOL    HW245205   7.205   1.364   4.412
14416SOL     OW45206   6.976   0.575   3.802
14416SOL    HW145207   6.922   0.554   3.883
14416SOL    HW245208   7.067   0.534   3.811
14417SOL     OW45209   6.113   0.256   4.052
14417SOL    HW145210   6.140   0.197   3.977
14417SOL    HW245211   6.113   0.351   4.021
14418SOL     OW45212   7.340   1.223   5.312
14418SOL    HW145213   7.431   1.184   5.299
14418SOL    HW245214   7.348   1.319   5.336
14419SOL     OW45215   6.650   1.347   5.064
14419SOL    HW145216   6.570   1.324   5.119
14419SOL    HW245217   6.733   1.321   5.113
14420SOL     OW45218   7.178   1.629   5.349
14420SOL    HW145219   7.205   1.663   5.259
14420SOL    HW245220   7.257   1.591   5.395
14421SOL     OW45221   6.697   1.195   4.824
14421SOL    HW145222   6.657   1.239   4.905
14421SOL    HW245223   6.656   1.232   4.741
14422SOL     OW45224   7.224   1.099   4.803
14422SOL    HW145225   7.229   1.180   4.862
14422SOL    HW245226   7.138   1.101   4.752
14423SOL     OW45227   6.501   0.089   5.126
14423SOL    HW145228   6.526   0.069   5.031
14423SOL    HW245229   6.573   0.145   5.168
14424SOL     OW45230   6.566   1.116   5.443
14424SOL    HW145231   6.467   1.122   5.453
14424SOL    HW245232   6.589   1.036   5.387
14425SOL     OW45233   6.291   1.050   4.092
14425SOL    HW145234   6.277   1.057   4.191
14425SOL    HW245235   6.375   0.999   4.074
14426SOL     OW45236   5.996   0.813   4.975
14426SOL    HW145237   6.082   0.825   5.025
14426SOL    HW245238   5.954   0.726   5.002
14427SOL     OW45239   6.860   0.386   4.986
14427SOL    HW145240   6.881   0.460   5.050
14427SOL    HW245241   6.771   0.403   4.943
14428SOL     OW45242   5.650   1.564   5.055
14428SOL    HW145243   5.604   1.646   5.021
14428SOL    HW245244   5.748   1.583   5.064
14429SOL     OW45245   6.152   0.537   4.589
14429SOL    HW145246   6.164   0.603   4.515
14429SOL    HW245247   6.198   0.571   4.672
14430SOL     OW45248   6.838   1.348   4.112
14430SOL    HW145249   6.888   1.425   4.152
14430SOL    HW245250   6.743   1.350   4.144
14431SOL     OW45251   6.858   1.445   4.866
14431SOL    HW145252   6.905   1.458   4.953
14431SOL    HW245253   6.792   1.371   4.875
14432SOL     OW45254   7.168   0.639   4.196
14432SOL    HW145255   7.137   0.700   4.269
14432SOL    HW245256   7.218   0.691   4.127
14433SOL     OW45257   5.940   1.510   5.053
14433SOL    HW145258   5.919   1.466   4.966
14433SOL    HW245259   6.037   1.536   5.056
14434SOL     OW45260   5.988   0.751   5.322
14434SOL    HW145261   6.056   0.806   5.275
14434SOL    HW245262   6.028   0.663   5.349
14435SOL     OW45263   7.173   0.779   5.394
14435SOL    HW145264   7.081   0.817   5.389
14435SOL    HW245265   7.233   0.826   5.329
14436SOL     OW45266   6.599   0.105   5.494
14436SOL    HW145267   6.605   0.190   5.442
14436SOL    HW245268   6.631   0.029   5.437
14437SOL     OW45269   6.090   0.050   5.464
14437SOL    HW145270   6.048  -0.007   5.394
14437SOL    HW245271   6.024   0.119   5.496
14438SOL     OW45272   6.159   0.870   4.753
14438SOL    HW145273   6.203   0.959   4.744
14438SOL    HW245274   6.096   0.870   4.830
14439SOL     OW45275   6.946   0.862   4.769
14439SOL    HW145276   6.871   0.862   4.703
14439SOL    HW245277   6.983   0.770   4.778
14440SOL     OW45278   6.795   0.525   3.999
14440SOL    HW145279   6.808   0.441   4.053
14440SOL    HW245280   6.766   0.599   4.059
14441SOL     OW45281   5.893   0.213   4.955
14441SOL    HW145282   5.870   0.250   5.045
14441SOL    HW245283   5.863   0.118   4.949
14442SOL     OW45284   5.623   1.310   5.006
14442SOL    HW145285   5.676   1.261   5.074
14442SOL    HW245286   5.645   1.408   5.011
14443SOL     OW45287   6.318   0.634   4.788
14443SOL    HW145288   6.377   0.608   4.712
14443SOL    HW245289   6.290   0.730   4.777
14444SOL     OW45290   7.314   0.935   5.578
14444SOL    HW145291   7.268   0.928   5.489
14444SOL    HW245292   7.252   0.979   5.644
14445SOL     OW45293   5.893   0.063   4.342
14445SOL    HW145294   5.882   0.157   4.375
14445SOL    HW245295   5.888   0.000   4.419
14446SOL     OW45296   7.208   0.367   4.098
14446SOL    HW145297   7.210   0.291   4.162
14446SOL    HW245298   7.160   0.444   4.138
14447SOL     OW45299   6.609   0.766   4.690
14447SOL    HW145300   6.624   0.787   4.786
14447SOL    HW245301   6.579   0.671   4.681
14448SOL     OW45302   6.566   1.573   5.424
14448SOL    HW145303   6.546   1.617   5.336
14448SOL    HW245304   6.605   1.482   5.408
14449SOL     OW45305   7.445   1.518   5.329
14449SOL    HW145306   7.459   1.545   5.234
14449SOL    HW245307   7.528   1.540   5.382
14450SOL     OW45308   5.936   0.898   5.528
14450SOL    HW145309   6.012   0.942   5.576
14450SOL    HW245310   5.971   0.851   5.446
14451SOL     OW45311   7.126   0.274   3.849
14451SOL    HW145312   7.065   0.199   3.872
14451SOL    HW245313   7.148   0.326   3.932
14452SOL     OW45314   6.889   0.838   3.766
14452SOL    HW145315   6.923   0.745   3.781
14452SOL    HW245316   6.907   0.865   3.671
14453SOL     OW45317   6.654   1.333   4.573
14453SOL    HW145318   6.661   1.249   4.518
14453SOL    HW245319   6.716   1.402   4.537
14454SOL     OW45320   5.905   0.810   4.673
14454SOL    HW145321   5.998   0.846   4.678
14454SOL    HW245322   5.899   0.725   4.725
14455SOL     OW45323   5.925   0.509   4.730
14455SOL    HW145324   5.873   0.426   4.713
14455SOL    HW245325   6.002   0.514   4.666
14456SOL     OW45326   6.724   0.380   5.402
14456SOL    HW145327   6.679   0.443   5.466
14456SOL    HW245328   6.817   0.411   5.385
14457SOL     OW45329   6.746   0.207   5.201
14457SOL    HW145330   6.746   0.271   5.278
14457SOL    HW245331   6.774   0.255   5.118
14458SOL     OW45332   5.594   1.326   3.924
14458SOL    HW145333   5.501   1.347   3.893
14458SOL    HW245334   5.604   1.227   3.937
14459SOL     OW45335   6.090   1.568   4.634
14459SOL    HW145336   6.156   1.642   4.643
14459SOL    HW245337   6.134   1.489   4.592
14460SOL     OW45338   6.588   0.796   4.962
14460SOL    HW145339   6.629   0.764   5.048
14460SOL    HW245340   6.492   0.769   4.959
14461SOL     OW45341   5.626   0.544   4.838
14461SOL    HW145342   5.711   0.511   4.797
14461SOL    HW245343   5.639   0.559   4.936
14462SOL     OW45344   5.775   0.520   5.446
14462SOL    HW145345   5.834   0.480   5.376
14462SOL    HW245346   5.717   0.591   5.405
14463SOL     OW45347   6.955   0.950   5.384
14463SOL    HW145348   6.994   1.039   5.404
14463SOL    HW245349   6.965   0.930   5.287
14464SOL     OW45350   6.401   0.572   4.049
14464SOL    HW145351   6.408   0.483   4.003
14464SOL    HW245352   6.307   0.606   4.041
14465SOL     OW45353   7.243   0.604   4.930
14465SOL    HW145354   7.205   0.535   4.992
14465SOL    HW245355   7.325   0.568   4.886
14466SOL     OW45356   5.838   1.564   5.468
14466SOL    HW145357   5.808   1.621   5.544
14466SOL    HW245358   5.831   1.467   5.494
14467SOL     OW45359   6.257   0.464   4.993
14467SOL    HW145360   6.223   0.375   4.963
14467SOL    HW245361   6.283   0.518   4.913
14468SOL     OW45362   6.516   1.678   5.189
14468SOL    HW145363   6.492   1.660   5.094
14468SOL    HW245364   6.546   1.772   5.199
14469SOL     OW45365   6.059   0.500   3.915
14469SOL    HW145366   6.120   0.580   3.919
14469SOL    HW245367   5.964   0.531   3.922
14470SOL     OW45368   5.745   1.137   5.190
14470SOL    HW145369   5.767   1.076   5.266
14470SOL    HW245370   5.755   1.088   5.104
14471SOL     OW45371   6.933   1.059   4.958
14471SOL    HW145372   6.957   0.996   4.884
14471SOL    HW245373   6.843   1.099   4.940
14472SOL     OW45374   6.888   0.855   4.033
14472SOL    HW145375   6.802   0.824   4.075
14472SOL    HW245376   6.884   0.841   3.934
14473SOL     OW45377   7.345   1.747   4.878
14473SOL    HW145378   7.406   1.777   4.805
14473SOL    HW245379   7.307   1.658   4.856
14474SOL     OW45380   6.838   1.731   4.852
14474SOL    HW145381   6.922   1.736   4.798
14474SOL    HW245382   6.815   1.635   4.870
14475SOL     OW45383   5.669   1.258   4.746
14475SOL    HW145384   5.664   1.257   4.846
14475SOL    HW245385   5.586   1.217   4.708
14476SOL     OW45386   6.274   1.662   5.440
14476SOL    HW145387   6.218   1.743   5.449
14476SOL    HW245388   6.326   1.666   5.354
14477SOL     OW45389   7.312   0.135   4.247
14477SOL    HW145390   7.385   0.118   4.180
14477SOL    HW245391   7.281   0.048   4.285
14478SOL     OW45392   6.974   1.573   4.201
14478SOL    HW145393   7.041   1.585   4.127
14478SOL    HW245394   6.934   1.662   4.224
14479SOL     OW45395   6.866   0.927   4.396
14479SOL    HW145396   6.926   0.846   4.398
14479SOL    HW245397   6.906   0.996   4.336
14480SOL     OW45398   6.416   1.273   5.146
14480SOL    HW145399   6.411   1.306   5.241
14480SOL    HW245400   6.330   1.292   5.100
14481SOL     OW45401   7.236   1.720   5.118
14481SOL    HW145402   7.289   1.730   5.034
14481SOL    HW245403   7.209   1.810   5.152
14482SOL     OW45404   7.427   0.175   4.687
14482SOL    HW145405   7.466   0.090   4.651
14482SOL    HW245406   7.329   0.177   4.668
14483SOL     OW45407   5.849   0.326   4.444
14483SOL    HW145408   5.770   0.377   4.410
14483SOL    HW245409   5.840   0.311   4.542
14484SOL     OW45410   6.780   1.612   3.755
14484SOL    HW145411   6.786   1.519   3.792
14484SOL    HW245412   6.721   1.612   3.675
14485SOL     OW45413   6.408   1.002   5.096
14485SOL    HW145414   6.448   1.001   5.004
14485SOL    HW245415   6.418   1.094   5.136
14486SOL     OW45416   6.502   0.910   4.015
14486SOL    HW145417   6.565   0.948   3.947
14486SOL    HW245418   6.542   0.827   4.054
14487SOL     OW45419   7.090   1.607   3.768
14487SOL    HW145420   6.998   1.644   3.775
14487SOL    HW245421   7.128   1.627   3.678
14488SOL     OW45422   5.958   1.288   5.214
14488SOL    HW145423   5.945   1.381   5.180
14488SOL    HW245424   5.874   1.236   5.201
14489SOL     OW45425   7.200   1.292   5.013
14489SOL    HW145426   7.260   1.295   5.093
14489SOL    HW245427   7.125   1.356   5.026
14490SOL     OW45428   6.625   1.098   4.420
14490SOL    HW145429   6.555   1.051   4.474
14490SOL    HW245430   6.684   1.030   4.377
14491SOL     OW45431   6.600   0.236   4.695
14491SOL    HW145432   6.592   0.200   4.602
14491SOL    HW245433   6.598   0.160   4.760
14492SOL     OW45434   7.295   0.385   5.105
14492SOL    HW145435   7.368   0.454   5.109
14492SOL    HW245436   7.323   0.310   5.046
14493SOL     OW45437   5.841   1.348   4.014
14493SOL    HW145438   5.745   1.349   3.987
14493SOL    HW245439   5.853   1.401   4.098
14494SOL     OW45440   5.691   1.013   5.450
14494SOL    HW145441   5.614   0.980   5.504
14494SOL    HW245442   5.776   0.983   5.492
14495SOL     OW45443   6.258   0.203   5.213
14495SOL    HW145444   6.348   0.187   5.173
14495SOL    HW245445   6.266   0.208   5.312
14496SOL     OW45446   5.661   0.345   3.757
14496SOL    HW145447   5.569   0.317   3.728
14496SOL    HW245448   5.692   0.422   3.701
14497SOL     OW45449   7.026   0.856   5.122
14497SOL    HW145450   6.969   0.908   5.059
14497SOL    HW245451   7.122   0.868   5.098
14498SOL     OW45452   5.658   0.166   4.042
14498SOL    HW145453   5.641   0.249   3.988
14498SOL    HW245454   5.748   0.129   4.020
14499SOL     OW45455   6.769   1.335   3.843
14499SOL    HW145456   6.670   1.324   3.845
14499SOL    HW245457   6.803   1.350   3.936
14500SOL     OW45458   6.199   0.842   5.155
14500SOL    HW145459   6.255   0.923   5.138
14500SOL    HW245460   6.258   0.762   5.158
14501SOL     OW45461   7.079   1.767   4.683
14501SOL    HW145462   7.112   1.831   4.614
14501SOL    HW245463   7.145   1.761   4.758
14502SOL     OW45464   6.302   0.565   5.432
14502SOL    HW145465   6.321   0.630   5.506
14502SOL    HW245466   6.362   0.485   5.441
14503SOL     OW45467   7.036   1.220   5.357
14503SOL    HW145468   7.027   1.210   5.456
14503SOL    HW245469   7.132   1.213   5.331
14504SOL     OW45470   7.260   0.883   4.978
14504SOL    HW145471   7.233   0.794   4.941
14504SOL    HW245472   7.261   0.951   4.905
14505SOL     OW45473   6.811   0.325   4.173
14505SOL    HW145474   6.876   0.251   4.162
14505SOL    HW245475   6.831   0.375   4.257
14506SOL     OW45476   6.180   0.745   4.376
14506SOL    HW145477   6.230   0.830   4.357
14506SOL    HW245478   6.092   0.747   4.328
14507SOL     OW45479   7.363   0.342   5.366
14507SOL    HW145480   7.346   0.373   5.272
14507SOL    HW245481   7.279   0.305   5.404
14508SOL     OW45482   7.316   0.934   5.241
14508SOL    HW145483   7.354   1.025   5.256
14508SOL    HW245484   7.308   0.917   5.142
14509SOL     OW45485   6.445   1.374   3.740
14509SOL    HW145486   6.399   1.389   3.828
14509SOL    HW245487   6.489   1.459   3.710
14510SOL     OW45488   6.994   1.851   5.444
14510SOL    HW145489   6.898   1.840   5.417
14510SOL    HW245490   7.050   1.784   5.396
14511SOL     OW45491   6.445   0.956   4.585
14511SOL    HW145492   6.499   0.887   4.633
14511SOL    HW245493   6.413   1.025   4.651
14512SOL     OW45494   6.669   0.984   3.811
14512SOL    HW145495   6.646   1.037   3.729
14512SOL    HW245496   6.750   0.928   3.792
14513SOL     OW45497   7.447   1.569   4.575
14513SOL    HW145498   7.376   1.557   4.505
14513SOL    HW245499   7.448   1.490   4.635
14514SOL     OW45500   5.807   1.314   5.568
14514SOL    HW145501   5.742   1.241   5.547
14514SOL    HW245502   5.811   1.328   5.666
14515SOL     OW45503   5.665   1.240   4.377
14515SOL    HW145504   5.664   1.193   4.465
14515SOL    HW245505   5.747   1.212   4.326
14516SOL     OW45506   7.410   0.192   4.951
14516SOL    HW145507   7.406   0.102   4.995
14516SOL    HW245508   7.413   0.181   4.852
14517SOL     OW45509   6.014   0.424   4.244
14517SOL    HW145510   6.044   0.352   4.182
14517SOL    HW245511   5.975   0.384   4.327
14518SOL     OW45512   7.291   1.487   4.828
14518SOL    HW145513   7.198   1.462   4.801
14518SOL    HW245514   7.317   1.437   4.910
14519SOL     OW45515   5.903   0.547   5.004
14519SOL    HW145516   5.941   0.488   5.076
14519SOL    HW245517   5.943   0.521   4.916
14520SOL     OW45518   7.010   0.214   4.836
14520SOL    HW145519   7.062   0.149   4.891
14520SOL    HW245520   6.961   0.277   4.897
14521SOL     OW45521   6.587   0.034   4.878
14521SOL    HW145522   6.524  -0.038   4.847
14521SOL    HW245523   6.680  -0.002   4.878
14522SOL     OW45524   6.356   1.330   4.025
14522SOL    HW145525   6.310   1.243   4.042
14522SOL    HW245526   6.447   1.327   4.066
14523SOL     OW45527   6.938   0.052   3.892
14523SOL    HW145528   6.973   0.011   3.808
14523SOL    HW245529   6.848   0.014   3.912
14524SOL     OW45530   6.886   0.453   4.415
14524SOL    HW145531   6.827   0.533   4.419
14524SOL    HW245532   6.901   0.418   4.508
14525SOL     OW45533   7.179   0.221   4.606
14525SOL    HW145534   7.095   0.220   4.660
14525SOL    HW245535   7.181   0.304   4.550
14526SOL     OW45536   5.625   1.077   4.024
14526SOL    HW145537   5.724   1.066   4.015
14526SOL    HW245538   5.585   0.991   4.056
14527SOL     OW45539   5.816   0.628   5.699
14527SOL    HW145540   5.723   0.626   5.736
14527SOL    HW245541   5.817   0.589   5.607
14528SOL     OW45542   5.811   0.275   6.582
14528SOL    HW145543   5.846   0.258   6.674
14528SOL    HW245544   5.723   0.230   6.570
14529SOL     OW45545   5.605   0.368   6.233
14529SOL    HW145546   5.523   0.411   6.272
14529SOL    HW245547   5.577   0.295   6.170
14530SOL     OW45548   6.155   1.275   6.751
14530SOL    HW145549   6.062   1.268   6.714
14530SOL    HW245550   6.166   1.364   6.795
14531SOL     OW45551   7.141   1.511   6.289
14531SOL    HW145552   7.084   1.495   6.370
14531SOL    HW245553   7.082   1.521   6.209
14532SOL     OW45554   7.329   0.618   6.442
14532SOL    HW145555   7.362   0.712   6.442
14532SOL    HW245556   7.380   0.564   6.508
14533SOL     OW45557   6.721   0.703   6.303
14533SOL    HW145558   6.778   0.781   6.278
14533SOL    HW245559   6.661   0.729   6.379
14534SOL     OW45560   7.341   0.607   5.817
14534SOL    HW145561   7.329   0.594   5.718
14534SOL    HW245562   7.311   0.526   5.866
14535SOL     OW45563   6.354   1.144   6.609
14535SOL    HW145564   6.276   1.161   6.669
14535SOL    HW245565   6.388   1.231   6.573
14536SOL     OW45566   6.436   0.798   7.409
14536SOL    HW145567   6.432   0.874   7.474
14536SOL    HW245568   6.458   0.834   7.318
14537SOL     OW45569   6.272   1.161   7.389
14537SOL    HW145570   6.332   1.240   7.403
14537SOL    HW245571   6.186   1.192   7.348
14538SOL     OW45572   5.921   1.435   6.647
14538SOL    HW145573   5.843   1.404   6.594
14538SOL    HW245574   5.979   1.493   6.590
14539SOL     OW45575   7.046   1.505   6.925
14539SOL    HW145576   7.070   1.599   6.951
14539SOL    HW245577   7.030   1.451   7.007
14540SOL     OW45578   6.024   0.392   7.085
14540SOL    HW145579   6.106   0.336   7.094
14540SOL    HW245580   5.943   0.334   7.089
14541SOL     OW45581   7.189   0.447   6.323
14541SOL    HW145582   7.115   0.493   6.273
14541SOL    HW245583   7.240   0.515   6.376
14542SOL     OW45584   6.713   1.341   7.276
14542SOL    HW145585   6.760   1.341   7.364
14542SOL    HW245586   6.665   1.254   7.265
14543SOL     OW45587   5.826   1.091   6.472
14543SOL    HW145588   5.840   1.007   6.524
14543SOL    HW245589   5.771   1.155   6.527
14544SOL     OW45590   6.206   1.786   7.025
14544SOL    HW145591   6.114   1.769   7.060
14544SOL    HW245592   6.234   1.878   7.051
14545SOL     OW45593   6.192   0.964   5.709
14545SOL    HW145594   6.199   1.048   5.655
14545SOL    HW245595   6.238   0.977   5.797
14546SOL     OW45596   7.180   0.114   7.066
14546SOL    HW145597   7.162   0.181   6.994
14546SOL    HW245598   7.177   0.160   7.155
14547SOL     OW45599   5.708   0.643   6.149
14547SOL    HW145600   5.663   0.555   6.166
14547SOL    HW245601   5.707   0.697   6.233
14548SOL     OW45602   7.428   1.767   5.945
14548SOL    HW145603   7.482   1.738   6.025
14548SOL    HW245604   7.458   1.857   5.916
14549SOL     OW45605   5.613   1.596   5.703
14549SOL    HW145606   5.594   1.500   5.724
14549SOL    HW245607   5.580   1.654   5.778
14550SOL     OW45608   7.275   0.922   6.198
14550SOL    HW145609   7.370   0.893   6.206
14550SOL    HW245610   7.267   0.987   6.123
14551SOL     OW45611   7.227   1.108   6.018
14551SOL    HW145612   7.313   1.110   5.966
14551SOL    HW245613   7.241   1.155   6.106
14552SOL     OW45614   5.699   0.737   7.183
14552SOL    HW145615   5.787   0.724   7.228
14552SOL    HW245616   5.686   0.834   7.161
14553SOL     OW45617   6.199   1.365   6.312
14553SOL    HW145618   6.150   1.278   6.321
14553SOL    HW245619   6.176   1.408   6.225
14554SOL     OW45620   6.879   1.228   7.009
14554SOL    HW145621   6.916   1.155   6.951
14554SOL    HW245622   6.931   1.233   7.094
14555SOL     OW45623   6.395   0.004   6.088
14555SOL    HW145624   6.435   0.095   6.079
14555SOL    HW245625   6.295   0.012   6.094
14556SOL     OW45626   5.783   0.976   6.850
14556SOL    HW145627   5.872   0.931   6.836
14556SOL    HW245628   5.710   0.911   6.831
14557SOL     OW45629   7.111   0.999   5.776
14557SOL    HW145630   7.048   0.923   5.789
14557SOL    HW245631   7.159   1.017   5.862
14558SOL     OW45632   6.773   1.792   7.202
14558SOL    HW145633   6.797   1.852   7.126
14558SOL    HW245634   6.780   1.697   7.172
14559SOL     OW45635   5.903   0.251   7.387
14559SOL    HW145636   5.974   0.322   7.393
14559SOL    HW245637   5.815   0.290   7.415
14560SOL     OW45638   7.052   1.417   6.539
14560SOL    HW145639   6.993   1.423   6.619
14560SOL    HW245640   7.037   1.329   6.493
14561SOL     OW45641   7.253   1.714   6.158
14561SOL    HW145642   7.212   1.691   6.070
14561SOL    HW245643   7.235   1.640   6.223
14562SOL     OW45644   6.184   0.729   5.856
14562SOL    HW145645   6.208   0.798   5.788
14562SOL    HW245646   6.106   0.762   5.910
14563SOL     OW45647   6.867   0.345   6.530
14563SOL    HW145648   6.781   0.295   6.517
14563SOL    HW245649   6.929   0.291   6.586
14564SOL     OW45650   7.162   1.662   5.893
14564SOL    HW145651   7.251   1.708   5.896
14564SOL    HW245652   7.141   1.638   5.798
14565SOL     OW45653   6.393   0.605   7.051
14565SOL    HW145654   6.346   0.602   7.140
14565SOL    HW245655   6.342   0.550   6.985
14566SOL     OW45656   6.980   0.469   7.260
14566SOL    HW145657   6.960   0.512   7.348
14566SOL    HW245658   7.058   0.407   7.269
14567SOL     OW45659   6.559   0.890   7.158
14567SOL    HW145660   6.605   0.806   7.129
14567SOL    HW245661   6.503   0.924   7.083
14568SOL     OW45662   6.577   0.410   6.828
14568SOL    HW145663   6.500   0.444   6.882
14568SOL    HW245664   6.543   0.359   6.749
14569SOL     OW45665   6.627   0.701   6.015
14569SOL    HW145666   6.653   0.697   6.111
14569SOL    HW245667   6.542   0.650   6.001
14570SOL     OW45668   5.662   0.811   6.375
14570SOL    HW145669   5.761   0.799   6.384
14570SOL    HW245670   5.638   0.906   6.396
14571SOL     OW45671   6.451   0.348   5.781
14571SOL    HW145672   6.510   0.411   5.732
14571SOL    HW245673   6.470   0.254   5.752
14572SOL     OW45674   7.305   0.585   7.417
14572SOL    HW145675   7.279   0.674   7.381
14572SOL    HW245676   7.303   0.517   7.344
14573SOL     OW45677   6.948   1.144   6.131
14573SOL    HW145678   7.031   1.115   6.083
14573SOL    HW245679   6.899   1.211   6.075
14574SOL     OW45680   6.136   0.196   6.471
14574SOL    HW145681   6.131   0.191   6.571
14574SOL    HW245682   6.138   0.292   6.442
14575SOL     OW45683   6.594   1.456   6.063
14575SOL    HW145684   6.548   1.528   6.011
14575SOL    HW245685   6.590   1.476   6.161
14576SOL     OW45686   5.937   1.801   6.439
14576SOL    HW145687   5.987   1.715   6.445
14576SOL    HW245688   6.002   1.878   6.436
14577SOL     OW45689   7.381   1.066   6.459
14577SOL    HW145690   7.319   1.051   6.383
14577SOL    HW245691   7.329   1.077   6.544
14578SOL     OW45692   6.813   1.550   7.092
14578SOL    HW145693   6.819   1.473   7.156
14578SOL    HW245694   6.761   1.524   7.012
14579SOL     OW45695   5.907   0.943   5.828
14579SOL    HW145696   5.989   0.982   5.786
14579SOL    HW245697   5.880   0.861   5.779
14580SOL     OW45698   7.044   0.735   6.314
14580SOL    HW145699   7.039   0.670   6.389
14580SOL    HW245700   7.124   0.794   6.327
14581SOL     OW45701   6.047   1.266   7.313
14581SOL    HW145702   5.997   1.267   7.227
14581SOL    HW245703   5.984   1.248   7.389
14582SOL     OW45704   6.697   1.776   5.823
14582SOL    HW145705   6.637   1.714   5.873
14582SOL    HW245706   6.728   1.732   5.738
14583SOL     OW45707   5.788   0.285   7.084
14583SOL    HW145708   5.708   0.345   7.071
14583SOL    HW245709   5.778   0.236   7.170
14584SOL     OW45710   7.218   1.377   5.667
14584SOL    HW145711   7.186   1.471   5.657
14584SOL    HW245712   7.142   1.314   5.655
14585SOL     OW45713   6.986   0.107   6.012
14585SOL    HW145714   6.962   0.070   5.922
14585SOL    HW245715   7.085   0.123   6.016
14586SOL     OW45716   5.835   1.785   6.827
14586SOL    HW145717   5.892   1.720   6.877
14586SOL    HW245718   5.819   1.752   6.734
14587SOL     OW45719   7.133   0.222   7.315
14587SOL    HW145720   7.128   0.259   7.407
14587SOL    HW245721   7.061   0.153   7.303
14588SOL     OW45722   6.200   0.122   5.703
14588SOL    HW145723   6.298   0.100   5.710
14588SOL    HW245724   6.169   0.105   5.610
14589SOL     OW45725   6.367   0.264   7.335
14589SOL    HW145726   6.434   0.203   7.378
14589SOL    HW245727   6.294   0.283   7.400
14590SOL     OW45728   6.474   1.514   6.781
14590SOL    HW145729   6.451   1.489   6.687
14590SOL    HW245730   6.535   1.445   6.820
14591SOL     OW45731   6.937   0.590   7.019
14591SOL    HW145732   6.965   0.547   7.104
14591SOL    HW245733   6.962   0.686   7.020
14592SOL     OW45734   6.389   1.402   6.510
14592SOL    HW145735   6.479   1.416   6.468
14592SOL    HW245736   6.318   1.404   6.439
14593SOL     OW45737   6.508   0.503   6.485
14593SOL    HW145738   6.483   0.494   6.389
14593SOL    HW245739   6.556   0.421   6.516
14594SOL     OW45740   6.125   0.064   6.098
14594SOL    HW145741   6.044   0.065   6.156
14594SOL    HW245742   6.128   0.147   6.043
14595SOL     OW45743   7.020   1.188   5.627
14595SOL    HW145744   7.052   1.112   5.684
14595SOL    HW245745   6.928   1.215   5.657
14596SOL     OW45746   5.883   0.035   5.757
14596SOL    HW145747   5.932   0.119   5.736
14596SOL    HW245748   5.945  -0.030   5.802
14597SOL     OW45749   6.521   0.236   6.066
14597SOL    HW145750   6.473   0.277   5.988
14597SOL    HW245751   6.620   0.234   6.047
14598SOL     OW45752   6.662   0.683   7.050
14598SOL    HW145753   6.582   0.622   7.053
14598SOL    HW245754   6.743   0.630   7.026
14599SOL     OW45755   6.813   1.570   6.379
14599SOL    HW145756   6.834   1.644   6.314
14599SOL    HW245757   6.881   1.570   6.452
14600SOL     OW45758   6.045   1.152   6.327
14600SOL    HW145759   5.974   1.125   6.392
14600SOL    HW245760   6.019   1.124   6.234
14601SOL     OW45761   6.857   1.797   6.177
14601SOL    HW145762   6.901   1.861   6.113
14601SOL    HW245763   6.807   1.849   6.247
14602SOL     OW45764   6.618   0.549   5.602
14602SOL    HW145765   6.577   0.631   5.563
14602SOL    HW245766   6.682   0.575   5.675
14603SOL     OW45767   5.664   0.556   6.972
14603SOL    HW145768   5.756   0.555   6.931
14603SOL    HW245769   5.658   0.630   7.039
14604SOL     OW45770   6.147   0.222   6.733
14604SOL    HW145771   6.185   0.138   6.770
14604SOL    HW245772   6.059   0.241   6.777
14605SOL     OW45773   6.452   0.454   6.228
14605SOL    HW145774   6.420   0.526   6.166
14605SOL    HW245775   6.476   0.373   6.175
14606SOL     OW45776   6.603   0.039   6.339
14606SOL    HW145777   6.531   0.044   6.270
14606SOL    HW245778   6.579  -0.030   6.408
14607SOL     OW45779   7.015   1.173   6.453
14607SOL    HW145780   6.960   1.089   6.446
14607SOL    HW245781   7.041   1.202   6.361
14608SOL     OW45782   7.052   0.590   6.578
14608SOL    HW145783   7.022   0.495   6.585
14608SOL    HW245784   7.125   0.606   6.644
14609SOL     OW45785   7.443   0.833   5.963
14609SOL    HW145786   7.485   0.769   6.027
14609SOL    HW245787   7.405   0.782   5.885
14610SOL     OW45788   7.250   1.280   6.243
14610SOL    HW145789   7.349   1.288   6.257
14610SOL    HW245790   7.205   1.364   6.274
14611SOL     OW45791   6.976   0.575   5.664
14611SOL    HW145792   6.922   0.554   5.745
14611SOL    HW245793   7.067   0.534   5.673
14612SOL     OW45794   6.113   0.256   5.914
14612SOL    HW145795   6.140   0.197   5.839
14612SOL    HW245796   6.113   0.351   5.883
14613SOL     OW45797   7.340   1.223   7.174
14613SOL    HW145798   7.431   1.184   7.161
14613SOL    HW245799   7.348   1.319   7.198
14614SOL     OW45800   6.650   1.347   6.926
14614SOL    HW145801   6.570   1.324   6.981
14614SOL    HW245802   6.733   1.321   6.975
14615SOL     OW45803   7.178   1.629   7.211
14615SOL    HW145804   7.205   1.663   7.121
14615SOL    HW245805   7.257   1.591   7.257
14616SOL     OW45806   6.697   1.195   6.686
14616SOL    HW145807   6.657   1.239   6.767
14616SOL    HW245808   6.656   1.232   6.603
14617SOL     OW45809   7.224   1.099   6.665
14617SOL    HW145810   7.229   1.180   6.724
14617SOL    HW245811   7.138   1.101   6.614
14618SOL     OW45812   6.501   0.089   6.988
14618SOL    HW145813   6.526   0.069   6.893
14618SOL    HW245814   6.573   0.145   7.030
14619SOL     OW45815   6.566   1.116   7.305
14619SOL    HW145816   6.467   1.122   7.315
14619SOL    HW245817   6.589   1.036   7.249
14620SOL     OW45818   6.291   1.050   5.954
14620SOL    HW145819   6.277   1.057   6.053
14620SOL    HW245820   6.375   0.999   5.936
14621SOL     OW45821   5.996   0.813   6.837
14621SOL    HW145822   6.082   0.825   6.887
14621SOL    HW245823   5.954   0.726   6.864
14622SOL     OW45824   6.860   0.386   6.848
14622SOL    HW145825   6.881   0.460   6.912
14622SOL    HW245826   6.771   0.403   6.805
14623SOL     OW45827   5.953   1.100   6.087
14623SOL    HW145828   5.946   1.183   6.031
14623SOL    HW245829   5.957   1.020   6.027
14624SOL     OW45830   6.152   0.537   6.451
14624SOL    HW145831   6.164   0.603   6.377
14624SOL    HW245832   6.198   0.571   6.534
14625SOL     OW45833   6.838   1.348   5.974
14625SOL    HW145834   6.888   1.425   6.014
14625SOL    HW245835   6.743   1.350   6.006
14626SOL     OW45836   6.858   1.445   6.728
14626SOL    HW145837   6.905   1.458   6.815
14626SOL    HW245838   6.792   1.371   6.737
14627SOL     OW45839   7.168   0.639   6.058
14627SOL    HW145840   7.137   0.700   6.131
14627SOL    HW245841   7.218   0.691   5.989
14628SOL     OW45842   5.988   0.751   7.184
14628SOL    HW145843   6.056   0.806   7.137
14628SOL    HW245844   6.028   0.663   7.211
14629SOL     OW45845   7.173   0.779   7.256
14629SOL    HW145846   7.081   0.817   7.251
14629SOL    HW245847   7.233   0.826   7.191
14630SOL     OW45848   6.599   0.105   7.356
14630SOL    HW145849   6.605   0.190   7.304
14630SOL    HW245850   6.631   0.029   7.299
14631SOL     OW45851   6.090   0.050   7.326
14631SOL    HW145852   6.048  -0.007   7.256
14631SOL    HW245853   6.024   0.119   7.358
14632SOL     OW45854   6.946   0.862   6.631
14632SOL    HW145855   6.871   0.862   6.565
14632SOL    HW245856   6.983   0.770   6.640
14633SOL     OW45857   6.795   0.525   5.861
14633SOL    HW145858   6.808   0.441   5.915
14633SOL    HW245859   6.766   0.599   5.921
14634SOL     OW45860   5.893   0.213   6.817
14634SOL    HW145861   5.870   0.250   6.907
14634SOL    HW245862   5.863   0.118   6.811
14635SOL     OW45863   5.623   1.310   6.868
14635SOL    HW145864   5.676   1.261   6.936
14635SOL    HW245865   5.645   1.408   6.873
14636SOL     OW45866   6.318   0.634   6.650
14636SOL    HW145867   6.377   0.608   6.574
14636SOL    HW245868   6.290   0.730   6.639
14637SOL     OW45869   7.314   0.935   7.440
14637SOL    HW145870   7.268   0.928   7.351
14637SOL    HW245871   7.252   0.979   7.506
14638SOL     OW45872   5.893   0.063   6.204
14638SOL    HW145873   5.882   0.157   6.237
14638SOL    HW245874   5.888   0.000   6.281
14639SOL     OW45875   7.208   0.367   5.960
14639SOL    HW145876   7.210   0.291   6.024
14639SOL    HW245877   7.160   0.444   6.000
14640SOL     OW45878   6.609   0.766   6.552
14640SOL    HW145879   6.624   0.787   6.648
14640SOL    HW245880   6.579   0.671   6.543
14641SOL     OW45881   6.566   1.573   7.286
14641SOL    HW145882   6.546   1.617   7.198
14641SOL    HW245883   6.605   1.482   7.270
14642SOL     OW45884   7.445   1.518   7.191
14642SOL    HW145885   7.459   1.545   7.096
14642SOL    HW245886   7.528   1.540   7.244
14643SOL     OW45887   5.936   0.898   7.390
14643SOL    HW145888   6.012   0.942   7.438
14643SOL    HW245889   5.971   0.851   7.308
14644SOL     OW45890   7.126   0.274   5.711
14644SOL    HW145891   7.065   0.199   5.734
14644SOL    HW245892   7.148   0.326   5.794
14645SOL     OW45893   6.889   0.838   5.628
14645SOL    HW145894   6.923   0.745   5.643
14645SOL    HW245895   6.907   0.865   5.533
14646SOL     OW45896   6.654   1.333   6.435
14646SOL    HW145897   6.661   1.249   6.380
14646SOL    HW245898   6.716   1.402   6.399
14647SOL     OW45899   5.925   0.509   6.592
14647SOL    HW145900   5.873   0.426   6.575
14647SOL    HW245901   6.002   0.514   6.528
14648SOL     OW45902   6.724   0.380   7.264
14648SOL    HW145903   6.679   0.443   7.328
14648SOL    HW245904   6.817   0.411   7.247
14649SOL     OW45905   6.746   0.207   7.063
14649SOL    HW145906   6.746   0.271   7.140
14649SOL    HW245907   6.774   0.255   6.980
14650SOL     OW45908   5.594   1.326   5.786
14650SOL    HW145909   5.501   1.347   5.755
14650SOL    HW245910   5.604   1.227   5.799
14651SOL     OW45911   5.674   1.801   6.513
14651SOL    HW145912   5.632   1.715   6.486
14651SOL    HW245913   5.768   1.804   6.479
14652SOL     OW45914   6.090   1.568   6.496
14652SOL    HW145915   6.156   1.642   6.505
14652SOL    HW245916   6.134   1.489   6.454
14653SOL     OW45917   6.588   0.796   6.824
14653SOL    HW145918   6.629   0.764   6.910
14653SOL    HW245919   6.492   0.769   6.821
14654SOL     OW45920   5.626   0.544   6.700
14654SOL    HW145921   5.711   0.511   6.659
14654SOL    HW245922   5.639   0.559   6.798
14655SOL     OW45923   5.775   0.520   7.308
14655SOL    HW145924   5.834   0.480   7.238
14655SOL    HW245925   5.717   0.591   7.267
14656SOL     OW45926   6.955   0.950   7.246
14656SOL    HW145927   6.994   1.039   7.266
14656SOL    HW245928   6.965   0.930   7.149
14657SOL     OW45929   6.401   0.572   5.911
14657SOL    HW145930   6.408   0.483   5.865
14657SOL    HW245931   6.307   0.606   5.903
14658SOL     OW45932   7.243   0.604   6.792
14658SOL    HW145933   7.205   0.535   6.854
14658SOL    HW245934   7.325   0.568   6.748
14659SOL     OW45935   5.838   1.564   7.330
14659SOL    HW145936   5.808   1.621   7.406
14659SOL    HW245937   5.831   1.467   7.356
14660SOL     OW45938   6.257   0.464   6.855
14660SOL    HW145939   6.223   0.375   6.825
14660SOL    HW245940   6.283   0.518   6.775
14661SOL     OW45941   6.516   1.678   7.051
14661SOL    HW145942   6.492   1.660   6.956
14661SOL    HW245943   6.546   1.772   7.061
14662SOL     OW45944   6.059   0.500   5.777
14662SOL    HW145945   6.120   0.580   5.781
14662SOL    HW245946   5.964   0.531   5.784
14663SOL     OW45947   5.745   1.137   7.052
14663SOL    HW145948   5.767   1.076   7.128
14663SOL    HW245949   5.755   1.088   6.966
14664SOL     OW45950   6.933   1.059   6.820
14664SOL    HW145951   6.957   0.996   6.746
14664SOL    HW245952   6.843   1.099   6.802
14665SOL     OW45953   6.888   0.855   5.895
14665SOL    HW145954   6.802   0.824   5.937
14665SOL    HW245955   6.884   0.841   5.796
14666SOL     OW45956   7.345   1.747   6.740
14666SOL    HW145957   7.406   1.777   6.667
14666SOL    HW245958   7.307   1.658   6.718
14667SOL     OW45959   6.838   1.731   6.714
14667SOL    HW145960   6.922   1.736   6.660
14667SOL    HW245961   6.815   1.635   6.732
14668SOL     OW45962   5.669   1.258   6.608
14668SOL    HW145963   5.664   1.257   6.708
14668SOL    HW245964   5.586   1.217   6.570
14669SOL     OW45965   6.274   1.662   7.302
14669SOL    HW145966   6.218   1.743   7.311
14669SOL    HW245967   6.326   1.666   7.216
14670SOL     OW45968   7.312   0.135   6.109
14670SOL    HW145969   7.385   0.118   6.042
14670SOL    HW245970   7.281   0.048   6.147
14671SOL     OW45971   6.974   1.573   6.063
14671SOL    HW145972   7.041   1.585   5.989
14671SOL    HW245973   6.934   1.662   6.086
14672SOL     OW45974   6.866   0.927   6.258
14672SOL    HW145975   6.926   0.846   6.260
14672SOL    HW245976   6.906   0.996   6.198
14673SOL     OW45977   6.416   1.273   7.008
14673SOL    HW145978   6.411   1.306   7.103
14673SOL    HW245979   6.330   1.292   6.962
14674SOL     OW45980   6.258   1.616   5.740
14674SOL    HW145981   6.267   1.626   5.641
14674SOL    HW245982   6.218   1.527   5.761
14675SOL     OW45983   7.236   1.720   6.980
14675SOL    HW145984   7.289   1.730   6.896
14675SOL    HW245985   7.209   1.810   7.014
14676SOL     OW45986   7.427   0.175   6.549
14676SOL    HW145987   7.466   0.090   6.513
14676SOL    HW245988   7.329   0.177   6.530
14677SOL     OW45989   5.849   0.326   6.306
14677SOL    HW145990   5.770   0.377   6.272
14677SOL    HW245991   5.840   0.311   6.404
14678SOL     OW45992   6.780   1.612   5.617
14678SOL    HW145993   6.786   1.519   5.654
14678SOL    HW245994   6.721   1.612   5.537
14679SOL     OW45995   6.408   1.002   6.958
14679SOL    HW145996   6.448   1.001   6.866
14679SOL    HW245997   6.418   1.094   6.998
14680SOL     OW45998   6.502   0.910   5.877
14680SOL    HW145999   6.565   0.948   5.809
14680SOL    HW246000   6.542   0.827   5.916
14681SOL     OW46001   7.090   1.607   5.630
14681SOL    HW146002   6.998   1.644   5.637
14681SOL    HW246003   7.128   1.627   5.540
14682SOL     OW46004   5.958   1.288   7.076
14682SOL    HW146005   5.945   1.381   7.042
14682SOL    HW246006   5.874   1.236   7.063
14683SOL     OW46007   7.200   1.292   6.875
14683SOL    HW146008   7.260   1.295   6.955
14683SOL    HW246009   7.125   1.356   6.888
14684SOL     OW46010   6.625   1.098   6.282
14684SOL    HW146011   6.555   1.051   6.336
14684SOL    HW246012   6.684   1.030   6.239
14685SOL     OW46013   6.600   0.236   6.557
14685SOL    HW146014   6.592   0.200   6.464
14685SOL    HW246015   6.598   0.160   6.622
14686SOL     OW46016   6.176   1.487   6.077
14686SOL    HW146017   6.218   1.429   6.007
14686SOL    HW246018   6.132   1.566   6.033
14687SOL     OW46019   7.295   0.385   6.967
14687SOL    HW146020   7.368   0.454   6.971
14687SOL    HW246021   7.323   0.310   6.908
14688SOL     OW46022   5.691   1.013   7.312
14688SOL    HW146023   5.614   0.980   7.366
14688SOL    HW246024   5.776   0.983   7.354
14689SOL     OW46025   6.258   0.203   7.075
14689SOL    HW146026   6.348   0.187   7.035
14689SOL    HW246027   6.266   0.208   7.174
14690SOL     OW46028   5.661   0.345   5.619
14690SOL    HW146029   5.569   0.317   5.590
14690SOL    HW246030   5.692   0.422   5.563
14691SOL     OW46031   7.026   0.856   6.984
14691SOL    HW146032   6.969   0.908   6.921
14691SOL    HW246033   7.122   0.868   6.960
14692SOL     OW46034   5.658   0.166   5.904
14692SOL    HW146035   5.641   0.249   5.850
14692SOL    HW246036   5.748   0.129   5.882
14693SOL     OW46037   6.769   1.335   5.705
14693SOL    HW146038   6.670   1.324   5.707
14693SOL    HW246039   6.803   1.350   5.798
14694SOL     OW46040   6.199   0.842   7.017
14694SOL    HW146041   6.255   0.923   7.000
14694SOL    HW246042   6.258   0.762   7.020
14695SOL     OW46043   7.079   1.767   6.545
14695SOL    HW146044   7.112   1.831   6.476
14695SOL    HW246045   7.145   1.761   6.620
14696SOL     OW46046   6.302   0.565   7.294
14696SOL    HW146047   6.321   0.630   7.368
14696SOL    HW246048   6.362   0.485   7.303
14697SOL     OW46049   7.036   1.220   7.219
14697SOL    HW146050   7.027   1.210   7.318
14697SOL    HW246051   7.132   1.213   7.193
14698SOL     OW46052   7.260   0.883   6.840
14698SOL    HW146053   7.233   0.794   6.803
14698SOL    HW246054   7.261   0.951   6.767
14699SOL     OW46055   6.811   0.325   6.035
14699SOL    HW146056   6.876   0.251   6.024
14699SOL    HW246057   6.831   0.375   6.119
14700SOL     OW46058   7.363   0.342   7.228
14700SOL    HW146059   7.346   0.373   7.134
14700SOL    HW246060   7.279   0.305   7.266
14701SOL     OW46061   7.316   0.934   7.103
14701SOL    HW146062   7.354   1.025   7.118
14701SOL    HW246063   7.308   0.917   7.004
14702SOL     OW46064   6.445   1.374   5.602
14702SOL    HW146065   6.399   1.389   5.690
14702SOL    HW246066   6.489   1.459   5.572
14703SOL     OW46067   6.247   1.790   6.539
14703SOL    HW146068   6.201   1.878   6.526
14703SOL    HW246069   6.346   1.802   6.532
14704SOL     OW46070   6.994   1.851   7.306
14704SOL    HW146071   6.898   1.840   7.279
14704SOL    HW246072   7.050   1.784   7.258
14705SOL     OW46073   6.669   0.984   5.673
14705SOL    HW146074   6.646   1.037   5.591
14705SOL    HW246075   6.750   0.928   5.654
14706SOL     OW46076   7.447   1.569   6.437
14706SOL    HW146077   7.376   1.557   6.367
14706SOL    HW246078   7.448   1.490   6.497
14707SOL     OW46079   5.807   1.314   7.430
14707SOL    HW146080   5.742   1.241   7.409
14707SOL    HW246081   5.811   1.328   7.528
14708SOL     OW46082   5.665   1.240   6.239
14708SOL    HW146083   5.664   1.193   6.327
14708SOL    HW246084   5.747   1.212   6.188
14709SOL     OW46085   6.258   1.391   7.210
14709SOL    HW146086   6.180   1.341   7.248
14709SOL    HW246087   6.255   1.486   7.241
14710SOL     OW46088   7.410   0.192   6.813
14710SOL    HW146089   7.406   0.102   6.857
14710SOL    HW246090   7.413   0.181   6.714
14711SOL     OW46091   6.014   0.424   6.106
14711SOL    HW146092   6.044   0.352   6.044
14711SOL    HW246093   5.975   0.384   6.189
14712SOL     OW46094   7.291   1.487   6.690
14712SOL    HW146095   7.198   1.462   6.663
14712SOL    HW246096   7.317   1.437   6.772
14713SOL     OW46097   5.903   0.547   6.866
14713SOL    HW146098   5.941   0.488   6.938
14713SOL    HW246099   5.943   0.521   6.778
14714SOL     OW46100   6.398   1.586   6.273
14714SOL    HW146101   6.430   1.596   6.179
14714SOL    HW246102   6.319   1.524   6.275
14715SOL     OW46103   7.010   0.214   6.698
14715SOL    HW146104   7.062   0.149   6.753
14715SOL    HW246105   6.961   0.277   6.759
14716SOL     OW46106   6.587   0.034   6.740
14716SOL    HW146107   6.524  -0.038   6.709
14716SOL    HW246108   6.680  -0.002   6.740
14717SOL     OW46109   6.356   1.330   5.887
14717SOL    HW146110   6.310   1.243   5.904
14717SOL    HW246111   6.447   1.327   5.928
14718SOL     OW46112   6.938   0.052   5.754
14718SOL    HW146113   6.973   0.011   5.670
14718SOL    HW246114   6.848   0.014   5.774
14719SOL     OW46115   6.886   0.453   6.277
14719SOL    HW146116   6.827   0.533   6.281
14719SOL    HW246117   6.901   0.418   6.370
14720SOL     OW46118   7.179   0.221   6.468
14720SOL    HW146119   7.095   0.220   6.522
14720SOL    HW246120   7.181   0.304   6.412
14721SOL     OW46121   5.625   1.077   5.886
14721SOL    HW146122   5.724   1.066   5.877
14721SOL    HW246123   5.585   0.991   5.918
14722SOL     OW46124   6.461   1.646   5.923
14722SOL    HW146125   6.384   1.611   5.869
14722SOL    HW246126   6.429   1.717   5.985
14723SOL     OW46127   5.816   0.628   7.561
14723SOL    HW146128   5.723   0.626   7.598
14723SOL    HW246129   5.817   0.589   7.469
14724SOL     OW46130   5.811   0.275   8.444
14724SOL    HW146131   5.846   0.258   8.536
14724SOL    HW246132   5.723   0.230   8.432
14725SOL     OW46133   5.605   0.368   8.095
14725SOL    HW146134   5.523   0.411   8.134
14725SOL    HW246135   5.577   0.295   8.032
14726SOL     OW46136   6.155   1.275   8.613
14726SOL    HW146137   6.062   1.268   8.576
14726SOL    HW246138   6.166   1.364   8.657
14727SOL     OW46139   7.141   1.511   8.151
14727SOL    HW146140   7.084   1.495   8.232
14727SOL    HW246141   7.082   1.521   8.071
14728SOL     OW46142   7.329   0.618   8.304
14728SOL    HW146143   7.362   0.712   8.304
14728SOL    HW246144   7.380   0.564   8.370
14729SOL     OW46145   6.721   0.703   8.165
14729SOL    HW146146   6.778   0.781   8.140
14729SOL    HW246147   6.661   0.729   8.241
14730SOL     OW46148   7.341   0.607   7.679
14730SOL    HW146149   7.329   0.594   7.580
14730SOL    HW246150   7.311   0.526   7.728
14731SOL     OW46151   6.354   1.144   8.471
14731SOL    HW146152   6.276   1.161   8.531
14731SOL    HW246153   6.388   1.231   8.435
14732SOL     OW46154   6.271   1.012   8.113
14732SOL    HW146155   6.340   0.996   8.183
14732SOL    HW246156   6.198   1.069   8.151
14733SOL     OW46157   5.921   1.435   8.509
14733SOL    HW146158   5.843   1.404   8.456
14733SOL    HW246159   5.979   1.493   8.452
14734SOL     OW46160   7.046   1.505   8.787
14734SOL    HW146161   7.070   1.599   8.813
14734SOL    HW246162   7.030   1.451   8.869
14735SOL     OW46163   6.024   0.392   8.947
14735SOL    HW146164   6.106   0.336   8.956
14735SOL    HW246165   5.943   0.334   8.951
14736SOL     OW46166   7.189   0.447   8.185
14736SOL    HW146167   7.115   0.493   8.135
14736SOL    HW246168   7.240   0.515   8.238
14737SOL     OW46169   5.817   1.713   7.931
14737SOL    HW146170   5.851   1.790   7.985
14737SOL    HW246171   5.861   1.713   7.841
14738SOL     OW46172   5.816   1.434   7.986
14738SOL    HW146173   5.790   1.530   7.986
14738SOL    HW246174   5.745   1.380   8.031
14739SOL     OW46175   5.826   1.091   8.334
14739SOL    HW146176   5.840   1.007   8.386
14739SOL    HW246177   5.771   1.155   8.389
14740SOL     OW46178   6.206   1.786   8.887
14740SOL    HW146179   6.114   1.769   8.922
14740SOL    HW246180   6.234   1.878   8.913
14741SOL     OW46181   6.192   0.964   7.571
14741SOL    HW146182   6.199   1.048   7.517
14741SOL    HW246183   6.238   0.977   7.659
14742SOL     OW46184   7.180   0.114   8.928
14742SOL    HW146185   7.162   0.181   8.856
14742SOL    HW246186   7.177   0.160   9.017
14743SOL     OW46187   5.708   0.643   8.011
14743SOL    HW146188   5.663   0.555   8.028
14743SOL    HW246189   5.707   0.697   8.095
14744SOL     OW46190   7.428   1.767   7.807
14744SOL    HW146191   7.482   1.738   7.887
14744SOL    HW246192   7.458   1.857   7.778
14745SOL     OW46193   5.613   1.596   7.565
14745SOL    HW146194   5.594   1.500   7.586
14745SOL    HW246195   5.580   1.654   7.640
14746SOL     OW46196   7.275   0.922   8.060
14746SOL    HW146197   7.370   0.893   8.068
14746SOL    HW246198   7.267   0.987   7.985
14747SOL     OW46199   7.227   1.108   7.880
14747SOL    HW146200   7.313   1.110   7.828
14747SOL    HW246201   7.241   1.155   7.968
14748SOL     OW46202   6.199   1.365   8.174
14748SOL    HW146203   6.150   1.278   8.183
14748SOL    HW246204   6.176   1.408   8.087
14749SOL     OW46205   6.395   0.004   7.950
14749SOL    HW146206   6.435   0.095   7.941
14749SOL    HW246207   6.295   0.012   7.956
14750SOL     OW46208   5.783   0.976   8.712
14750SOL    HW146209   5.872   0.931   8.698
14750SOL    HW246210   5.710   0.911   8.693
14751SOL     OW46211   7.111   0.999   7.638
14751SOL    HW146212   7.048   0.923   7.651
14751SOL    HW246213   7.159   1.017   7.724
14752SOL     OW46214   7.052   1.417   8.401
14752SOL    HW146215   6.993   1.423   8.481
14752SOL    HW246216   7.037   1.329   8.355
14753SOL     OW46217   7.253   1.714   8.020
14753SOL    HW146218   7.212   1.691   7.932
14753SOL    HW246219   7.235   1.640   8.085
14754SOL     OW46220   6.184   0.729   7.718
14754SOL    HW146221   6.208   0.798   7.650
14754SOL    HW246222   6.106   0.762   7.772
14755SOL     OW46223   6.867   0.345   8.392
14755SOL    HW146224   6.781   0.295   8.379
14755SOL    HW246225   6.929   0.291   8.448
14756SOL     OW46226   7.162   1.662   7.755
14756SOL    HW146227   7.251   1.708   7.758
14756SOL    HW246228   7.141   1.638   7.660
14757SOL     OW46229   6.393   0.605   8.913
14757SOL    HW146230   6.346   0.602   9.002
14757SOL    HW246231   6.342   0.550   8.847
14758SOL     OW46232   6.577   0.410   8.690
14758SOL    HW146233   6.500   0.444   8.744
14758SOL    HW246234   6.543   0.359   8.611
14759SOL     OW46235   6.627   0.701   7.877
14759SOL    HW146236   6.653   0.697   7.973
14759SOL    HW246237   6.542   0.650   7.863
14760SOL     OW46238   5.662   0.811   8.237
14760SOL    HW146239   5.761   0.799   8.246
14760SOL    HW246240   5.638   0.906   8.258
14761SOL     OW46241   5.716   1.821   0.019
14761SOL    HW146242   5.706   1.806   0.118
14761SOL    HW246243   5.630   1.857  -0.017
14762SOL     OW46244   6.451   0.348   7.643
14762SOL    HW146245   6.510   0.411   7.594
14762SOL    HW246246   6.470   0.254   7.614
14763SOL     OW46247   6.948   1.144   7.993
14763SOL    HW146248   7.031   1.115   7.945
14763SOL    HW246249   6.899   1.211   7.937
14764SOL     OW46250   6.136   0.196   8.333
14764SOL    HW146251   6.131   0.191   8.433
14764SOL    HW246252   6.138   0.292   8.304
14765SOL     OW46253   6.594   1.456   7.925
14765SOL    HW146254   6.548   1.528   7.873
14765SOL    HW246255   6.590   1.476   8.023
14766SOL     OW46256   5.937   1.801   8.301
14766SOL    HW146257   5.987   1.715   8.307
14766SOL    HW246258   6.002   1.878   8.298
14767SOL     OW46259   7.381   1.066   8.321
14767SOL    HW146260   7.319   1.051   8.245
14767SOL    HW246261   7.329   1.077   8.406
14768SOL     OW46262   5.907   0.943   7.690
14768SOL    HW146263   5.989   0.982   7.648
14768SOL    HW246264   5.880   0.861   7.641
14769SOL     OW46265   7.044   0.735   8.176
14769SOL    HW146266   7.039   0.670   8.251
14769SOL    HW246267   7.124   0.794   8.189
14770SOL     OW46268   6.697   1.776   7.685
14770SOL    HW146269   6.637   1.714   7.735
14770SOL    HW246270   6.728   1.732   7.600
14771SOL     OW46271   5.788   0.285   8.946
14771SOL    HW146272   5.708   0.345   8.933
14771SOL    HW246273   5.778   0.236   9.032
14772SOL     OW46274   7.218   1.377   7.529
14772SOL    HW146275   7.186   1.471   7.519
14772SOL    HW246276   7.142   1.314   7.517
14773SOL     OW46277   6.050   1.743   7.771
14773SOL    HW146278   6.083   1.782   7.857
14773SOL    HW246279   6.126   1.736   7.706
14774SOL     OW46280   6.986   0.107   7.874
14774SOL    HW146281   6.962   0.070   7.784
14774SOL    HW246282   7.085   0.123   7.878
14775SOL     OW46283   5.835   1.785   8.689
14775SOL    HW146284   5.892   1.720   8.739
14775SOL    HW246285   5.819   1.752   8.596
14776SOL     OW46286   6.526   1.698   8.352
14776SOL    HW146287   6.606   1.641   8.373
14776SOL    HW246288   6.477   1.658   8.275
14777SOL     OW46289   5.968   0.700   7.928
14777SOL    HW146290   6.013   0.610   7.925
14777SOL    HW246291   5.874   0.689   7.961
14778SOL     OW46292   6.200   0.122   7.565
14778SOL    HW146293   6.298   0.100   7.572
14778SOL    HW246294   6.169   0.105   7.472
14779SOL     OW46295   6.474   1.514   8.643
14779SOL    HW146296   6.451   1.489   8.549
14779SOL    HW246297   6.535   1.445   8.682
14780SOL     OW46298   6.389   1.402   8.372
14780SOL    HW146299   6.479   1.416   8.330
14780SOL    HW246300   6.318   1.404   8.301
14781SOL     OW46301   6.508   0.503   8.347
14781SOL    HW146302   6.483   0.494   8.251
14781SOL    HW246303   6.556   0.421   8.378
14782SOL     OW46304   6.125   0.064   7.960
14782SOL    HW146305   6.044   0.065   8.018
14782SOL    HW246306   6.128   0.147   7.905
14783SOL     OW46307   7.020   1.188   7.489
14783SOL    HW146308   7.052   1.112   7.546
14783SOL    HW246309   6.928   1.215   7.519
14784SOL     OW46310   5.883   0.035   7.619
14784SOL    HW146311   5.932   0.119   7.598
14784SOL    HW246312   5.945  -0.030   7.664
14785SOL     OW46313   6.521   0.236   7.928
14785SOL    HW146314   6.473   0.277   7.850
14785SOL    HW246315   6.620   0.234   7.909
14786SOL     OW46316   6.813   1.570   8.241
14786SOL    HW146317   6.834   1.644   8.176
14786SOL    HW246318   6.881   1.570   8.314
14787SOL     OW46319   6.045   1.152   8.189
14787SOL    HW146320   5.974   1.125   8.254
14787SOL    HW246321   6.019   1.124   8.096
14788SOL     OW46322   6.857   1.797   8.039
14788SOL    HW146323   6.901   1.861   7.975
14788SOL    HW246324   6.807   1.849   8.109
14789SOL     OW46325   6.618   0.549   7.464
14789SOL    HW146326   6.577   0.631   7.425
14789SOL    HW246327   6.682   0.575   7.537
14790SOL     OW46328   5.664   0.556   8.834
14790SOL    HW146329   5.756   0.555   8.793
14790SOL    HW246330   5.658   0.630   8.901
14791SOL     OW46331   6.147   0.222   8.595
14791SOL    HW146332   6.185   0.138   8.632
14791SOL    HW246333   6.059   0.241   8.639
14792SOL     OW46334   6.452   0.454   8.090
14792SOL    HW146335   6.420   0.526   8.028
14792SOL    HW246336   6.476   0.373   8.037
14793SOL     OW46337   6.603   0.039   8.201
14793SOL    HW146338   6.531   0.044   8.132
14793SOL    HW246339   6.579  -0.030   8.270
14794SOL     OW46340   7.015   1.173   8.315
14794SOL    HW146341   6.960   1.089   8.308
14794SOL    HW246342   7.041   1.202   8.223
14795SOL     OW46343   7.052   0.590   8.440
14795SOL    HW146344   7.022   0.495   8.447
14795SOL    HW246345   7.125   0.606   8.506
14796SOL     OW46346   7.443   0.833   7.825
14796SOL    HW146347   7.485   0.769   7.889
14796SOL    HW246348   7.405   0.782   7.747
14797SOL     OW46349   6.074   1.385   7.622
14797SOL    HW146350   5.987   1.370   7.669
14797SOL    HW246351   6.057   1.411   7.527
14798SOL     OW46352   7.250   1.280   8.105
14798SOL    HW146353   7.349   1.288   8.119
14798SOL    HW246354   7.205   1.364   8.136
14799SOL     OW46355   6.976   0.575   7.526
14799SOL    HW146356   6.922   0.554   7.607
14799SOL    HW246357   7.067   0.534   7.535
14800SOL     OW46358   6.113   0.256   7.776
14800SOL    HW146359   6.140   0.197   7.701
14800SOL    HW246360   6.113   0.351   7.745
14801SOL     OW46361   6.650   1.347   8.788
14801SOL    HW146362   6.570   1.324   8.843
14801SOL    HW246363   6.733   1.321   8.837
14802SOL     OW46364   6.697   1.195   8.548
14802SOL    HW146365   6.657   1.239   8.629
14802SOL    HW246366   6.656   1.232   8.465
14803SOL     OW46367   7.224   1.099   8.527
14803SOL    HW146368   7.229   1.180   8.586
14803SOL    HW246369   7.138   1.101   8.476
14804SOL     OW46370   6.501   0.089   8.850
14804SOL    HW146371   6.526   0.069   8.755
14804SOL    HW246372   6.573   0.145   8.892
14805SOL     OW46373   6.291   1.050   7.816
14805SOL    HW146374   6.277   1.057   7.915
14805SOL    HW246375   6.375   0.999   7.798
14806SOL     OW46376   5.996   0.813   8.699
14806SOL    HW146377   6.082   0.825   8.749
14806SOL    HW246378   5.954   0.726   8.726
14807SOL     OW46379   6.860   0.386   8.710
14807SOL    HW146380   6.881   0.460   8.774
14807SOL    HW246381   6.771   0.403   8.667
14808SOL     OW46382   5.650   1.564   8.779
14808SOL    HW146383   5.604   1.646   8.745
14808SOL    HW246384   5.748   1.583   8.788
14809SOL     OW46385   5.953   1.100   7.949
14809SOL    HW146386   5.946   1.183   7.893
14809SOL    HW246387   5.957   1.020   7.889
14810SOL     OW46388   6.152   0.537   8.313
14810SOL    HW146389   6.164   0.603   8.239
14810SOL    HW246390   6.198   0.571   8.396
14811SOL     OW46391   6.838   1.348   7.836
14811SOL    HW146392   6.888   1.425   7.876
14811SOL    HW246393   6.743   1.350   7.868
14812SOL     OW46394   6.858   1.445   8.590
14812SOL    HW146395   6.905   1.458   8.677
14812SOL    HW246396   6.792   1.371   8.599
14813SOL     OW46397   7.168   0.639   7.920
14813SOL    HW146398   7.137   0.700   7.993
14813SOL    HW246399   7.218   0.691   7.851
14814SOL     OW46400   5.940   1.510   8.777
14814SOL    HW146401   5.919   1.466   8.690
14814SOL    HW246402   6.037   1.536   8.780
14815SOL     OW46403   5.988   0.751   0.046
14815SOL    HW146404   6.056   0.806  -0.001
14815SOL    HW246405   6.028   0.663   0.073
14816SOL     OW46406   7.173   0.779   0.118
14816SOL    HW146407   7.081   0.817   0.113
14816SOL    HW246408   7.233   0.826   0.053
14817SOL     OW46409   6.159   0.870   8.477
14817SOL    HW146410   6.203   0.959   8.468
14817SOL    HW246411   6.096   0.870   8.554
14818SOL     OW46412   6.946   0.862   8.493
14818SOL    HW146413   6.871   0.862   8.427
14818SOL    HW246414   6.983   0.770   8.502
14819SOL     OW46415   6.795   0.525   7.723
14819SOL    HW146416   6.808   0.441   7.777
14819SOL    HW246417   6.766   0.599   7.783
14820SOL     OW46418   5.893   0.213   8.679
14820SOL    HW146419   5.870   0.250   8.769
14820SOL    HW246420   5.863   0.118   8.673
14821SOL     OW46421   5.623   1.310   8.730
14821SOL    HW146422   5.676   1.261   8.798
14821SOL    HW246423   5.645   1.408   8.735
14822SOL     OW46424   6.318   0.634   8.512
14822SOL    HW146425   6.377   0.608   8.436
14822SOL    HW246426   6.290   0.730   8.501
14823SOL     OW46427   5.893   0.063   8.066
14823SOL    HW146428   5.882   0.157   8.099
14823SOL    HW246429   5.888   0.000   8.143
14824SOL     OW46430   7.208   0.367   7.822
14824SOL    HW146431   7.210   0.291   7.886
14824SOL    HW246432   7.160   0.444   7.862
14825SOL     OW46433   6.609   0.766   8.414
14825SOL    HW146434   6.624   0.787   8.510
14825SOL    HW246435   6.579   0.671   8.405
14826SOL     OW46436   6.566   1.573   0.148
14826SOL    HW146437   6.546   1.617   0.060
14826SOL    HW246438   6.605   1.482   0.132
14827SOL     OW46439   7.445   1.518   0.053
14827SOL    HW146440   7.459   1.545  -0.042
14827SOL    HW246441   7.528   1.540   0.106
14828SOL     OW46442   7.126   0.274   7.573
14828SOL    HW146443   7.065   0.199   7.596
14828SOL    HW246444   7.148   0.326   7.656
14829SOL     OW46445   6.889   0.838   7.490
14829SOL    HW146446   6.923   0.745   7.505
14829SOL    HW246447   6.907   0.865   7.395
14830SOL     OW46448   6.654   1.333   8.297
14830SOL    HW146449   6.661   1.249   8.242
14830SOL    HW246450   6.716   1.402   8.261
14831SOL     OW46451   5.905   0.810   8.397
14831SOL    HW146452   5.998   0.846   8.402
14831SOL    HW246453   5.899   0.725   8.449
14832SOL     OW46454   5.925   0.509   8.454
14832SOL    HW146455   5.873   0.426   8.437
14832SOL    HW246456   6.002   0.514   8.390
14833SOL     OW46457   6.724   0.380   0.126
14833SOL    HW146458   6.679   0.443   0.190
14833SOL    HW246459   6.817   0.411   0.109
14834SOL     OW46460   6.746   0.207   8.925
14834SOL    HW146461   6.746   0.271   9.002
14834SOL    HW246462   6.774   0.255   8.842
14835SOL     OW46463   5.594   1.326   7.648
14835SOL    HW146464   5.501   1.347   7.617
14835SOL    HW246465   5.604   1.227   7.661
14836SOL     OW46466   5.674   1.801   8.375
14836SOL    HW146467   5.632   1.715   8.348
14836SOL    HW246468   5.768   1.804   8.341
14837SOL     OW46469   6.090   1.568   8.358
14837SOL    HW146470   6.156   1.642   8.367
14837SOL    HW246471   6.134   1.489   8.316
14838SOL     OW46472   6.588   0.796   8.686
14838SOL    HW146473   6.629   0.764   8.772
14838SOL    HW246474   6.492   0.769   8.683
14839SOL     OW46475   5.626   0.544   8.562
14839SOL    HW146476   5.711   0.511   8.521
14839SOL    HW246477   5.639   0.559   8.660
14840SOL     OW46478   6.401   0.572   7.773
14840SOL    HW146479   6.408   0.483   7.727
14840SOL    HW246480   6.307   0.606   7.765
14841SOL     OW46481   7.243   0.604   8.654
14841SOL    HW146482   7.205   0.535   8.716
14841SOL    HW246483   7.325   0.568   8.610
14842SOL     OW46484   6.257   0.464   8.717
14842SOL    HW146485   6.223   0.375   8.687
14842SOL    HW246486   6.283   0.518   8.637
14843SOL     OW46487   6.516   1.678   8.913
14843SOL    HW146488   6.492   1.660   8.818
14843SOL    HW246489   6.546   1.772   8.923
14844SOL     OW46490   6.059   0.500   7.639
14844SOL    HW146491   6.120   0.580   7.643
14844SOL    HW246492   5.964   0.531   7.646
14845SOL     OW46493   5.745   1.137   8.914
14845SOL    HW146494   5.767   1.076   8.990
14845SOL    HW246495   5.755   1.088   8.828
14846SOL     OW46496   6.933   1.059   8.682
14846SOL    HW146497   6.957   0.996   8.608
14846SOL    HW246498   6.843   1.099   8.664
14847SOL     OW46499   6.888   0.855   7.757
14847SOL    HW146500   6.802   0.824   7.799
14847SOL    HW246501   6.884   0.841   7.658
14848SOL     OW46502   7.345   1.747   8.602
14848SOL    HW146503   7.406   1.777   8.529
14848SOL    HW246504   7.307   1.658   8.580
14849SOL     OW46505   6.838   1.731   8.576
14849SOL    HW146506   6.922   1.736   8.522
14849SOL    HW246507   6.815   1.635   8.594
14850SOL     OW46508   5.669   1.258   8.470
14850SOL    HW146509   5.664   1.257   8.570
14850SOL    HW246510   5.586   1.217   8.432
14851SOL     OW46511   7.312   0.135   7.971
14851SOL    HW146512   7.385   0.118   7.904
14851SOL    HW246513   7.281   0.048   8.009
14852SOL     OW46514   6.974   1.573   7.925
14852SOL    HW146515   7.041   1.585   7.851
14852SOL    HW246516   6.934   1.662   7.948
14853SOL     OW46517   6.866   0.927   8.120
14853SOL    HW146518   6.926   0.846   8.122
14853SOL    HW246519   6.906   0.996   8.060
14854SOL     OW46520   6.258   1.616   7.602
14854SOL    HW146521   6.267   1.626   7.503
14854SOL    HW246522   6.218   1.527   7.623
14855SOL     OW46523   7.236   1.720   8.842
14855SOL    HW146524   7.289   1.730   8.758
14855SOL    HW246525   7.209   1.810   8.876
14856SOL     OW46526   7.427   0.175   8.411
14856SOL    HW146527   7.466   0.090   8.375
14856SOL    HW246528   7.329   0.177   8.392
14857SOL     OW46529   5.849   0.326   8.168
14857SOL    HW146530   5.770   0.377   8.134
14857SOL    HW246531   5.840   0.311   8.266
14858SOL     OW46532   6.780   1.612   7.479
14858SOL    HW146533   6.786   1.519   7.516
14858SOL    HW246534   6.721   1.612   7.399
14859SOL     OW46535   6.408   1.002   8.820
14859SOL    HW146536   6.448   1.001   8.728
14859SOL    HW246537   6.418   1.094   8.860
14860SOL     OW46538   6.502   0.910   7.739
14860SOL    HW146539   6.565   0.948   7.671
14860SOL    HW246540   6.542   0.827   7.778
14861SOL     OW46541   7.090   1.607   7.492
14861SOL    HW146542   6.998   1.644   7.499
14861SOL    HW246543   7.128   1.627   7.402
14862SOL     OW46544   5.958   1.288   8.938
14862SOL    HW146545   5.945   1.381   8.904
14862SOL    HW246546   5.874   1.236   8.925
14863SOL     OW46547   7.200   1.292   8.737
14863SOL    HW146548   7.260   1.295   8.817
14863SOL    HW246549   7.125   1.356   8.750
14864SOL     OW46550   6.625   1.098   8.144
14864SOL    HW146551   6.555   1.051   8.198
14864SOL    HW246552   6.684   1.030   8.101
14865SOL     OW46553   6.600   0.236   8.419
14865SOL    HW146554   6.592   0.200   8.326
14865SOL    HW246555   6.598   0.160   8.484
14866SOL     OW46556   6.176   1.487   7.939
14866SOL    HW146557   6.218   1.429   7.869
14866SOL    HW246558   6.132   1.566   7.895
14867SOL     OW46559   7.295   0.385   8.829
14867SOL    HW146560   7.368   0.454   8.833
14867SOL    HW246561   7.323   0.310   8.770
14868SOL     OW46562   5.841   1.348   7.738
14868SOL    HW146563   5.745   1.349   7.711
14868SOL    HW246564   5.853   1.401   7.822
14869SOL     OW46565   5.661   0.345   7.481
14869SOL    HW146566   5.569   0.317   7.452
14869SOL    HW246567   5.692   0.422   7.425
14870SOL     OW46568   7.026   0.856   8.846
14870SOL    HW146569   6.969   0.908   8.783
14870SOL    HW246570   7.122   0.868   8.822
14871SOL     OW46571   5.658   0.166   7.766
14871SOL    HW146572   5.641   0.249   7.712
14871SOL    HW246573   5.748   0.129   7.744
14872SOL     OW46574   6.769   1.335   7.567
14872SOL    HW146575   6.670   1.324   7.569
14872SOL    HW246576   6.803   1.350   7.660
14873SOL     OW46577   6.199   0.842   8.879
14873SOL    HW146578   6.255   0.923   8.862
14873SOL    HW246579   6.258   0.762   8.882
14874SOL     OW46580   7.079   1.767   8.407
14874SOL    HW146581   7.112   1.831   8.338
14874SOL    HW246582   7.145   1.761   8.482
14875SOL     OW46583   5.976   1.741   0.008
14875SOL    HW146584   5.885   1.782   0.006
14875SOL    HW246585   5.969   1.647   0.040
14876SOL     OW46586   7.260   0.883   8.702
14876SOL    HW146587   7.233   0.794   8.665
14876SOL    HW246588   7.261   0.951   8.629
14877SOL     OW46589   6.811   0.325   7.897
14877SOL    HW146590   6.876   0.251   7.886
14877SOL    HW246591   6.831   0.375   7.981
14878SOL     OW46592   6.180   0.745   8.100
14878SOL    HW146593   6.230   0.830   8.081
14878SOL    HW246594   6.092   0.747   8.052
14879SOL     OW46595   7.363   0.342   0.090
14879SOL    HW146596   7.346   0.373  -0.004
14879SOL    HW246597   7.279   0.305   0.128
14880SOL     OW46598   7.316   0.934   8.965
14880SOL    HW146599   7.354   1.025   8.980
14880SOL    HW246600   7.308   0.917   8.866
14881SOL     OW46601   6.445   1.374   7.464
14881SOL    HW146602   6.399   1.389   7.552
14881SOL    HW246603   6.489   1.459   7.434
14882SOL     OW46604   6.247   1.790   8.401
14882SOL    HW146605   6.201   1.878   8.388
14882SOL    HW246606   6.346   1.802   8.394
14883SOL     OW46607   6.994   1.851   0.168
14883SOL    HW146608   6.898   1.840   0.141
14883SOL    HW246609   7.050   1.784   0.120
14884SOL     OW46610   6.445   0.956   8.309
14884SOL    HW146611   6.499   0.887   8.357
14884SOL    HW246612   6.413   1.025   8.375
14885SOL     OW46613   6.669   0.984   7.535
14885SOL    HW146614   6.646   1.037   7.453
14885SOL    HW246615   6.750   0.928   7.516
14886SOL     OW46616   7.447   1.569   8.299
14886SOL    HW146617   7.376   1.557   8.229
14886SOL    HW246618   7.448   1.490   8.359
14887SOL     OW46619   5.665   1.240   8.101
14887SOL    HW146620   5.664   1.193   8.189
14887SOL    HW246621   5.747   1.212   8.050
14888SOL     OW46622   7.410   0.192   8.675
14888SOL    HW146623   7.406   0.102   8.719
14888SOL    HW246624   7.413   0.181   8.576
14889SOL     OW46625   6.014   0.424   7.968
14889SOL    HW146626   6.044   0.352   7.906
14889SOL    HW246627   5.975   0.384   8.051
14890SOL     OW46628   7.291   1.487   8.552
14890SOL    HW146629   7.198   1.462   8.525
14890SOL    HW246630   7.317   1.437   8.634
14891SOL     OW46631   5.903   0.547   8.728
14891SOL    HW146632   5.941   0.488   8.800
14891SOL    HW246633   5.943   0.521   8.640
14892SOL     OW46634   6.398   1.586   8.135
14892SOL    HW146635   6.430   1.596   8.041
14892SOL    HW246636   6.319   1.524   8.137
14893SOL     OW46637   7.010   0.214   8.560
14893SOL    HW146638   7.062   0.149   8.615
14893SOL    HW246639   6.961   0.277   8.621
14894SOL     OW46640   6.587   0.034   8.602
14894SOL    HW146641   6.524  -0.038   8.571
14894SOL    HW246642   6.680  -0.002   8.602
14895SOL     OW46643   6.356   1.330   7.749
14895SOL    HW146644   6.310   1.243   7.766
14895SOL    HW246645   6.447   1.327   7.790
14896SOL     OW46646   6.204   1.567   8.732
14896SOL    HW146647   6.199   1.649   8.789
14896SOL    HW246648   6.293   1.564   8.687
14897SOL     OW46649   6.938   0.052   7.616
14897SOL    HW146650   6.973   0.011   7.532
14897SOL    HW246651   6.848   0.014   7.636
14898SOL     OW46652   6.886   0.453   8.139
14898SOL    HW146653   6.827   0.533   8.143
14898SOL    HW246654   6.901   0.418   8.232
14899SOL     OW46655   7.179   0.221   8.330
14899SOL    HW146656   7.095   0.220   8.384
14899SOL    HW246657   7.181   0.304   8.274
14900SOL     OW46658   5.625   1.077   7.748
14900SOL    HW146659   5.724   1.066   7.739
14900SOL    HW246660   5.585   0.991   7.780
14901SOL     OW46661   6.461   1.646   7.785
14901SOL    HW146662   6.384   1.611   7.731
14901SOL    HW246663   6.429   1.717   7.847
14902SOL     OW46664   5.816   2.490   0.113
14902SOL    HW146665   5.723   2.488   0.150
14902SOL    HW246666   5.817   2.451   0.021
14903SOL     OW46667   5.811   2.137   0.996
14903SOL    HW146668   5.846   2.120   1.088
14903SOL    HW246669   5.723   2.092   0.984
14904SOL     OW46670   5.605   2.230   0.647
14904SOL    HW146671   5.523   2.273   0.686
14904SOL    HW246672   5.577   2.157   0.584
14905SOL     OW46673   6.155   3.137   1.165
14905SOL    HW146674   6.062   3.130   1.128
14905SOL    HW246675   6.166   3.226   1.209
14906SOL     OW46676   7.141   3.373   0.703
14906SOL    HW146677   7.084   3.357   0.784
14906SOL    HW246678   7.082   3.383   0.623
14907SOL     OW46679   7.329   2.480   0.856
14907SOL    HW146680   7.362   2.574   0.856
14907SOL    HW246681   7.380   2.426   0.922
14908SOL     OW46682   6.721   2.565   0.717
14908SOL    HW146683   6.778   2.643   0.692
14908SOL    HW246684   6.661   2.591   0.793
14909SOL     OW46685   7.341   2.469   0.231
14909SOL    HW146686   7.329   2.456   0.132
14909SOL    HW246687   7.311   2.388   0.280
14910SOL     OW46688   6.354   3.006   1.023
14910SOL    HW146689   6.276   3.023   1.083
14910SOL    HW246690   6.388   3.093   0.987
14911SOL     OW46691   6.436   2.660   1.823
14911SOL    HW146692   6.432   2.736   1.888
14911SOL    HW246693   6.458   2.696   1.732
14912SOL     OW46694   6.271   2.874   0.665
14912SOL    HW146695   6.340   2.858   0.735
14912SOL    HW246696   6.198   2.931   0.703
14913SOL     OW46697   6.272   3.023   1.803
14913SOL    HW146698   6.332   3.102   1.817
14913SOL    HW246699   6.186   3.054   1.762
14914SOL     OW46700   5.921   3.297   1.061
14914SOL    HW146701   5.843   3.266   1.008
14914SOL    HW246702   5.979   3.355   1.004
14915SOL     OW46703   6.024   2.254   1.499
14915SOL    HW146704   6.106   2.198   1.508
14915SOL    HW246705   5.943   2.196   1.503
14916SOL     OW46706   7.189   2.309   0.737
14916SOL    HW146707   7.115   2.355   0.687
14916SOL    HW246708   7.240   2.377   0.790
14917SOL     OW46709   5.817   3.575   0.483
14917SOL    HW146710   5.851   3.652   0.537
14917SOL    HW246711   5.861   3.575   0.393
14918SOL     OW46712   5.816   3.296   0.538
14918SOL    HW146713   5.790   3.392   0.538
14918SOL    HW246714   5.745   3.242   0.583
14919SOL     OW46715   5.826   2.953   0.886
14919SOL    HW146716   5.840   2.869   0.938
14919SOL    HW246717   5.771   3.017   0.941
14920SOL     OW46718   6.206   3.648   1.439
14920SOL    HW146719   6.114   3.631   1.474
14920SOL    HW246720   6.234   3.740   1.465
14921SOL     OW46721   6.192   2.826   0.123
14921SOL    HW146722   6.199   2.910   0.069
14921SOL    HW246723   6.238   2.839   0.211
14922SOL     OW46724   7.180   1.976   1.480
14922SOL    HW146725   7.162   2.043   1.408
14922SOL    HW246726   7.177   2.022   1.569
14923SOL     OW46727   5.708   2.505   0.563
14923SOL    HW146728   5.663   2.417   0.580
14923SOL    HW246729   5.707   2.559   0.647
14924SOL     OW46730   7.428   3.629   0.359
14924SOL    HW146731   7.482   3.600   0.439
14924SOL    HW246732   7.458   3.719   0.330
14925SOL     OW46733   7.275   2.784   0.612
14925SOL    HW146734   7.370   2.755   0.620
14925SOL    HW246735   7.267   2.849   0.537
14926SOL     OW46736   7.227   2.970   0.432
14926SOL    HW146737   7.313   2.972   0.380
14926SOL    HW246738   7.241   3.017   0.520
14927SOL     OW46739   5.699   2.599   1.597
14927SOL    HW146740   5.787   2.586   1.642
14927SOL    HW246741   5.686   2.696   1.575
14928SOL     OW46742   6.199   3.227   0.726
14928SOL    HW146743   6.150   3.140   0.735
14928SOL    HW246744   6.176   3.270   0.639
14929SOL     OW46745   6.395   1.866   0.502
14929SOL    HW146746   6.435   1.957   0.493
14929SOL    HW246747   6.295   1.874   0.508
14930SOL     OW46748   5.783   2.838   1.264
14930SOL    HW146749   5.872   2.793   1.250
14930SOL    HW246750   5.710   2.773   1.245
14931SOL     OW46751   7.111   2.861   0.190
14931SOL    HW146752   7.048   2.785   0.203
14931SOL    HW246753   7.159   2.879   0.276
14932SOL     OW46754   6.773   3.654   1.616
14932SOL    HW146755   6.797   3.714   1.540
14932SOL    HW246756   6.780   3.559   1.586
14933SOL     OW46757   7.253   3.576   0.572
14933SOL    HW146758   7.212   3.553   0.484
14933SOL    HW246759   7.235   3.502   0.637
14934SOL     OW46760   6.184   2.591   0.270
14934SOL    HW146761   6.208   2.660   0.202
14934SOL    HW246762   6.106   2.624   0.324
14935SOL     OW46763   6.867   2.207   0.944
14935SOL    HW146764   6.781   2.157   0.931
14935SOL    HW246765   6.929   2.153   1.000
14936SOL     OW46766   7.162   3.524   0.307
14936SOL    HW146767   7.251   3.570   0.310
14936SOL    HW246768   7.141   3.500   0.212
14937SOL     OW46769   6.393   2.467   1.465
14937SOL    HW146770   6.346   2.464   1.554
14937SOL    HW246771   6.342   2.412   1.399
14938SOL     OW46772   6.980   2.331   1.674
14938SOL    HW146773   6.960   2.374   1.762
14938SOL    HW246774   7.058   2.269   1.683
14939SOL     OW46775   6.559   2.752   1.572
14939SOL    HW146776   6.605   2.668   1.543
14939SOL    HW246777   6.503   2.786   1.497
14940SOL     OW46778   6.577   2.272   1.242
14940SOL    HW146779   6.500   2.306   1.296
14940SOL    HW246780   6.543   2.221   1.163
14941SOL     OW46781   6.627   2.563   0.429
14941SOL    HW146782   6.653   2.559   0.525
14941SOL    HW246783   6.542   2.512   0.415
14942SOL     OW46784   5.662   2.673   0.789
14942SOL    HW146785   5.761   2.661   0.798
14942SOL    HW246786   5.638   2.768   0.810
14943SOL     OW46787   5.716   3.683   1.571
14943SOL    HW146788   5.706   3.668   1.670
14943SOL    HW246789   5.630   3.719   1.535
14944SOL     OW46790   6.451   2.210   0.195
14944SOL    HW146791   6.510   2.273   0.146
14944SOL    HW246792   6.470   2.116   0.166
14945SOL     OW46793   7.305   2.447   1.831
14945SOL    HW146794   7.279   2.536   1.795
14945SOL    HW246795   7.303   2.379   1.758
14946SOL     OW46796   6.948   3.006   0.545
14946SOL    HW146797   7.031   2.977   0.497
14946SOL    HW246798   6.899   3.073   0.489
14947SOL     OW46799   6.594   3.318   0.477
14947SOL    HW146800   6.548   3.390   0.425
14947SOL    HW246801   6.590   3.338   0.575
14948SOL     OW46802   5.937   3.663   0.853
14948SOL    HW146803   5.987   3.577   0.859
14948SOL    HW246804   6.002   3.740   0.850
14949SOL     OW46805   7.381   2.928   0.873
14949SOL    HW146806   7.319   2.913   0.797
14949SOL    HW246807   7.329   2.939   0.958
14950SOL     OW46808   5.907   2.805   0.242
14950SOL    HW146809   5.989   2.844   0.200
14950SOL    HW246810   5.880   2.723   0.193
14951SOL     OW46811   7.044   2.597   0.728
14951SOL    HW146812   7.039   2.532   0.803
14951SOL    HW246813   7.124   2.656   0.741
14952SOL     OW46814   6.047   3.128   1.727
14952SOL    HW146815   5.997   3.129   1.641
14952SOL    HW246816   5.984   3.110   1.803
14953SOL     OW46817   6.697   3.638   0.237
14953SOL    HW146818   6.637   3.576   0.287
14953SOL    HW246819   6.728   3.594   0.152
14954SOL     OW46820   5.788   2.147   1.498
14954SOL    HW146821   5.708   2.207   1.485
14954SOL    HW246822   5.778   2.098   1.584
14955SOL     OW46823   7.218   3.239   0.081
14955SOL    HW146824   7.186   3.333   0.071
14955SOL    HW246825   7.142   3.176   0.069
14956SOL     OW46826   6.050   3.605   0.323
14956SOL    HW146827   6.083   3.644   0.409
14956SOL    HW246828   6.126   3.598   0.258
14957SOL     OW46829   6.986   1.969   0.426
14957SOL    HW146830   6.962   1.932   0.336
14957SOL    HW246831   7.085   1.985   0.430
14958SOL     OW46832   5.835   3.647   1.241
14958SOL    HW146833   5.892   3.582   1.291
14958SOL    HW246834   5.819   3.614   1.148
14959SOL     OW46835   6.526   3.560   0.904
14959SOL    HW146836   6.606   3.503   0.925
14959SOL    HW246837   6.477   3.520   0.827
14960SOL     OW46838   5.968   2.562   0.480
14960SOL    HW146839   6.013   2.472   0.477
14960SOL    HW246840   5.874   2.551   0.513
14961SOL     OW46841   7.133   2.084   1.729
14961SOL    HW146842   7.128   2.121   1.821
14961SOL    HW246843   7.061   2.015   1.717
14962SOL     OW46844   6.200   1.984   0.117
14962SOL    HW146845   6.298   1.962   0.124
14962SOL    HW246846   6.169   1.967   0.024
14963SOL     OW46847   6.474   3.376   1.195
14963SOL    HW146848   6.451   3.351   1.101
14963SOL    HW246849   6.535   3.307   1.234
14964SOL     OW46850   6.937   2.452   1.433
14964SOL    HW146851   6.965   2.409   1.518
14964SOL    HW246852   6.962   2.548   1.434
14965SOL     OW46853   6.389   3.264   0.924
14965SOL    HW146854   6.479   3.278   0.882
14965SOL    HW246855   6.318   3.266   0.853
14966SOL     OW46856   6.508   2.365   0.899
14966SOL    HW146857   6.483   2.356   0.803
14966SOL    HW246858   6.556   2.283   0.930
14967SOL     OW46859   6.125   1.926   0.512
14967SOL    HW146860   6.044   1.927   0.570
14967SOL    HW246861   6.128   2.009   0.457
14968SOL     OW46862   7.020   3.050   0.041
14968SOL    HW146863   7.052   2.974   0.098
14968SOL    HW246864   6.928   3.077   0.071
14969SOL     OW46865   5.883   1.897   0.171
14969SOL    HW146866   5.932   1.981   0.150
14969SOL    HW246867   5.945   1.832   0.216
14970SOL     OW46868   6.521   2.098   0.480
14970SOL    HW146869   6.473   2.139   0.402
14970SOL    HW246870   6.620   2.096   0.461
14971SOL     OW46871   6.662   2.545   1.464
14971SOL    HW146872   6.582   2.484   1.467
14971SOL    HW246873   6.743   2.492   1.440
14972SOL     OW46874   6.813   3.432   0.793
14972SOL    HW146875   6.834   3.506   0.728
14972SOL    HW246876   6.881   3.432   0.866
14973SOL     OW46877   6.045   3.014   0.741
14973SOL    HW146878   5.974   2.987   0.806
14973SOL    HW246879   6.019   2.986   0.648
14974SOL     OW46880   6.857   3.659   0.591
14974SOL    HW146881   6.901   3.723   0.527
14974SOL    HW246882   6.807   3.711   0.661
14975SOL     OW46883   6.618   2.411   0.016
14975SOL    HW146884   6.577   2.493  -0.023
14975SOL    HW246885   6.682   2.437   0.089
14976SOL     OW46886   5.664   2.418   1.386
14976SOL    HW146887   5.756   2.417   1.345
14976SOL    HW246888   5.658   2.492   1.453
14977SOL     OW46889   6.147   2.084   1.147
14977SOL    HW146890   6.185   2.000   1.184
14977SOL    HW246891   6.059   2.103   1.191
14978SOL     OW46892   6.452   2.316   0.642
14978SOL    HW146893   6.420   2.388   0.580
14978SOL    HW246894   6.476   2.235   0.589
14979SOL     OW46895   7.015   3.035   0.867
14979SOL    HW146896   6.960   2.951   0.860
14979SOL    HW246897   7.041   3.064   0.775
14980SOL     OW46898   7.052   2.452   0.992
14980SOL    HW146899   7.022   2.357   0.999
14980SOL    HW246900   7.125   2.468   1.058
14981SOL     OW46901   7.443   2.695   0.377
14981SOL    HW146902   7.485   2.631   0.441
14981SOL    HW246903   7.405   2.644   0.299
14982SOL     OW46904   6.074   3.247   0.174
14982SOL    HW146905   5.987   3.232   0.221
14982SOL    HW246906   6.057   3.273   0.079
14983SOL     OW46907   7.250   3.142   0.657
14983SOL    HW146908   7.349   3.150   0.671
14983SOL    HW246909   7.205   3.226   0.688
14984SOL     OW46910   6.976   2.437   0.078
14984SOL    HW146911   6.922   2.416   0.159
14984SOL    HW246912   7.067   2.396   0.087
14985SOL     OW46913   6.113   2.118   0.328
14985SOL    HW146914   6.140   2.059   0.253
14985SOL    HW246915   6.113   2.213   0.297
14986SOL     OW46916   7.340   3.085   1.588
14986SOL    HW146917   7.431   3.046   1.575
14986SOL    HW246918   7.348   3.181   1.612
14987SOL     OW46919   6.650   3.209   1.340
14987SOL    HW146920   6.570   3.186   1.395
14987SOL    HW246921   6.733   3.183   1.389
14988SOL     OW46922   6.697   3.057   1.100
14988SOL    HW146923   6.657   3.101   1.181
14988SOL    HW246924   6.656   3.094   1.017
14989SOL     OW46925   6.566   2.978   1.719
14989SOL    HW146926   6.467   2.984   1.729
14989SOL    HW246927   6.589   2.898   1.663
14990SOL     OW46928   6.291   2.912   0.368
14990SOL    HW146929   6.277   2.919   0.467
14990SOL    HW246930   6.375   2.861   0.350
14991SOL     OW46931   5.996   2.675   1.251
14991SOL    HW146932   6.082   2.687   1.301
14991SOL    HW246933   5.954   2.588   1.278
14992SOL     OW46934   6.860   2.248   1.262
14992SOL    HW146935   6.881   2.322   1.326
14992SOL    HW246936   6.771   2.265   1.219
14993SOL     OW46937   5.650   3.426   1.331
14993SOL    HW146938   5.604   3.508   1.297
14993SOL    HW246939   5.748   3.445   1.340
14994SOL     OW46940   5.953   2.962   0.501
14994SOL    HW146941   5.946   3.045   0.445
14994SOL    HW246942   5.957   2.882   0.441
14995SOL     OW46943   6.152   2.399   0.865
14995SOL    HW146944   6.164   2.465   0.791
14995SOL    HW246945   6.198   2.433   0.948
14996SOL     OW46946   6.838   3.210   0.388
14996SOL    HW146947   6.888   3.287   0.428
14996SOL    HW246948   6.743   3.212   0.420
14997SOL     OW46949   7.168   2.501   0.472
14997SOL    HW146950   7.137   2.562   0.545
14997SOL    HW246951   7.218   2.553   0.403
14998SOL     OW46952   5.940   3.372   1.329
14998SOL    HW146953   5.919   3.328   1.242
14998SOL    HW246954   6.037   3.398   1.332
14999SOL     OW46955   5.988   2.613   1.598
14999SOL    HW146956   6.056   2.668   1.551
14999SOL    HW246957   6.028   2.525   1.625
15000SOL     OW46958   7.173   2.641   1.670
15000SOL    HW146959   7.081   2.679   1.665
15000SOL    HW246960   7.233   2.688   1.605
15001SOL     OW46961   6.599   1.967   1.770
15001SOL    HW146962   6.605   2.052   1.718
15001SOL    HW246963   6.631   1.891   1.713
15002SOL     OW46964   6.159   2.732   1.029
15002SOL    HW146965   6.203   2.821   1.020
15002SOL    HW246966   6.096   2.732   1.106
15003SOL     OW46967   6.946   2.724   1.045
15003SOL    HW146968   6.871   2.724   0.979
15003SOL    HW246969   6.983   2.632   1.054
15004SOL     OW46970   6.795   2.387   0.275
15004SOL    HW146971   6.808   2.303   0.329
15004SOL    HW246972   6.766   2.461   0.335
15005SOL     OW46973   5.893   2.075   1.231
15005SOL    HW146974   5.870   2.112   1.321
15005SOL    HW246975   5.863   1.980   1.225
15006SOL     OW46976   5.623   3.172   1.282
15006SOL    HW146977   5.676   3.123   1.350
15006SOL    HW246978   5.645   3.270   1.287
15007SOL     OW46979   6.318   2.496   1.064
15007SOL    HW146980   6.377   2.470   0.988
15007SOL    HW246981   6.290   2.592   1.053
15008SOL     OW46982   5.893   1.925   0.618
15008SOL    HW146983   5.882   2.019   0.651
15008SOL    HW246984   5.888   1.862   0.695
15009SOL     OW46985   7.208   2.229   0.374
15009SOL    HW146986   7.210   2.153   0.438
15009SOL    HW246987   7.160   2.306   0.414
15010SOL     OW46988   6.609   2.628   0.966
15010SOL    HW146989   6.624   2.649   1.062
15010SOL    HW246990   6.579   2.533   0.957
15011SOL     OW46991   5.936   2.760   1.804
15011SOL    HW146992   6.012   2.804   1.852
15011SOL    HW246993   5.971   2.713   1.722
15012SOL     OW46994   7.126   2.136   0.125
15012SOL    HW146995   7.065   2.061   0.148
15012SOL    HW246996   7.148   2.188   0.208
15013SOL     OW46997   6.889   2.700   0.042
15013SOL    HW146998   6.923   2.607   0.057
15013SOL    HW246999   6.907   2.727  -0.053
15014SOL     OW47000   6.654   3.195   0.849
15014SOL    HW147001   6.661   3.111   0.794
15014SOL    HW247002   6.716   3.264   0.813
15015SOL     OW47003   5.905   2.672   0.949
15015SOL    HW147004   5.998   2.708   0.954
15015SOL    HW247005   5.899   2.587   1.001
15016SOL     OW47006   5.925   2.371   1.006
15016SOL    HW147007   5.873   2.288   0.989
15016SOL    HW247008   6.002   2.376   0.942
15017SOL     OW47009   6.097   2.277   1.808
15017SOL    HW147010   6.079   2.322   1.896
15017SOL    HW247011   6.139   2.342   1.745
15018SOL     OW47012   6.724   2.242   1.678
15018SOL    HW147013   6.679   2.305   1.742
15018SOL    HW247014   6.817   2.273   1.661
15019SOL     OW47015   6.746   2.069   1.477
15019SOL    HW147016   6.746   2.133   1.554
15019SOL    HW247017   6.774   2.117   1.394
15020SOL     OW47018   5.594   3.188   0.200
15020SOL    HW147019   5.501   3.209   0.169
15020SOL    HW247020   5.604   3.089   0.213
15021SOL     OW47021   5.674   3.663   0.927
15021SOL    HW147022   5.632   3.577   0.900
15021SOL    HW247023   5.768   3.666   0.893
15022SOL     OW47024   6.090   3.430   0.910
15022SOL    HW147025   6.156   3.504   0.919
15022SOL    HW247026   6.134   3.351   0.868
15023SOL     OW47027   6.588   2.658   1.238
15023SOL    HW147028   6.629   2.626   1.324
15023SOL    HW247029   6.492   2.631   1.235
15024SOL     OW47030   5.626   2.406   1.114
15024SOL    HW147031   5.711   2.373   1.073
15024SOL    HW247032   5.639   2.421   1.212
15025SOL     OW47033   5.775   2.382   1.722
15025SOL    HW147034   5.834   2.342   1.652
15025SOL    HW247035   5.717   2.453   1.681
15026SOL     OW47036   6.955   2.812   1.660
15026SOL    HW147037   6.994   2.901   1.680
15026SOL    HW247038   6.965   2.792   1.563
15027SOL     OW47039   6.401   2.434   0.325
15027SOL    HW147040   6.408   2.345   0.279
15027SOL    HW247041   6.307   2.468   0.317
15028SOL     OW47042   7.243   2.466   1.206
15028SOL    HW147043   7.205   2.397   1.268
15028SOL    HW247044   7.325   2.430   1.162
15029SOL     OW47045   5.838   3.426   1.744
15029SOL    HW147046   5.808   3.483   1.820
15029SOL    HW247047   5.831   3.329   1.770
15030SOL     OW47048   6.257   2.326   1.269
15030SOL    HW147049   6.223   2.237   1.239
15030SOL    HW247050   6.283   2.380   1.189
15031SOL     OW47051   6.059   2.362   0.191
15031SOL    HW147052   6.120   2.442   0.195
15031SOL    HW247053   5.964   2.393   0.198
15032SOL     OW47054   5.745   2.999   1.466
15032SOL    HW147055   5.767   2.938   1.542
15032SOL    HW247056   5.755   2.950   1.380
15033SOL     OW47057   6.933   2.921   1.234
15033SOL    HW147058   6.957   2.858   1.160
15033SOL    HW247059   6.843   2.961   1.216
15034SOL     OW47060   6.888   2.717   0.309
15034SOL    HW147061   6.802   2.686   0.351
15034SOL    HW247062   6.884   2.703   0.210
15035SOL     OW47063   6.838   3.593   1.128
15035SOL    HW147064   6.922   3.598   1.074
15035SOL    HW247065   6.815   3.497   1.146
15036SOL     OW47066   5.669   3.120   1.022
15036SOL    HW147067   5.664   3.119   1.122
15036SOL    HW247068   5.586   3.079   0.984
15037SOL     OW47069   6.489   1.948   0.133
15037SOL    HW147070   6.540   1.949   0.047
15037SOL    HW247071   6.545   1.906   0.204
15038SOL     OW47072   7.312   1.997   0.523
15038SOL    HW147073   7.385   1.980   0.456
15038SOL    HW247074   7.281   1.910   0.561
15039SOL     OW47075   6.974   3.435   0.477
15039SOL    HW147076   7.041   3.447   0.403
15039SOL    HW247077   6.934   3.524   0.500
15040SOL     OW47078   5.716   3.656   1.851
15040SOL    HW147079   5.675   3.582   1.904
15040SOL    HW247080   5.780   3.707   1.909
15041SOL     OW47081   6.866   2.789   0.672
15041SOL    HW147082   6.926   2.708   0.674
15041SOL    HW247083   6.906   2.858   0.612
15042SOL     OW47084   6.416   3.135   1.422
15042SOL    HW147085   6.411   3.168   1.517
15042SOL    HW247086   6.330   3.154   1.376
15043SOL     OW47087   6.258   3.478   0.154
15043SOL    HW147088   6.267   3.488   0.055
15043SOL    HW247089   6.218   3.389   0.175
15044SOL     OW47090   7.427   2.037   0.963
15044SOL    HW147091   7.466   1.952   0.927
15044SOL    HW247092   7.329   2.039   0.944
15045SOL     OW47093   5.849   2.188   0.720
15045SOL    HW147094   5.770   2.239   0.686
15045SOL    HW247095   5.840   2.173   0.818
15046SOL     OW47096   6.780   3.474   0.031
15046SOL    HW147097   6.786   3.381   0.068
15046SOL    HW247098   6.721   3.474  -0.049
15047SOL     OW47099   6.408   2.864   1.372
15047SOL    HW147100   6.448   2.863   1.280
15047SOL    HW247101   6.418   2.956   1.412
15048SOL     OW47102   6.502   2.772   0.291
15048SOL    HW147103   6.565   2.810   0.223
15048SOL    HW247104   6.542   2.689   0.330
15049SOL     OW47105   7.090   3.469   0.044
15049SOL    HW147106   6.998   3.506   0.051
15049SOL    HW247107   7.128   3.489  -0.046
15050SOL     OW47108   5.958   3.150   1.490
15050SOL    HW147109   5.945   3.243   1.456
15050SOL    HW247110   5.874   3.098   1.477
15051SOL     OW47111   6.625   2.960   0.696
15051SOL    HW147112   6.555   2.913   0.750
15051SOL    HW247113   6.684   2.892   0.653
15052SOL     OW47114   6.600   2.098   0.971
15052SOL    HW147115   6.592   2.062   0.878
15052SOL    HW247116   6.598   2.022   1.036
15053SOL     OW47117   6.176   3.349   0.491
15053SOL    HW147118   6.218   3.291   0.421
15053SOL    HW247119   6.132   3.428   0.447
15054SOL     OW47120   7.295   2.247   1.381
15054SOL    HW147121   7.368   2.316   1.385
15054SOL    HW247122   7.323   2.172   1.322
15055SOL     OW47123   5.841   3.210   0.290
15055SOL    HW147124   5.745   3.211   0.263
15055SOL    HW247125   5.853   3.263   0.374
15056SOL     OW47126   5.691   2.875   1.726
15056SOL    HW147127   5.614   2.842   1.780
15056SOL    HW247128   5.776   2.845   1.768
15057SOL     OW47129   7.026   2.718   1.398
15057SOL    HW147130   6.969   2.770   1.335
15057SOL    HW247131   7.122   2.730   1.374
15058SOL     OW47132   5.658   2.028   0.318
15058SOL    HW147133   5.641   2.111   0.264
15058SOL    HW247134   5.748   1.991   0.296
15059SOL     OW47135   6.769   3.197   0.119
15059SOL    HW147136   6.670   3.186   0.121
15059SOL    HW247137   6.803   3.212   0.212
15060SOL     OW47138   6.199   2.704   1.431
15060SOL    HW147139   6.255   2.785   1.414
15060SOL    HW247140   6.258   2.624   1.434
15061SOL     OW47141   6.302   2.427   1.708
15061SOL    HW147142   6.321   2.492   1.782
15061SOL    HW247143   6.362   2.347   1.717
15062SOL     OW47144   5.976   3.603   1.560
15062SOL    HW147145   5.885   3.644   1.558
15062SOL    HW247146   5.969   3.509   1.592
15063SOL     OW47147   7.260   2.745   1.254
15063SOL    HW147148   7.233   2.656   1.217
15063SOL    HW247149   7.261   2.813   1.181
15064SOL     OW47150   6.811   2.187   0.449
15064SOL    HW147151   6.876   2.113   0.438
15064SOL    HW247152   6.831   2.237   0.533
15065SOL     OW47153   6.180   2.607   0.652
15065SOL    HW147154   6.230   2.692   0.633
15065SOL    HW247155   6.092   2.609   0.604
15066SOL     OW47156   7.363   2.204   1.642
15066SOL    HW147157   7.346   2.235   1.548
15066SOL    HW247158   7.279   2.167   1.680
15067SOL     OW47159   7.316   2.796   1.517
15067SOL    HW147160   7.354   2.887   1.532
15067SOL    HW247161   7.308   2.779   1.418
15068SOL     OW47162   6.445   3.236   0.016
15068SOL    HW147163   6.399   3.251   0.104
15068SOL    HW247164   6.489   3.321  -0.014
15069SOL     OW47165   6.247   3.652   0.953
15069SOL    HW147166   6.201   3.740   0.940
15069SOL    HW247167   6.346   3.664   0.946
15070SOL     OW47168   6.445   2.818   0.861
15070SOL    HW147169   6.499   2.749   0.909
15070SOL    HW247170   6.413   2.887   0.927
15071SOL     OW47171   6.669   2.846   0.087
15071SOL    HW147172   6.646   2.899   0.005
15071SOL    HW247173   6.750   2.790   0.068
15072SOL     OW47174   7.447   3.431   0.851
15072SOL    HW147175   7.376   3.419   0.781
15072SOL    HW247176   7.448   3.352   0.911
15073SOL     OW47177   5.807   3.176   1.844
15073SOL    HW147178   5.742   3.103   1.823
15073SOL    HW247179   5.811   3.190   1.942
15074SOL     OW47180   5.665   3.102   0.653
15074SOL    HW147181   5.664   3.055   0.741
15074SOL    HW247182   5.747   3.074   0.602
15075SOL     OW47183   6.258   3.253   1.624
15075SOL    HW147184   6.180   3.203   1.662
15075SOL    HW247185   6.255   3.348   1.655
15076SOL     OW47186   7.410   2.054   1.227
15076SOL    HW147187   7.406   1.964   1.271
15076SOL    HW247188   7.413   2.043   1.128
15077SOL     OW47189   6.014   2.286   0.520
15077SOL    HW147190   6.044   2.214   0.458
15077SOL    HW247191   5.975   2.246   0.603
15078SOL     OW47192   5.903   2.409   1.280
15078SOL    HW147193   5.941   2.350   1.352
15078SOL    HW247194   5.943   2.383   1.192
15079SOL     OW47195   6.398   3.448   0.687
15079SOL    HW147196   6.430   3.458   0.593
15079SOL    HW247197   6.319   3.386   0.689
15080SOL     OW47198   7.010   2.076   1.112
15080SOL    HW147199   7.062   2.011   1.167
15080SOL    HW247200   6.961   2.139   1.173
15081SOL     OW47201   6.356   3.192   0.301
15081SOL    HW147202   6.310   3.105   0.318
15081SOL    HW247203   6.447   3.189   0.342
15082SOL     OW47204   6.204   3.429   1.284
15082SOL    HW147205   6.199   3.511   1.341
15082SOL    HW247206   6.293   3.426   1.239
15083SOL     OW47207   6.886   2.315   0.691
15083SOL    HW147208   6.827   2.395   0.695
15083SOL    HW247209   6.901   2.280   0.784
15084SOL     OW47210   7.179   2.083   0.882
15084SOL    HW147211   7.095   2.082   0.936
15084SOL    HW247212   7.181   2.166   0.826
15085SOL     OW47213   5.625   2.939   0.300
15085SOL    HW147214   5.724   2.928   0.291
15085SOL    HW247215   5.585   2.853   0.332
15086SOL     OW47216   6.461   3.508   0.337
15086SOL    HW147217   6.384   3.473   0.283
15086SOL    HW247218   6.429   3.579   0.399
15087SOL     OW47219   5.816   2.490   1.975
15087SOL    HW147220   5.723   2.488   2.012
15087SOL    HW247221   5.817   2.451   1.883
15088SOL     OW47222   5.811   2.137   2.858
15088SOL    HW147223   5.846   2.120   2.950
15088SOL    HW247224   5.723   2.092   2.846
15089SOL     OW47225   5.605   2.230   2.509
15089SOL    HW147226   5.523   2.273   2.548
15089SOL    HW247227   5.577   2.157   2.446
15090SOL     OW47228   7.141   3.373   2.565
15090SOL    HW147229   7.084   3.357   2.646
15090SOL    HW247230   7.082   3.383   2.485
15091SOL     OW47231   7.329   2.480   2.718
15091SOL    HW147232   7.362   2.574   2.718
15091SOL    HW247233   7.380   2.426   2.784
15092SOL     OW47234   6.721   2.565   2.579
15092SOL    HW147235   6.778   2.643   2.554
15092SOL    HW247236   6.661   2.591   2.655
15093SOL     OW47237   7.341   2.469   2.093
15093SOL    HW147238   7.329   2.456   1.994
15093SOL    HW247239   7.311   2.388   2.142
15094SOL     OW47240   6.354   3.006   2.885
15094SOL    HW147241   6.276   3.023   2.945
15094SOL    HW247242   6.388   3.093   2.849
15095SOL     OW47243   6.436   2.660   3.685
15095SOL    HW147244   6.432   2.736   3.750
15095SOL    HW247245   6.458   2.696   3.594
15096SOL     OW47246   6.271   2.874   2.527
15096SOL    HW147247   6.340   2.858   2.597
15096SOL    HW247248   6.198   2.931   2.565
15097SOL     OW47249   6.272   3.023   3.665
15097SOL    HW147250   6.332   3.102   3.679
15097SOL    HW247251   6.186   3.054   3.624
15098SOL     OW47252   7.046   3.367   3.201
15098SOL    HW147253   7.070   3.461   3.227
15098SOL    HW247254   7.030   3.313   3.283
15099SOL     OW47255   7.189   2.309   2.599
15099SOL    HW147256   7.115   2.355   2.549
15099SOL    HW247257   7.240   2.377   2.652
15100SOL     OW47258   6.713   3.203   3.552
15100SOL    HW147259   6.760   3.203   3.640
15100SOL    HW247260   6.665   3.116   3.541
15101SOL     OW47261   6.206   3.648   3.301
15101SOL    HW147262   6.114   3.631   3.336
15101SOL    HW247263   6.234   3.740   3.327
15102SOL     OW47264   6.192   2.826   1.985
15102SOL    HW147265   6.199   2.910   1.931
15102SOL    HW247266   6.238   2.839   2.073
15103SOL     OW47267   7.180   1.976   3.342
15103SOL    HW147268   7.162   2.043   3.270
15103SOL    HW247269   7.177   2.022   3.431
15104SOL     OW47270   5.708   2.505   2.425
15104SOL    HW147271   5.663   2.417   2.442
15104SOL    HW247272   5.707   2.559   2.509
15105SOL     OW47273   7.428   3.629   2.221
15105SOL    HW147274   7.482   3.600   2.301
15105SOL    HW247275   7.458   3.719   2.192
15106SOL     OW47276   5.613   3.458   1.979
15106SOL    HW147277   5.594   3.362   2.000
15106SOL    HW247278   5.580   3.516   2.054
15107SOL     OW47279   7.275   2.784   2.474
15107SOL    HW147280   7.370   2.755   2.482
15107SOL    HW247281   7.267   2.849   2.399
15108SOL     OW47282   7.227   2.970   2.294
15108SOL    HW147283   7.313   2.972   2.242
15108SOL    HW247284   7.241   3.017   2.382
15109SOL     OW47285   5.699   2.599   3.459
15109SOL    HW147286   5.787   2.586   3.504
15109SOL    HW247287   5.686   2.696   3.437
15110SOL     OW47288   6.199   3.227   2.588
15110SOL    HW147289   6.150   3.140   2.597
15110SOL    HW247290   6.176   3.270   2.501
15111SOL     OW47291   6.879   3.090   3.285
15111SOL    HW147292   6.916   3.017   3.227
15111SOL    HW247293   6.931   3.095   3.370
15112SOL     OW47294   5.783   2.838   3.126
15112SOL    HW147295   5.872   2.793   3.112
15112SOL    HW247296   5.710   2.773   3.107
15113SOL     OW47297   7.111   2.861   2.052
15113SOL    HW147298   7.048   2.785   2.065
15113SOL    HW247299   7.159   2.879   2.138
15114SOL     OW47300   6.773   3.654   3.478
15114SOL    HW147301   6.797   3.714   3.402
15114SOL    HW247302   6.780   3.559   3.448
15115SOL     OW47303   7.052   3.279   2.815
15115SOL    HW147304   6.993   3.285   2.895
15115SOL    HW247305   7.037   3.191   2.769
15116SOL     OW47306   6.184   2.591   2.132
15116SOL    HW147307   6.208   2.660   2.064
15116SOL    HW247308   6.106   2.624   2.186
15117SOL     OW47309   6.867   2.207   2.806
15117SOL    HW147310   6.781   2.157   2.793
15117SOL    HW247311   6.929   2.153   2.862
15118SOL     OW47312   6.980   2.331   3.536
15118SOL    HW147313   6.960   2.374   3.624
15118SOL    HW247314   7.058   2.269   3.545
15119SOL     OW47315   6.559   2.752   3.434
15119SOL    HW147316   6.605   2.668   3.405
15119SOL    HW247317   6.503   2.786   3.359
15120SOL     OW47318   6.577   2.272   3.104
15120SOL    HW147319   6.500   2.306   3.158
15120SOL    HW247320   6.543   2.221   3.025
15121SOL     OW47321   6.627   2.563   2.291
15121SOL    HW147322   6.653   2.559   2.387
15121SOL    HW247323   6.542   2.512   2.277
15122SOL     OW47324   5.662   2.673   2.651
15122SOL    HW147325   5.761   2.661   2.660
15122SOL    HW247326   5.638   2.768   2.672
15123SOL     OW47327   6.451   2.210   2.057
15123SOL    HW147328   6.510   2.273   2.008
15123SOL    HW247329   6.470   2.116   2.028
15124SOL     OW47330   7.305   2.447   3.693
15124SOL    HW147331   7.279   2.536   3.657
15124SOL    HW247332   7.303   2.379   3.620
15125SOL     OW47333   6.948   3.006   2.407
15125SOL    HW147334   7.031   2.977   2.359
15125SOL    HW247335   6.899   3.073   2.351
15126SOL     OW47336   7.381   2.928   2.735
15126SOL    HW147337   7.319   2.913   2.659
15126SOL    HW247338   7.329   2.939   2.820
15127SOL     OW47339   6.813   3.412   3.368
15127SOL    HW147340   6.819   3.335   3.432
15127SOL    HW247341   6.761   3.386   3.288
15128SOL     OW47342   5.907   2.805   2.104
15128SOL    HW147343   5.989   2.844   2.062
15128SOL    HW247344   5.880   2.723   2.055
15129SOL     OW47345   7.044   2.597   2.590
15129SOL    HW147346   7.039   2.532   2.665
15129SOL    HW247347   7.124   2.656   2.603
15130SOL     OW47348   6.047   3.128   3.589
15130SOL    HW147349   5.997   3.129   3.503
15130SOL    HW247350   5.984   3.110   3.665
15131SOL     OW47351   5.788   2.147   3.360
15131SOL    HW147352   5.708   2.207   3.347
15131SOL    HW247353   5.778   2.098   3.446
15132SOL     OW47354   6.986   1.969   2.288
15132SOL    HW147355   6.962   1.932   2.198
15132SOL    HW247356   7.085   1.985   2.292
15133SOL     OW47357   5.835   3.647   3.103
15133SOL    HW147358   5.892   3.582   3.153
15133SOL    HW247359   5.819   3.614   3.010
15134SOL     OW47360   6.526   3.560   2.766
15134SOL    HW147361   6.606   3.503   2.787
15134SOL    HW247362   6.477   3.520   2.689
15135SOL     OW47363   5.968   2.562   2.342
15135SOL    HW147364   6.013   2.472   2.339
15135SOL    HW247365   5.874   2.551   2.375
15136SOL     OW47366   7.133   2.084   3.591
15136SOL    HW147367   7.128   2.121   3.683
15136SOL    HW247368   7.061   2.015   3.579
15137SOL     OW47369   6.367   2.126   3.611
15137SOL    HW147370   6.434   2.065   3.654
15137SOL    HW247371   6.294   2.145   3.676
15138SOL     OW47372   6.474   3.376   3.057
15138SOL    HW147373   6.451   3.351   2.963
15138SOL    HW247374   6.535   3.307   3.096
15139SOL     OW47375   6.937   2.452   3.295
15139SOL    HW147376   6.965   2.409   3.380
15139SOL    HW247377   6.962   2.548   3.296
15140SOL     OW47378   6.508   2.365   2.761
15140SOL    HW147379   6.483   2.356   2.665
15140SOL    HW247380   6.556   2.283   2.792
15141SOL     OW47381   6.521   2.098   2.342
15141SOL    HW147382   6.473   2.139   2.264
15141SOL    HW247383   6.620   2.096   2.323
15142SOL     OW47384   6.662   2.545   3.326
15142SOL    HW147385   6.582   2.484   3.329
15142SOL    HW247386   6.743   2.492   3.302
15143SOL     OW47387   6.813   3.432   2.655
15143SOL    HW147388   6.834   3.506   2.590
15143SOL    HW247389   6.881   3.432   2.728
15144SOL     OW47390   6.045   3.014   2.603
15144SOL    HW147391   5.974   2.987   2.668
15144SOL    HW247392   6.019   2.986   2.510
15145SOL     OW47393   6.618   2.411   1.878
15145SOL    HW147394   6.577   2.493   1.839
15145SOL    HW247395   6.682   2.437   1.951
15146SOL     OW47396   5.664   2.418   3.248
15146SOL    HW147397   5.756   2.417   3.207
15146SOL    HW247398   5.658   2.492   3.315
15147SOL     OW47399   6.452   2.316   2.504
15147SOL    HW147400   6.420   2.388   2.442
15147SOL    HW247401   6.476   2.235   2.451
15148SOL     OW47402   6.603   1.901   2.615
15148SOL    HW147403   6.531   1.906   2.546
15148SOL    HW247404   6.579   1.832   2.684
15149SOL     OW47405   7.015   3.035   2.729
15149SOL    HW147406   6.960   2.951   2.722
15149SOL    HW247407   7.041   3.064   2.637
15150SOL     OW47408   7.052   2.452   2.854
15150SOL    HW147409   7.022   2.357   2.861
15150SOL    HW247410   7.125   2.468   2.920
15151SOL     OW47411   7.443   2.695   2.239
15151SOL    HW147412   7.485   2.631   2.303
15151SOL    HW247413   7.405   2.644   2.161
15152SOL     OW47414   7.250   3.142   2.519
15152SOL    HW147415   7.349   3.150   2.533
15152SOL    HW247416   7.205   3.226   2.550
15153SOL     OW47417   6.976   2.437   1.940
15153SOL    HW147418   6.922   2.416   2.021
15153SOL    HW247419   7.067   2.396   1.949
15154SOL     OW47420   6.113   2.118   2.190
15154SOL    HW147421   6.140   2.059   2.115
15154SOL    HW247422   6.113   2.213   2.159
15155SOL     OW47423   7.340   3.085   3.450
15155SOL    HW147424   7.431   3.046   3.437
15155SOL    HW247425   7.348   3.181   3.474
15156SOL     OW47426   6.650   3.209   3.202
15156SOL    HW147427   6.570   3.186   3.257
15156SOL    HW247428   6.733   3.183   3.251
15157SOL     OW47429   7.178   3.491   3.487
15157SOL    HW147430   7.205   3.525   3.397
15157SOL    HW247431   7.257   3.453   3.533
15158SOL     OW47432   6.697   3.057   2.962
15158SOL    HW147433   6.657   3.101   3.043
15158SOL    HW247434   6.656   3.094   2.879
15159SOL     OW47435   7.224   2.961   2.941
15159SOL    HW147436   7.229   3.042   3.000
15159SOL    HW247437   7.138   2.963   2.890
15160SOL     OW47438   6.566   2.978   3.581
15160SOL    HW147439   6.467   2.984   3.591
15160SOL    HW247440   6.589   2.898   3.525
15161SOL     OW47441   5.996   2.675   3.113
15161SOL    HW147442   6.082   2.687   3.163
15161SOL    HW247443   5.954   2.588   3.140
15162SOL     OW47444   6.860   2.248   3.124
15162SOL    HW147445   6.881   2.322   3.188
15162SOL    HW247446   6.771   2.265   3.081
15163SOL     OW47447   5.953   2.962   2.363
15163SOL    HW147448   5.946   3.045   2.307
15163SOL    HW247449   5.957   2.882   2.303
15164SOL     OW47450   6.152   2.399   2.727
15164SOL    HW147451   6.164   2.465   2.653
15164SOL    HW247452   6.198   2.433   2.810
15165SOL     OW47453   6.858   3.307   3.004
15165SOL    HW147454   6.905   3.320   3.091
15165SOL    HW247455   6.792   3.233   3.013
15166SOL     OW47456   7.168   2.501   2.334
15166SOL    HW147457   7.137   2.562   2.407
15166SOL    HW247458   7.218   2.553   2.265
15167SOL     OW47459   5.988   2.613   3.460
15167SOL    HW147460   6.056   2.668   3.413
15167SOL    HW247461   6.028   2.525   3.487
15168SOL     OW47462   7.173   2.641   3.532
15168SOL    HW147463   7.081   2.679   3.527
15168SOL    HW247464   7.233   2.688   3.467
15169SOL     OW47465   6.159   2.732   2.891
15169SOL    HW147466   6.203   2.821   2.882
15169SOL    HW247467   6.096   2.732   2.968
15170SOL     OW47468   6.946   2.724   2.907
15170SOL    HW147469   6.871   2.724   2.841
15170SOL    HW247470   6.983   2.632   2.916
15171SOL     OW47471   6.795   2.387   2.137
15171SOL    HW147472   6.808   2.303   2.191
15171SOL    HW247473   6.766   2.461   2.197
15172SOL     OW47474   5.893   2.075   3.093
15172SOL    HW147475   5.870   2.112   3.183
15172SOL    HW247476   5.863   1.980   3.087
15173SOL     OW47477   6.318   2.496   2.926
15173SOL    HW147478   6.377   2.470   2.850
15173SOL    HW247479   6.290   2.592   2.915
15174SOL     OW47480   7.314   2.797   3.716
15174SOL    HW147481   7.268   2.790   3.627
15174SOL    HW247482   7.252   2.841   3.782
15175SOL     OW47483   5.893   1.925   2.480
15175SOL    HW147484   5.882   2.019   2.513
15175SOL    HW247485   5.888   1.862   2.557
15176SOL     OW47486   7.208   2.229   2.236
15176SOL    HW147487   7.210   2.153   2.300
15176SOL    HW247488   7.160   2.306   2.276
15177SOL     OW47489   6.609   2.628   2.828
15177SOL    HW147490   6.624   2.649   2.924
15177SOL    HW247491   6.579   2.533   2.819
15178SOL     OW47492   6.566   3.435   3.562
15178SOL    HW147493   6.546   3.479   3.474
15178SOL    HW247494   6.605   3.344   3.546
15179SOL     OW47495   7.445   3.380   3.467
15179SOL    HW147496   7.459   3.407   3.372
15179SOL    HW247497   7.528   3.402   3.520
15180SOL     OW47498   5.936   2.760   3.666
15180SOL    HW147499   6.012   2.804   3.714
15180SOL    HW247500   5.971   2.713   3.584
15181SOL     OW47501   7.126   2.136   1.987
15181SOL    HW147502   7.065   2.061   2.010
15181SOL    HW247503   7.148   2.188   2.070
15182SOL     OW47504   6.889   2.700   1.904
15182SOL    HW147505   6.923   2.607   1.919
15182SOL    HW247506   6.907   2.727   1.809
15183SOL     OW47507   6.654   3.195   2.711
15183SOL    HW147508   6.661   3.111   2.656
15183SOL    HW247509   6.716   3.264   2.675
15184SOL     OW47510   5.905   2.672   2.811
15184SOL    HW147511   5.998   2.708   2.816
15184SOL    HW247512   5.899   2.587   2.863
15185SOL     OW47513   5.925   2.371   2.868
15185SOL    HW147514   5.873   2.288   2.851
15185SOL    HW247515   6.002   2.376   2.804
15186SOL     OW47516   6.097   2.277   3.670
15186SOL    HW147517   6.079   2.322   3.758
15186SOL    HW247518   6.139   2.342   3.607
15187SOL     OW47519   6.724   2.242   3.540
15187SOL    HW147520   6.679   2.305   3.604
15187SOL    HW247521   6.817   2.273   3.523
15188SOL     OW47522   6.746   2.069   3.339
15188SOL    HW147523   6.746   2.133   3.416
15188SOL    HW247524   6.774   2.117   3.256
15189SOL     OW47525   5.594   3.188   2.062
15189SOL    HW147526   5.501   3.209   2.031
15189SOL    HW247527   5.604   3.089   2.075
15190SOL     OW47528   6.588   2.658   3.100
15190SOL    HW147529   6.629   2.626   3.186
15190SOL    HW247530   6.492   2.631   3.097
15191SOL     OW47531   5.626   2.406   2.976
15191SOL    HW147532   5.711   2.373   2.935
15191SOL    HW247533   5.639   2.421   3.074
15192SOL     OW47534   5.775   2.382   3.584
15192SOL    HW147535   5.834   2.342   3.514
15192SOL    HW247536   5.717   2.453   3.543
15193SOL     OW47537   6.955   2.812   3.522
15193SOL    HW147538   6.994   2.901   3.542
15193SOL    HW247539   6.965   2.792   3.425
15194SOL     OW47540   6.401   2.434   2.187
15194SOL    HW147541   6.408   2.345   2.141
15194SOL    HW247542   6.307   2.468   2.179
15195SOL     OW47543   7.243   2.466   3.068
15195SOL    HW147544   7.205   2.397   3.130
15195SOL    HW247545   7.325   2.430   3.024
15196SOL     OW47546   6.516   3.540   3.327
15196SOL    HW147547   6.492   3.522   3.232
15196SOL    HW247548   6.546   3.634   3.337
15197SOL     OW47549   6.059   2.362   2.053
15197SOL    HW147550   6.120   2.442   2.057
15197SOL    HW247551   5.964   2.393   2.060
15198SOL     OW47552   5.745   2.999   3.328
15198SOL    HW147553   5.767   2.938   3.404
15198SOL    HW247554   5.755   2.950   3.242
15199SOL     OW47555   6.933   2.921   3.096
15199SOL    HW147556   6.957   2.858   3.022
15199SOL    HW247557   6.843   2.961   3.078
15200SOL     OW47558   6.888   2.717   2.171
15200SOL    HW147559   6.802   2.686   2.213
15200SOL    HW247560   6.884   2.703   2.072
15201SOL     OW47561   7.345   3.609   3.016
15201SOL    HW147562   7.406   3.639   2.943
15201SOL    HW247563   7.307   3.520   2.994
15202SOL     OW47564   6.838   3.593   2.990
15202SOL    HW147565   6.922   3.598   2.936
15202SOL    HW247566   6.815   3.497   3.008
15203SOL     OW47567   6.274   3.524   3.578
15203SOL    HW147568   6.218   3.605   3.587
15203SOL    HW247569   6.326   3.528   3.492
15204SOL     OW47570   7.312   1.997   2.385
15204SOL    HW147571   7.385   1.980   2.318
15204SOL    HW247572   7.281   1.910   2.423
15205SOL     OW47573   5.716   3.656   3.713
15205SOL    HW147574   5.675   3.582   3.766
15205SOL    HW247575   5.780   3.707   3.771
15206SOL     OW47576   6.866   2.789   2.534
15206SOL    HW147577   6.926   2.708   2.536
15206SOL    HW247578   6.906   2.858   2.474
15207SOL     OW47579   6.416   3.135   3.284
15207SOL    HW147580   6.411   3.168   3.379
15207SOL    HW247581   6.330   3.154   3.238
15208SOL     OW47582   6.258   3.478   2.016
15208SOL    HW147583   6.267   3.488   1.917
15208SOL    HW247584   6.218   3.389   2.037
15209SOL     OW47585   7.236   3.582   3.256
15209SOL    HW147586   7.289   3.592   3.172
15209SOL    HW247587   7.209   3.672   3.290
15210SOL     OW47588   7.427   2.037   2.825
15210SOL    HW147589   7.466   1.952   2.789
15210SOL    HW247590   7.329   2.039   2.806
15211SOL     OW47591   5.849   2.188   2.582
15211SOL    HW147592   5.770   2.239   2.548
15211SOL    HW247593   5.840   2.173   2.680
15212SOL     OW47594   6.408   2.864   3.234
15212SOL    HW147595   6.448   2.863   3.142
15212SOL    HW247596   6.418   2.956   3.274
15213SOL     OW47597   6.502   2.772   2.153
15213SOL    HW147598   6.565   2.810   2.085
15213SOL    HW247599   6.542   2.689   2.192
15214SOL     OW47600   7.090   3.469   1.906
15214SOL    HW147601   6.998   3.506   1.913
15214SOL    HW247602   7.128   3.489   1.816
15215SOL     OW47603   7.200   3.154   3.151
15215SOL    HW147604   7.260   3.157   3.231
15215SOL    HW247605   7.125   3.218   3.164
15216SOL     OW47606   6.625   2.960   2.558
15216SOL    HW147607   6.555   2.913   2.612
15216SOL    HW247608   6.684   2.892   2.515
15217SOL     OW47609   7.295   2.247   3.243
15217SOL    HW147610   7.368   2.316   3.247
15217SOL    HW247611   7.323   2.172   3.184
15218SOL     OW47612   5.691   2.875   3.588
15218SOL    HW147613   5.614   2.842   3.642
15218SOL    HW247614   5.776   2.845   3.630
15219SOL     OW47615   5.661   2.207   1.895
15219SOL    HW147616   5.569   2.179   1.866
15219SOL    HW247617   5.692   2.284   1.839
15220SOL     OW47618   7.026   2.718   3.260
15220SOL    HW147619   6.969   2.770   3.197
15220SOL    HW247620   7.122   2.730   3.236
15221SOL     OW47621   6.199   2.704   3.293
15221SOL    HW147622   6.255   2.785   3.276
15221SOL    HW247623   6.258   2.624   3.296
15222SOL     OW47624   7.079   3.629   2.821
15222SOL    HW147625   7.112   3.693   2.752
15222SOL    HW247626   7.145   3.623   2.896
15223SOL     OW47627   6.302   2.427   3.570
15223SOL    HW147628   6.321   2.492   3.644
15223SOL    HW247629   6.362   2.347   3.579
15224SOL     OW47630   7.036   3.082   3.495
15224SOL    HW147631   7.027   3.072   3.594
15224SOL    HW247632   7.132   3.075   3.469
15225SOL     OW47633   7.260   2.745   3.116
15225SOL    HW147634   7.233   2.656   3.079
15225SOL    HW247635   7.261   2.813   3.043
15226SOL     OW47636   6.811   2.187   2.311
15226SOL    HW147637   6.876   2.113   2.300
15226SOL    HW247638   6.831   2.237   2.395
15227SOL     OW47639   6.180   2.607   2.514
15227SOL    HW147640   6.230   2.692   2.495
15227SOL    HW247641   6.092   2.609   2.466
15228SOL     OW47642   7.363   2.204   3.504
15228SOL    HW147643   7.346   2.235   3.410
15228SOL    HW247644   7.279   2.167   3.542
15229SOL     OW47645   7.316   2.796   3.379
15229SOL    HW147646   7.354   2.887   3.394
15229SOL    HW247647   7.308   2.779   3.280
15230SOL     OW47648   6.445   3.236   1.878
15230SOL    HW147649   6.399   3.251   1.966
15230SOL    HW247650   6.489   3.321   1.848
15231SOL     OW47651   6.994   3.713   3.582
15231SOL    HW147652   6.898   3.702   3.555
15231SOL    HW247653   7.050   3.646   3.534
15232SOL     OW47654   6.445   2.818   2.723
15232SOL    HW147655   6.499   2.749   2.771
15232SOL    HW247656   6.413   2.887   2.789
15233SOL     OW47657   6.669   2.846   1.949
15233SOL    HW147658   6.646   2.899   1.867
15233SOL    HW247659   6.750   2.790   1.930
15234SOL     OW47660   7.447   3.431   2.713
15234SOL    HW147661   7.376   3.419   2.643
15234SOL    HW247662   7.448   3.352   2.773
15235SOL     OW47663   5.807   3.176   3.706
15235SOL    HW147664   5.742   3.103   3.685
15235SOL    HW247665   5.811   3.190   3.804
15236SOL     OW47666   6.258   3.253   3.486
15236SOL    HW147667   6.180   3.203   3.524
15236SOL    HW247668   6.255   3.348   3.517
15237SOL     OW47669   7.410   2.054   3.089
15237SOL    HW147670   7.406   1.964   3.133
15237SOL    HW247671   7.413   2.043   2.990
15238SOL     OW47672   7.291   3.349   2.966
15238SOL    HW147673   7.198   3.324   2.939
15238SOL    HW247674   7.317   3.299   3.048
15239SOL     OW47675   5.903   2.409   3.142
15239SOL    HW147676   5.941   2.350   3.214
15239SOL    HW247677   5.943   2.383   3.054
15240SOL     OW47678   7.010   2.076   2.974
15240SOL    HW147679   7.062   2.011   3.029
15240SOL    HW247680   6.961   2.139   3.035
15241SOL     OW47681   6.204   3.429   3.146
15241SOL    HW147682   6.199   3.511   3.203
15241SOL    HW247683   6.293   3.426   3.101
15242SOL     OW47684   6.938   1.914   2.030
15242SOL    HW147685   6.973   1.873   1.946
15242SOL    HW247686   6.848   1.876   2.050
15243SOL     OW47687   6.886   2.315   2.553
15243SOL    HW147688   6.827   2.395   2.557
15243SOL    HW247689   6.901   2.280   2.646
15244SOL     OW47690   7.179   2.083   2.744
15244SOL    HW147691   7.095   2.082   2.798
15244SOL    HW247692   7.181   2.166   2.688
15245SOL     OW47693   5.625   2.939   2.162
15245SOL    HW147694   5.724   2.928   2.153
15245SOL    HW247695   5.585   2.853   2.194
15246SOL     OW47696   5.816   2.490   3.837
15246SOL    HW147697   5.723   2.488   3.874
15246SOL    HW247698   5.817   2.451   3.745
15247SOL     OW47699   5.811   2.137   4.720
15247SOL    HW147700   5.846   2.120   4.812
15247SOL    HW247701   5.723   2.092   4.708
15248SOL     OW47702   5.605   2.230   4.371
15248SOL    HW147703   5.523   2.273   4.410
15248SOL    HW247704   5.577   2.157   4.308
15249SOL     OW47705   6.155   3.137   4.889
15249SOL    HW147706   6.062   3.130   4.852
15249SOL    HW247707   6.166   3.226   4.933
15250SOL     OW47708   7.141   3.373   4.427
15250SOL    HW147709   7.084   3.357   4.508
15250SOL    HW247710   7.082   3.383   4.347
15251SOL     OW47711   7.329   2.480   4.580
15251SOL    HW147712   7.362   2.574   4.580
15251SOL    HW247713   7.380   2.426   4.646
15252SOL     OW47714   6.721   2.565   4.441
15252SOL    HW147715   6.778   2.643   4.416
15252SOL    HW247716   6.661   2.591   4.517
15253SOL     OW47717   7.341   2.469   3.955
15253SOL    HW147718   7.329   2.456   3.856
15253SOL    HW247719   7.311   2.388   4.004
15254SOL     OW47720   6.354   3.006   4.747
15254SOL    HW147721   6.276   3.023   4.807
15254SOL    HW247722   6.388   3.093   4.711
15255SOL     OW47723   6.436   2.660   5.547
15255SOL    HW147724   6.432   2.736   5.612
15255SOL    HW247725   6.458   2.696   5.456
15256SOL     OW47726   6.271   2.874   4.389
15256SOL    HW147727   6.340   2.858   4.459
15256SOL    HW247728   6.198   2.931   4.427
15257SOL     OW47729   6.272   3.023   5.527
15257SOL    HW147730   6.332   3.102   5.541
15257SOL    HW247731   6.186   3.054   5.486
15258SOL     OW47732   5.921   3.297   4.785
15258SOL    HW147733   5.843   3.266   4.732
15258SOL    HW247734   5.979   3.355   4.728
15259SOL     OW47735   7.046   3.367   5.063
15259SOL    HW147736   7.070   3.461   5.089
15259SOL    HW247737   7.030   3.313   5.145
15260SOL     OW47738   7.189   2.309   4.461
15260SOL    HW147739   7.115   2.355   4.411
15260SOL    HW247740   7.240   2.377   4.514
15261SOL     OW47741   5.817   3.575   4.207
15261SOL    HW147742   5.851   3.652   4.261
15261SOL    HW247743   5.861   3.575   4.117
15262SOL     OW47744   6.713   3.203   5.414
15262SOL    HW147745   6.760   3.203   5.502
15262SOL    HW247746   6.665   3.116   5.403
15263SOL     OW47747   5.816   3.296   4.262
15263SOL    HW147748   5.790   3.392   4.262
15263SOL    HW247749   5.745   3.242   4.307
15264SOL     OW47750   5.826   2.953   4.610
15264SOL    HW147751   5.840   2.869   4.662
15264SOL    HW247752   5.771   3.017   4.665
15265SOL     OW47753   6.206   3.648   5.163
15265SOL    HW147754   6.114   3.631   5.198
15265SOL    HW247755   6.234   3.740   5.189
15266SOL     OW47756   6.192   2.826   3.847
15266SOL    HW147757   6.199   2.910   3.793
15266SOL    HW247758   6.238   2.839   3.935
15267SOL     OW47759   7.180   1.976   5.204
15267SOL    HW147760   7.162   2.043   5.132
15267SOL    HW247761   7.177   2.022   5.293
15268SOL     OW47762   5.708   2.505   4.287
15268SOL    HW147763   5.663   2.417   4.304
15268SOL    HW247764   5.707   2.559   4.371
15269SOL     OW47765   7.428   3.629   4.083
15269SOL    HW147766   7.482   3.600   4.163
15269SOL    HW247767   7.458   3.719   4.054
15270SOL     OW47768   5.613   3.458   3.841
15270SOL    HW147769   5.594   3.362   3.862
15270SOL    HW247770   5.580   3.516   3.916
15271SOL     OW47771   7.275   2.784   4.336
15271SOL    HW147772   7.370   2.755   4.344
15271SOL    HW247773   7.267   2.849   4.261
15272SOL     OW47774   7.227   2.970   4.156
15272SOL    HW147775   7.313   2.972   4.104
15272SOL    HW247776   7.241   3.017   4.244
15273SOL     OW47777   5.699   2.599   5.321
15273SOL    HW147778   5.787   2.586   5.366
15273SOL    HW247779   5.686   2.696   5.299
15274SOL     OW47780   6.199   3.227   4.450
15274SOL    HW147781   6.150   3.140   4.459
15274SOL    HW247782   6.176   3.270   4.363
15275SOL     OW47783   6.879   3.090   5.147
15275SOL    HW147784   6.916   3.017   5.089
15275SOL    HW247785   6.931   3.095   5.232
15276SOL     OW47786   5.783   2.838   4.988
15276SOL    HW147787   5.872   2.793   4.974
15276SOL    HW247788   5.710   2.773   4.969
15277SOL     OW47789   7.111   2.861   3.914
15277SOL    HW147790   7.048   2.785   3.927
15277SOL    HW247791   7.159   2.879   4.000
15278SOL     OW47792   7.052   3.279   4.677
15278SOL    HW147793   6.993   3.285   4.757
15278SOL    HW247794   7.037   3.191   4.631
15279SOL     OW47795   7.253   3.576   4.296
15279SOL    HW147796   7.212   3.553   4.208
15279SOL    HW247797   7.235   3.502   4.361
15280SOL     OW47798   6.184   2.591   3.994
15280SOL    HW147799   6.208   2.660   3.926
15280SOL    HW247800   6.106   2.624   4.048
15281SOL     OW47801   6.867   2.207   4.668
15281SOL    HW147802   6.781   2.157   4.655
15281SOL    HW247803   6.929   2.153   4.724
15282SOL     OW47804   7.162   3.524   4.031
15282SOL    HW147805   7.251   3.570   4.034
15282SOL    HW247806   7.141   3.500   3.936
15283SOL     OW47807   6.980   2.331   5.398
15283SOL    HW147808   6.960   2.374   5.486
15283SOL    HW247809   7.058   2.269   5.407
15284SOL     OW47810   6.559   2.752   5.296
15284SOL    HW147811   6.605   2.668   5.267
15284SOL    HW247812   6.503   2.786   5.221
15285SOL     OW47813   6.627   2.563   4.153
15285SOL    HW147814   6.653   2.559   4.249
15285SOL    HW247815   6.542   2.512   4.139
15286SOL     OW47816   5.662   2.673   4.513
15286SOL    HW147817   5.761   2.661   4.522
15286SOL    HW247818   5.638   2.768   4.534
15287SOL     OW47819   5.716   3.683   5.295
15287SOL    HW147820   5.706   3.668   5.394
15287SOL    HW247821   5.630   3.719   5.259
15288SOL     OW47822   6.451   2.210   3.919
15288SOL    HW147823   6.510   2.273   3.870
15288SOL    HW247824   6.470   2.116   3.890
15289SOL     OW47825   7.305   2.447   5.555
15289SOL    HW147826   7.279   2.536   5.519
15289SOL    HW247827   7.303   2.379   5.482
15290SOL     OW47828   6.948   3.006   4.269
15290SOL    HW147829   7.031   2.977   4.221
15290SOL    HW247830   6.899   3.073   4.213
15291SOL     OW47831   6.594   3.318   4.201
15291SOL    HW147832   6.548   3.390   4.149
15291SOL    HW247833   6.590   3.338   4.299
15292SOL     OW47834   5.937   3.663   4.577
15292SOL    HW147835   5.987   3.577   4.583
15292SOL    HW247836   6.002   3.740   4.574
15293SOL     OW47837   7.381   2.928   4.597
15293SOL    HW147838   7.319   2.913   4.521
15293SOL    HW247839   7.329   2.939   4.682
15294SOL     OW47840   6.813   3.412   5.230
15294SOL    HW147841   6.819   3.335   5.294
15294SOL    HW247842   6.761   3.386   5.150
15295SOL     OW47843   5.907   2.805   3.966
15295SOL    HW147844   5.989   2.844   3.924
15295SOL    HW247845   5.880   2.723   3.917
15296SOL     OW47846   7.044   2.597   4.452
15296SOL    HW147847   7.039   2.532   4.527
15296SOL    HW247848   7.124   2.656   4.465
15297SOL     OW47849   6.047   3.128   5.451
15297SOL    HW147850   5.997   3.129   5.365
15297SOL    HW247851   5.984   3.110   5.527
15298SOL     OW47852   6.697   3.638   3.961
15298SOL    HW147853   6.637   3.576   4.011
15298SOL    HW247854   6.728   3.594   3.876
15299SOL     OW47855   7.218   3.239   3.805
15299SOL    HW147856   7.186   3.333   3.795
15299SOL    HW247857   7.142   3.176   3.793
15300SOL     OW47858   6.050   3.605   4.047
15300SOL    HW147859   6.083   3.644   4.133
15300SOL    HW247860   6.126   3.598   3.982
15301SOL     OW47861   6.986   1.969   4.150
15301SOL    HW147862   6.962   1.932   4.060
15301SOL    HW247863   7.085   1.985   4.154
15302SOL     OW47864   5.835   3.647   4.965
15302SOL    HW147865   5.892   3.582   5.015
15302SOL    HW247866   5.819   3.614   4.872
15303SOL     OW47867   6.526   3.560   4.628
15303SOL    HW147868   6.606   3.503   4.649
15303SOL    HW247869   6.477   3.520   4.551
15304SOL     OW47870   7.133   2.084   5.453
15304SOL    HW147871   7.128   2.121   5.545
15304SOL    HW247872   7.061   2.015   5.441
15305SOL     OW47873   6.474   3.376   4.919
15305SOL    HW147874   6.451   3.351   4.825
15305SOL    HW247875   6.535   3.307   4.958
15306SOL     OW47876   6.937   2.452   5.157
15306SOL    HW147877   6.965   2.409   5.242
15306SOL    HW247878   6.962   2.548   5.158
15307SOL     OW47879   6.389   3.264   4.648
15307SOL    HW147880   6.479   3.278   4.606
15307SOL    HW247881   6.318   3.266   4.577
15308SOL     OW47882   6.508   2.365   4.623
15308SOL    HW147883   6.483   2.356   4.527
15308SOL    HW247884   6.556   2.283   4.654
15309SOL     OW47885   7.020   3.050   3.765
15309SOL    HW147886   7.052   2.974   3.822
15309SOL    HW247887   6.928   3.077   3.795
15310SOL     OW47888   6.521   2.098   4.204
15310SOL    HW147889   6.473   2.139   4.126
15310SOL    HW247890   6.620   2.096   4.185
15311SOL     OW47891   6.662   2.545   5.188
15311SOL    HW147892   6.582   2.484   5.191
15311SOL    HW247893   6.743   2.492   5.164
15312SOL     OW47894   6.813   3.432   4.517
15312SOL    HW147895   6.834   3.506   4.452
15312SOL    HW247896   6.881   3.432   4.590
15313SOL     OW47897   6.045   3.014   4.465
15313SOL    HW147898   5.974   2.987   4.530
15313SOL    HW247899   6.019   2.986   4.372
15314SOL     OW47900   6.857   3.659   4.315
15314SOL    HW147901   6.901   3.723   4.251
15314SOL    HW247902   6.807   3.711   4.385
15315SOL     OW47903   6.618   2.411   3.740
15315SOL    HW147904   6.577   2.493   3.701
15315SOL    HW247905   6.682   2.437   3.813
15316SOL     OW47906   5.664   2.418   5.110
15316SOL    HW147907   5.756   2.417   5.069
15316SOL    HW247908   5.658   2.492   5.177
15317SOL     OW47909   6.452   2.316   4.366
15317SOL    HW147910   6.420   2.388   4.304
15317SOL    HW247911   6.476   2.235   4.313
15318SOL     OW47912   7.015   3.035   4.591
15318SOL    HW147913   6.960   2.951   4.584
15318SOL    HW247914   7.041   3.064   4.499
15319SOL     OW47915   7.052   2.452   4.716
15319SOL    HW147916   7.022   2.357   4.723
15319SOL    HW247917   7.125   2.468   4.782
15320SOL     OW47918   7.443   2.695   4.101
15320SOL    HW147919   7.485   2.631   4.165
15320SOL    HW247920   7.405   2.644   4.023
15321SOL     OW47921   6.074   3.247   3.898
15321SOL    HW147922   5.987   3.232   3.945
15321SOL    HW247923   6.057   3.273   3.803
15322SOL     OW47924   7.250   3.142   4.381
15322SOL    HW147925   7.349   3.150   4.395
15322SOL    HW247926   7.205   3.226   4.412
15323SOL     OW47927   6.976   2.437   3.802
15323SOL    HW147928   6.922   2.416   3.883
15323SOL    HW247929   7.067   2.396   3.811
15324SOL     OW47930   7.340   3.085   5.312
15324SOL    HW147931   7.431   3.046   5.299
15324SOL    HW247932   7.348   3.181   5.336
15325SOL     OW47933   6.650   3.209   5.064
15325SOL    HW147934   6.570   3.186   5.119
15325SOL    HW247935   6.733   3.183   5.113
15326SOL     OW47936   6.697   3.057   4.824
15326SOL    HW147937   6.657   3.101   4.905
15326SOL    HW247938   6.656   3.094   4.741
15327SOL     OW47939   7.224   2.961   4.803
15327SOL    HW147940   7.229   3.042   4.862
15327SOL    HW247941   7.138   2.963   4.752
15328SOL     OW47942   6.501   1.951   5.126
15328SOL    HW147943   6.526   1.931   5.031
15328SOL    HW247944   6.573   2.007   5.168
15329SOL     OW47945   6.566   2.978   5.443
15329SOL    HW147946   6.467   2.984   5.453
15329SOL    HW247947   6.589   2.898   5.387
15330SOL     OW47948   6.291   2.912   4.092
15330SOL    HW147949   6.277   2.919   4.191
15330SOL    HW247950   6.375   2.861   4.074
15331SOL     OW47951   5.996   2.675   4.975
15331SOL    HW147952   6.082   2.687   5.025
15331SOL    HW247953   5.954   2.588   5.002
15332SOL     OW47954   6.860   2.248   4.986
15332SOL    HW147955   6.881   2.322   5.050
15332SOL    HW247956   6.771   2.265   4.943
15333SOL     OW47957   5.650   3.426   5.055
15333SOL    HW147958   5.604   3.508   5.021
15333SOL    HW247959   5.748   3.445   5.064
15334SOL     OW47960   5.953   2.962   4.225
15334SOL    HW147961   5.946   3.045   4.169
15334SOL    HW247962   5.957   2.882   4.165
15335SOL     OW47963   6.152   2.399   4.589
15335SOL    HW147964   6.164   2.465   4.515
15335SOL    HW247965   6.198   2.433   4.672
15336SOL     OW47966   6.838   3.210   4.112
15336SOL    HW147967   6.888   3.287   4.152
15336SOL    HW247968   6.743   3.212   4.144
15337SOL     OW47969   6.858   3.307   4.866
15337SOL    HW147970   6.905   3.320   4.953
15337SOL    HW247971   6.792   3.233   4.875
15338SOL     OW47972   7.168   2.501   4.196
15338SOL    HW147973   7.137   2.562   4.269
15338SOL    HW247974   7.218   2.553   4.127
15339SOL     OW47975   5.940   3.372   5.053
15339SOL    HW147976   5.919   3.328   4.966
15339SOL    HW247977   6.037   3.398   5.056
15340SOL     OW47978   5.988   2.613   5.322
15340SOL    HW147979   6.056   2.668   5.275
15340SOL    HW247980   6.028   2.525   5.349
15341SOL     OW47981   7.173   2.641   5.394
15341SOL    HW147982   7.081   2.679   5.389
15341SOL    HW247983   7.233   2.688   5.329
15342SOL     OW47984   6.159   2.732   4.753
15342SOL    HW147985   6.203   2.821   4.744
15342SOL    HW247986   6.096   2.732   4.830
15343SOL     OW47987   6.946   2.724   4.769
15343SOL    HW147988   6.871   2.724   4.703
15343SOL    HW247989   6.983   2.632   4.778
15344SOL     OW47990   6.795   2.387   3.999
15344SOL    HW147991   6.808   2.303   4.053
15344SOL    HW247992   6.766   2.461   4.059
15345SOL     OW47993   5.623   3.172   5.006
15345SOL    HW147994   5.676   3.123   5.074
15345SOL    HW247995   5.645   3.270   5.011
15346SOL     OW47996   6.318   2.496   4.788
15346SOL    HW147997   6.377   2.470   4.712
15346SOL    HW247998   6.290   2.592   4.777
15347SOL     OW47999   7.314   2.797   5.578
15347SOL    HW148000   7.268   2.790   5.489
15347SOL    HW248001   7.252   2.841   5.644
15348SOL     OW48002   7.208   2.229   4.098
15348SOL    HW148003   7.210   2.153   4.162
15348SOL    HW248004   7.160   2.306   4.138
15349SOL     OW48005   6.609   2.628   4.690
15349SOL    HW148006   6.624   2.649   4.786
15349SOL    HW248007   6.579   2.533   4.681
15350SOL     OW48008   6.566   3.435   5.424
15350SOL    HW148009   6.546   3.479   5.336
15350SOL    HW248010   6.605   3.344   5.408
15351SOL     OW48011   7.445   3.380   5.329
15351SOL    HW148012   7.459   3.407   5.234
15351SOL    HW248013   7.528   3.402   5.382
15352SOL     OW48014   5.936   2.760   5.528
15352SOL    HW148015   6.012   2.804   5.576
15352SOL    HW248016   5.971   2.713   5.446
15353SOL     OW48017   7.126   2.136   3.849
15353SOL    HW148018   7.065   2.061   3.872
15353SOL    HW248019   7.148   2.188   3.932
15354SOL     OW48020   6.889   2.700   3.766
15354SOL    HW148021   6.923   2.607   3.781
15354SOL    HW248022   6.907   2.727   3.671
15355SOL     OW48023   6.654   3.195   4.573
15355SOL    HW148024   6.661   3.111   4.518
15355SOL    HW248025   6.716   3.264   4.537
15356SOL     OW48026   5.905   2.672   4.673
15356SOL    HW148027   5.998   2.708   4.678
15356SOL    HW248028   5.899   2.587   4.725
15357SOL     OW48029   5.925   2.371   4.730
15357SOL    HW148030   5.873   2.288   4.713
15357SOL    HW248031   6.002   2.376   4.666
15358SOL     OW48032   6.097   2.277   5.532
15358SOL    HW148033   6.079   2.322   5.620
15358SOL    HW248034   6.139   2.342   5.469
15359SOL     OW48035   6.724   2.242   5.402
15359SOL    HW148036   6.679   2.305   5.466
15359SOL    HW248037   6.817   2.273   5.385
15360SOL     OW48038   6.746   2.069   5.201
15360SOL    HW148039   6.746   2.133   5.278
15360SOL    HW248040   6.774   2.117   5.118
15361SOL     OW48041   5.594   3.188   3.924
15361SOL    HW148042   5.501   3.209   3.893
15361SOL    HW248043   5.604   3.089   3.937
15362SOL     OW48044   5.674   3.663   4.651
15362SOL    HW148045   5.632   3.577   4.624
15362SOL    HW248046   5.768   3.666   4.617
15363SOL     OW48047   6.090   3.430   4.634
15363SOL    HW148048   6.156   3.504   4.643
15363SOL    HW248049   6.134   3.351   4.592
15364SOL     OW48050   6.588   2.658   4.962
15364SOL    HW148051   6.629   2.626   5.048
15364SOL    HW248052   6.492   2.631   4.959
15365SOL     OW48053   5.626   2.406   4.838
15365SOL    HW148054   5.711   2.373   4.797
15365SOL    HW248055   5.639   2.421   4.936
15366SOL     OW48056   6.955   2.812   5.384
15366SOL    HW148057   6.994   2.901   5.404
15366SOL    HW248058   6.965   2.792   5.287
15367SOL     OW48059   6.401   2.434   4.049
15367SOL    HW148060   6.408   2.345   4.003
15367SOL    HW248061   6.307   2.468   4.041
15368SOL     OW48062   7.243   2.466   4.930
15368SOL    HW148063   7.205   2.397   4.992
15368SOL    HW248064   7.325   2.430   4.886
15369SOL     OW48065   5.838   3.426   5.468
15369SOL    HW148066   5.808   3.483   5.544
15369SOL    HW248067   5.831   3.329   5.494
15370SOL     OW48068   6.516   3.540   5.189
15370SOL    HW148069   6.492   3.522   5.094
15370SOL    HW248070   6.546   3.634   5.199
15371SOL     OW48071   6.059   2.362   3.915
15371SOL    HW148072   6.120   2.442   3.919
15371SOL    HW248073   5.964   2.393   3.922
15372SOL     OW48074   5.745   2.999   5.190
15372SOL    HW148075   5.767   2.938   5.266
15372SOL    HW248076   5.755   2.950   5.104
15373SOL     OW48077   6.933   2.921   4.958
15373SOL    HW148078   6.957   2.858   4.884
15373SOL    HW248079   6.843   2.961   4.940
15374SOL     OW48080   6.888   2.717   4.033
15374SOL    HW148081   6.802   2.686   4.075
15374SOL    HW248082   6.884   2.703   3.934
15375SOL     OW48083   7.345   3.609   4.878
15375SOL    HW148084   7.406   3.639   4.805
15375SOL    HW248085   7.307   3.520   4.856
15376SOL     OW48086   6.838   3.593   4.852
15376SOL    HW148087   6.922   3.598   4.798
15376SOL    HW248088   6.815   3.497   4.870
15377SOL     OW48089   5.669   3.120   4.746
15377SOL    HW148090   5.664   3.119   4.846
15377SOL    HW248091   5.586   3.079   4.708
15378SOL     OW48092   6.274   3.524   5.440
15378SOL    HW148093   6.218   3.605   5.449
15378SOL    HW248094   6.326   3.528   5.354
15379SOL     OW48095   7.312   1.997   4.247
15379SOL    HW148096   7.385   1.980   4.180
15379SOL    HW248097   7.281   1.910   4.285
15380SOL     OW48098   6.974   3.435   4.201
15380SOL    HW148099   7.041   3.447   4.127
15380SOL    HW248100   6.934   3.524   4.224
15381SOL     OW48101   5.716   3.656   5.575
15381SOL    HW148102   5.675   3.582   5.628
15381SOL    HW248103   5.780   3.707   5.633
15382SOL     OW48104   6.866   2.789   4.396
15382SOL    HW148105   6.926   2.708   4.398
15382SOL    HW248106   6.906   2.858   4.336
15383SOL     OW48107   6.416   3.135   5.146
15383SOL    HW148108   6.411   3.168   5.241
15383SOL    HW248109   6.330   3.154   5.100
15384SOL     OW48110   6.258   3.478   3.878
15384SOL    HW148111   6.267   3.488   3.779
15384SOL    HW248112   6.218   3.389   3.899
15385SOL     OW48113   7.236   3.582   5.118
15385SOL    HW148114   7.289   3.592   5.034
15385SOL    HW248115   7.209   3.672   5.152
15386SOL     OW48116   7.427   2.037   4.687
15386SOL    HW148117   7.466   1.952   4.651
15386SOL    HW248118   7.329   2.039   4.668
15387SOL     OW48119   6.780   3.474   3.755
15387SOL    HW148120   6.786   3.381   3.792
15387SOL    HW248121   6.721   3.474   3.675
15388SOL     OW48122   6.408   2.864   5.096
15388SOL    HW148123   6.448   2.863   5.004
15388SOL    HW248124   6.418   2.956   5.136
15389SOL     OW48125   6.502   2.772   4.015
15389SOL    HW148126   6.565   2.810   3.947
15389SOL    HW248127   6.542   2.689   4.054
15390SOL     OW48128   7.090   3.469   3.768
15390SOL    HW148129   6.998   3.506   3.775
15390SOL    HW248130   7.128   3.489   3.678
15391SOL     OW48131   5.958   3.150   5.214
15391SOL    HW148132   5.945   3.243   5.180
15391SOL    HW248133   5.874   3.098   5.201
15392SOL     OW48134   7.200   3.154   5.013
15392SOL    HW148135   7.260   3.157   5.093
15392SOL    HW248136   7.125   3.218   5.026
15393SOL     OW48137   6.625   2.960   4.420
15393SOL    HW148138   6.555   2.913   4.474
15393SOL    HW248139   6.684   2.892   4.377
15394SOL     OW48140   6.176   3.349   4.215
15394SOL    HW148141   6.218   3.291   4.145
15394SOL    HW248142   6.132   3.428   4.171
15395SOL     OW48143   7.295   2.247   5.105
15395SOL    HW148144   7.368   2.316   5.109
15395SOL    HW248145   7.323   2.172   5.046
15396SOL     OW48146   5.841   3.210   4.014
15396SOL    HW148147   5.745   3.211   3.987
15396SOL    HW248148   5.853   3.263   4.098
15397SOL     OW48149   5.691   2.875   5.450
15397SOL    HW148150   5.614   2.842   5.504
15397SOL    HW248151   5.776   2.845   5.492
15398SOL     OW48152   6.258   2.065   5.213
15398SOL    HW148153   6.348   2.049   5.173
15398SOL    HW248154   6.266   2.070   5.312
15399SOL     OW48155   7.026   2.718   5.122
15399SOL    HW148156   6.969   2.770   5.059
15399SOL    HW248157   7.122   2.730   5.098
15400SOL     OW48158   5.658   2.028   4.042
15400SOL    HW148159   5.641   2.111   3.988
15400SOL    HW248160   5.748   1.991   4.020
15401SOL     OW48161   6.769   3.197   3.843
15401SOL    HW148162   6.670   3.186   3.845
15401SOL    HW248163   6.803   3.212   3.936
15402SOL     OW48164   6.199   2.704   5.155
15402SOL    HW148165   6.255   2.785   5.138
15402SOL    HW248166   6.258   2.624   5.158
15403SOL     OW48167   7.079   3.629   4.683
15403SOL    HW148168   7.112   3.693   4.614
15403SOL    HW248169   7.145   3.623   4.758
15404SOL     OW48170   6.302   2.427   5.432
15404SOL    HW148171   6.321   2.492   5.506
15404SOL    HW248172   6.362   2.347   5.441
15405SOL     OW48173   7.036   3.082   5.357
15405SOL    HW148174   7.027   3.072   5.456
15405SOL    HW248175   7.132   3.075   5.331
15406SOL     OW48176   5.976   3.603   5.284
15406SOL    HW148177   5.885   3.644   5.282
15406SOL    HW248178   5.969   3.509   5.316
15407SOL     OW48179   7.260   2.745   4.978
15407SOL    HW148180   7.233   2.656   4.941
15407SOL    HW248181   7.261   2.813   4.905
15408SOL     OW48182   6.811   2.187   4.173
15408SOL    HW148183   6.876   2.113   4.162
15408SOL    HW248184   6.831   2.237   4.257
15409SOL     OW48185   6.180   2.607   4.376
15409SOL    HW148186   6.230   2.692   4.357
15409SOL    HW248187   6.092   2.609   4.328
15410SOL     OW48188   7.363   2.204   5.366
15410SOL    HW148189   7.346   2.235   5.272
15410SOL    HW248190   7.279   2.167   5.404
15411SOL     OW48191   7.316   2.796   5.241
15411SOL    HW148192   7.354   2.887   5.256
15411SOL    HW248193   7.308   2.779   5.142
15412SOL     OW48194   6.445   3.236   3.740
15412SOL    HW148195   6.399   3.251   3.828
15412SOL    HW248196   6.489   3.321   3.710
15413SOL     OW48197   6.247   3.652   4.677
15413SOL    HW148198   6.201   3.740   4.664
15413SOL    HW248199   6.346   3.664   4.670
15414SOL     OW48200   6.994   3.713   5.444
15414SOL    HW148201   6.898   3.702   5.417
15414SOL    HW248202   7.050   3.646   5.396
15415SOL     OW48203   6.445   2.818   4.585
15415SOL    HW148204   6.499   2.749   4.633
15415SOL    HW248205   6.413   2.887   4.651
15416SOL     OW48206   6.669   2.846   3.811
15416SOL    HW148207   6.646   2.899   3.729
15416SOL    HW248208   6.750   2.790   3.792
15417SOL     OW48209   7.447   3.431   4.575
15417SOL    HW148210   7.376   3.419   4.505
15417SOL    HW248211   7.448   3.352   4.635
15418SOL     OW48212   5.807   3.176   5.568
15418SOL    HW148213   5.742   3.103   5.547
15418SOL    HW248214   5.811   3.190   5.666
15419SOL     OW48215   5.665   3.102   4.377
15419SOL    HW148216   5.664   3.055   4.465
15419SOL    HW248217   5.747   3.074   4.326
15420SOL     OW48218   6.258   3.253   5.348
15420SOL    HW148219   6.180   3.203   5.386
15420SOL    HW248220   6.255   3.348   5.379
15421SOL     OW48221   7.410   2.054   4.951
15421SOL    HW148222   7.406   1.964   4.995
15421SOL    HW248223   7.413   2.043   4.852
15422SOL     OW48224   7.291   3.349   4.828
15422SOL    HW148225   7.198   3.324   4.801
15422SOL    HW248226   7.317   3.299   4.910
15423SOL     OW48227   6.398   3.448   4.411
15423SOL    HW148228   6.430   3.458   4.317
15423SOL    HW248229   6.319   3.386   4.413
15424SOL     OW48230   7.010   2.076   4.836
15424SOL    HW148231   7.062   2.011   4.891
15424SOL    HW248232   6.961   2.139   4.897
15425SOL     OW48233   6.587   1.896   4.878
15425SOL    HW148234   6.524   1.824   4.847
15425SOL    HW248235   6.680   1.860   4.878
15426SOL     OW48236   6.356   3.192   4.025
15426SOL    HW148237   6.310   3.105   4.042
15426SOL    HW248238   6.447   3.189   4.066
15427SOL     OW48239   6.204   3.429   5.008
15427SOL    HW148240   6.199   3.511   5.065
15427SOL    HW248241   6.293   3.426   4.963
15428SOL     OW48242   6.938   1.914   3.892
15428SOL    HW148243   6.973   1.873   3.808
15428SOL    HW248244   6.848   1.876   3.912
15429SOL     OW48245   6.886   2.315   4.415
15429SOL    HW148246   6.827   2.395   4.419
15429SOL    HW248247   6.901   2.280   4.508
15430SOL     OW48248   7.179   2.083   4.606
15430SOL    HW148249   7.095   2.082   4.660
15430SOL    HW248250   7.181   2.166   4.550
15431SOL     OW48251   5.625   2.939   4.024
15431SOL    HW148252   5.724   2.928   4.015
15431SOL    HW248253   5.585   2.853   4.056
15432SOL     OW48254   6.461   3.508   4.061
15432SOL    HW148255   6.384   3.473   4.007
15432SOL    HW248256   6.429   3.579   4.123
15433SOL     OW48257   5.816   2.490   5.699
15433SOL    HW148258   5.723   2.488   5.736
15433SOL    HW248259   5.817   2.451   5.607
15434SOL     OW48260   5.605   2.230   6.233
15434SOL    HW148261   5.523   2.273   6.272
15434SOL    HW248262   5.577   2.157   6.170
15435SOL     OW48263   7.141   3.373   6.289
15435SOL    HW148264   7.084   3.357   6.370
15435SOL    HW248265   7.082   3.383   6.209
15436SOL     OW48266   7.329   2.480   6.442
15436SOL    HW148267   7.362   2.574   6.442
15436SOL    HW248268   7.380   2.426   6.508
15437SOL     OW48269   6.721   2.565   6.303
15437SOL    HW148270   6.778   2.643   6.278
15437SOL    HW248271   6.661   2.591   6.379
15438SOL     OW48272   7.341   2.469   5.817
15438SOL    HW148273   7.329   2.456   5.718
15438SOL    HW248274   7.311   2.388   5.866
15439SOL     OW48275   6.354   3.006   6.609
15439SOL    HW148276   6.276   3.023   6.669
15439SOL    HW248277   6.388   3.093   6.573
15440SOL     OW48278   6.436   2.660   7.409
15440SOL    HW148279   6.432   2.736   7.474
15440SOL    HW248280   6.458   2.696   7.318
15441SOL     OW48281   6.271   2.874   6.251
15441SOL    HW148282   6.340   2.858   6.321
15441SOL    HW248283   6.198   2.931   6.289
15442SOL     OW48284   7.046   3.367   6.925
15442SOL    HW148285   7.070   3.461   6.951
15442SOL    HW248286   7.030   3.313   7.007
15443SOL     OW48287   7.189   2.309   6.323
15443SOL    HW148288   7.115   2.355   6.273
15443SOL    HW248289   7.240   2.377   6.376
15444SOL     OW48290   5.817   3.575   6.069
15444SOL    HW148291   5.851   3.652   6.123
15444SOL    HW248292   5.861   3.575   5.979
15445SOL     OW48293   6.713   3.203   7.276
15445SOL    HW148294   6.760   3.203   7.364
15445SOL    HW248295   6.665   3.116   7.265
15446SOL     OW48296   5.816   3.296   6.124
15446SOL    HW148297   5.790   3.392   6.124
15446SOL    HW248298   5.745   3.242   6.169
15447SOL     OW48299   5.826   2.953   6.472
15447SOL    HW148300   5.840   2.869   6.524
15447SOL    HW248301   5.771   3.017   6.527
15448SOL     OW48302   6.192   2.826   5.709
15448SOL    HW148303   6.199   2.910   5.655
15448SOL    HW248304   6.238   2.839   5.797
15449SOL     OW48305   7.180   1.976   7.066
15449SOL    HW148306   7.162   2.043   6.994
15449SOL    HW248307   7.177   2.022   7.155
15450SOL     OW48308   5.708   2.505   6.149
15450SOL    HW148309   5.663   2.417   6.166
15450SOL    HW248310   5.707   2.559   6.233
15451SOL     OW48311   7.428   3.629   5.945
15451SOL    HW148312   7.482   3.600   6.025
15451SOL    HW248313   7.458   3.719   5.916
15452SOL     OW48314   5.613   3.458   5.703
15452SOL    HW148315   5.594   3.362   5.724
15452SOL    HW248316   5.580   3.516   5.778
15453SOL     OW48317   7.275   2.784   6.198
15453SOL    HW148318   7.370   2.755   6.206
15453SOL    HW248319   7.267   2.849   6.123
15454SOL     OW48320   7.227   2.970   6.018
15454SOL    HW148321   7.313   2.972   5.966
15454SOL    HW248322   7.241   3.017   6.106
15455SOL     OW48323   6.199   3.227   6.312
15455SOL    HW148324   6.150   3.140   6.321
15455SOL    HW248325   6.176   3.270   6.225
15456SOL     OW48326   6.879   3.090   7.009
15456SOL    HW148327   6.916   3.017   6.951
15456SOL    HW248328   6.931   3.095   7.094
15457SOL     OW48329   5.783   2.838   6.850
15457SOL    HW148330   5.872   2.793   6.836
15457SOL    HW248331   5.710   2.773   6.831
15458SOL     OW48332   7.111   2.861   5.776
15458SOL    HW148333   7.048   2.785   5.789
15458SOL    HW248334   7.159   2.879   5.862
15459SOL     OW48335   6.773   3.654   7.202
15459SOL    HW148336   6.797   3.714   7.126
15459SOL    HW248337   6.780   3.559   7.172
15460SOL     OW48338   5.903   2.113   7.387
15460SOL    HW148339   5.974   2.184   7.393
15460SOL    HW248340   5.815   2.152   7.415
15461SOL     OW48341   7.052   3.279   6.539
15461SOL    HW148342   6.993   3.285   6.619
15461SOL    HW248343   7.037   3.191   6.493
15462SOL     OW48344   6.184   2.591   5.856
15462SOL    HW148345   6.208   2.660   5.788
15462SOL    HW248346   6.106   2.624   5.910
15463SOL     OW48347   6.867   2.207   6.530
15463SOL    HW148348   6.781   2.157   6.517
15463SOL    HW248349   6.929   2.153   6.586
15464SOL     OW48350   6.393   2.467   7.051
15464SOL    HW148351   6.346   2.464   7.140
15464SOL    HW248352   6.342   2.412   6.985
15465SOL     OW48353   6.980   2.331   7.260
15465SOL    HW148354   6.960   2.374   7.348
15465SOL    HW248355   7.058   2.269   7.269
15466SOL     OW48356   6.559   2.752   7.158
15466SOL    HW148357   6.605   2.668   7.129
15466SOL    HW248358   6.503   2.786   7.083
15467SOL     OW48359   6.577   2.272   6.828
15467SOL    HW148360   6.500   2.306   6.882
15467SOL    HW248361   6.543   2.221   6.749
15468SOL     OW48362   6.627   2.563   6.015
15468SOL    HW148363   6.653   2.559   6.111
15468SOL    HW248364   6.542   2.512   6.001
15469SOL     OW48365   5.662   2.673   6.375
15469SOL    HW148366   5.761   2.661   6.384
15469SOL    HW248367   5.638   2.768   6.396
15470SOL     OW48368   6.451   2.210   5.781
15470SOL    HW148369   6.510   2.273   5.732
15470SOL    HW248370   6.470   2.116   5.752
15471SOL     OW48371   7.305   2.447   7.417
15471SOL    HW148372   7.279   2.536   7.381
15471SOL    HW248373   7.303   2.379   7.344
15472SOL     OW48374   6.948   3.006   6.131
15472SOL    HW148375   7.031   2.977   6.083
15472SOL    HW248376   6.899   3.073   6.075
15473SOL     OW48377   6.594   3.318   6.063
15473SOL    HW148378   6.548   3.390   6.011
15473SOL    HW248379   6.590   3.338   6.161
15474SOL     OW48380   7.381   2.928   6.459
15474SOL    HW148381   7.319   2.913   6.383
15474SOL    HW248382   7.329   2.939   6.544
15475SOL     OW48383   6.813   3.412   7.092
15475SOL    HW148384   6.819   3.335   7.156
15475SOL    HW248385   6.761   3.386   7.012
15476SOL     OW48386   5.907   2.805   5.828
15476SOL    HW148387   5.989   2.844   5.786
15476SOL    HW248388   5.880   2.723   5.779
15477SOL     OW48389   7.044   2.597   6.314
15477SOL    HW148390   7.039   2.532   6.389
15477SOL    HW248391   7.124   2.656   6.327
15478SOL     OW48392   7.218   3.239   5.667
15478SOL    HW148393   7.186   3.333   5.657
15478SOL    HW248394   7.142   3.176   5.655
15479SOL     OW48395   6.050   3.605   5.909
15479SOL    HW148396   6.083   3.644   5.995
15479SOL    HW248397   6.126   3.598   5.844
15480SOL     OW48398   6.986   1.969   6.012
15480SOL    HW148399   6.962   1.932   5.922
15480SOL    HW248400   7.085   1.985   6.016
15481SOL     OW48401   7.133   2.084   7.315
15481SOL    HW148402   7.128   2.121   7.407
15481SOL    HW248403   7.061   2.015   7.303
15482SOL     OW48404   6.367   2.126   7.335
15482SOL    HW148405   6.434   2.065   7.378
15482SOL    HW248406   6.294   2.145   7.400
15483SOL     OW48407   6.937   2.452   7.019
15483SOL    HW148408   6.965   2.409   7.104
15483SOL    HW248409   6.962   2.548   7.020
15484SOL     OW48410   6.389   3.264   6.510
15484SOL    HW148411   6.479   3.278   6.468
15484SOL    HW248412   6.318   3.266   6.439
15485SOL     OW48413   7.020   3.050   5.627
15485SOL    HW148414   7.052   2.974   5.684
15485SOL    HW248415   6.928   3.077   5.657
15486SOL     OW48416   6.521   2.098   6.066
15486SOL    HW148417   6.473   2.139   5.988
15486SOL    HW248418   6.620   2.096   6.047
15487SOL     OW48419   6.662   2.545   7.050
15487SOL    HW148420   6.582   2.484   7.053
15487SOL    HW248421   6.743   2.492   7.026
15488SOL     OW48422   6.045   3.014   6.327
15488SOL    HW148423   5.974   2.987   6.392
15488SOL    HW248424   6.019   2.986   6.234
15489SOL     OW48425   6.618   2.411   5.602
15489SOL    HW148426   6.577   2.493   5.563
15489SOL    HW248427   6.682   2.437   5.675
15490SOL     OW48428   6.452   2.316   6.228
15490SOL    HW148429   6.420   2.388   6.166
15490SOL    HW248430   6.476   2.235   6.175
15491SOL     OW48431   7.015   3.035   6.453
15491SOL    HW148432   6.960   2.951   6.446
15491SOL    HW248433   7.041   3.064   6.361
15492SOL     OW48434   7.052   2.452   6.578
15492SOL    HW148435   7.022   2.357   6.585
15492SOL    HW248436   7.125   2.468   6.644
15493SOL     OW48437   7.443   2.695   5.963
15493SOL    HW148438   7.485   2.631   6.027
15493SOL    HW248439   7.405   2.644   5.885
15494SOL     OW48440   6.074   3.247   5.760
15494SOL    HW148441   5.987   3.232   5.807
15494SOL    HW248442   6.057   3.273   5.665
15495SOL     OW48443   7.250   3.142   6.243
15495SOL    HW148444   7.349   3.150   6.257
15495SOL    HW248445   7.205   3.226   6.274
15496SOL     OW48446   6.976   2.437   5.664
15496SOL    HW148447   6.922   2.416   5.745
15496SOL    HW248448   7.067   2.396   5.673
15497SOL     OW48449   7.340   3.085   7.174
15497SOL    HW148450   7.431   3.046   7.161
15497SOL    HW248451   7.348   3.181   7.198
15498SOL     OW48452   7.178   3.491   7.211
15498SOL    HW148453   7.205   3.525   7.121
15498SOL    HW248454   7.257   3.453   7.257
15499SOL     OW48455   7.224   2.961   6.665
15499SOL    HW148456   7.229   3.042   6.724
15499SOL    HW248457   7.138   2.963   6.614
15500SOL     OW48458   6.501   1.951   6.988
15500SOL    HW148459   6.526   1.931   6.893
15500SOL    HW248460   6.573   2.007   7.030
15501SOL     OW48461   6.566   2.978   7.305
15501SOL    HW148462   6.467   2.984   7.315
15501SOL    HW248463   6.589   2.898   7.249
15502SOL     OW48464   6.291   2.912   5.954
15502SOL    HW148465   6.277   2.919   6.053
15502SOL    HW248466   6.375   2.861   5.936
15503SOL     OW48467   5.996   2.675   6.837
15503SOL    HW148468   6.082   2.687   6.887
15503SOL    HW248469   5.954   2.588   6.864
15504SOL     OW48470   6.860   2.248   6.848
15504SOL    HW148471   6.881   2.322   6.912
15504SOL    HW248472   6.771   2.265   6.805
15505SOL     OW48473   5.650   3.426   6.917
15505SOL    HW148474   5.604   3.508   6.883
15505SOL    HW248475   5.748   3.445   6.926
15506SOL     OW48476   5.953   2.962   6.087
15506SOL    HW148477   5.946   3.045   6.031
15506SOL    HW248478   5.957   2.882   6.027
15507SOL     OW48479   6.838   3.210   5.974
15507SOL    HW148480   6.888   3.287   6.014
15507SOL    HW248481   6.743   3.212   6.006
15508SOL     OW48482   7.168   2.501   6.058
15508SOL    HW148483   7.137   2.562   6.131
15508SOL    HW248484   7.218   2.553   5.989
15509SOL     OW48485   5.988   2.613   7.184
15509SOL    HW148486   6.056   2.668   7.137
15509SOL    HW248487   6.028   2.525   7.211
15510SOL     OW48488   7.173   2.641   7.256
15510SOL    HW148489   7.081   2.679   7.251
15510SOL    HW248490   7.233   2.688   7.191
15511SOL     OW48491   6.599   1.967   7.356
15511SOL    HW148492   6.605   2.052   7.304
15511SOL    HW248493   6.631   1.891   7.299
15512SOL     OW48494   6.090   1.912   7.326
15512SOL    HW148495   6.048   1.855   7.256
15512SOL    HW248496   6.024   1.981   7.358
15513SOL     OW48497   6.159   2.732   6.615
15513SOL    HW148498   6.203   2.821   6.606
15513SOL    HW248499   6.096   2.732   6.692
15514SOL     OW48500   6.946   2.724   6.631
15514SOL    HW148501   6.871   2.724   6.565
15514SOL    HW248502   6.983   2.632   6.640
15515SOL     OW48503   6.795   2.387   5.861
15515SOL    HW148504   6.808   2.303   5.915
15515SOL    HW248505   6.766   2.461   5.921
15516SOL     OW48506   5.623   3.172   6.868
15516SOL    HW148507   5.676   3.123   6.936
15516SOL    HW248508   5.645   3.270   6.873
15517SOL     OW48509   7.314   2.797   7.440
15517SOL    HW148510   7.268   2.790   7.351
15517SOL    HW248511   7.252   2.841   7.506
15518SOL     OW48512   7.208   2.229   5.960
15518SOL    HW148513   7.210   2.153   6.024
15518SOL    HW248514   7.160   2.306   6.000
15519SOL     OW48515   6.609   2.628   6.552
15519SOL    HW148516   6.624   2.649   6.648
15519SOL    HW248517   6.579   2.533   6.543
15520SOL     OW48518   6.566   3.435   7.286
15520SOL    HW148519   6.546   3.479   7.198
15520SOL    HW248520   6.605   3.344   7.270
15521SOL     OW48521   7.445   3.380   7.191
15521SOL    HW148522   7.459   3.407   7.096
15521SOL    HW248523   7.528   3.402   7.244
15522SOL     OW48524   5.936   2.760   7.390
15522SOL    HW148525   6.012   2.804   7.438
15522SOL    HW248526   5.971   2.713   7.308
15523SOL     OW48527   7.126   2.136   5.711
15523SOL    HW148528   7.065   2.061   5.734
15523SOL    HW248529   7.148   2.188   5.794
15524SOL     OW48530   6.889   2.700   5.628
15524SOL    HW148531   6.923   2.607   5.643
15524SOL    HW248532   6.907   2.727   5.533
15525SOL     OW48533   6.654   3.195   6.435
15525SOL    HW148534   6.661   3.111   6.380
15525SOL    HW248535   6.716   3.264   6.399
15526SOL     OW48536   5.905   2.672   6.535
15526SOL    HW148537   5.998   2.708   6.540
15526SOL    HW248538   5.899   2.587   6.587
15527SOL     OW48539   6.097   2.277   7.394
15527SOL    HW148540   6.079   2.322   7.482
15527SOL    HW248541   6.139   2.342   7.331
15528SOL     OW48542   6.724   2.242   7.264
15528SOL    HW148543   6.679   2.305   7.328
15528SOL    HW248544   6.817   2.273   7.247
15529SOL     OW48545   6.746   2.069   7.063
15529SOL    HW148546   6.746   2.133   7.140
15529SOL    HW248547   6.774   2.117   6.980
15530SOL     OW48548   5.594   3.188   5.786
15530SOL    HW148549   5.501   3.209   5.755
15530SOL    HW248550   5.604   3.089   5.799
15531SOL     OW48551   5.674   3.663   6.513
15531SOL    HW148552   5.632   3.577   6.486
15531SOL    HW248553   5.768   3.666   6.479
15532SOL     OW48554   6.090   3.430   6.496
15532SOL    HW148555   6.156   3.504   6.505
15532SOL    HW248556   6.134   3.351   6.454
15533SOL     OW48557   6.588   2.658   6.824
15533SOL    HW148558   6.629   2.626   6.910
15533SOL    HW248559   6.492   2.631   6.821
15534SOL     OW48560   5.626   2.406   6.700
15534SOL    HW148561   5.711   2.373   6.659
15534SOL    HW248562   5.639   2.421   6.798
15535SOL     OW48563   6.955   2.812   7.246
15535SOL    HW148564   6.994   2.901   7.266
15535SOL    HW248565   6.965   2.792   7.149
15536SOL     OW48566   6.401   2.434   5.911
15536SOL    HW148567   6.408   2.345   5.865
15536SOL    HW248568   6.307   2.468   5.903
15537SOL     OW48569   7.243   2.466   6.792
15537SOL    HW148570   7.205   2.397   6.854
15537SOL    HW248571   7.325   2.430   6.748
15538SOL     OW48572   6.516   3.540   7.051
15538SOL    HW148573   6.492   3.522   6.956
15538SOL    HW248574   6.546   3.634   7.061
15539SOL     OW48575   5.745   2.999   7.052
15539SOL    HW148576   5.767   2.938   7.128
15539SOL    HW248577   5.755   2.950   6.966
15540SOL     OW48578   6.933   2.921   6.820
15540SOL    HW148579   6.957   2.858   6.746
15540SOL    HW248580   6.843   2.961   6.802
15541SOL     OW48581   6.888   2.717   5.895
15541SOL    HW148582   6.802   2.686   5.937
15541SOL    HW248583   6.884   2.703   5.796
15542SOL     OW48584   7.345   3.609   6.740
15542SOL    HW148585   7.406   3.639   6.667
15542SOL    HW248586   7.307   3.520   6.718
15543SOL     OW48587   6.838   3.593   6.714
15543SOL    HW148588   6.922   3.598   6.660
15543SOL    HW248589   6.815   3.497   6.732
15544SOL     OW48590   5.669   3.120   6.608
15544SOL    HW148591   5.664   3.119   6.708
15544SOL    HW248592   5.586   3.079   6.570
15545SOL     OW48593   7.312   1.997   6.109
15545SOL    HW148594   7.385   1.980   6.042
15545SOL    HW248595   7.281   1.910   6.147
15546SOL     OW48596   6.866   2.789   6.258
15546SOL    HW148597   6.926   2.708   6.260
15546SOL    HW248598   6.906   2.858   6.198
15547SOL     OW48599   6.416   3.135   7.008
15547SOL    HW148600   6.411   3.168   7.103
15547SOL    HW248601   6.330   3.154   6.962
15548SOL     OW48602   6.258   3.478   5.740
15548SOL    HW148603   6.267   3.488   5.641
15548SOL    HW248604   6.218   3.389   5.761
15549SOL     OW48605   7.236   3.582   6.980
15549SOL    HW148606   7.289   3.592   6.896
15549SOL    HW248607   7.209   3.672   7.014
15550SOL     OW48608   7.427   2.037   6.549
15550SOL    HW148609   7.466   1.952   6.513
15550SOL    HW248610   7.329   2.039   6.530
15551SOL     OW48611   6.408   2.864   6.958
15551SOL    HW148612   6.448   2.863   6.866
15551SOL    HW248613   6.418   2.956   6.998
15552SOL     OW48614   6.502   2.772   5.877
15552SOL    HW148615   6.565   2.810   5.809
15552SOL    HW248616   6.542   2.689   5.916
15553SOL     OW48617   7.200   3.154   6.875
15553SOL    HW148618   7.260   3.157   6.955
15553SOL    HW248619   7.125   3.218   6.888
15554SOL     OW48620   6.625   2.960   6.282
15554SOL    HW148621   6.555   2.913   6.336
15554SOL    HW248622   6.684   2.892   6.239
15555SOL     OW48623   6.600   2.098   6.557
15555SOL    HW148624   6.592   2.062   6.464
15555SOL    HW248625   6.598   2.022   6.622
15556SOL     OW48626   6.176   3.349   6.077
15556SOL    HW148627   6.218   3.291   6.007
15556SOL    HW248628   6.132   3.428   6.033
15557SOL     OW48629   7.295   2.247   6.967
15557SOL    HW148630   7.368   2.316   6.971
15557SOL    HW248631   7.323   2.172   6.908
15558SOL     OW48632   5.841   3.210   5.876
15558SOL    HW148633   5.745   3.211   5.849
15558SOL    HW248634   5.853   3.263   5.960
15559SOL     OW48635   6.258   2.065   7.075
15559SOL    HW148636   6.348   2.049   7.035
15559SOL    HW248637   6.266   2.070   7.174
15560SOL     OW48638   7.026   2.718   6.984
15560SOL    HW148639   6.969   2.770   6.921
15560SOL    HW248640   7.122   2.730   6.960
15561SOL     OW48641   5.658   2.028   5.904
15561SOL    HW148642   5.641   2.111   5.850
15561SOL    HW248643   5.748   1.991   5.882
15562SOL     OW48644   6.769   3.197   5.705
15562SOL    HW148645   6.670   3.186   5.707
15562SOL    HW248646   6.803   3.212   5.798
15563SOL     OW48647   6.199   2.704   7.017
15563SOL    HW148648   6.255   2.785   7.000
15563SOL    HW248649   6.258   2.624   7.020
15564SOL     OW48650   7.079   3.629   6.545
15564SOL    HW148651   7.112   3.693   6.476
15564SOL    HW248652   7.145   3.623   6.620
15565SOL     OW48653   6.302   2.427   7.294
15565SOL    HW148654   6.321   2.492   7.368
15565SOL    HW248655   6.362   2.347   7.303
15566SOL     OW48656   7.036   3.082   7.219
15566SOL    HW148657   7.027   3.072   7.318
15566SOL    HW248658   7.132   3.075   7.193
15567SOL     OW48659   5.976   3.603   7.146
15567SOL    HW148660   5.885   3.644   7.144
15567SOL    HW248661   5.969   3.509   7.178
15568SOL     OW48662   7.260   2.745   6.840
15568SOL    HW148663   7.233   2.656   6.803
15568SOL    HW248664   7.261   2.813   6.767
15569SOL     OW48665   6.811   2.187   6.035
15569SOL    HW148666   6.876   2.113   6.024
15569SOL    HW248667   6.831   2.237   6.119
15570SOL     OW48668   6.180   2.607   6.238
15570SOL    HW148669   6.230   2.692   6.219
15570SOL    HW248670   6.092   2.609   6.190
15571SOL     OW48671   7.363   2.204   7.228
15571SOL    HW148672   7.346   2.235   7.134
15571SOL    HW248673   7.279   2.167   7.266
15572SOL     OW48674   7.316   2.796   7.103
15572SOL    HW148675   7.354   2.887   7.118
15572SOL    HW248676   7.308   2.779   7.004
15573SOL     OW48677   6.445   3.236   5.602
15573SOL    HW148678   6.399   3.251   5.690
15573SOL    HW248679   6.489   3.321   5.572
15574SOL     OW48680   6.994   3.713   7.306
15574SOL    HW148681   6.898   3.702   7.279
15574SOL    HW248682   7.050   3.646   7.258
15575SOL     OW48683   6.445   2.818   6.447
15575SOL    HW148684   6.499   2.749   6.495
15575SOL    HW248685   6.413   2.887   6.513
15576SOL     OW48686   6.669   2.846   5.673
15576SOL    HW148687   6.646   2.899   5.591
15576SOL    HW248688   6.750   2.790   5.654
15577SOL     OW48689   7.447   3.431   6.437
15577SOL    HW148690   7.376   3.419   6.367
15577SOL    HW248691   7.448   3.352   6.497
15578SOL     OW48692   5.665   3.102   6.239
15578SOL    HW148693   5.664   3.055   6.327
15578SOL    HW248694   5.747   3.074   6.188
15579SOL     OW48695   7.410   2.054   6.813
15579SOL    HW148696   7.406   1.964   6.857
15579SOL    HW248697   7.413   2.043   6.714
15580SOL     OW48698   7.291   3.349   6.690
15580SOL    HW148699   7.198   3.324   6.663
15580SOL    HW248700   7.317   3.299   6.772
15581SOL     OW48701   7.010   2.076   6.698
15581SOL    HW148702   7.062   2.011   6.753
15581SOL    HW248703   6.961   2.139   6.759
15582SOL     OW48704   6.587   1.896   6.740
15582SOL    HW148705   6.524   1.824   6.709
15582SOL    HW248706   6.680   1.860   6.740
15583SOL     OW48707   6.356   3.192   5.887
15583SOL    HW148708   6.310   3.105   5.904
15583SOL    HW248709   6.447   3.189   5.928
15584SOL     OW48710   6.938   1.914   5.754
15584SOL    HW148711   6.973   1.873   5.670
15584SOL    HW248712   6.848   1.876   5.774
15585SOL     OW48713   6.886   2.315   6.277
15585SOL    HW148714   6.827   2.395   6.281
15585SOL    HW248715   6.901   2.280   6.370
15586SOL     OW48716   7.179   2.083   6.468
15586SOL    HW148717   7.095   2.082   6.522
15586SOL    HW248718   7.181   2.166   6.412
15587SOL     OW48719   5.625   2.939   5.886
15587SOL    HW148720   5.724   2.928   5.877
15587SOL    HW248721   5.585   2.853   5.918
15588SOL     OW48722   5.816   2.490   7.561
15588SOL    HW148723   5.723   2.488   7.598
15588SOL    HW248724   5.817   2.451   7.469
15589SOL     OW48725   5.811   2.137   8.444
15589SOL    HW148726   5.846   2.120   8.536
15589SOL    HW248727   5.723   2.092   8.432
15590SOL     OW48728   5.605   2.230   8.095
15590SOL    HW148729   5.523   2.273   8.134
15590SOL    HW248730   5.577   2.157   8.032
15591SOL     OW48731   6.155   3.137   8.613
15591SOL    HW148732   6.062   3.130   8.576
15591SOL    HW248733   6.166   3.226   8.657
15592SOL     OW48734   7.141   3.373   8.151
15592SOL    HW148735   7.084   3.357   8.232
15592SOL    HW248736   7.082   3.383   8.071
15593SOL     OW48737   7.329   2.480   8.304
15593SOL    HW148738   7.362   2.574   8.304
15593SOL    HW248739   7.380   2.426   8.370
15594SOL     OW48740   6.721   2.565   8.165
15594SOL    HW148741   6.778   2.643   8.140
15594SOL    HW248742   6.661   2.591   8.241
15595SOL     OW48743   7.341   2.469   7.679
15595SOL    HW148744   7.329   2.456   7.580
15595SOL    HW248745   7.311   2.388   7.728
15596SOL     OW48746   6.354   3.006   8.471
15596SOL    HW148747   6.276   3.023   8.531
15596SOL    HW248748   6.388   3.093   8.435
15597SOL     OW48749   6.271   2.874   8.113
15597SOL    HW148750   6.340   2.858   8.183
15597SOL    HW248751   6.198   2.931   8.151
15598SOL     OW48752   5.921   3.297   8.509
15598SOL    HW148753   5.843   3.266   8.456
15598SOL    HW248754   5.979   3.355   8.452
15599SOL     OW48755   7.046   3.367   8.787
15599SOL    HW148756   7.070   3.461   8.813
15599SOL    HW248757   7.030   3.313   8.869
15600SOL     OW48758   6.024   2.254   8.947
15600SOL    HW148759   6.106   2.198   8.956
15600SOL    HW248760   5.943   2.196   8.951
15601SOL     OW48761   7.189   2.309   8.185
15601SOL    HW148762   7.115   2.355   8.135
15601SOL    HW248763   7.240   2.377   8.238
15602SOL     OW48764   6.206   3.648   8.887
15602SOL    HW148765   6.114   3.631   8.922
15602SOL    HW248766   6.234   3.740   8.913
15603SOL     OW48767   7.180   1.976   8.928
15603SOL    HW148768   7.162   2.043   8.856
15603SOL    HW248769   7.177   2.022   9.017
15604SOL     OW48770   7.428   3.629   7.807
15604SOL    HW148771   7.482   3.600   7.887
15604SOL    HW248772   7.458   3.719   7.778
15605SOL     OW48773   7.275   2.784   8.060
15605SOL    HW148774   7.370   2.755   8.068
15605SOL    HW248775   7.267   2.849   7.985
15606SOL     OW48776   7.227   2.970   7.880
15606SOL    HW148777   7.313   2.972   7.828
15606SOL    HW248778   7.241   3.017   7.968
15607SOL     OW48779   6.395   1.866   7.950
15607SOL    HW148780   6.435   1.957   7.941
15607SOL    HW248781   6.295   1.874   7.956
15608SOL     OW48782   5.783   2.838   8.712
15608SOL    HW148783   5.872   2.793   8.698
15608SOL    HW248784   5.710   2.773   8.693
15609SOL     OW48785   7.111   2.861   7.638
15609SOL    HW148786   7.048   2.785   7.651
15609SOL    HW248787   7.159   2.879   7.724
15610SOL     OW48788   7.052   3.279   8.401
15610SOL    HW148789   6.993   3.285   8.481
15610SOL    HW248790   7.037   3.191   8.355
15611SOL     OW48791   7.253   3.576   8.020
15611SOL    HW148792   7.212   3.553   7.932
15611SOL    HW248793   7.235   3.502   8.085
15612SOL     OW48794   6.184   2.591   7.718
15612SOL    HW148795   6.208   2.660   7.650
15612SOL    HW248796   6.106   2.624   7.772
15613SOL     OW48797   6.867   2.207   8.392
15613SOL    HW148798   6.781   2.157   8.379
15613SOL    HW248799   6.929   2.153   8.448
15614SOL     OW48800   7.162   3.524   7.755
15614SOL    HW148801   7.251   3.570   7.758
15614SOL    HW248802   7.141   3.500   7.660
15615SOL     OW48803   6.393   2.467   8.913
15615SOL    HW148804   6.346   2.464   9.002
15615SOL    HW248805   6.342   2.412   8.847
15616SOL     OW48806   6.577   2.272   8.690
15616SOL    HW148807   6.500   2.306   8.744
15616SOL    HW248808   6.543   2.221   8.611
15617SOL     OW48809   6.627   2.563   7.877
15617SOL    HW148810   6.653   2.559   7.973
15617SOL    HW248811   6.542   2.512   7.863
15618SOL     OW48812   5.716   3.683   0.019
15618SOL    HW148813   5.706   3.668   0.118
15618SOL    HW248814   5.630   3.719  -0.017
15619SOL     OW48815   6.451   2.210   7.643
15619SOL    HW148816   6.510   2.273   7.594
15619SOL    HW248817   6.470   2.116   7.614
15620SOL     OW48818   6.948   3.006   7.993
15620SOL    HW148819   7.031   2.977   7.945
15620SOL    HW248820   6.899   3.073   7.937
15621SOL     OW48821   6.136   2.058   8.333
15621SOL    HW148822   6.131   2.053   8.433
15621SOL    HW248823   6.138   2.154   8.304
15622SOL     OW48824   6.594   3.318   7.925
15622SOL    HW148825   6.548   3.390   7.873
15622SOL    HW248826   6.590   3.338   8.023
15623SOL     OW48827   5.937   3.663   8.301
15623SOL    HW148828   5.987   3.577   8.307
15623SOL    HW248829   6.002   3.740   8.298
15624SOL     OW48830   7.381   2.928   8.321
15624SOL    HW148831   7.319   2.913   8.245
15624SOL    HW248832   7.329   2.939   8.406
15625SOL     OW48833   7.044   2.597   8.176
15625SOL    HW148834   7.039   2.532   8.251
15625SOL    HW248835   7.124   2.656   8.189
15626SOL     OW48836   6.697   3.638   7.685
15626SOL    HW148837   6.637   3.576   7.735
15626SOL    HW248838   6.728   3.594   7.600
15627SOL     OW48839   5.788   2.147   8.946
15627SOL    HW148840   5.708   2.207   8.933
15627SOL    HW248841   5.778   2.098   9.032
15628SOL     OW48842   7.218   3.239   7.529
15628SOL    HW148843   7.186   3.333   7.519
15628SOL    HW248844   7.142   3.176   7.517
15629SOL     OW48845   6.050   3.605   7.771
15629SOL    HW148846   6.083   3.644   7.857
15629SOL    HW248847   6.126   3.598   7.706
15630SOL     OW48848   6.986   1.969   7.874
15630SOL    HW148849   6.962   1.932   7.784
15630SOL    HW248850   7.085   1.985   7.878
15631SOL     OW48851   5.835   3.647   8.689
15631SOL    HW148852   5.892   3.582   8.739
15631SOL    HW248853   5.819   3.614   8.596
15632SOL     OW48854   6.526   3.560   8.352
15632SOL    HW148855   6.606   3.503   8.373
15632SOL    HW248856   6.477   3.520   8.275
15633SOL     OW48857   5.968   2.562   7.928
15633SOL    HW148858   6.013   2.472   7.925
15633SOL    HW248859   5.874   2.551   7.961
15634SOL     OW48860   6.200   1.984   7.565
15634SOL    HW148861   6.298   1.962   7.572
15634SOL    HW248862   6.169   1.967   7.472
15635SOL     OW48863   6.474   3.376   8.643
15635SOL    HW148864   6.451   3.351   8.549
15635SOL    HW248865   6.535   3.307   8.682
15636SOL     OW48866   6.389   3.264   8.372
15636SOL    HW148867   6.479   3.278   8.330
15636SOL    HW248868   6.318   3.266   8.301
15637SOL     OW48869   6.508   2.365   8.347
15637SOL    HW148870   6.483   2.356   8.251
15637SOL    HW248871   6.556   2.283   8.378
15638SOL     OW48872   6.125   1.926   7.960
15638SOL    HW148873   6.044   1.927   8.018
15638SOL    HW248874   6.128   2.009   7.905
15639SOL     OW48875   7.020   3.050   7.489
15639SOL    HW148876   7.052   2.974   7.546
15639SOL    HW248877   6.928   3.077   7.519
15640SOL     OW48878   5.883   1.897   7.619
15640SOL    HW148879   5.932   1.981   7.598
15640SOL    HW248880   5.945   1.832   7.664
15641SOL     OW48881   6.521   2.098   7.928
15641SOL    HW148882   6.473   2.139   7.850
15641SOL    HW248883   6.620   2.096   7.909
15642SOL     OW48884   6.813   3.432   8.241
15642SOL    HW148885   6.834   3.506   8.176
15642SOL    HW248886   6.881   3.432   8.314
15643SOL     OW48887   6.045   3.014   8.189
15643SOL    HW148888   5.974   2.987   8.254
15643SOL    HW248889   6.019   2.986   8.096
15644SOL     OW48890   6.857   3.659   8.039
15644SOL    HW148891   6.901   3.723   7.975
15644SOL    HW248892   6.807   3.711   8.109
15645SOL     OW48893   6.618   2.411   7.464
15645SOL    HW148894   6.577   2.493   7.425
15645SOL    HW248895   6.682   2.437   7.537
15646SOL     OW48896   5.664   2.418   8.834
15646SOL    HW148897   5.756   2.417   8.793
15646SOL    HW248898   5.658   2.492   8.901
15647SOL     OW48899   6.147   2.084   8.595
15647SOL    HW148900   6.185   2.000   8.632
15647SOL    HW248901   6.059   2.103   8.639
15648SOL     OW48902   6.452   2.316   8.090
15648SOL    HW148903   6.420   2.388   8.028
15648SOL    HW248904   6.476   2.235   8.037
15649SOL     OW48905   6.603   1.901   8.201
15649SOL    HW148906   6.531   1.906   8.132
15649SOL    HW248907   6.579   1.832   8.270
15650SOL     OW48908   7.015   3.035   8.315
15650SOL    HW148909   6.960   2.951   8.308
15650SOL    HW248910   7.041   3.064   8.223
15651SOL     OW48911   7.052   2.452   8.440
15651SOL    HW148912   7.022   2.357   8.447
15651SOL    HW248913   7.125   2.468   8.506
15652SOL     OW48914   7.443   2.695   7.825
15652SOL    HW148915   7.485   2.631   7.889
15652SOL    HW248916   7.405   2.644   7.747
15653SOL     OW48917   7.250   3.142   8.105
15653SOL    HW148918   7.349   3.150   8.119
15653SOL    HW248919   7.205   3.226   8.136
15654SOL     OW48920   6.976   2.437   7.526
15654SOL    HW148921   6.922   2.416   7.607
15654SOL    HW248922   7.067   2.396   7.535
15655SOL     OW48923   6.113   2.118   7.776
15655SOL    HW148924   6.140   2.059   7.701
15655SOL    HW248925   6.113   2.213   7.745
15656SOL     OW48926   6.650   3.209   8.788
15656SOL    HW148927   6.570   3.186   8.843
15656SOL    HW248928   6.733   3.183   8.837
15657SOL     OW48929   6.697   3.057   8.548
15657SOL    HW148930   6.657   3.101   8.629
15657SOL    HW248931   6.656   3.094   8.465
15658SOL     OW48932   7.224   2.961   8.527
15658SOL    HW148933   7.229   3.042   8.586
15658SOL    HW248934   7.138   2.963   8.476
15659SOL     OW48935   6.501   1.951   8.850
15659SOL    HW148936   6.526   1.931   8.755
15659SOL    HW248937   6.573   2.007   8.892
15660SOL     OW48938   5.996   2.675   8.699
15660SOL    HW148939   6.082   2.687   8.749
15660SOL    HW248940   5.954   2.588   8.726
15661SOL     OW48941   6.860   2.248   8.710
15661SOL    HW148942   6.881   2.322   8.774
15661SOL    HW248943   6.771   2.265   8.667
15662SOL     OW48944   6.152   2.399   8.313
15662SOL    HW148945   6.164   2.465   8.239
15662SOL    HW248946   6.198   2.433   8.396
15663SOL     OW48947   6.838   3.210   7.836
15663SOL    HW148948   6.888   3.287   7.876
15663SOL    HW248949   6.743   3.212   7.868
15664SOL     OW48950   6.858   3.307   8.590
15664SOL    HW148951   6.905   3.320   8.677
15664SOL    HW248952   6.792   3.233   8.599
15665SOL     OW48953   7.168   2.501   7.920
15665SOL    HW148954   7.137   2.562   7.993
15665SOL    HW248955   7.218   2.553   7.851
15666SOL     OW48956   5.940   3.372   8.777
15666SOL    HW148957   5.919   3.328   8.690
15666SOL    HW248958   6.037   3.398   8.780
15667SOL     OW48959   5.988   2.613   0.046
15667SOL    HW148960   6.056   2.668  -0.001
15667SOL    HW248961   6.028   2.525   0.073
15668SOL     OW48962   7.173   2.641   0.118
15668SOL    HW148963   7.081   2.679   0.113
15668SOL    HW248964   7.233   2.688   0.053
15669SOL     OW48965   6.159   2.732   8.477
15669SOL    HW148966   6.203   2.821   8.468
15669SOL    HW248967   6.096   2.732   8.554
15670SOL     OW48968   6.946   2.724   8.493
15670SOL    HW148969   6.871   2.724   8.427
15670SOL    HW248970   6.983   2.632   8.502
15671SOL     OW48971   6.795   2.387   7.723
15671SOL    HW148972   6.808   2.303   7.777
15671SOL    HW248973   6.766   2.461   7.783
15672SOL     OW48974   5.893   2.075   8.679
15672SOL    HW148975   5.870   2.112   8.769
15672SOL    HW248976   5.863   1.980   8.673
15673SOL     OW48977   6.318   2.496   8.512
15673SOL    HW148978   6.377   2.470   8.436
15673SOL    HW248979   6.290   2.592   8.501
15674SOL     OW48980   5.893   1.925   8.066
15674SOL    HW148981   5.882   2.019   8.099
15674SOL    HW248982   5.888   1.862   8.143
15675SOL     OW48983   7.208   2.229   7.822
15675SOL    HW148984   7.210   2.153   7.886
15675SOL    HW248985   7.160   2.306   7.862
15676SOL     OW48986   6.609   2.628   8.414
15676SOL    HW148987   6.624   2.649   8.510
15676SOL    HW248988   6.579   2.533   8.405
15677SOL     OW48989   6.566   3.435   0.148
15677SOL    HW148990   6.546   3.479   0.060
15677SOL    HW248991   6.605   3.344   0.132
15678SOL     OW48992   7.445   3.380   0.053
15678SOL    HW148993   7.459   3.407  -0.042
15678SOL    HW248994   7.528   3.402   0.106
15679SOL     OW48995   7.126   2.136   7.573
15679SOL    HW148996   7.065   2.061   7.596
15679SOL    HW248997   7.148   2.188   7.656
15680SOL     OW48998   6.889   2.700   7.490
15680SOL    HW148999   6.923   2.607   7.505
15680SOL    HW249000   6.907   2.727   7.395
15681SOL     OW49001   6.654   3.195   8.297
15681SOL    HW149002   6.661   3.111   8.242
15681SOL    HW249003   6.716   3.264   8.261
15682SOL     OW49004   5.905   2.672   8.397
15682SOL    HW149005   5.998   2.708   8.402
15682SOL    HW249006   5.899   2.587   8.449
15683SOL     OW49007   5.925   2.371   8.454
15683SOL    HW149008   5.873   2.288   8.437
15683SOL    HW249009   6.002   2.376   8.390
15684SOL     OW49010   6.724   2.242   0.126
15684SOL    HW149011   6.679   2.305   0.190
15684SOL    HW249012   6.817   2.273   0.109
15685SOL     OW49013   6.746   2.069   8.925
15685SOL    HW149014   6.746   2.133   9.002
15685SOL    HW249015   6.774   2.117   8.842
15686SOL     OW49016   5.594   3.188   7.648
15686SOL    HW149017   5.501   3.209   7.617
15686SOL    HW249018   5.604   3.089   7.661
15687SOL     OW49019   5.674   3.663   8.375
15687SOL    HW149020   5.632   3.577   8.348
15687SOL    HW249021   5.768   3.666   8.341
15688SOL     OW49022   6.090   3.430   8.358
15688SOL    HW149023   6.156   3.504   8.367
15688SOL    HW249024   6.134   3.351   8.316
15689SOL     OW49025   6.588   2.658   8.686
15689SOL    HW149026   6.629   2.626   8.772
15689SOL    HW249027   6.492   2.631   8.683
15690SOL     OW49028   5.626   2.406   8.562
15690SOL    HW149029   5.711   2.373   8.521
15690SOL    HW249030   5.639   2.421   8.660
15691SOL     OW49031   6.401   2.434   7.773
15691SOL    HW149032   6.408   2.345   7.727
15691SOL    HW249033   6.307   2.468   7.765
15692SOL     OW49034   7.243   2.466   8.654
15692SOL    HW149035   7.205   2.397   8.716
15692SOL    HW249036   7.325   2.430   8.610
15693SOL     OW49037   6.257   2.326   8.717
15693SOL    HW149038   6.223   2.237   8.687
15693SOL    HW249039   6.283   2.380   8.637
15694SOL     OW49040   6.516   3.540   8.913
15694SOL    HW149041   6.492   3.522   8.818
15694SOL    HW249042   6.546   3.634   8.923
15695SOL     OW49043   6.059   2.362   7.639
15695SOL    HW149044   6.120   2.442   7.643
15695SOL    HW249045   5.964   2.393   7.646
15696SOL     OW49046   5.745   2.999   8.914
15696SOL    HW149047   5.767   2.938   8.990
15696SOL    HW249048   5.755   2.950   8.828
15697SOL     OW49049   6.933   2.921   8.682
15697SOL    HW149050   6.957   2.858   8.608
15697SOL    HW249051   6.843   2.961   8.664
15698SOL     OW49052   6.888   2.717   7.757
15698SOL    HW149053   6.802   2.686   7.799
15698SOL    HW249054   6.884   2.703   7.658
15699SOL     OW49055   7.345   3.609   8.602
15699SOL    HW149056   7.406   3.639   8.529
15699SOL    HW249057   7.307   3.520   8.580
15700SOL     OW49058   6.838   3.593   8.576
15700SOL    HW149059   6.922   3.598   8.522
15700SOL    HW249060   6.815   3.497   8.594
15701SOL     OW49061   5.669   3.120   8.470
15701SOL    HW149062   5.664   3.119   8.570
15701SOL    HW249063   5.586   3.079   8.432
15702SOL     OW49064   6.489   1.948   7.581
15702SOL    HW149065   6.540   1.949   7.495
15702SOL    HW249066   6.545   1.906   7.652
15703SOL     OW49067   7.312   1.997   7.971
15703SOL    HW149068   7.385   1.980   7.904
15703SOL    HW249069   7.281   1.910   8.009
15704SOL     OW49070   6.974   3.435   7.925
15704SOL    HW149071   7.041   3.447   7.851
15704SOL    HW249072   6.934   3.524   7.948
15705SOL     OW49073   6.866   2.789   8.120
15705SOL    HW149074   6.926   2.708   8.122
15705SOL    HW249075   6.906   2.858   8.060
15706SOL     OW49076   6.258   3.478   7.602
15706SOL    HW149077   6.267   3.488   7.503
15706SOL    HW249078   6.218   3.389   7.623
15707SOL     OW49079   7.236   3.582   8.842
15707SOL    HW149080   7.289   3.592   8.758
15707SOL    HW249081   7.209   3.672   8.876
15708SOL     OW49082   7.427   2.037   8.411
15708SOL    HW149083   7.466   1.952   8.375
15708SOL    HW249084   7.329   2.039   8.392
15709SOL     OW49085   5.849   2.188   8.168
15709SOL    HW149086   5.770   2.239   8.134
15709SOL    HW249087   5.840   2.173   8.266
15710SOL     OW49088   6.780   3.474   7.479
15710SOL    HW149089   6.786   3.381   7.516
15710SOL    HW249090   6.721   3.474   7.399
15711SOL     OW49091   6.408   2.864   8.820
15711SOL    HW149092   6.448   2.863   8.728
15711SOL    HW249093   6.418   2.956   8.860
15712SOL     OW49094   6.502   2.772   7.739
15712SOL    HW149095   6.565   2.810   7.671
15712SOL    HW249096   6.542   2.689   7.778
15713SOL     OW49097   7.090   3.469   7.492
15713SOL    HW149098   6.998   3.506   7.499
15713SOL    HW249099   7.128   3.489   7.402
15714SOL     OW49100   5.958   3.150   8.938
15714SOL    HW149101   5.945   3.243   8.904
15714SOL    HW249102   5.874   3.098   8.925
15715SOL     OW49103   7.200   3.154   8.737
15715SOL    HW149104   7.260   3.157   8.817
15715SOL    HW249105   7.125   3.218   8.750
15716SOL     OW49106   6.625   2.960   8.144
15716SOL    HW149107   6.555   2.913   8.198
15716SOL    HW249108   6.684   2.892   8.101
15717SOL     OW49109   6.600   2.098   8.419
15717SOL    HW149110   6.592   2.062   8.326
15717SOL    HW249111   6.598   2.022   8.484
15718SOL     OW49112   7.295   2.247   8.829
15718SOL    HW149113   7.368   2.316   8.833
15718SOL    HW249114   7.323   2.172   8.770
15719SOL     OW49115   5.661   2.207   7.481
15719SOL    HW149116   5.569   2.179   7.452
15719SOL    HW249117   5.692   2.284   7.425
15720SOL     OW49118   7.026   2.718   8.846
15720SOL    HW149119   6.969   2.770   8.783
15720SOL    HW249120   7.122   2.730   8.822
15721SOL     OW49121   5.658   2.028   7.766
15721SOL    HW149122   5.641   2.111   7.712
15721SOL    HW249123   5.748   1.991   7.744
15722SOL     OW49124   6.769   3.197   7.567
15722SOL    HW149125   6.670   3.186   7.569
15722SOL    HW249126   6.803   3.212   7.660
15723SOL     OW49127   6.199   2.704   8.879
15723SOL    HW149128   6.255   2.785   8.862
15723SOL    HW249129   6.258   2.624   8.882
15724SOL     OW49130   7.079   3.629   8.407
15724SOL    HW149131   7.112   3.693   8.338
15724SOL    HW249132   7.145   3.623   8.482
15725SOL     OW49133   5.976   3.603   0.008
15725SOL    HW149134   5.885   3.644   0.006
15725SOL    HW249135   5.969   3.509   0.040
15726SOL     OW49136   7.260   2.745   8.702
15726SOL    HW149137   7.233   2.656   8.665
15726SOL    HW249138   7.261   2.813   8.629
15727SOL     OW49139   6.811   2.187   7.897
15727SOL    HW149140   6.876   2.113   7.886
15727SOL    HW249141   6.831   2.237   7.981
15728SOL     OW49142   7.363   2.204   0.090
15728SOL    HW149143   7.346   2.235  -0.004
15728SOL    HW249144   7.279   2.167   0.128
15729SOL     OW49145   7.316   2.796   8.965
15729SOL    HW149146   7.354   2.887   8.980
15729SOL    HW249147   7.308   2.779   8.866
15730SOL     OW49148   6.247   3.652   8.401
15730SOL    HW149149   6.201   3.740   8.388
15730SOL    HW249150   6.346   3.664   8.394
15731SOL     OW49151   6.994   3.713   0.168
15731SOL    HW149152   6.898   3.702   0.141
15731SOL    HW249153   7.050   3.646   0.120
15732SOL     OW49154   6.445   2.818   8.309
15732SOL    HW149155   6.499   2.749   8.357
15732SOL    HW249156   6.413   2.887   8.375
15733SOL     OW49157   6.669   2.846   7.535
15733SOL    HW149158   6.646   2.899   7.453
15733SOL    HW249159   6.750   2.790   7.516
15734SOL     OW49160   7.447   3.431   8.299
15734SOL    HW149161   7.376   3.419   8.229
15734SOL    HW249162   7.448   3.352   8.359
15735SOL     OW49163   7.410   2.054   8.675
15735SOL    HW149164   7.406   1.964   8.719
15735SOL    HW249165   7.413   2.043   8.576
15736SOL     OW49166   6.014   2.286   7.968
15736SOL    HW149167   6.044   2.214   7.906
15736SOL    HW249168   5.975   2.246   8.051
15737SOL     OW49169   7.291   3.349   8.552
15737SOL    HW149170   7.198   3.324   8.525
15737SOL    HW249171   7.317   3.299   8.634
15738SOL     OW49172   5.903   2.409   8.728
15738SOL    HW149173   5.941   2.350   8.800
15738SOL    HW249174   5.943   2.383   8.640
15739SOL     OW49175   6.398   3.448   8.135
15739SOL    HW149176   6.430   3.458   8.041
15739SOL    HW249177   6.319   3.386   8.137
15740SOL     OW49178   7.010   2.076   8.560
15740SOL    HW149179   7.062   2.011   8.615
15740SOL    HW249180   6.961   2.139   8.621
15741SOL     OW49181   6.587   1.896   8.602
15741SOL    HW149182   6.524   1.824   8.571
15741SOL    HW249183   6.680   1.860   8.602
15742SOL     OW49184   6.204   3.429   8.732
15742SOL    HW149185   6.199   3.511   8.789
15742SOL    HW249186   6.293   3.426   8.687
15743SOL     OW49187   6.938   1.914   7.616
15743SOL    HW149188   6.973   1.873   7.532
15743SOL    HW249189   6.848   1.876   7.636
15744SOL     OW49190   6.886   2.315   8.139
15744SOL    HW149191   6.827   2.395   8.143
15744SOL    HW249192   6.901   2.280   8.232
15745SOL     OW49193   7.179   2.083   8.330
15745SOL    HW149194   7.095   2.082   8.384
15745SOL    HW249195   7.181   2.166   8.274
15746SOL     OW49196   6.461   3.508   7.785
15746SOL    HW149197   6.384   3.473   7.731
15746SOL    HW249198   6.429   3.579   7.847
15747SOL     OW49199   5.816   4.352   0.113
15747SOL    HW149200   5.723   4.350   0.150
15747SOL    HW249201   5.817   4.313   0.021
15748SOL     OW49202   5.811   3.999   0.996
15748SOL    HW149203   5.846   3.982   1.088
15748SOL    HW249204   5.723   3.954   0.984
15749SOL     OW49205   5.605   4.092   0.647
15749SOL    HW149206   5.523   4.135   0.686
15749SOL    HW249207   5.577   4.019   0.584
15750SOL     OW49208   6.155   4.999   1.165
15750SOL    HW149209   6.062   4.992   1.128
15750SOL    HW249210   6.166   5.088   1.209
15751SOL     OW49211   7.141   5.235   0.703
15751SOL    HW149212   7.084   5.219   0.784
15751SOL    HW249213   7.082   5.245   0.623
15752SOL     OW49214   7.329   4.342   0.856
15752SOL    HW149215   7.362   4.436   0.856
15752SOL    HW249216   7.380   4.288   0.922
15753SOL     OW49217   6.721   4.427   0.717
15753SOL    HW149218   6.778   4.505   0.692
15753SOL    HW249219   6.661   4.453   0.793
15754SOL     OW49220   7.341   4.331   0.231
15754SOL    HW149221   7.329   4.318   0.132
15754SOL    HW249222   7.311   4.250   0.280
15755SOL     OW49223   6.354   4.868   1.023
15755SOL    HW149224   6.276   4.885   1.083
15755SOL    HW249225   6.388   4.955   0.987
15756SOL     OW49226   6.436   4.522   1.823
15756SOL    HW149227   6.432   4.598   1.888
15756SOL    HW249228   6.458   4.558   1.732
15757SOL     OW49229   6.271   4.736   0.665
15757SOL    HW149230   6.340   4.720   0.735
15757SOL    HW249231   6.198   4.793   0.703
15758SOL     OW49232   5.921   5.159   1.061
15758SOL    HW149233   5.843   5.128   1.008
15758SOL    HW249234   5.979   5.217   1.004
15759SOL     OW49235   7.046   5.229   1.339
15759SOL    HW149236   7.070   5.323   1.365
15759SOL    HW249237   7.030   5.175   1.421
15760SOL     OW49238   6.024   4.116   1.499
15760SOL    HW149239   6.106   4.060   1.508
15760SOL    HW249240   5.943   4.058   1.503
15761SOL     OW49241   7.189   4.171   0.737
15761SOL    HW149242   7.115   4.217   0.687
15761SOL    HW249243   7.240   4.239   0.790
15762SOL     OW49244   5.817   5.437   0.483
15762SOL    HW149245   5.851   5.514   0.537
15762SOL    HW249246   5.861   5.437   0.393
15763SOL     OW49247   5.816   5.158   0.538
15763SOL    HW149248   5.790   5.254   0.538
15763SOL    HW249249   5.745   5.104   0.583
15764SOL     OW49250   5.826   4.815   0.886
15764SOL    HW149251   5.840   4.731   0.938
15764SOL    HW249252   5.771   4.879   0.941
15765SOL     OW49253   6.206   5.510   1.439
15765SOL    HW149254   6.114   5.493   1.474
15765SOL    HW249255   6.234   5.602   1.465
15766SOL     OW49256   6.192   4.688   0.123
15766SOL    HW149257   6.199   4.772   0.069
15766SOL    HW249258   6.238   4.701   0.211
15767SOL     OW49259   5.708   4.367   0.563
15767SOL    HW149260   5.663   4.279   0.580
15767SOL    HW249261   5.707   4.421   0.647
15768SOL     OW49262   7.428   5.491   0.359
15768SOL    HW149263   7.482   5.462   0.439
15768SOL    HW249264   7.458   5.581   0.330
15769SOL     OW49265   7.275   4.646   0.612
15769SOL    HW149266   7.370   4.617   0.620
15769SOL    HW249267   7.267   4.711   0.537
15770SOL     OW49268   7.227   4.832   0.432
15770SOL    HW149269   7.313   4.834   0.380
15770SOL    HW249270   7.241   4.879   0.520
15771SOL     OW49271   6.199   5.089   0.726
15771SOL    HW149272   6.150   5.002   0.735
15771SOL    HW249273   6.176   5.132   0.639
15772SOL     OW49274   6.879   4.952   1.423
15772SOL    HW149275   6.916   4.879   1.365
15772SOL    HW249276   6.931   4.957   1.508
15773SOL     OW49277   6.395   3.728   0.502
15773SOL    HW149278   6.435   3.819   0.493
15773SOL    HW249279   6.295   3.736   0.508
15774SOL     OW49280   5.783   4.700   1.264
15774SOL    HW149281   5.872   4.655   1.250
15774SOL    HW249282   5.710   4.635   1.245
15775SOL     OW49283   7.111   4.723   0.190
15775SOL    HW149284   7.048   4.647   0.203
15775SOL    HW249285   7.159   4.741   0.276
15776SOL     OW49286   6.773   5.516   1.616
15776SOL    HW149287   6.797   5.576   1.540
15776SOL    HW249288   6.780   5.421   1.586
15777SOL     OW49289   5.903   3.975   1.801
15777SOL    HW149290   5.974   4.046   1.807
15777SOL    HW249291   5.815   4.014   1.829
15778SOL     OW49292   7.052   5.141   0.953
15778SOL    HW149293   6.993   5.147   1.033
15778SOL    HW249294   7.037   5.053   0.907
15779SOL     OW49295   7.253   5.438   0.572
15779SOL    HW149296   7.212   5.415   0.484
15779SOL    HW249297   7.235   5.364   0.637
15780SOL     OW49298   6.184   4.453   0.270
15780SOL    HW149299   6.208   4.522   0.202
15780SOL    HW249300   6.106   4.486   0.324
15781SOL     OW49301   6.867   4.069   0.944
15781SOL    HW149302   6.781   4.019   0.931
15781SOL    HW249303   6.929   4.015   1.000
15782SOL     OW49304   7.162   5.386   0.307
15782SOL    HW149305   7.251   5.432   0.310
15782SOL    HW249306   7.141   5.362   0.212
15783SOL     OW49307   6.393   4.329   1.465
15783SOL    HW149308   6.346   4.326   1.554
15783SOL    HW249309   6.342   4.274   1.399
15784SOL     OW49310   6.980   4.193   1.674
15784SOL    HW149311   6.960   4.236   1.762
15784SOL    HW249312   7.058   4.131   1.683
15785SOL     OW49313   6.559   4.614   1.572
15785SOL    HW149314   6.605   4.530   1.543
15785SOL    HW249315   6.503   4.648   1.497
15786SOL     OW49316   6.577   4.134   1.242
15786SOL    HW149317   6.500   4.168   1.296
15786SOL    HW249318   6.543   4.083   1.163
15787SOL     OW49319   6.627   4.425   0.429
15787SOL    HW149320   6.653   4.421   0.525
15787SOL    HW249321   6.542   4.374   0.415
15788SOL     OW49322   5.662   4.535   0.789
15788SOL    HW149323   5.761   4.523   0.798
15788SOL    HW249324   5.638   4.630   0.810
15789SOL     OW49325   5.716   5.545   1.571
15789SOL    HW149326   5.706   5.530   1.670
15789SOL    HW249327   5.630   5.581   1.535
15790SOL     OW49328   6.451   4.072   0.195
15790SOL    HW149329   6.510   4.135   0.146
15790SOL    HW249330   6.470   3.978   0.166
15791SOL     OW49331   7.305   4.309   1.831
15791SOL    HW149332   7.279   4.398   1.795
15791SOL    HW249333   7.303   4.241   1.758
15792SOL     OW49334   6.948   4.868   0.545
15792SOL    HW149335   7.031   4.839   0.497
15792SOL    HW249336   6.899   4.935   0.489
15793SOL     OW49337   6.136   3.920   0.885
15793SOL    HW149338   6.131   3.915   0.985
15793SOL    HW249339   6.138   4.016   0.856
15794SOL     OW49340   6.594   5.180   0.477
15794SOL    HW149341   6.548   5.252   0.425
15794SOL    HW249342   6.590   5.200   0.575
15795SOL     OW49343   5.937   5.525   0.853
15795SOL    HW149344   5.987   5.439   0.859
15795SOL    HW249345   6.002   5.602   0.850
15796SOL     OW49346   7.381   4.790   0.873
15796SOL    HW149347   7.319   4.775   0.797
15796SOL    HW249348   7.329   4.801   0.958
15797SOL     OW49349   6.813   5.274   1.506
15797SOL    HW149350   6.819   5.197   1.570
15797SOL    HW249351   6.761   5.248   1.426
15798SOL     OW49352   5.907   4.667   0.242
15798SOL    HW149353   5.989   4.706   0.200
15798SOL    HW249354   5.880   4.585   0.193
15799SOL     OW49355   7.044   4.459   0.728
15799SOL    HW149356   7.039   4.394   0.803
15799SOL    HW249357   7.124   4.518   0.741
15800SOL     OW49358   6.697   5.500   0.237
15800SOL    HW149359   6.637   5.438   0.287
15800SOL    HW249360   6.728   5.456   0.152
15801SOL     OW49361   5.788   4.009   1.498
15801SOL    HW149362   5.708   4.069   1.485
15801SOL    HW249363   5.778   3.960   1.584
15802SOL     OW49364   7.218   5.101   0.081
15802SOL    HW149365   7.186   5.195   0.071
15802SOL    HW249366   7.142   5.038   0.069
15803SOL     OW49367   6.050   5.467   0.323
15803SOL    HW149368   6.083   5.506   0.409
15803SOL    HW249369   6.126   5.460   0.258
15804SOL     OW49370   6.986   3.831   0.426
15804SOL    HW149371   6.962   3.794   0.336
15804SOL    HW249372   7.085   3.847   0.430
15805SOL     OW49373   5.835   5.509   1.241
15805SOL    HW149374   5.892   5.444   1.291
15805SOL    HW249375   5.819   5.476   1.148
15806SOL     OW49376   6.526   5.422   0.904
15806SOL    HW149377   6.606   5.365   0.925
15806SOL    HW249378   6.477   5.382   0.827
15807SOL     OW49379   5.968   4.424   0.480
15807SOL    HW149380   6.013   4.334   0.477
15807SOL    HW249381   5.874   4.413   0.513
15808SOL     OW49382   6.200   3.846   0.117
15808SOL    HW149383   6.298   3.824   0.124
15808SOL    HW249384   6.169   3.829   0.024
15809SOL     OW49385   6.367   3.988   1.749
15809SOL    HW149386   6.434   3.927   1.792
15809SOL    HW249387   6.294   4.007   1.814
15810SOL     OW49388   6.474   5.238   1.195
15810SOL    HW149389   6.451   5.213   1.101
15810SOL    HW249390   6.535   5.169   1.234
15811SOL     OW49391   6.937   4.314   1.433
15811SOL    HW149392   6.965   4.271   1.518
15811SOL    HW249393   6.962   4.410   1.434
15812SOL     OW49394   6.389   5.126   0.924
15812SOL    HW149395   6.479   5.140   0.882
15812SOL    HW249396   6.318   5.128   0.853
15813SOL     OW49397   6.508   4.227   0.899
15813SOL    HW149398   6.483   4.218   0.803
15813SOL    HW249399   6.556   4.145   0.930
15814SOL     OW49400   6.125   3.788   0.512
15814SOL    HW149401   6.044   3.789   0.570
15814SOL    HW249402   6.128   3.871   0.457
15815SOL     OW49403   7.020   4.912   0.041
15815SOL    HW149404   7.052   4.836   0.098
15815SOL    HW249405   6.928   4.939   0.071
15816SOL     OW49406   5.883   3.759   0.171
15816SOL    HW149407   5.932   3.843   0.150
15816SOL    HW249408   5.945   3.694   0.216
15817SOL     OW49409   6.521   3.960   0.480
15817SOL    HW149410   6.473   4.001   0.402
15817SOL    HW249411   6.620   3.958   0.461
15818SOL     OW49412   6.662   4.407   1.464
15818SOL    HW149413   6.582   4.346   1.467
15818SOL    HW249414   6.743   4.354   1.440
15819SOL     OW49415   6.813   5.294   0.793
15819SOL    HW149416   6.834   5.368   0.728
15819SOL    HW249417   6.881   5.294   0.866
15820SOL     OW49418   6.045   4.876   0.741
15820SOL    HW149419   5.974   4.849   0.806
15820SOL    HW249420   6.019   4.848   0.648
15821SOL     OW49421   6.857   5.521   0.591
15821SOL    HW149422   6.901   5.585   0.527
15821SOL    HW249423   6.807   5.573   0.661
15822SOL     OW49424   6.618   4.273   0.016
15822SOL    HW149425   6.577   4.355  -0.023
15822SOL    HW249426   6.682   4.299   0.089
15823SOL     OW49427   5.664   4.280   1.386
15823SOL    HW149428   5.756   4.279   1.345
15823SOL    HW249429   5.658   4.354   1.453
15824SOL     OW49430   6.147   3.946   1.147
15824SOL    HW149431   6.185   3.862   1.184
15824SOL    HW249432   6.059   3.965   1.191
15825SOL     OW49433   6.452   4.178   0.642
15825SOL    HW149434   6.420   4.250   0.580
15825SOL    HW249435   6.476   4.097   0.589
15826SOL     OW49436   6.603   3.763   0.753
15826SOL    HW149437   6.531   3.768   0.684
15826SOL    HW249438   6.579   3.694   0.822
15827SOL     OW49439   7.015   4.897   0.867
15827SOL    HW149440   6.960   4.813   0.860
15827SOL    HW249441   7.041   4.926   0.775
15828SOL     OW49442   7.052   4.314   0.992
15828SOL    HW149443   7.022   4.219   0.999
15828SOL    HW249444   7.125   4.330   1.058
15829SOL     OW49445   7.443   4.557   0.377
15829SOL    HW149446   7.485   4.493   0.441
15829SOL    HW249447   7.405   4.506   0.299
15830SOL     OW49448   6.074   5.109   0.174
15830SOL    HW149449   5.987   5.094   0.221
15830SOL    HW249450   6.057   5.135   0.079
15831SOL     OW49451   7.250   5.004   0.657
15831SOL    HW149452   7.349   5.012   0.671
15831SOL    HW249453   7.205   5.088   0.688
15832SOL     OW49454   6.976   4.299   0.078
15832SOL    HW149455   6.922   4.278   0.159
15832SOL    HW249456   7.067   4.258   0.087
15833SOL     OW49457   6.113   3.980   0.328
15833SOL    HW149458   6.140   3.921   0.253
15833SOL    HW249459   6.113   4.075   0.297
15834SOL     OW49460   7.340   4.947   1.588
15834SOL    HW149461   7.431   4.908   1.575
15834SOL    HW249462   7.348   5.043   1.612
15835SOL     OW49463   6.650   5.071   1.340
15835SOL    HW149464   6.570   5.048   1.395
15835SOL    HW249465   6.733   5.045   1.389
15836SOL     OW49466   7.178   5.353   1.625
15836SOL    HW149467   7.205   5.387   1.535
15836SOL    HW249468   7.257   5.315   1.671
15837SOL     OW49469   6.697   4.919   1.100
15837SOL    HW149470   6.657   4.963   1.181
15837SOL    HW249471   6.656   4.956   1.017
15838SOL     OW49472   7.224   4.823   1.079
15838SOL    HW149473   7.229   4.904   1.138
15838SOL    HW249474   7.138   4.825   1.028
15839SOL     OW49475   6.501   3.813   1.402
15839SOL    HW149476   6.526   3.793   1.307
15839SOL    HW249477   6.573   3.869   1.444
15840SOL     OW49478   6.291   4.774   0.368
15840SOL    HW149479   6.277   4.781   0.467
15840SOL    HW249480   6.375   4.723   0.350
15841SOL     OW49481   5.996   4.537   1.251
15841SOL    HW149482   6.082   4.549   1.301
15841SOL    HW249483   5.954   4.450   1.278
15842SOL     OW49484   6.860   4.110   1.262
15842SOL    HW149485   6.881   4.184   1.326
15842SOL    HW249486   6.771   4.127   1.219
15843SOL     OW49487   5.650   5.288   1.331
15843SOL    HW149488   5.604   5.370   1.297
15843SOL    HW249489   5.748   5.307   1.340
15844SOL     OW49490   5.953   4.824   0.501
15844SOL    HW149491   5.946   4.907   0.445
15844SOL    HW249492   5.957   4.744   0.441
15845SOL     OW49493   6.152   4.261   0.865
15845SOL    HW149494   6.164   4.327   0.791
15845SOL    HW249495   6.198   4.295   0.948
15846SOL     OW49496   6.838   5.072   0.388
15846SOL    HW149497   6.888   5.149   0.428
15846SOL    HW249498   6.743   5.074   0.420
15847SOL     OW49499   6.858   5.169   1.142
15847SOL    HW149500   6.905   5.182   1.229
15847SOL    HW249501   6.792   5.095   1.151
15848SOL     OW49502   7.168   4.363   0.472
15848SOL    HW149503   7.137   4.424   0.545
15848SOL    HW249504   7.218   4.415   0.403
15849SOL     OW49505   5.988   4.475   1.598
15849SOL    HW149506   6.056   4.530   1.551
15849SOL    HW249507   6.028   4.387   1.625
15850SOL     OW49508   7.173   4.503   1.670
15850SOL    HW149509   7.081   4.541   1.665
15850SOL    HW249510   7.233   4.550   1.605
15851SOL     OW49511   6.599   3.829   1.770
15851SOL    HW149512   6.605   3.914   1.718
15851SOL    HW249513   6.631   3.753   1.713
15852SOL     OW49514   6.090   3.774   1.740
15852SOL    HW149515   6.048   3.717   1.670
15852SOL    HW249516   6.024   3.843   1.772
15853SOL     OW49517   6.159   4.594   1.029
15853SOL    HW149518   6.203   4.683   1.020
15853SOL    HW249519   6.096   4.594   1.106
15854SOL     OW49520   6.946   4.586   1.045
15854SOL    HW149521   6.871   4.586   0.979
15854SOL    HW249522   6.983   4.494   1.054
15855SOL     OW49523   6.795   4.249   0.275
15855SOL    HW149524   6.808   4.165   0.329
15855SOL    HW249525   6.766   4.323   0.335
15856SOL     OW49526   5.893   3.937   1.231
15856SOL    HW149527   5.870   3.974   1.321
15856SOL    HW249528   5.863   3.842   1.225
15857SOL     OW49529   5.623   5.034   1.282
15857SOL    HW149530   5.676   4.985   1.350
15857SOL    HW249531   5.645   5.132   1.287
15858SOL     OW49532   6.318   4.358   1.064
15858SOL    HW149533   6.377   4.332   0.988
15858SOL    HW249534   6.290   4.454   1.053
15859SOL     OW49535   7.314   4.659   1.854
15859SOL    HW149536   7.268   4.652   1.765
15859SOL    HW249537   7.252   4.703   1.920
15860SOL     OW49538   5.893   3.787   0.618
15860SOL    HW149539   5.882   3.881   0.651
15860SOL    HW249540   5.888   3.724   0.695
15861SOL     OW49541   7.208   4.091   0.374
15861SOL    HW149542   7.210   4.015   0.438
15861SOL    HW249543   7.160   4.168   0.414
15862SOL     OW49544   6.609   4.490   0.966
15862SOL    HW149545   6.624   4.511   1.062
15862SOL    HW249546   6.579   4.395   0.957
15863SOL     OW49547   6.566   5.297   1.700
15863SOL    HW149548   6.546   5.341   1.612
15863SOL    HW249549   6.605   5.206   1.684
15864SOL     OW49550   7.445   5.242   1.605
15864SOL    HW149551   7.459   5.269   1.510
15864SOL    HW249552   7.528   5.264   1.658
15865SOL     OW49553   5.936   4.622   1.804
15865SOL    HW149554   6.012   4.666   1.852
15865SOL    HW249555   5.971   4.575   1.722
15866SOL     OW49556   7.126   3.998   0.125
15866SOL    HW149557   7.065   3.923   0.148
15866SOL    HW249558   7.148   4.050   0.208
15867SOL     OW49559   6.889   4.562   0.042
15867SOL    HW149560   6.923   4.469   0.057
15867SOL    HW249561   6.907   4.589  -0.053
15868SOL     OW49562   6.654   5.057   0.849
15868SOL    HW149563   6.661   4.973   0.794
15868SOL    HW249564   6.716   5.126   0.813
15869SOL     OW49565   5.905   4.534   0.949
15869SOL    HW149566   5.998   4.570   0.954
15869SOL    HW249567   5.899   4.449   1.001
15870SOL     OW49568   5.925   4.233   1.006
15870SOL    HW149569   5.873   4.150   0.989
15870SOL    HW249570   6.002   4.238   0.942
15871SOL     OW49571   6.097   4.139   1.808
15871SOL    HW149572   6.079   4.184   1.896
15871SOL    HW249573   6.139   4.204   1.745
15872SOL     OW49574   6.724   4.104   1.678
15872SOL    HW149575   6.679   4.167   1.742
15872SOL    HW249576   6.817   4.135   1.661
15873SOL     OW49577   6.746   3.931   1.477
15873SOL    HW149578   6.746   3.995   1.554
15873SOL    HW249579   6.774   3.979   1.394
15874SOL     OW49580   5.594   5.050   0.200
15874SOL    HW149581   5.501   5.071   0.169
15874SOL    HW249582   5.604   4.951   0.213
15875SOL     OW49583   5.674   5.525   0.927
15875SOL    HW149584   5.632   5.439   0.900
15875SOL    HW249585   5.768   5.528   0.893
15876SOL     OW49586   6.090   5.292   0.910
15876SOL    HW149587   6.156   5.366   0.919
15876SOL    HW249588   6.134   5.213   0.868
15877SOL     OW49589   6.588   4.520   1.238
15877SOL    HW149590   6.629   4.488   1.324
15877SOL    HW249591   6.492   4.493   1.235
15878SOL     OW49592   5.626   4.268   1.114
15878SOL    HW149593   5.711   4.235   1.073
15878SOL    HW249594   5.639   4.283   1.212
15879SOL     OW49595   6.955   4.674   1.660
15879SOL    HW149596   6.994   4.763   1.680
15879SOL    HW249597   6.965   4.654   1.563
15880SOL     OW49598   6.401   4.296   0.325
15880SOL    HW149599   6.408   4.207   0.279
15880SOL    HW249600   6.307   4.330   0.317
15881SOL     OW49601   7.243   4.328   1.206
15881SOL    HW149602   7.205   4.259   1.268
15881SOL    HW249603   7.325   4.292   1.162
15882SOL     OW49604   6.257   4.188   1.269
15882SOL    HW149605   6.223   4.099   1.239
15882SOL    HW249606   6.283   4.242   1.189
15883SOL     OW49607   6.516   5.402   1.465
15883SOL    HW149608   6.492   5.384   1.370
15883SOL    HW249609   6.546   5.496   1.475
15884SOL     OW49610   6.059   4.224   0.191
15884SOL    HW149611   6.120   4.304   0.195
15884SOL    HW249612   5.964   4.255   0.198
15885SOL     OW49613   6.933   4.783   1.234
15885SOL    HW149614   6.957   4.720   1.160
15885SOL    HW249615   6.843   4.823   1.216
15886SOL     OW49616   6.888   4.579   0.309
15886SOL    HW149617   6.802   4.548   0.351
15886SOL    HW249618   6.884   4.565   0.210
15887SOL     OW49619   7.345   5.471   1.154
15887SOL    HW149620   7.406   5.501   1.081
15887SOL    HW249621   7.307   5.382   1.132
15888SOL     OW49622   6.838   5.455   1.128
15888SOL    HW149623   6.922   5.460   1.074
15888SOL    HW249624   6.815   5.359   1.146
15889SOL     OW49625   5.669   4.982   1.022
15889SOL    HW149626   5.664   4.981   1.122
15889SOL    HW249627   5.586   4.941   0.984
15890SOL     OW49628   6.274   5.386   1.716
15890SOL    HW149629   6.218   5.467   1.725
15890SOL    HW249630   6.326   5.390   1.630
15891SOL     OW49631   6.489   3.810   0.133
15891SOL    HW149632   6.540   3.811   0.047
15891SOL    HW249633   6.545   3.768   0.204
15892SOL     OW49634   7.312   3.859   0.523
15892SOL    HW149635   7.385   3.842   0.456
15892SOL    HW249636   7.281   3.772   0.561
15893SOL     OW49637   6.974   5.297   0.477
15893SOL    HW149638   7.041   5.309   0.403
15893SOL    HW249639   6.934   5.386   0.500
15894SOL     OW49640   5.716   5.518   1.851
15894SOL    HW149641   5.675   5.444   1.904
15894SOL    HW249642   5.780   5.569   1.909
15895SOL     OW49643   6.866   4.651   0.672
15895SOL    HW149644   6.926   4.570   0.674
15895SOL    HW249645   6.906   4.720   0.612
15896SOL     OW49646   6.416   4.997   1.422
15896SOL    HW149647   6.411   5.030   1.517
15896SOL    HW249648   6.330   5.016   1.376
15897SOL     OW49649   6.258   5.340   0.154
15897SOL    HW149650   6.267   5.350   0.055
15897SOL    HW249651   6.218   5.251   0.175
15898SOL     OW49652   7.236   5.444   1.394
15898SOL    HW149653   7.289   5.454   1.310
15898SOL    HW249654   7.209   5.534   1.428
15899SOL     OW49655   5.849   4.050   0.720
15899SOL    HW149656   5.770   4.101   0.686
15899SOL    HW249657   5.840   4.035   0.818
15900SOL     OW49658   6.780   5.336   0.031
15900SOL    HW149659   6.786   5.243   0.068
15900SOL    HW249660   6.721   5.336  -0.049
15901SOL     OW49661   6.408   4.726   1.372
15901SOL    HW149662   6.448   4.725   1.280
15901SOL    HW249663   6.418   4.818   1.412
15902SOL     OW49664   6.502   4.634   0.291
15902SOL    HW149665   6.565   4.672   0.223
15902SOL    HW249666   6.542   4.551   0.330
15903SOL     OW49667   7.090   5.331   0.044
15903SOL    HW149668   6.998   5.368   0.051
15903SOL    HW249669   7.128   5.351  -0.046
15904SOL     OW49670   7.200   5.016   1.289
15904SOL    HW149671   7.260   5.019   1.369
15904SOL    HW249672   7.125   5.080   1.302
15905SOL     OW49673   6.625   4.822   0.696
15905SOL    HW149674   6.555   4.775   0.750
15905SOL    HW249675   6.684   4.754   0.653
15906SOL     OW49676   6.600   3.960   0.971
15906SOL    HW149677   6.592   3.924   0.878
15906SOL    HW249678   6.598   3.884   1.036
15907SOL     OW49679   6.176   5.211   0.491
15907SOL    HW149680   6.218   5.153   0.421
15907SOL    HW249681   6.132   5.290   0.447
15908SOL     OW49682   7.295   4.109   1.381
15908SOL    HW149683   7.368   4.178   1.385
15908SOL    HW249684   7.323   4.034   1.322
15909SOL     OW49685   5.841   5.072   0.290
15909SOL    HW149686   5.745   5.073   0.263
15909SOL    HW249687   5.853   5.125   0.374
15910SOL     OW49688   6.258   3.927   1.489
15910SOL    HW149689   6.348   3.911   1.449
15910SOL    HW249690   6.266   3.932   1.588
15911SOL     OW49691   7.026   4.580   1.398
15911SOL    HW149692   6.969   4.632   1.335
15911SOL    HW249693   7.122   4.592   1.374
15912SOL     OW49694   5.658   3.890   0.318
15912SOL    HW149695   5.641   3.973   0.264
15912SOL    HW249696   5.748   3.853   0.296
15913SOL     OW49697   6.769   5.059   0.119
15913SOL    HW149698   6.670   5.048   0.121
15913SOL    HW249699   6.803   5.074   0.212
15914SOL     OW49700   6.199   4.566   1.431
15914SOL    HW149701   6.255   4.647   1.414
15914SOL    HW249702   6.258   4.486   1.434
15915SOL     OW49703   7.079   5.491   0.959
15915SOL    HW149704   7.112   5.555   0.890
15915SOL    HW249705   7.145   5.485   1.034
15916SOL     OW49706   6.302   4.289   1.708
15916SOL    HW149707   6.321   4.354   1.782
15916SOL    HW249708   6.362   4.209   1.717
15917SOL     OW49709   7.036   4.944   1.633
15917SOL    HW149710   7.027   4.934   1.732
15917SOL    HW249711   7.132   4.937   1.607
15918SOL     OW49712   5.976   5.465   1.560
15918SOL    HW149713   5.885   5.506   1.558
15918SOL    HW249714   5.969   5.371   1.592
15919SOL     OW49715   7.260   4.607   1.254
15919SOL    HW149716   7.233   4.518   1.217
15919SOL    HW249717   7.261   4.675   1.181
15920SOL     OW49718   6.811   4.049   0.449
15920SOL    HW149719   6.876   3.975   0.438
15920SOL    HW249720   6.831   4.099   0.533
15921SOL     OW49721   6.180   4.469   0.652
15921SOL    HW149722   6.230   4.554   0.633
15921SOL    HW249723   6.092   4.471   0.604
15922SOL     OW49724   7.316   4.658   1.517
15922SOL    HW149725   7.354   4.749   1.532
15922SOL    HW249726   7.308   4.641   1.418
15923SOL     OW49727   6.445   5.098   0.016
15923SOL    HW149728   6.399   5.113   0.104
15923SOL    HW249729   6.489   5.183  -0.014
15924SOL     OW49730   6.247   5.514   0.953
15924SOL    HW149731   6.201   5.602   0.940
15924SOL    HW249732   6.346   5.526   0.946
15925SOL     OW49733   6.994   5.575   1.720
15925SOL    HW149734   6.898   5.564   1.693
15925SOL    HW249735   7.050   5.508   1.672
15926SOL     OW49736   6.445   4.680   0.861
15926SOL    HW149737   6.499   4.611   0.909
15926SOL    HW249738   6.413   4.749   0.927
15927SOL     OW49739   6.669   4.708   0.087
15927SOL    HW149740   6.646   4.761   0.005
15927SOL    HW249741   6.750   4.652   0.068
15928SOL     OW49742   7.447   5.293   0.851
15928SOL    HW149743   7.376   5.281   0.781
15928SOL    HW249744   7.448   5.214   0.911
15929SOL     OW49745   5.665   4.964   0.653
15929SOL    HW149746   5.664   4.917   0.741
15929SOL    HW249747   5.747   4.936   0.602
15930SOL     OW49748   6.258   5.115   1.624
15930SOL    HW149749   6.180   5.065   1.662
15930SOL    HW249750   6.255   5.210   1.655
15931SOL     OW49751   7.410   3.916   1.227
15931SOL    HW149752   7.406   3.826   1.271
15931SOL    HW249753   7.413   3.905   1.128
15932SOL     OW49754   6.014   4.148   0.520
15932SOL    HW149755   6.044   4.076   0.458
15932SOL    HW249756   5.975   4.108   0.603
15933SOL     OW49757   7.291   5.211   1.104
15933SOL    HW149758   7.198   5.186   1.077
15933SOL    HW249759   7.317   5.161   1.186
15934SOL     OW49760   5.903   4.271   1.280
15934SOL    HW149761   5.941   4.212   1.352
15934SOL    HW249762   5.943   4.245   1.192
15935SOL     OW49763   6.398   5.310   0.687
15935SOL    HW149764   6.430   5.320   0.593
15935SOL    HW249765   6.319   5.248   0.689
15936SOL     OW49766   7.010   3.938   1.112
15936SOL    HW149767   7.062   3.873   1.167
15936SOL    HW249768   6.961   4.001   1.173
15937SOL     OW49769   6.587   3.758   1.154
15937SOL    HW149770   6.524   3.686   1.123
15937SOL    HW249771   6.680   3.722   1.154
15938SOL     OW49772   6.356   5.054   0.301
15938SOL    HW149773   6.310   4.967   0.318
15938SOL    HW249774   6.447   5.051   0.342
15939SOL     OW49775   6.204   5.291   1.284
15939SOL    HW149776   6.199   5.373   1.341
15939SOL    HW249777   6.293   5.288   1.239
15940SOL     OW49778   6.886   4.177   0.691
15940SOL    HW149779   6.827   4.257   0.695
15940SOL    HW249780   6.901   4.142   0.784
15941SOL     OW49781   7.179   3.945   0.882
15941SOL    HW149782   7.095   3.944   0.936
15941SOL    HW249783   7.181   4.028   0.826
15942SOL     OW49784   5.625   4.801   0.300
15942SOL    HW149785   5.724   4.790   0.291
15942SOL    HW249786   5.585   4.715   0.332
15943SOL     OW49787   6.461   5.370   0.337
15943SOL    HW149788   6.384   5.335   0.283
15943SOL    HW249789   6.429   5.441   0.399
15944SOL     OW49790   5.605   4.092   2.509
15944SOL    HW149791   5.523   4.135   2.548
15944SOL    HW249792   5.577   4.019   2.446
15945SOL     OW49793   6.155   4.999   3.027
15945SOL    HW149794   6.062   4.992   2.990
15945SOL    HW249795   6.166   5.088   3.071
15946SOL     OW49796   7.141   5.235   2.565
15946SOL    HW149797   7.084   5.219   2.646
15946SOL    HW249798   7.082   5.245   2.485
15947SOL     OW49799   7.329   4.342   2.718
15947SOL    HW149800   7.362   4.436   2.718
15947SOL    HW249801   7.380   4.288   2.784
15948SOL     OW49802   6.721   4.427   2.579
15948SOL    HW149803   6.778   4.505   2.554
15948SOL    HW249804   6.661   4.453   2.655
15949SOL     OW49805   7.341   4.331   2.093
15949SOL    HW149806   7.329   4.318   1.994
15949SOL    HW249807   7.311   4.250   2.142
15950SOL     OW49808   6.354   4.868   2.885
15950SOL    HW149809   6.276   4.885   2.945
15950SOL    HW249810   6.388   4.955   2.849
15951SOL     OW49811   6.436   4.522   3.685
15951SOL    HW149812   6.432   4.598   3.750
15951SOL    HW249813   6.458   4.558   3.594
15952SOL     OW49814   6.271   4.736   2.527
15952SOL    HW149815   6.340   4.720   2.597
15952SOL    HW249816   6.198   4.793   2.565
15953SOL     OW49817   6.272   4.885   3.665
15953SOL    HW149818   6.332   4.964   3.679
15953SOL    HW249819   6.186   4.916   3.624
15954SOL     OW49820   5.921   5.159   2.923
15954SOL    HW149821   5.843   5.128   2.870
15954SOL    HW249822   5.979   5.217   2.866
15955SOL     OW49823   7.046   5.229   3.201
15955SOL    HW149824   7.070   5.323   3.227
15955SOL    HW249825   7.030   5.175   3.283
15956SOL     OW49826   6.024   4.116   3.361
15956SOL    HW149827   6.106   4.060   3.370
15956SOL    HW249828   5.943   4.058   3.365
15957SOL     OW49829   7.189   4.171   2.599
15957SOL    HW149830   7.115   4.217   2.549
15957SOL    HW249831   7.240   4.239   2.652
15958SOL     OW49832   5.817   5.437   2.345
15958SOL    HW149833   5.851   5.514   2.399
15958SOL    HW249834   5.861   5.437   2.255
15959SOL     OW49835   6.713   5.065   3.552
15959SOL    HW149836   6.760   5.065   3.640
15959SOL    HW249837   6.665   4.978   3.541
15960SOL     OW49838   5.816   5.158   2.400
15960SOL    HW149839   5.790   5.254   2.400
15960SOL    HW249840   5.745   5.104   2.445
15961SOL     OW49841   5.826   4.815   2.748
15961SOL    HW149842   5.840   4.731   2.800
15961SOL    HW249843   5.771   4.879   2.803
15962SOL     OW49844   6.206   5.510   3.301
15962SOL    HW149845   6.114   5.493   3.336
15962SOL    HW249846   6.234   5.602   3.327
15963SOL     OW49847   6.192   4.688   1.985
15963SOL    HW149848   6.199   4.772   1.931
15963SOL    HW249849   6.238   4.701   2.073
15964SOL     OW49850   7.180   3.838   3.342
15964SOL    HW149851   7.162   3.905   3.270
15964SOL    HW249852   7.177   3.884   3.431
15965SOL     OW49853   5.708   4.367   2.425
15965SOL    HW149854   5.663   4.279   2.442
15965SOL    HW249855   5.707   4.421   2.509
15966SOL     OW49856   5.613   5.320   1.979
15966SOL    HW149857   5.594   5.224   2.000
15966SOL    HW249858   5.580   5.378   2.054
15967SOL     OW49859   7.275   4.646   2.474
15967SOL    HW149860   7.370   4.617   2.482
15967SOL    HW249861   7.267   4.711   2.399
15968SOL     OW49862   5.699   4.461   3.459
15968SOL    HW149863   5.787   4.448   3.504
15968SOL    HW249864   5.686   4.558   3.437
15969SOL     OW49865   6.879   4.952   3.285
15969SOL    HW149866   6.916   4.879   3.227
15969SOL    HW249867   6.931   4.957   3.370
15970SOL     OW49868   5.783   4.700   3.126
15970SOL    HW149869   5.872   4.655   3.112
15970SOL    HW249870   5.710   4.635   3.107
15971SOL     OW49871   7.111   4.723   2.052
15971SOL    HW149872   7.048   4.647   2.065
15971SOL    HW249873   7.159   4.741   2.138
15972SOL     OW49874   6.773   5.516   3.478
15972SOL    HW149875   6.797   5.576   3.402
15972SOL    HW249876   6.780   5.421   3.448
15973SOL     OW49877   5.903   3.975   3.663
15973SOL    HW149878   5.974   4.046   3.669
15973SOL    HW249879   5.815   4.014   3.691
15974SOL     OW49880   7.052   5.141   2.815
15974SOL    HW149881   6.993   5.147   2.895
15974SOL    HW249882   7.037   5.053   2.769
15975SOL     OW49883   6.184   4.453   2.132
15975SOL    HW149884   6.208   4.522   2.064
15975SOL    HW249885   6.106   4.486   2.186
15976SOL     OW49886   6.867   4.069   2.806
15976SOL    HW149887   6.781   4.019   2.793
15976SOL    HW249888   6.929   4.015   2.862
15977SOL     OW49889   6.393   4.329   3.327
15977SOL    HW149890   6.346   4.326   3.416
15977SOL    HW249891   6.342   4.274   3.261
15978SOL     OW49892   6.980   4.193   3.536
15978SOL    HW149893   6.960   4.236   3.624
15978SOL    HW249894   7.058   4.131   3.545
15979SOL     OW49895   6.559   4.614   3.434
15979SOL    HW149896   6.605   4.530   3.405
15979SOL    HW249897   6.503   4.648   3.359
15980SOL     OW49898   6.577   4.134   3.104
15980SOL    HW149899   6.500   4.168   3.158
15980SOL    HW249900   6.543   4.083   3.025
15981SOL     OW49901   6.627   4.425   2.291
15981SOL    HW149902   6.653   4.421   2.387
15981SOL    HW249903   6.542   4.374   2.277
15982SOL     OW49904   5.662   4.535   2.651
15982SOL    HW149905   5.761   4.523   2.660
15982SOL    HW249906   5.638   4.630   2.672
15983SOL     OW49907   5.716   5.545   3.433
15983SOL    HW149908   5.706   5.530   3.532
15983SOL    HW249909   5.630   5.581   3.397
15984SOL     OW49910   7.305   4.309   3.693
15984SOL    HW149911   7.279   4.398   3.657
15984SOL    HW249912   7.303   4.241   3.620
15985SOL     OW49913   5.937   5.525   2.715
15985SOL    HW149914   5.987   5.439   2.721
15985SOL    HW249915   6.002   5.602   2.712
15986SOL     OW49916   7.381   4.790   2.735
15986SOL    HW149917   7.319   4.775   2.659
15986SOL    HW249918   7.329   4.801   2.820
15987SOL     OW49919   6.813   5.274   3.368
15987SOL    HW149920   6.819   5.197   3.432
15987SOL    HW249921   6.761   5.248   3.288
15988SOL     OW49922   7.044   4.459   2.590
15988SOL    HW149923   7.039   4.394   2.665
15988SOL    HW249924   7.124   4.518   2.603
15989SOL     OW49925   6.047   4.990   3.589
15989SOL    HW149926   5.997   4.991   3.503
15989SOL    HW249927   5.984   4.972   3.665
15990SOL     OW49928   5.788   4.009   3.360
15990SOL    HW149929   5.708   4.069   3.347
15990SOL    HW249930   5.778   3.960   3.446
15991SOL     OW49931   7.218   5.101   1.943
15991SOL    HW149932   7.186   5.195   1.933
15991SOL    HW249933   7.142   5.038   1.931
15992SOL     OW49934   6.986   3.831   2.288
15992SOL    HW149935   6.962   3.794   2.198
15992SOL    HW249936   7.085   3.847   2.292
15993SOL     OW49937   5.835   5.509   3.103
15993SOL    HW149938   5.892   5.444   3.153
15993SOL    HW249939   5.819   5.476   3.010
15994SOL     OW49940   5.968   4.424   2.342
15994SOL    HW149941   6.013   4.334   2.339
15994SOL    HW249942   5.874   4.413   2.375
15995SOL     OW49943   7.133   3.946   3.591
15995SOL    HW149944   7.128   3.983   3.683
15995SOL    HW249945   7.061   3.877   3.579
15996SOL     OW49946   6.367   3.988   3.611
15996SOL    HW149947   6.434   3.927   3.654
15996SOL    HW249948   6.294   4.007   3.676
15997SOL     OW49949   6.474   5.238   3.057
15997SOL    HW149950   6.451   5.213   2.963
15997SOL    HW249951   6.535   5.169   3.096
15998SOL     OW49952   6.937   4.314   3.295
15998SOL    HW149953   6.965   4.271   3.380
15998SOL    HW249954   6.962   4.410   3.296
15999SOL     OW49955   6.508   4.227   2.761
15999SOL    HW149956   6.483   4.218   2.665
15999SOL    HW249957   6.556   4.145   2.792
16000SOL     OW49958   7.020   4.912   1.903
16000SOL    HW149959   7.052   4.836   1.960
16000SOL    HW249960   6.928   4.939   1.933
16001SOL     OW49961   6.662   4.407   3.326
16001SOL    HW149962   6.582   4.346   3.329
16001SOL    HW249963   6.743   4.354   3.302
16002SOL     OW49964   6.813   5.294   2.655
16002SOL    HW149965   6.834   5.368   2.590
16002SOL    HW249966   6.881   5.294   2.728
16003SOL     OW49967   6.045   4.876   2.603
16003SOL    HW149968   5.974   4.849   2.668
16003SOL    HW249969   6.019   4.848   2.510
16004SOL     OW49970   6.618   4.273   1.878
16004SOL    HW149971   6.577   4.355   1.839
16004SOL    HW249972   6.682   4.299   1.951
16005SOL     OW49973   5.664   4.280   3.248
16005SOL    HW149974   5.756   4.279   3.207
16005SOL    HW249975   5.658   4.354   3.315
16006SOL     OW49976   6.147   3.946   3.009
16006SOL    HW149977   6.185   3.862   3.046
16006SOL    HW249978   6.059   3.965   3.053
16007SOL     OW49979   6.452   4.178   2.504
16007SOL    HW149980   6.420   4.250   2.442
16007SOL    HW249981   6.476   4.097   2.451
16008SOL     OW49982   6.603   3.763   2.615
16008SOL    HW149983   6.531   3.768   2.546
16008SOL    HW249984   6.579   3.694   2.684
16009SOL     OW49985   7.015   4.897   2.729
16009SOL    HW149986   6.960   4.813   2.722
16009SOL    HW249987   7.041   4.926   2.637
16010SOL     OW49988   7.052   4.314   2.854
16010SOL    HW149989   7.022   4.219   2.861
16010SOL    HW249990   7.125   4.330   2.920
16011SOL     OW49991   7.443   4.557   2.239
16011SOL    HW149992   7.485   4.493   2.303
16011SOL    HW249993   7.405   4.506   2.161
16012SOL     OW49994   6.976   4.299   1.940
16012SOL    HW149995   6.922   4.278   2.021
16012SOL    HW249996   7.067   4.258   1.949
16013SOL     OW49997   6.113   3.980   2.190
16013SOL    HW149998   6.140   3.921   2.115
16013SOL    HW249999   6.113   4.075   2.159
16014SOL     OW50000   7.340   4.947   3.450
16014SOL    HW150001   7.431   4.908   3.437
16014SOL    HW250002   7.348   5.043   3.474
16015SOL     OW50003   6.650   5.071   3.202
16015SOL    HW150004   6.570   5.048   3.257
16015SOL    HW250005   6.733   5.045   3.251
16016SOL     OW50006   7.178   5.353   3.487
16016SOL    HW150007   7.205   5.387   3.397
16016SOL    HW250008   7.257   5.315   3.533
16017SOL     OW50009   6.697   4.919   2.962
16017SOL    HW150010   6.657   4.963   3.043
16017SOL    HW250011   6.656   4.956   2.879
16018SOL     OW50012   7.224   4.823   2.941
16018SOL    HW150013   7.229   4.904   3.000
16018SOL    HW250014   7.138   4.825   2.890
16019SOL     OW50015   6.501   3.813   3.264
16019SOL    HW150016   6.526   3.793   3.169
16019SOL    HW250017   6.573   3.869   3.306
16020SOL     OW50018   6.566   4.840   3.581
16020SOL    HW150019   6.467   4.846   3.591
16020SOL    HW250020   6.589   4.760   3.525
16021SOL     OW50021   6.291   4.774   2.230
16021SOL    HW150022   6.277   4.781   2.329
16021SOL    HW250023   6.375   4.723   2.212
16022SOL     OW50024   5.996   4.537   3.113
16022SOL    HW150025   6.082   4.549   3.163
16022SOL    HW250026   5.954   4.450   3.140
16023SOL     OW50027   6.860   4.110   3.124
16023SOL    HW150028   6.881   4.184   3.188
16023SOL    HW250029   6.771   4.127   3.081
16024SOL     OW50030   5.650   5.288   3.193
16024SOL    HW150031   5.604   5.370   3.159
16024SOL    HW250032   5.748   5.307   3.202
16025SOL     OW50033   6.152   4.261   2.727
16025SOL    HW150034   6.164   4.327   2.653
16025SOL    HW250035   6.198   4.295   2.810
16026SOL     OW50036   6.858   5.169   3.004
16026SOL    HW150037   6.905   5.182   3.091
16026SOL    HW250038   6.792   5.095   3.013
16027SOL     OW50039   7.168   4.363   2.334
16027SOL    HW150040   7.137   4.424   2.407
16027SOL    HW250041   7.218   4.415   2.265
16028SOL     OW50042   5.940   5.234   3.191
16028SOL    HW150043   5.919   5.190   3.104
16028SOL    HW250044   6.037   5.260   3.194
16029SOL     OW50045   5.988   4.475   3.460
16029SOL    HW150046   6.056   4.530   3.413
16029SOL    HW250047   6.028   4.387   3.487
16030SOL     OW50048   7.173   4.503   3.532
16030SOL    HW150049   7.081   4.541   3.527
16030SOL    HW250050   7.233   4.550   3.467
16031SOL     OW50051   6.599   3.829   3.632
16031SOL    HW150052   6.605   3.914   3.580
16031SOL    HW250053   6.631   3.753   3.575
16032SOL     OW50054   6.090   3.774   3.602
16032SOL    HW150055   6.048   3.717   3.532
16032SOL    HW250056   6.024   3.843   3.634
16033SOL     OW50057   6.159   4.594   2.891
16033SOL    HW150058   6.203   4.683   2.882
16033SOL    HW250059   6.096   4.594   2.968
16034SOL     OW50060   6.946   4.586   2.907
16034SOL    HW150061   6.871   4.586   2.841
16034SOL    HW250062   6.983   4.494   2.916
16035SOL     OW50063   6.795   4.249   2.137
16035SOL    HW150064   6.808   4.165   2.191
16035SOL    HW250065   6.766   4.323   2.197
16036SOL     OW50066   5.623   5.034   3.144
16036SOL    HW150067   5.676   4.985   3.212
16036SOL    HW250068   5.645   5.132   3.149
16037SOL     OW50069   6.318   4.358   2.926
16037SOL    HW150070   6.377   4.332   2.850
16037SOL    HW250071   6.290   4.454   2.915
16038SOL     OW50072   5.893   3.787   2.480
16038SOL    HW150073   5.882   3.881   2.513
16038SOL    HW250074   5.888   3.724   2.557
16039SOL     OW50075   7.208   4.091   2.236
16039SOL    HW150076   7.210   4.015   2.300
16039SOL    HW250077   7.160   4.168   2.276
16040SOL     OW50078   6.609   4.490   2.828
16040SOL    HW150079   6.624   4.511   2.924
16040SOL    HW250080   6.579   4.395   2.819
16041SOL     OW50081   6.566   5.297   3.562
16041SOL    HW150082   6.546   5.341   3.474
16041SOL    HW250083   6.605   5.206   3.546
16042SOL     OW50084   7.445   5.242   3.467
16042SOL    HW150085   7.459   5.269   3.372
16042SOL    HW250086   7.528   5.264   3.520
16043SOL     OW50087   5.936   4.622   3.666
16043SOL    HW150088   6.012   4.666   3.714
16043SOL    HW250089   5.971   4.575   3.584
16044SOL     OW50090   7.126   3.998   1.987
16044SOL    HW150091   7.065   3.923   2.010
16044SOL    HW250092   7.148   4.050   2.070
16045SOL     OW50093   6.889   4.562   1.904
16045SOL    HW150094   6.923   4.469   1.919
16045SOL    HW250095   6.907   4.589   1.809
16046SOL     OW50096   5.905   4.534   2.811
16046SOL    HW150097   5.998   4.570   2.816
16046SOL    HW250098   5.899   4.449   2.863
16047SOL     OW50099   5.925   4.233   2.868
16047SOL    HW150100   5.873   4.150   2.851
16047SOL    HW250101   6.002   4.238   2.804
16048SOL     OW50102   6.097   4.139   3.670
16048SOL    HW150103   6.079   4.184   3.758
16048SOL    HW250104   6.139   4.204   3.607
16049SOL     OW50105   6.724   4.104   3.540
16049SOL    HW150106   6.679   4.167   3.604
16049SOL    HW250107   6.817   4.135   3.523
16050SOL     OW50108   6.746   3.931   3.339
16050SOL    HW150109   6.746   3.995   3.416
16050SOL    HW250110   6.774   3.979   3.256
16051SOL     OW50111   5.594   5.050   2.062
16051SOL    HW150112   5.501   5.071   2.031
16051SOL    HW250113   5.604   4.951   2.075
16052SOL     OW50114   5.674   5.525   2.789
16052SOL    HW150115   5.632   5.439   2.762
16052SOL    HW250116   5.768   5.528   2.755
16053SOL     OW50117   6.090   5.292   2.772
16053SOL    HW150118   6.156   5.366   2.781
16053SOL    HW250119   6.134   5.213   2.730
16054SOL     OW50120   6.588   4.520   3.100
16054SOL    HW150121   6.629   4.488   3.186
16054SOL    HW250122   6.492   4.493   3.097
16055SOL     OW50123   5.626   4.268   2.976
16055SOL    HW150124   5.711   4.235   2.935
16055SOL    HW250125   5.639   4.283   3.074
16056SOL     OW50126   5.775   4.244   3.584
16056SOL    HW150127   5.834   4.204   3.514
16056SOL    HW250128   5.717   4.315   3.543
16057SOL     OW50129   6.955   4.674   3.522
16057SOL    HW150130   6.994   4.763   3.542
16057SOL    HW250131   6.965   4.654   3.425
16058SOL     OW50132   6.401   4.296   2.187
16058SOL    HW150133   6.408   4.207   2.141
16058SOL    HW250134   6.307   4.330   2.179
16059SOL     OW50135   7.243   4.328   3.068
16059SOL    HW150136   7.205   4.259   3.130
16059SOL    HW250137   7.325   4.292   3.024
16060SOL     OW50138   5.838   5.288   3.606
16060SOL    HW150139   5.808   5.345   3.682
16060SOL    HW250140   5.831   5.191   3.632
16061SOL     OW50141   6.257   4.188   3.131
16061SOL    HW150142   6.223   4.099   3.101
16061SOL    HW250143   6.283   4.242   3.051
16062SOL     OW50144   6.516   5.402   3.327
16062SOL    HW150145   6.492   5.384   3.232
16062SOL    HW250146   6.546   5.496   3.337
16063SOL     OW50147   6.059   4.224   2.053
16063SOL    HW150148   6.120   4.304   2.057
16063SOL    HW250149   5.964   4.255   2.060
16064SOL     OW50150   5.745   4.861   3.328
16064SOL    HW150151   5.767   4.800   3.404
16064SOL    HW250152   5.755   4.812   3.242
16065SOL     OW50153   6.933   4.783   3.096
16065SOL    HW150154   6.957   4.720   3.022
16065SOL    HW250155   6.843   4.823   3.078
16066SOL     OW50156   6.888   4.579   2.171
16066SOL    HW150157   6.802   4.548   2.213
16066SOL    HW250158   6.884   4.565   2.072
16067SOL     OW50159   6.838   5.455   2.990
16067SOL    HW150160   6.922   5.460   2.936
16067SOL    HW250161   6.815   5.359   3.008
16068SOL     OW50162   5.669   4.982   2.884
16068SOL    HW150163   5.664   4.981   2.984
16068SOL    HW250164   5.586   4.941   2.846
16069SOL     OW50165   6.274   5.386   3.578
16069SOL    HW150166   6.218   5.467   3.587
16069SOL    HW250167   6.326   5.390   3.492
16070SOL     OW50168   7.312   3.859   2.385
16070SOL    HW150169   7.385   3.842   2.318
16070SOL    HW250170   7.281   3.772   2.423
16071SOL     OW50171   5.716   5.518   3.713
16071SOL    HW150172   5.675   5.444   3.766
16071SOL    HW250173   5.780   5.569   3.771
16072SOL     OW50174   6.866   4.651   2.534
16072SOL    HW150175   6.926   4.570   2.536
16072SOL    HW250176   6.906   4.720   2.474
16073SOL     OW50177   6.416   4.997   3.284
16073SOL    HW150178   6.411   5.030   3.379
16073SOL    HW250179   6.330   5.016   3.238
16074SOL     OW50180   7.427   3.899   2.825
16074SOL    HW150181   7.466   3.814   2.789
16074SOL    HW250182   7.329   3.901   2.806
16075SOL     OW50183   5.849   4.050   2.582
16075SOL    HW150184   5.770   4.101   2.548
16075SOL    HW250185   5.840   4.035   2.680
16076SOL     OW50186   6.780   5.336   1.893
16076SOL    HW150187   6.786   5.243   1.930
16076SOL    HW250188   6.721   5.336   1.813
16077SOL     OW50189   6.408   4.726   3.234
16077SOL    HW150190   6.448   4.725   3.142
16077SOL    HW250191   6.418   4.818   3.274
16078SOL     OW50192   6.502   4.634   2.153
16078SOL    HW150193   6.565   4.672   2.085
16078SOL    HW250194   6.542   4.551   2.192
16079SOL     OW50195   7.090   5.331   1.906
16079SOL    HW150196   6.998   5.368   1.913
16079SOL    HW250197   7.128   5.351   1.816
16080SOL     OW50198   5.958   5.012   3.352
16080SOL    HW150199   5.945   5.105   3.318
16080SOL    HW250200   5.874   4.960   3.339
16081SOL     OW50201   7.200   5.016   3.151
16081SOL    HW150202   7.260   5.019   3.231
16081SOL    HW250203   7.125   5.080   3.164
16082SOL     OW50204   6.625   4.822   2.558
16082SOL    HW150205   6.555   4.775   2.612
16082SOL    HW250206   6.684   4.754   2.515
16083SOL     OW50207   6.600   3.960   2.833
16083SOL    HW150208   6.592   3.924   2.740
16083SOL    HW250209   6.598   3.884   2.898
16084SOL     OW50210   7.295   4.109   3.243
16084SOL    HW150211   7.368   4.178   3.247
16084SOL    HW250212   7.323   4.034   3.184
16085SOL     OW50213   5.841   5.072   2.152
16085SOL    HW150214   5.745   5.073   2.125
16085SOL    HW250215   5.853   5.125   2.236
16086SOL     OW50216   5.691   4.737   3.588
16086SOL    HW150217   5.614   4.704   3.642
16086SOL    HW250218   5.776   4.707   3.630
16087SOL     OW50219   6.258   3.927   3.351
16087SOL    HW150220   6.348   3.911   3.311
16087SOL    HW250221   6.266   3.932   3.450
16088SOL     OW50222   5.661   4.069   1.895
16088SOL    HW150223   5.569   4.041   1.866
16088SOL    HW250224   5.692   4.146   1.839
16089SOL     OW50225   7.026   4.580   3.260
16089SOL    HW150226   6.969   4.632   3.197
16089SOL    HW250227   7.122   4.592   3.236
16090SOL     OW50228   5.658   3.890   2.180
16090SOL    HW150229   5.641   3.973   2.126
16090SOL    HW250230   5.748   3.853   2.158
16091SOL     OW50231   6.199   4.566   3.293
16091SOL    HW150232   6.255   4.647   3.276
16091SOL    HW250233   6.258   4.486   3.296
16092SOL     OW50234   7.079   5.491   2.821
16092SOL    HW150235   7.112   5.555   2.752
16092SOL    HW250236   7.145   5.485   2.896
16093SOL     OW50237   6.302   4.289   3.570
16093SOL    HW150238   6.321   4.354   3.644
16093SOL    HW250239   6.362   4.209   3.579
16094SOL     OW50240   7.036   4.944   3.495
16094SOL    HW150241   7.027   4.934   3.594
16094SOL    HW250242   7.132   4.937   3.469
16095SOL     OW50243   5.976   5.465   3.422
16095SOL    HW150244   5.885   5.506   3.420
16095SOL    HW250245   5.969   5.371   3.454
16096SOL     OW50246   7.260   4.607   3.116
16096SOL    HW150247   7.233   4.518   3.079
16096SOL    HW250248   7.261   4.675   3.043
16097SOL     OW50249   6.811   4.049   2.311
16097SOL    HW150250   6.876   3.975   2.300
16097SOL    HW250251   6.831   4.099   2.395
16098SOL     OW50252   6.180   4.469   2.514
16098SOL    HW150253   6.230   4.554   2.495
16098SOL    HW250254   6.092   4.471   2.466
16099SOL     OW50255   7.363   4.066   3.504
16099SOL    HW150256   7.346   4.097   3.410
16099SOL    HW250257   7.279   4.029   3.542
16100SOL     OW50258   7.316   4.658   3.379
16100SOL    HW150259   7.354   4.749   3.394
16100SOL    HW250260   7.308   4.641   3.280
16101SOL     OW50261   6.247   5.514   2.815
16101SOL    HW150262   6.201   5.602   2.802
16101SOL    HW250263   6.346   5.526   2.808
16102SOL     OW50264   6.994   5.575   3.582
16102SOL    HW150265   6.898   5.564   3.555
16102SOL    HW250266   7.050   5.508   3.534
16103SOL     OW50267   6.445   4.680   2.723
16103SOL    HW150268   6.499   4.611   2.771
16103SOL    HW250269   6.413   4.749   2.789
16104SOL     OW50270   5.807   5.038   3.706
16104SOL    HW150271   5.742   4.965   3.685
16104SOL    HW250272   5.811   5.052   3.804
16105SOL     OW50273   5.665   4.964   2.515
16105SOL    HW150274   5.664   4.917   2.603
16105SOL    HW250275   5.747   4.936   2.464
16106SOL     OW50276   6.258   5.115   3.486
16106SOL    HW150277   6.180   5.065   3.524
16106SOL    HW250278   6.255   5.210   3.517
16107SOL     OW50279   7.410   3.916   3.089
16107SOL    HW150280   7.406   3.826   3.133
16107SOL    HW250281   7.413   3.905   2.990
16108SOL     OW50282   6.014   4.148   2.382
16108SOL    HW150283   6.044   4.076   2.320
16108SOL    HW250284   5.975   4.108   2.465
16109SOL     OW50285   7.291   5.211   2.966
16109SOL    HW150286   7.198   5.186   2.939
16109SOL    HW250287   7.317   5.161   3.048
16110SOL     OW50288   5.903   4.271   3.142
16110SOL    HW150289   5.941   4.212   3.214
16110SOL    HW250290   5.943   4.245   3.054
16111SOL     OW50291   7.010   3.938   2.974
16111SOL    HW150292   7.062   3.873   3.029
16111SOL    HW250293   6.961   4.001   3.035
16112SOL     OW50294   6.587   3.758   3.016
16112SOL    HW150295   6.524   3.686   2.985
16112SOL    HW250296   6.680   3.722   3.016
16113SOL     OW50297   6.204   5.291   3.146
16113SOL    HW150298   6.199   5.373   3.203
16113SOL    HW250299   6.293   5.288   3.101
16114SOL     OW50300   6.938   3.776   2.030
16114SOL    HW150301   6.973   3.735   1.946
16114SOL    HW250302   6.848   3.738   2.050
16115SOL     OW50303   6.886   4.177   2.553
16115SOL    HW150304   6.827   4.257   2.557
16115SOL    HW250305   6.901   4.142   2.646
16116SOL     OW50306   7.179   3.945   2.744
16116SOL    HW150307   7.095   3.944   2.798
16116SOL    HW250308   7.181   4.028   2.688
16117SOL     OW50309   5.625   4.801   2.162
16117SOL    HW150310   5.724   4.790   2.153
16117SOL    HW250311   5.585   4.715   2.194
16118SOL     OW50312   6.461   5.370   2.199
16118SOL    HW150313   6.384   5.335   2.145
16118SOL    HW250314   6.429   5.441   2.261
16119SOL     OW50315   5.816   4.352   3.837
16119SOL    HW150316   5.723   4.350   3.874
16119SOL    HW250317   5.817   4.313   3.745
16120SOL     OW50318   5.811   3.999   4.720
16120SOL    HW150319   5.846   3.982   4.812
16120SOL    HW250320   5.723   3.954   4.708
16121SOL     OW50321   5.605   4.092   4.371
16121SOL    HW150322   5.523   4.135   4.410
16121SOL    HW250323   5.577   4.019   4.308
16122SOL     OW50324   6.155   4.999   4.889
16122SOL    HW150325   6.062   4.992   4.852
16122SOL    HW250326   6.166   5.088   4.933
16123SOL     OW50327   7.141   5.235   4.427
16123SOL    HW150328   7.084   5.219   4.508
16123SOL    HW250329   7.082   5.245   4.347
16124SOL     OW50330   6.721   4.427   4.441
16124SOL    HW150331   6.778   4.505   4.416
16124SOL    HW250332   6.661   4.453   4.517
16125SOL     OW50333   7.341   4.331   3.955
16125SOL    HW150334   7.329   4.318   3.856
16125SOL    HW250335   7.311   4.250   4.004
16126SOL     OW50336   6.354   4.868   4.747
16126SOL    HW150337   6.276   4.885   4.807
16126SOL    HW250338   6.388   4.955   4.711
16127SOL     OW50339   6.436   4.522   5.547
16127SOL    HW150340   6.432   4.598   5.612
16127SOL    HW250341   6.458   4.558   5.456
16128SOL     OW50342   6.271   4.736   4.389
16128SOL    HW150343   6.340   4.720   4.459
16128SOL    HW250344   6.198   4.793   4.427
16129SOL     OW50345   6.272   4.885   5.527
16129SOL    HW150346   6.332   4.964   5.541
16129SOL    HW250347   6.186   4.916   5.486
16130SOL     OW50348   5.921   5.159   4.785
16130SOL    HW150349   5.843   5.128   4.732
16130SOL    HW250350   5.979   5.217   4.728
16131SOL     OW50351   7.046   5.229   5.063
16131SOL    HW150352   7.070   5.323   5.089
16131SOL    HW250353   7.030   5.175   5.145
16132SOL     OW50354   6.024   4.116   5.223
16132SOL    HW150355   6.106   4.060   5.232
16132SOL    HW250356   5.943   4.058   5.227
16133SOL     OW50357   7.189   4.171   4.461
16133SOL    HW150358   7.115   4.217   4.411
16133SOL    HW250359   7.240   4.239   4.514
16134SOL     OW50360   5.817   5.437   4.207
16134SOL    HW150361   5.851   5.514   4.261
16134SOL    HW250362   5.861   5.437   4.117
16135SOL     OW50363   6.713   5.065   5.414
16135SOL    HW150364   6.760   5.065   5.502
16135SOL    HW250365   6.665   4.978   5.403
16136SOL     OW50366   5.816   5.158   4.262
16136SOL    HW150367   5.790   5.254   4.262
16136SOL    HW250368   5.745   5.104   4.307
16137SOL     OW50369   5.826   4.815   4.610
16137SOL    HW150370   5.840   4.731   4.662
16137SOL    HW250371   5.771   4.879   4.665
16138SOL     OW50372   6.206   5.510   5.163
16138SOL    HW150373   6.114   5.493   5.198
16138SOL    HW250374   6.234   5.602   5.189
16139SOL     OW50375   6.192   4.688   3.847
16139SOL    HW150376   6.199   4.772   3.793
16139SOL    HW250377   6.238   4.701   3.935
16140SOL     OW50378   5.708   4.367   4.287
16140SOL    HW150379   5.663   4.279   4.304
16140SOL    HW250380   5.707   4.421   4.371
16141SOL     OW50381   7.428   5.491   4.083
16141SOL    HW150382   7.482   5.462   4.163
16141SOL    HW250383   7.458   5.581   4.054
16142SOL     OW50384   5.613   5.320   3.841
16142SOL    HW150385   5.594   5.224   3.862
16142SOL    HW250386   5.580   5.378   3.916
16143SOL     OW50387   7.227   4.832   4.156
16143SOL    HW150388   7.313   4.834   4.104
16143SOL    HW250389   7.241   4.879   4.244
16144SOL     OW50390   5.699   4.461   5.321
16144SOL    HW150391   5.787   4.448   5.366
16144SOL    HW250392   5.686   4.558   5.299
16145SOL     OW50393   6.199   5.089   4.450
16145SOL    HW150394   6.150   5.002   4.459
16145SOL    HW250395   6.176   5.132   4.363
16146SOL     OW50396   6.879   4.952   5.147
16146SOL    HW150397   6.916   4.879   5.089
16146SOL    HW250398   6.931   4.957   5.232
16147SOL     OW50399   6.395   3.728   4.226
16147SOL    HW150400   6.435   3.819   4.217
16147SOL    HW250401   6.295   3.736   4.232
16148SOL     OW50402   5.783   4.700   4.988
16148SOL    HW150403   5.872   4.655   4.974
16148SOL    HW250404   5.710   4.635   4.969
16149SOL     OW50405   7.111   4.723   3.914
16149SOL    HW150406   7.048   4.647   3.927
16149SOL    HW250407   7.159   4.741   4.000
16150SOL     OW50408   6.773   5.516   5.340
16150SOL    HW150409   6.797   5.576   5.264
16150SOL    HW250410   6.780   5.421   5.310
16151SOL     OW50411   5.903   3.975   5.525
16151SOL    HW150412   5.974   4.046   5.531
16151SOL    HW250413   5.815   4.014   5.553
16152SOL     OW50414   7.052   5.141   4.677
16152SOL    HW150415   6.993   5.147   4.757
16152SOL    HW250416   7.037   5.053   4.631
16153SOL     OW50417   7.253   5.438   4.296
16153SOL    HW150418   7.212   5.415   4.208
16153SOL    HW250419   7.235   5.364   4.361
16154SOL     OW50420   6.184   4.453   3.994
16154SOL    HW150421   6.208   4.522   3.926
16154SOL    HW250422   6.106   4.486   4.048
16155SOL     OW50423   6.867   4.069   4.668
16155SOL    HW150424   6.781   4.019   4.655
16155SOL    HW250425   6.929   4.015   4.724
16156SOL     OW50426   7.162   5.386   4.031
16156SOL    HW150427   7.251   5.432   4.034
16156SOL    HW250428   7.141   5.362   3.936
16157SOL     OW50429   6.393   4.329   5.189
16157SOL    HW150430   6.346   4.326   5.278
16157SOL    HW250431   6.342   4.274   5.123
16158SOL     OW50432   6.559   4.614   5.296
16158SOL    HW150433   6.605   4.530   5.267
16158SOL    HW250434   6.503   4.648   5.221
16159SOL     OW50435   6.577   4.134   4.966
16159SOL    HW150436   6.500   4.168   5.020
16159SOL    HW250437   6.543   4.083   4.887
16160SOL     OW50438   6.627   4.425   4.153
16160SOL    HW150439   6.653   4.421   4.249
16160SOL    HW250440   6.542   4.374   4.139
16161SOL     OW50441   5.662   4.535   4.513
16161SOL    HW150442   5.761   4.523   4.522
16161SOL    HW250443   5.638   4.630   4.534
16162SOL     OW50444   5.716   5.545   5.295
16162SOL    HW150445   5.706   5.530   5.394
16162SOL    HW250446   5.630   5.581   5.259
16163SOL     OW50447   6.451   4.072   3.919
16163SOL    HW150448   6.510   4.135   3.870
16163SOL    HW250449   6.470   3.978   3.890
16164SOL     OW50450   6.948   4.868   4.269
16164SOL    HW150451   7.031   4.839   4.221
16164SOL    HW250452   6.899   4.935   4.213
16165SOL     OW50453   6.136   3.920   4.609
16165SOL    HW150454   6.131   3.915   4.709
16165SOL    HW250455   6.138   4.016   4.580
16166SOL     OW50456   6.594   5.180   4.201
16166SOL    HW150457   6.548   5.252   4.149
16166SOL    HW250458   6.590   5.200   4.299
16167SOL     OW50459   5.937   5.525   4.577
16167SOL    HW150460   5.987   5.439   4.583
16167SOL    HW250461   6.002   5.602   4.574
16168SOL     OW50462   6.813   5.274   5.230
16168SOL    HW150463   6.819   5.197   5.294
16168SOL    HW250464   6.761   5.248   5.150
16169SOL     OW50465   5.907   4.667   3.966
16169SOL    HW150466   5.989   4.706   3.924
16169SOL    HW250467   5.880   4.585   3.917
16170SOL     OW50468   7.044   4.459   4.452
16170SOL    HW150469   7.039   4.394   4.527
16170SOL    HW250470   7.124   4.518   4.465
16171SOL     OW50471   6.047   4.990   5.451
16171SOL    HW150472   5.997   4.991   5.365
16171SOL    HW250473   5.984   4.972   5.527
16172SOL     OW50474   6.697   5.500   3.961
16172SOL    HW150475   6.637   5.438   4.011
16172SOL    HW250476   6.728   5.456   3.876
16173SOL     OW50477   5.788   4.009   5.222
16173SOL    HW150478   5.708   4.069   5.209
16173SOL    HW250479   5.778   3.960   5.308
16174SOL     OW50480   7.218   5.101   3.805
16174SOL    HW150481   7.186   5.195   3.795
16174SOL    HW250482   7.142   5.038   3.793
16175SOL     OW50483   6.050   5.467   4.047
16175SOL    HW150484   6.083   5.506   4.133
16175SOL    HW250485   6.126   5.460   3.982
16176SOL     OW50486   6.986   3.831   4.150
16176SOL    HW150487   6.962   3.794   4.060
16176SOL    HW250488   7.085   3.847   4.154
16177SOL     OW50489   5.835   5.509   4.965
16177SOL    HW150490   5.892   5.444   5.015
16177SOL    HW250491   5.819   5.476   4.872
16178SOL     OW50492   6.526   5.422   4.628
16178SOL    HW150493   6.606   5.365   4.649
16178SOL    HW250494   6.477   5.382   4.551
16179SOL     OW50495   5.968   4.424   4.204
16179SOL    HW150496   6.013   4.334   4.201
16179SOL    HW250497   5.874   4.413   4.237
16180SOL     OW50498   6.200   3.846   3.841
16180SOL    HW150499   6.298   3.824   3.848
16180SOL    HW250500   6.169   3.829   3.748
16181SOL     OW50501   6.367   3.988   5.473
16181SOL    HW150502   6.434   3.927   5.516
16181SOL    HW250503   6.294   4.007   5.538
16182SOL     OW50504   6.474   5.238   4.919
16182SOL    HW150505   6.451   5.213   4.825
16182SOL    HW250506   6.535   5.169   4.958
16183SOL     OW50507   6.937   4.314   5.157
16183SOL    HW150508   6.965   4.271   5.242
16183SOL    HW250509   6.962   4.410   5.158
16184SOL     OW50510   6.389   5.126   4.648
16184SOL    HW150511   6.479   5.140   4.606
16184SOL    HW250512   6.318   5.128   4.577
16185SOL     OW50513   6.508   4.227   4.623
16185SOL    HW150514   6.483   4.218   4.527
16185SOL    HW250515   6.556   4.145   4.654
16186SOL     OW50516   6.125   3.788   4.236
16186SOL    HW150517   6.044   3.789   4.294
16186SOL    HW250518   6.128   3.871   4.181
16187SOL     OW50519   7.020   4.912   3.765
16187SOL    HW150520   7.052   4.836   3.822
16187SOL    HW250521   6.928   4.939   3.795
16188SOL     OW50522   5.883   3.759   3.895
16188SOL    HW150523   5.932   3.843   3.874
16188SOL    HW250524   5.945   3.694   3.940
16189SOL     OW50525   6.521   3.960   4.204
16189SOL    HW150526   6.473   4.001   4.126
16189SOL    HW250527   6.620   3.958   4.185
16190SOL     OW50528   6.813   5.294   4.517
16190SOL    HW150529   6.834   5.368   4.452
16190SOL    HW250530   6.881   5.294   4.590
16191SOL     OW50531   6.045   4.876   4.465
16191SOL    HW150532   5.974   4.849   4.530
16191SOL    HW250533   6.019   4.848   4.372
16192SOL     OW50534   6.857   5.521   4.315
16192SOL    HW150535   6.901   5.585   4.251
16192SOL    HW250536   6.807   5.573   4.385
16193SOL     OW50537   6.618   4.273   3.740
16193SOL    HW150538   6.577   4.355   3.701
16193SOL    HW250539   6.682   4.299   3.813
16194SOL     OW50540   5.664   4.280   5.110
16194SOL    HW150541   5.756   4.279   5.069
16194SOL    HW250542   5.658   4.354   5.177
16195SOL     OW50543   6.147   3.946   4.871
16195SOL    HW150544   6.185   3.862   4.908
16195SOL    HW250545   6.059   3.965   4.915
16196SOL     OW50546   6.452   4.178   4.366
16196SOL    HW150547   6.420   4.250   4.304
16196SOL    HW250548   6.476   4.097   4.313
16197SOL     OW50549   6.603   3.763   4.477
16197SOL    HW150550   6.531   3.768   4.408
16197SOL    HW250551   6.579   3.694   4.546
16198SOL     OW50552   7.015   4.897   4.591
16198SOL    HW150553   6.960   4.813   4.584
16198SOL    HW250554   7.041   4.926   4.499
16199SOL     OW50555   7.052   4.314   4.716
16199SOL    HW150556   7.022   4.219   4.723
16199SOL    HW250557   7.125   4.330   4.782
16200SOL     OW50558   6.074   5.109   3.898
16200SOL    HW150559   5.987   5.094   3.945
16200SOL    HW250560   6.057   5.135   3.803
16201SOL     OW50561   7.250   5.004   4.381
16201SOL    HW150562   7.349   5.012   4.395
16201SOL    HW250563   7.205   5.088   4.412
16202SOL     OW50564   6.976   4.299   3.802
16202SOL    HW150565   6.922   4.278   3.883
16202SOL    HW250566   7.067   4.258   3.811
16203SOL     OW50567   6.113   3.980   4.052
16203SOL    HW150568   6.140   3.921   3.977
16203SOL    HW250569   6.113   4.075   4.021
16204SOL     OW50570   7.340   4.947   5.312
16204SOL    HW150571   7.431   4.908   5.299
16204SOL    HW250572   7.348   5.043   5.336
16205SOL     OW50573   6.650   5.071   5.064
16205SOL    HW150574   6.570   5.048   5.119
16205SOL    HW250575   6.733   5.045   5.113
16206SOL     OW50576   7.178   5.353   5.349
16206SOL    HW150577   7.205   5.387   5.259
16206SOL    HW250578   7.257   5.315   5.395
16207SOL     OW50579   6.697   4.919   4.824
16207SOL    HW150580   6.657   4.963   4.905
16207SOL    HW250581   6.656   4.956   4.741
16208SOL     OW50582   7.224   4.823   4.803
16208SOL    HW150583   7.229   4.904   4.862
16208SOL    HW250584   7.138   4.825   4.752
16209SOL     OW50585   6.501   3.813   5.126
16209SOL    HW150586   6.526   3.793   5.031
16209SOL    HW250587   6.573   3.869   5.168
16210SOL     OW50588   6.566   4.840   5.443
16210SOL    HW150589   6.467   4.846   5.453
16210SOL    HW250590   6.589   4.760   5.387
16211SOL     OW50591   6.291   4.774   4.092
16211SOL    HW150592   6.277   4.781   4.191
16211SOL    HW250593   6.375   4.723   4.074
16212SOL     OW50594   5.996   4.537   4.975
16212SOL    HW150595   6.082   4.549   5.025
16212SOL    HW250596   5.954   4.450   5.002
16213SOL     OW50597   5.650   5.288   5.055
16213SOL    HW150598   5.604   5.370   5.021
16213SOL    HW250599   5.748   5.307   5.064
16214SOL     OW50600   5.953   4.824   4.225
16214SOL    HW150601   5.946   4.907   4.169
16214SOL    HW250602   5.957   4.744   4.165
16215SOL     OW50603   6.152   4.261   4.589
16215SOL    HW150604   6.164   4.327   4.515
16215SOL    HW250605   6.198   4.295   4.672
16216SOL     OW50606   6.838   5.072   4.112
16216SOL    HW150607   6.888   5.149   4.152
16216SOL    HW250608   6.743   5.074   4.144
16217SOL     OW50609   6.858   5.169   4.866
16217SOL    HW150610   6.905   5.182   4.953
16217SOL    HW250611   6.792   5.095   4.875
16218SOL     OW50612   7.168   4.363   4.196
16218SOL    HW150613   7.137   4.424   4.269
16218SOL    HW250614   7.218   4.415   4.127
16219SOL     OW50615   5.940   5.234   5.053
16219SOL    HW150616   5.919   5.190   4.966
16219SOL    HW250617   6.037   5.260   5.056
16220SOL     OW50618   5.988   4.475   5.322
16220SOL    HW150619   6.056   4.530   5.275
16220SOL    HW250620   6.028   4.387   5.349
16221SOL     OW50621   6.090   3.774   5.464
16221SOL    HW150622   6.048   3.717   5.394
16221SOL    HW250623   6.024   3.843   5.496
16222SOL     OW50624   6.159   4.594   4.753
16222SOL    HW150625   6.203   4.683   4.744
16222SOL    HW250626   6.096   4.594   4.830
16223SOL     OW50627   6.946   4.586   4.769
16223SOL    HW150628   6.871   4.586   4.703
16223SOL    HW250629   6.983   4.494   4.778
16224SOL     OW50630   6.795   4.249   3.999
16224SOL    HW150631   6.808   4.165   4.053
16224SOL    HW250632   6.766   4.323   4.059
16225SOL     OW50633   5.893   3.937   4.955
16225SOL    HW150634   5.870   3.974   5.045
16225SOL    HW250635   5.863   3.842   4.949
16226SOL     OW50636   5.623   5.034   5.006
16226SOL    HW150637   5.676   4.985   5.074
16226SOL    HW250638   5.645   5.132   5.011
16227SOL     OW50639   6.318   4.358   4.788
16227SOL    HW150640   6.377   4.332   4.712
16227SOL    HW250641   6.290   4.454   4.777
16228SOL     OW50642   7.314   4.659   5.578
16228SOL    HW150643   7.268   4.652   5.489
16228SOL    HW250644   7.252   4.703   5.644
16229SOL     OW50645   5.893   3.787   4.342
16229SOL    HW150646   5.882   3.881   4.375
16229SOL    HW250647   5.888   3.724   4.419
16230SOL     OW50648   7.208   4.091   4.098
16230SOL    HW150649   7.210   4.015   4.162
16230SOL    HW250650   7.160   4.168   4.138
16231SOL     OW50651   6.609   4.490   4.690
16231SOL    HW150652   6.624   4.511   4.786
16231SOL    HW250653   6.579   4.395   4.681
16232SOL     OW50654   6.566   5.297   5.424
16232SOL    HW150655   6.546   5.341   5.336
16232SOL    HW250656   6.605   5.206   5.408
16233SOL     OW50657   7.445   5.242   5.329
16233SOL    HW150658   7.459   5.269   5.234
16233SOL    HW250659   7.528   5.264   5.382
16234SOL     OW50660   5.936   4.622   5.528
16234SOL    HW150661   6.012   4.666   5.576
16234SOL    HW250662   5.971   4.575   5.446
16235SOL     OW50663   7.126   3.998   3.849
16235SOL    HW150664   7.065   3.923   3.872
16235SOL    HW250665   7.148   4.050   3.932
16236SOL     OW50666   6.889   4.562   3.766
16236SOL    HW150667   6.923   4.469   3.781
16236SOL    HW250668   6.907   4.589   3.671
16237SOL     OW50669   6.654   5.057   4.573
16237SOL    HW150670   6.661   4.973   4.518
16237SOL    HW250671   6.716   5.126   4.537
16238SOL     OW50672   5.905   4.534   4.673
16238SOL    HW150673   5.998   4.570   4.678
16238SOL    HW250674   5.899   4.449   4.725
16239SOL     OW50675   5.925   4.233   4.730
16239SOL    HW150676   5.873   4.150   4.713
16239SOL    HW250677   6.002   4.238   4.666
16240SOL     OW50678   6.097   4.139   5.532
16240SOL    HW150679   6.079   4.184   5.620
16240SOL    HW250680   6.139   4.204   5.469
16241SOL     OW50681   5.594   5.050   3.924
16241SOL    HW150682   5.501   5.071   3.893
16241SOL    HW250683   5.604   4.951   3.937
16242SOL     OW50684   5.674   5.525   4.651
16242SOL    HW150685   5.632   5.439   4.624
16242SOL    HW250686   5.768   5.528   4.617
16243SOL     OW50687   6.090   5.292   4.634
16243SOL    HW150688   6.156   5.366   4.643
16243SOL    HW250689   6.134   5.213   4.592
16244SOL     OW50690   6.588   4.520   4.962
16244SOL    HW150691   6.629   4.488   5.048
16244SOL    HW250692   6.492   4.493   4.959
16245SOL     OW50693   5.626   4.268   4.838
16245SOL    HW150694   5.711   4.235   4.797
16245SOL    HW250695   5.639   4.283   4.936
16246SOL     OW50696   5.775   4.244   5.446
16246SOL    HW150697   5.834   4.204   5.376
16246SOL    HW250698   5.717   4.315   5.405
16247SOL     OW50699   6.955   4.674   5.384
16247SOL    HW150700   6.994   4.763   5.404
16247SOL    HW250701   6.965   4.654   5.287
16248SOL     OW50702   6.401   4.296   4.049
16248SOL    HW150703   6.408   4.207   4.003
16248SOL    HW250704   6.307   4.330   4.041
16249SOL     OW50705   7.243   4.328   4.930
16249SOL    HW150706   7.205   4.259   4.992
16249SOL    HW250707   7.325   4.292   4.886
16250SOL     OW50708   5.838   5.288   5.468
16250SOL    HW150709   5.808   5.345   5.544
16250SOL    HW250710   5.831   5.191   5.494
16251SOL     OW50711   6.257   4.188   4.993
16251SOL    HW150712   6.223   4.099   4.963
16251SOL    HW250713   6.283   4.242   4.913
16252SOL     OW50714   6.516   5.402   5.189
16252SOL    HW150715   6.492   5.384   5.094
16252SOL    HW250716   6.546   5.496   5.199
16253SOL     OW50717   6.059   4.224   3.915
16253SOL    HW150718   6.120   4.304   3.919
16253SOL    HW250719   5.964   4.255   3.922
16254SOL     OW50720   5.745   4.861   5.190
16254SOL    HW150721   5.767   4.800   5.266
16254SOL    HW250722   5.755   4.812   5.104
16255SOL     OW50723   6.933   4.783   4.958
16255SOL    HW150724   6.957   4.720   4.884
16255SOL    HW250725   6.843   4.823   4.940
16256SOL     OW50726   6.888   4.579   4.033
16256SOL    HW150727   6.802   4.548   4.075
16256SOL    HW250728   6.884   4.565   3.934
16257SOL     OW50729   7.345   5.471   4.878
16257SOL    HW150730   7.406   5.501   4.805
16257SOL    HW250731   7.307   5.382   4.856
16258SOL     OW50732   6.838   5.455   4.852
16258SOL    HW150733   6.922   5.460   4.798
16258SOL    HW250734   6.815   5.359   4.870
16259SOL     OW50735   5.669   4.982   4.746
16259SOL    HW150736   5.664   4.981   4.846
16259SOL    HW250737   5.586   4.941   4.708
16260SOL     OW50738   6.274   5.386   5.440
16260SOL    HW150739   6.218   5.467   5.449
16260SOL    HW250740   6.326   5.390   5.354
16261SOL     OW50741   6.489   3.810   3.857
16261SOL    HW150742   6.540   3.811   3.771
16261SOL    HW250743   6.545   3.768   3.928
16262SOL     OW50744   7.312   3.859   4.247
16262SOL    HW150745   7.385   3.842   4.180
16262SOL    HW250746   7.281   3.772   4.285
16263SOL     OW50747   6.974   5.297   4.201
16263SOL    HW150748   7.041   5.309   4.127
16263SOL    HW250749   6.934   5.386   4.224
16264SOL     OW50750   5.716   5.518   5.575
16264SOL    HW150751   5.675   5.444   5.628
16264SOL    HW250752   5.780   5.569   5.633
16265SOL     OW50753   6.866   4.651   4.396
16265SOL    HW150754   6.926   4.570   4.398
16265SOL    HW250755   6.906   4.720   4.336
16266SOL     OW50756   6.416   4.997   5.146
16266SOL    HW150757   6.411   5.030   5.241
16266SOL    HW250758   6.330   5.016   5.100
16267SOL     OW50759   6.258   5.340   3.878
16267SOL    HW150760   6.267   5.350   3.779
16267SOL    HW250761   6.218   5.251   3.899
16268SOL     OW50762   7.236   5.444   5.118
16268SOL    HW150763   7.289   5.454   5.034
16268SOL    HW250764   7.209   5.534   5.152
16269SOL     OW50765   5.849   4.050   4.444
16269SOL    HW150766   5.770   4.101   4.410
16269SOL    HW250767   5.840   4.035   4.542
16270SOL     OW50768   6.780   5.336   3.755
16270SOL    HW150769   6.786   5.243   3.792
16270SOL    HW250770   6.721   5.336   3.675
16271SOL     OW50771   6.408   4.726   5.096
16271SOL    HW150772   6.448   4.725   5.004
16271SOL    HW250773   6.418   4.818   5.136
16272SOL     OW50774   6.502   4.634   4.015
16272SOL    HW150775   6.565   4.672   3.947
16272SOL    HW250776   6.542   4.551   4.054
16273SOL     OW50777   7.090   5.331   3.768
16273SOL    HW150778   6.998   5.368   3.775
16273SOL    HW250779   7.128   5.351   3.678
16274SOL     OW50780   5.958   5.012   5.214
16274SOL    HW150781   5.945   5.105   5.180
16274SOL    HW250782   5.874   4.960   5.201
16275SOL     OW50783   7.200   5.016   5.013
16275SOL    HW150784   7.260   5.019   5.093
16275SOL    HW250785   7.125   5.080   5.026
16276SOL     OW50786   6.625   4.822   4.420
16276SOL    HW150787   6.555   4.775   4.474
16276SOL    HW250788   6.684   4.754   4.377
16277SOL     OW50789   6.600   3.960   4.695
16277SOL    HW150790   6.592   3.924   4.602
16277SOL    HW250791   6.598   3.884   4.760
16278SOL     OW50792   6.176   5.211   4.215
16278SOL    HW150793   6.218   5.153   4.145
16278SOL    HW250794   6.132   5.290   4.171
16279SOL     OW50795   5.841   5.072   4.014
16279SOL    HW150796   5.745   5.073   3.987
16279SOL    HW250797   5.853   5.125   4.098
16280SOL     OW50798   5.691   4.737   5.450
16280SOL    HW150799   5.614   4.704   5.504
16280SOL    HW250800   5.776   4.707   5.492
16281SOL     OW50801   6.258   3.927   5.213
16281SOL    HW150802   6.348   3.911   5.173
16281SOL    HW250803   6.266   3.932   5.312
16282SOL     OW50804   5.661   4.069   3.757
16282SOL    HW150805   5.569   4.041   3.728
16282SOL    HW250806   5.692   4.146   3.701
16283SOL     OW50807   7.026   4.580   5.122
16283SOL    HW150808   6.969   4.632   5.059
16283SOL    HW250809   7.122   4.592   5.098
16284SOL     OW50810   5.658   3.890   4.042
16284SOL    HW150811   5.641   3.973   3.988
16284SOL    HW250812   5.748   3.853   4.020
16285SOL     OW50813   6.769   5.059   3.843
16285SOL    HW150814   6.670   5.048   3.845
16285SOL    HW250815   6.803   5.074   3.936
16286SOL     OW50816   6.199   4.566   5.155
16286SOL    HW150817   6.255   4.647   5.138
16286SOL    HW250818   6.258   4.486   5.158
16287SOL     OW50819   7.079   5.491   4.683
16287SOL    HW150820   7.112   5.555   4.614
16287SOL    HW250821   7.145   5.485   4.758
16288SOL     OW50822   6.302   4.289   5.432
16288SOL    HW150823   6.321   4.354   5.506
16288SOL    HW250824   6.362   4.209   5.441
16289SOL     OW50825   7.036   4.944   5.357
16289SOL    HW150826   7.027   4.934   5.456
16289SOL    HW250827   7.132   4.937   5.331
16290SOL     OW50828   5.976   5.465   5.284
16290SOL    HW150829   5.885   5.506   5.282
16290SOL    HW250830   5.969   5.371   5.316
16291SOL     OW50831   6.811   4.049   4.173
16291SOL    HW150832   6.876   3.975   4.162
16291SOL    HW250833   6.831   4.099   4.257
16292SOL     OW50834   6.180   4.469   4.376
16292SOL    HW150835   6.230   4.554   4.357
16292SOL    HW250836   6.092   4.471   4.328
16293SOL     OW50837   6.445   5.098   3.740
16293SOL    HW150838   6.399   5.113   3.828
16293SOL    HW250839   6.489   5.183   3.710
16294SOL     OW50840   6.247   5.514   4.677
16294SOL    HW150841   6.201   5.602   4.664
16294SOL    HW250842   6.346   5.526   4.670
16295SOL     OW50843   6.994   5.575   5.444
16295SOL    HW150844   6.898   5.564   5.417
16295SOL    HW250845   7.050   5.508   5.396
16296SOL     OW50846   6.445   4.680   4.585
16296SOL    HW150847   6.499   4.611   4.633
16296SOL    HW250848   6.413   4.749   4.651
16297SOL     OW50849   6.669   4.708   3.811
16297SOL    HW150850   6.646   4.761   3.729
16297SOL    HW250851   6.750   4.652   3.792
16298SOL     OW50852   7.447   5.293   4.575
16298SOL    HW150853   7.376   5.281   4.505
16298SOL    HW250854   7.448   5.214   4.635
16299SOL     OW50855   5.807   5.038   5.568
16299SOL    HW150856   5.742   4.965   5.547
16299SOL    HW250857   5.811   5.052   5.666
16300SOL     OW50858   5.665   4.964   4.377
16300SOL    HW150859   5.664   4.917   4.465
16300SOL    HW250860   5.747   4.936   4.326
16301SOL     OW50861   6.258   5.115   5.348
16301SOL    HW150862   6.180   5.065   5.386
16301SOL    HW250863   6.255   5.210   5.379
16302SOL     OW50864   6.014   4.148   4.244
16302SOL    HW150865   6.044   4.076   4.182
16302SOL    HW250866   5.975   4.108   4.327
16303SOL     OW50867   7.291   5.211   4.828
16303SOL    HW150868   7.198   5.186   4.801
16303SOL    HW250869   7.317   5.161   4.910
16304SOL     OW50870   5.903   4.271   5.004
16304SOL    HW150871   5.941   4.212   5.076
16304SOL    HW250872   5.943   4.245   4.916
16305SOL     OW50873   6.398   5.310   4.411
16305SOL    HW150874   6.430   5.320   4.317
16305SOL    HW250875   6.319   5.248   4.413
16306SOL     OW50876   6.587   3.758   4.878
16306SOL    HW150877   6.524   3.686   4.847
16306SOL    HW250878   6.680   3.722   4.878
16307SOL     OW50879   6.356   5.054   4.025
16307SOL    HW150880   6.310   4.967   4.042
16307SOL    HW250881   6.447   5.051   4.066
16308SOL     OW50882   6.204   5.291   5.008
16308SOL    HW150883   6.199   5.373   5.065
16308SOL    HW250884   6.293   5.288   4.963
16309SOL     OW50885   6.938   3.776   3.892
16309SOL    HW150886   6.973   3.735   3.808
16309SOL    HW250887   6.848   3.738   3.912
16310SOL     OW50888   6.886   4.177   4.415
16310SOL    HW150889   6.827   4.257   4.419
16310SOL    HW250890   6.901   4.142   4.508
16311SOL     OW50891   5.625   4.801   4.024
16311SOL    HW150892   5.724   4.790   4.015
16311SOL    HW250893   5.585   4.715   4.056
16312SOL     OW50894   6.461   5.370   4.061
16312SOL    HW150895   6.384   5.335   4.007
16312SOL    HW250896   6.429   5.441   4.123
16313SOL     OW50897   5.816   4.352   5.699
16313SOL    HW150898   5.723   4.350   5.736
16313SOL    HW250899   5.817   4.313   5.607
16314SOL     OW50900   5.811   3.999   6.582
16314SOL    HW150901   5.846   3.982   6.674
16314SOL    HW250902   5.723   3.954   6.570
16315SOL     OW50903   5.605   4.092   6.233
16315SOL    HW150904   5.523   4.135   6.272
16315SOL    HW250905   5.577   4.019   6.170
16316SOL     OW50906   6.155   4.999   6.751
16316SOL    HW150907   6.062   4.992   6.714
16316SOL    HW250908   6.166   5.088   6.795
16317SOL     OW50909   7.141   5.235   6.289
16317SOL    HW150910   7.084   5.219   6.370
16317SOL    HW250911   7.082   5.245   6.209
16318SOL     OW50912   7.329   4.342   6.442
16318SOL    HW150913   7.362   4.436   6.442
16318SOL    HW250914   7.380   4.288   6.508
16319SOL     OW50915   6.721   4.427   6.303
16319SOL    HW150916   6.778   4.505   6.278
16319SOL    HW250917   6.661   4.453   6.379
16320SOL     OW50918   6.354   4.868   6.609
16320SOL    HW150919   6.276   4.885   6.669
16320SOL    HW250920   6.388   4.955   6.573
16321SOL     OW50921   6.436   4.522   7.409
16321SOL    HW150922   6.432   4.598   7.474
16321SOL    HW250923   6.458   4.558   7.318
16322SOL     OW50924   6.271   4.736   6.251
16322SOL    HW150925   6.340   4.720   6.321
16322SOL    HW250926   6.198   4.793   6.289
16323SOL     OW50927   6.272   4.885   7.389
16323SOL    HW150928   6.332   4.964   7.403
16323SOL    HW250929   6.186   4.916   7.348
16324SOL     OW50930   5.921   5.159   6.647
16324SOL    HW150931   5.843   5.128   6.594
16324SOL    HW250932   5.979   5.217   6.590
16325SOL     OW50933   7.046   5.229   6.925
16325SOL    HW150934   7.070   5.323   6.951
16325SOL    HW250935   7.030   5.175   7.007
16326SOL     OW50936   6.024   4.116   7.085
16326SOL    HW150937   6.106   4.060   7.094
16326SOL    HW250938   5.943   4.058   7.089
16327SOL     OW50939   7.189   4.171   6.323
16327SOL    HW150940   7.115   4.217   6.273
16327SOL    HW250941   7.240   4.239   6.376
16328SOL     OW50942   5.817   5.437   6.069
16328SOL    HW150943   5.851   5.514   6.123
16328SOL    HW250944   5.861   5.437   5.979
16329SOL     OW50945   6.713   5.065   7.276
16329SOL    HW150946   6.760   5.065   7.364
16329SOL    HW250947   6.665   4.978   7.265
16330SOL     OW50948   5.816   5.158   6.124
16330SOL    HW150949   5.790   5.254   6.124
16330SOL    HW250950   5.745   5.104   6.169
16331SOL     OW50951   5.826   4.815   6.472
16331SOL    HW150952   5.840   4.731   6.524
16331SOL    HW250953   5.771   4.879   6.527
16332SOL     OW50954   6.206   5.510   7.025
16332SOL    HW150955   6.114   5.493   7.060
16332SOL    HW250956   6.234   5.602   7.051
16333SOL     OW50957   6.192   4.688   5.709
16333SOL    HW150958   6.199   4.772   5.655
16333SOL    HW250959   6.238   4.701   5.797
16334SOL     OW50960   7.180   3.838   7.066
16334SOL    HW150961   7.162   3.905   6.994
16334SOL    HW250962   7.177   3.884   7.155
16335SOL     OW50963   5.708   4.367   6.149
16335SOL    HW150964   5.663   4.279   6.166
16335SOL    HW250965   5.707   4.421   6.233
16336SOL     OW50966   7.428   5.491   5.945
16336SOL    HW150967   7.482   5.462   6.025
16336SOL    HW250968   7.458   5.581   5.916
16337SOL     OW50969   5.613   5.320   5.703
16337SOL    HW150970   5.594   5.224   5.724
16337SOL    HW250971   5.580   5.378   5.778
16338SOL     OW50972   7.275   4.646   6.198
16338SOL    HW150973   7.370   4.617   6.206
16338SOL    HW250974   7.267   4.711   6.123
16339SOL     OW50975   7.227   4.832   6.018
16339SOL    HW150976   7.313   4.834   5.966
16339SOL    HW250977   7.241   4.879   6.106
16340SOL     OW50978   5.699   4.461   7.183
16340SOL    HW150979   5.787   4.448   7.228
16340SOL    HW250980   5.686   4.558   7.161
16341SOL     OW50981   6.199   5.089   6.312
16341SOL    HW150982   6.150   5.002   6.321
16341SOL    HW250983   6.176   5.132   6.225
16342SOL     OW50984   6.879   4.952   7.009
16342SOL    HW150985   6.916   4.879   6.951
16342SOL    HW250986   6.931   4.957   7.094
16343SOL     OW50987   6.395   3.728   6.088
16343SOL    HW150988   6.435   3.819   6.079
16343SOL    HW250989   6.295   3.736   6.094
16344SOL     OW50990   5.783   4.700   6.850
16344SOL    HW150991   5.872   4.655   6.836
16344SOL    HW250992   5.710   4.635   6.831
16345SOL     OW50993   7.111   4.723   5.776
16345SOL    HW150994   7.048   4.647   5.789
16345SOL    HW250995   7.159   4.741   5.862
16346SOL     OW50996   6.773   5.516   7.202
16346SOL    HW150997   6.797   5.576   7.126
16346SOL    HW250998   6.780   5.421   7.172
16347SOL     OW50999   5.903   3.975   7.387
16347SOL    HW151000   5.974   4.046   7.393
16347SOL    HW251001   5.815   4.014   7.415
16348SOL     OW51002   7.052   5.141   6.539
16348SOL    HW151003   6.993   5.147   6.619
16348SOL    HW251004   7.037   5.053   6.493
16349SOL     OW51005   7.253   5.438   6.158
16349SOL    HW151006   7.212   5.415   6.070
16349SOL    HW251007   7.235   5.364   6.223
16350SOL     OW51008   6.184   4.453   5.856
16350SOL    HW151009   6.208   4.522   5.788
16350SOL    HW251010   6.106   4.486   5.910
16351SOL     OW51011   6.867   4.069   6.530
16351SOL    HW151012   6.781   4.019   6.517
16351SOL    HW251013   6.929   4.015   6.586
16352SOL     OW51014   7.162   5.386   5.893
16352SOL    HW151015   7.251   5.432   5.896
16352SOL    HW251016   7.141   5.362   5.798
16353SOL     OW51017   6.393   4.329   7.051
16353SOL    HW151018   6.346   4.326   7.140
16353SOL    HW251019   6.342   4.274   6.985
16354SOL     OW51020   6.980   4.193   7.260
16354SOL    HW151021   6.960   4.236   7.348
16354SOL    HW251022   7.058   4.131   7.269
16355SOL     OW51023   6.559   4.614   7.158
16355SOL    HW151024   6.605   4.530   7.129
16355SOL    HW251025   6.503   4.648   7.083
16356SOL     OW51026   6.627   4.425   6.015
16356SOL    HW151027   6.653   4.421   6.111
16356SOL    HW251028   6.542   4.374   6.001
16357SOL     OW51029   5.662   4.535   6.375
16357SOL    HW151030   5.761   4.523   6.384
16357SOL    HW251031   5.638   4.630   6.396
16358SOL     OW51032   5.716   5.545   7.157
16358SOL    HW151033   5.706   5.530   7.256
16358SOL    HW251034   5.630   5.581   7.121
16359SOL     OW51035   7.305   4.309   7.417
16359SOL    HW151036   7.279   4.398   7.381
16359SOL    HW251037   7.303   4.241   7.344
16360SOL     OW51038   6.948   4.868   6.131
16360SOL    HW151039   7.031   4.839   6.083
16360SOL    HW251040   6.899   4.935   6.075
16361SOL     OW51041   6.136   3.920   6.471
16361SOL    HW151042   6.131   3.915   6.571
16361SOL    HW251043   6.138   4.016   6.442
16362SOL     OW51044   6.594   5.180   6.063
16362SOL    HW151045   6.548   5.252   6.011
16362SOL    HW251046   6.590   5.200   6.161
16363SOL     OW51047   5.937   5.525   6.439
16363SOL    HW151048   5.987   5.439   6.445
16363SOL    HW251049   6.002   5.602   6.436
16364SOL     OW51050   7.381   4.790   6.459
16364SOL    HW151051   7.319   4.775   6.383
16364SOL    HW251052   7.329   4.801   6.544
16365SOL     OW51053   6.813   5.274   7.092
16365SOL    HW151054   6.819   5.197   7.156
16365SOL    HW251055   6.761   5.248   7.012
16366SOL     OW51056   5.907   4.667   5.828
16366SOL    HW151057   5.989   4.706   5.786
16366SOL    HW251058   5.880   4.585   5.779
16367SOL     OW51059   7.044   4.459   6.314
16367SOL    HW151060   7.039   4.394   6.389
16367SOL    HW251061   7.124   4.518   6.327
16368SOL     OW51062   6.047   4.990   7.313
16368SOL    HW151063   5.997   4.991   7.227
16368SOL    HW251064   5.984   4.972   7.389
16369SOL     OW51065   6.697   5.500   5.823
16369SOL    HW151066   6.637   5.438   5.873
16369SOL    HW251067   6.728   5.456   5.738
16370SOL     OW51068   5.788   4.009   7.084
16370SOL    HW151069   5.708   4.069   7.071
16370SOL    HW251070   5.778   3.960   7.170
16371SOL     OW51071   7.218   5.101   5.667
16371SOL    HW151072   7.186   5.195   5.657
16371SOL    HW251073   7.142   5.038   5.655
16372SOL     OW51074   6.050   5.467   5.909
16372SOL    HW151075   6.083   5.506   5.995
16372SOL    HW251076   6.126   5.460   5.844
16373SOL     OW51077   5.835   5.509   6.827
16373SOL    HW151078   5.892   5.444   6.877
16373SOL    HW251079   5.819   5.476   6.734
16374SOL     OW51080   6.526   5.422   6.490
16374SOL    HW151081   6.606   5.365   6.511
16374SOL    HW251082   6.477   5.382   6.413
16375SOL     OW51083   5.968   4.424   6.066
16375SOL    HW151084   6.013   4.334   6.063
16375SOL    HW251085   5.874   4.413   6.099
16376SOL     OW51086   7.133   3.946   7.315
16376SOL    HW151087   7.128   3.983   7.407
16376SOL    HW251088   7.061   3.877   7.303
16377SOL     OW51089   6.200   3.846   5.703
16377SOL    HW151090   6.298   3.824   5.710
16377SOL    HW251091   6.169   3.829   5.610
16378SOL     OW51092   6.367   3.988   7.335
16378SOL    HW151093   6.434   3.927   7.378
16378SOL    HW251094   6.294   4.007   7.400
16379SOL     OW51095   6.474   5.238   6.781
16379SOL    HW151096   6.451   5.213   6.687
16379SOL    HW251097   6.535   5.169   6.820
16380SOL     OW51098   6.937   4.314   7.019
16380SOL    HW151099   6.965   4.271   7.104
16380SOL    HW251100   6.962   4.410   7.020
16381SOL     OW51101   6.389   5.126   6.510
16381SOL    HW151102   6.479   5.140   6.468
16381SOL    HW251103   6.318   5.128   6.439
16382SOL     OW51104   6.125   3.788   6.098
16382SOL    HW151105   6.044   3.789   6.156
16382SOL    HW251106   6.128   3.871   6.043
16383SOL     OW51107   7.020   4.912   5.627
16383SOL    HW151108   7.052   4.836   5.684
16383SOL    HW251109   6.928   4.939   5.657
16384SOL     OW51110   5.883   3.759   5.757
16384SOL    HW151111   5.932   3.843   5.736
16384SOL    HW251112   5.945   3.694   5.802
16385SOL     OW51113   6.662   4.407   7.050
16385SOL    HW151114   6.582   4.346   7.053
16385SOL    HW251115   6.743   4.354   7.026
16386SOL     OW51116   6.813   5.294   6.379
16386SOL    HW151117   6.834   5.368   6.314
16386SOL    HW251118   6.881   5.294   6.452
16387SOL     OW51119   6.045   4.876   6.327
16387SOL    HW151120   5.974   4.849   6.392
16387SOL    HW251121   6.019   4.848   6.234
16388SOL     OW51122   6.857   5.521   6.177
16388SOL    HW151123   6.901   5.585   6.113
16388SOL    HW251124   6.807   5.573   6.247
16389SOL     OW51125   6.618   4.273   5.602
16389SOL    HW151126   6.577   4.355   5.563
16389SOL    HW251127   6.682   4.299   5.675
16390SOL     OW51128   5.664   4.280   6.972
16390SOL    HW151129   5.756   4.279   6.931
16390SOL    HW251130   5.658   4.354   7.039
16391SOL     OW51131   7.015   4.897   6.453
16391SOL    HW151132   6.960   4.813   6.446
16391SOL    HW251133   7.041   4.926   6.361
16392SOL     OW51134   7.052   4.314   6.578
16392SOL    HW151135   7.022   4.219   6.585
16392SOL    HW251136   7.125   4.330   6.644
16393SOL     OW51137   7.443   4.557   5.963
16393SOL    HW151138   7.485   4.493   6.027
16393SOL    HW251139   7.405   4.506   5.885
16394SOL     OW51140   6.074   5.109   5.760
16394SOL    HW151141   5.987   5.094   5.807
16394SOL    HW251142   6.057   5.135   5.665
16395SOL     OW51143   7.250   5.004   6.243
16395SOL    HW151144   7.349   5.012   6.257
16395SOL    HW251145   7.205   5.088   6.274
16396SOL     OW51146   6.976   4.299   5.664
16396SOL    HW151147   6.922   4.278   5.745
16396SOL    HW251148   7.067   4.258   5.673
16397SOL     OW51149   6.113   3.980   5.914
16397SOL    HW151150   6.140   3.921   5.839
16397SOL    HW251151   6.113   4.075   5.883
16398SOL     OW51152   7.340   4.947   7.174
16398SOL    HW151153   7.431   4.908   7.161
16398SOL    HW251154   7.348   5.043   7.198
16399SOL     OW51155   6.650   5.071   6.926
16399SOL    HW151156   6.570   5.048   6.981
16399SOL    HW251157   6.733   5.045   6.975
16400SOL     OW51158   7.178   5.353   7.211
16400SOL    HW151159   7.205   5.387   7.121
16400SOL    HW251160   7.257   5.315   7.257
16401SOL     OW51161   6.697   4.919   6.686
16401SOL    HW151162   6.657   4.963   6.767
16401SOL    HW251163   6.656   4.956   6.603
16402SOL     OW51164   7.224   4.823   6.665
16402SOL    HW151165   7.229   4.904   6.724
16402SOL    HW251166   7.138   4.825   6.614
16403SOL     OW51167   6.501   3.813   6.988
16403SOL    HW151168   6.526   3.793   6.893
16403SOL    HW251169   6.573   3.869   7.030
16404SOL     OW51170   6.566   4.840   7.305
16404SOL    HW151171   6.467   4.846   7.315
16404SOL    HW251172   6.589   4.760   7.249
16405SOL     OW51173   6.291   4.774   5.954
16405SOL    HW151174   6.277   4.781   6.053
16405SOL    HW251175   6.375   4.723   5.936
16406SOL     OW51176   5.996   4.537   6.837
16406SOL    HW151177   6.082   4.549   6.887
16406SOL    HW251178   5.954   4.450   6.864
16407SOL     OW51179   5.650   5.288   6.917
16407SOL    HW151180   5.604   5.370   6.883
16407SOL    HW251181   5.748   5.307   6.926
16408SOL     OW51182   5.953   4.824   6.087
16408SOL    HW151183   5.946   4.907   6.031
16408SOL    HW251184   5.957   4.744   6.027
16409SOL     OW51185   6.152   4.261   6.451
16409SOL    HW151186   6.164   4.327   6.377
16409SOL    HW251187   6.198   4.295   6.534
16410SOL     OW51188   6.838   5.072   5.974
16410SOL    HW151189   6.888   5.149   6.014
16410SOL    HW251190   6.743   5.074   6.006
16411SOL     OW51191   6.858   5.169   6.728
16411SOL    HW151192   6.905   5.182   6.815
16411SOL    HW251193   6.792   5.095   6.737
16412SOL     OW51194   7.168   4.363   6.058
16412SOL    HW151195   7.137   4.424   6.131
16412SOL    HW251196   7.218   4.415   5.989
16413SOL     OW51197   5.940   5.234   6.915
16413SOL    HW151198   5.919   5.190   6.828
16413SOL    HW251199   6.037   5.260   6.918
16414SOL     OW51200   5.988   4.475   7.184
16414SOL    HW151201   6.056   4.530   7.137
16414SOL    HW251202   6.028   4.387   7.211
16415SOL     OW51203   7.173   4.503   7.256
16415SOL    HW151204   7.081   4.541   7.251
16415SOL    HW251205   7.233   4.550   7.191
16416SOL     OW51206   6.090   3.774   7.326
16416SOL    HW151207   6.048   3.717   7.256
16416SOL    HW251208   6.024   3.843   7.358
16417SOL     OW51209   6.159   4.594   6.615
16417SOL    HW151210   6.203   4.683   6.606
16417SOL    HW251211   6.096   4.594   6.692
16418SOL     OW51212   6.946   4.586   6.631
16418SOL    HW151213   6.871   4.586   6.565
16418SOL    HW251214   6.983   4.494   6.640
16419SOL     OW51215   6.795   4.249   5.861
16419SOL    HW151216   6.808   4.165   5.915
16419SOL    HW251217   6.766   4.323   5.921
16420SOL     OW51218   5.893   3.937   6.817
16420SOL    HW151219   5.870   3.974   6.907
16420SOL    HW251220   5.863   3.842   6.811
16421SOL     OW51221   5.623   5.034   6.868
16421SOL    HW151222   5.676   4.985   6.936
16421SOL    HW251223   5.645   5.132   6.873
16422SOL     OW51224   6.318   4.358   6.650
16422SOL    HW151225   6.377   4.332   6.574
16422SOL    HW251226   6.290   4.454   6.639
16423SOL     OW51227   7.314   4.659   7.440
16423SOL    HW151228   7.268   4.652   7.351
16423SOL    HW251229   7.252   4.703   7.506
16424SOL     OW51230   5.893   3.787   6.204
16424SOL    HW151231   5.882   3.881   6.237
16424SOL    HW251232   5.888   3.724   6.281
16425SOL     OW51233   6.609   4.490   6.552
16425SOL    HW151234   6.624   4.511   6.648
16425SOL    HW251235   6.579   4.395   6.543
16426SOL     OW51236   6.566   5.297   7.286
16426SOL    HW151237   6.546   5.341   7.198
16426SOL    HW251238   6.605   5.206   7.270
16427SOL     OW51239   7.445   5.242   7.191
16427SOL    HW151240   7.459   5.269   7.096
16427SOL    HW251241   7.528   5.264   7.244
16428SOL     OW51242   5.936   4.622   7.390
16428SOL    HW151243   6.012   4.666   7.438
16428SOL    HW251244   5.971   4.575   7.308
16429SOL     OW51245   6.889   4.562   5.628
16429SOL    HW151246   6.923   4.469   5.643
16429SOL    HW251247   6.907   4.589   5.533
16430SOL     OW51248   6.654   5.057   6.435
16430SOL    HW151249   6.661   4.973   6.380
16430SOL    HW251250   6.716   5.126   6.399
16431SOL     OW51251   5.905   4.534   6.535
16431SOL    HW151252   5.998   4.570   6.540
16431SOL    HW251253   5.899   4.449   6.587
16432SOL     OW51254   5.925   4.233   6.592
16432SOL    HW151255   5.873   4.150   6.575
16432SOL    HW251256   6.002   4.238   6.528
16433SOL     OW51257   6.097   4.139   7.394
16433SOL    HW151258   6.079   4.184   7.482
16433SOL    HW251259   6.139   4.204   7.331
16434SOL     OW51260   6.724   4.104   7.264
16434SOL    HW151261   6.679   4.167   7.328
16434SOL    HW251262   6.817   4.135   7.247
16435SOL     OW51263   6.746   3.931   7.063
16435SOL    HW151264   6.746   3.995   7.140
16435SOL    HW251265   6.774   3.979   6.980
16436SOL     OW51266   5.594   5.050   5.786
16436SOL    HW151267   5.501   5.071   5.755
16436SOL    HW251268   5.604   4.951   5.799
16437SOL     OW51269   5.674   5.525   6.513
16437SOL    HW151270   5.632   5.439   6.486
16437SOL    HW251271   5.768   5.528   6.479
16438SOL     OW51272   6.090   5.292   6.496
16438SOL    HW151273   6.156   5.366   6.505
16438SOL    HW251274   6.134   5.213   6.454
16439SOL     OW51275   6.588   4.520   6.824
16439SOL    HW151276   6.629   4.488   6.910
16439SOL    HW251277   6.492   4.493   6.821
16440SOL     OW51278   5.626   4.268   6.700
16440SOL    HW151279   5.711   4.235   6.659
16440SOL    HW251280   5.639   4.283   6.798
16441SOL     OW51281   5.775   4.244   7.308
16441SOL    HW151282   5.834   4.204   7.238
16441SOL    HW251283   5.717   4.315   7.267
16442SOL     OW51284   6.955   4.674   7.246
16442SOL    HW151285   6.994   4.763   7.266
16442SOL    HW251286   6.965   4.654   7.149
16443SOL     OW51287   7.243   4.328   6.792
16443SOL    HW151288   7.205   4.259   6.854
16443SOL    HW251289   7.325   4.292   6.748
16444SOL     OW51290   5.838   5.288   7.330
16444SOL    HW151291   5.808   5.345   7.406
16444SOL    HW251292   5.831   5.191   7.356
16445SOL     OW51293   6.257   4.188   6.855
16445SOL    HW151294   6.223   4.099   6.825
16445SOL    HW251295   6.283   4.242   6.775
16446SOL     OW51296   6.516   5.402   7.051
16446SOL    HW151297   6.492   5.384   6.956
16446SOL    HW251298   6.546   5.496   7.061
16447SOL     OW51299   6.059   4.224   5.777
16447SOL    HW151300   6.120   4.304   5.781
16447SOL    HW251301   5.964   4.255   5.784
16448SOL     OW51302   5.745   4.861   7.052
16448SOL    HW151303   5.767   4.800   7.128
16448SOL    HW251304   5.755   4.812   6.966
16449SOL     OW51305   6.933   4.783   6.820
16449SOL    HW151306   6.957   4.720   6.746
16449SOL    HW251307   6.843   4.823   6.802
16450SOL     OW51308   6.888   4.579   5.895
16450SOL    HW151309   6.802   4.548   5.937
16450SOL    HW251310   6.884   4.565   5.796
16451SOL     OW51311   7.345   5.471   6.740
16451SOL    HW151312   7.406   5.501   6.667
16451SOL    HW251313   7.307   5.382   6.718
16452SOL     OW51314   6.838   5.455   6.714
16452SOL    HW151315   6.922   5.460   6.660
16452SOL    HW251316   6.815   5.359   6.732
16453SOL     OW51317   5.669   4.982   6.608
16453SOL    HW151318   5.664   4.981   6.708
16453SOL    HW251319   5.586   4.941   6.570
16454SOL     OW51320   6.274   5.386   7.302
16454SOL    HW151321   6.218   5.467   7.311
16454SOL    HW251322   6.326   5.390   7.216
16455SOL     OW51323   6.489   3.810   5.719
16455SOL    HW151324   6.540   3.811   5.633
16455SOL    HW251325   6.545   3.768   5.790
16456SOL     OW51326   6.974   5.297   6.063
16456SOL    HW151327   7.041   5.309   5.989
16456SOL    HW251328   6.934   5.386   6.086
16457SOL     OW51329   5.716   5.518   7.437
16457SOL    HW151330   5.675   5.444   7.490
16457SOL    HW251331   5.780   5.569   7.495
16458SOL     OW51332   6.866   4.651   6.258
16458SOL    HW151333   6.926   4.570   6.260
16458SOL    HW251334   6.906   4.720   6.198
16459SOL     OW51335   6.416   4.997   7.008
16459SOL    HW151336   6.411   5.030   7.103
16459SOL    HW251337   6.330   5.016   6.962
16460SOL     OW51338   6.258   5.340   5.740
16460SOL    HW151339   6.267   5.350   5.641
16460SOL    HW251340   6.218   5.251   5.761
16461SOL     OW51341   7.236   5.444   6.980
16461SOL    HW151342   7.289   5.454   6.896
16461SOL    HW251343   7.209   5.534   7.014
16462SOL     OW51344   7.427   3.899   6.549
16462SOL    HW151345   7.466   3.814   6.513
16462SOL    HW251346   7.329   3.901   6.530
16463SOL     OW51347   5.849   4.050   6.306
16463SOL    HW151348   5.770   4.101   6.272
16463SOL    HW251349   5.840   4.035   6.404
16464SOL     OW51350   6.780   5.336   5.617
16464SOL    HW151351   6.786   5.243   5.654
16464SOL    HW251352   6.721   5.336   5.537
16465SOL     OW51353   6.408   4.726   6.958
16465SOL    HW151354   6.448   4.725   6.866
16465SOL    HW251355   6.418   4.818   6.998
16466SOL     OW51356   6.502   4.634   5.877
16466SOL    HW151357   6.565   4.672   5.809
16466SOL    HW251358   6.542   4.551   5.916
16467SOL     OW51359   7.090   5.331   5.630
16467SOL    HW151360   6.998   5.368   5.637
16467SOL    HW251361   7.128   5.351   5.540
16468SOL     OW51362   5.958   5.012   7.076
16468SOL    HW151363   5.945   5.105   7.042
16468SOL    HW251364   5.874   4.960   7.063
16469SOL     OW51365   7.200   5.016   6.875
16469SOL    HW151366   7.260   5.019   6.955
16469SOL    HW251367   7.125   5.080   6.888
16470SOL     OW51368   6.625   4.822   6.282
16470SOL    HW151369   6.555   4.775   6.336
16470SOL    HW251370   6.684   4.754   6.239
16471SOL     OW51371   6.176   5.211   6.077
16471SOL    HW151372   6.218   5.153   6.007
16471SOL    HW251373   6.132   5.290   6.033
16472SOL     OW51374   7.295   4.109   6.967
16472SOL    HW151375   7.368   4.178   6.971
16472SOL    HW251376   7.323   4.034   6.908
16473SOL     OW51377   5.841   5.072   5.876
16473SOL    HW151378   5.745   5.073   5.849
16473SOL    HW251379   5.853   5.125   5.960
16474SOL     OW51380   5.691   4.737   7.312
16474SOL    HW151381   5.614   4.704   7.366
16474SOL    HW251382   5.776   4.707   7.354
16475SOL     OW51383   6.258   3.927   7.075
16475SOL    HW151384   6.348   3.911   7.035
16475SOL    HW251385   6.266   3.932   7.174
16476SOL     OW51386   5.661   4.069   5.619
16476SOL    HW151387   5.569   4.041   5.590
16476SOL    HW251388   5.692   4.146   5.563
16477SOL     OW51389   7.026   4.580   6.984
16477SOL    HW151390   6.969   4.632   6.921
16477SOL    HW251391   7.122   4.592   6.960
16478SOL     OW51392   5.658   3.890   5.904
16478SOL    HW151393   5.641   3.973   5.850
16478SOL    HW251394   5.748   3.853   5.882
16479SOL     OW51395   6.769   5.059   5.705
16479SOL    HW151396   6.670   5.048   5.707
16479SOL    HW251397   6.803   5.074   5.798
16480SOL     OW51398   6.199   4.566   7.017
16480SOL    HW151399   6.255   4.647   7.000
16480SOL    HW251400   6.258   4.486   7.020
16481SOL     OW51401   7.079   5.491   6.545
16481SOL    HW151402   7.112   5.555   6.476
16481SOL    HW251403   7.145   5.485   6.620
16482SOL     OW51404   6.302   4.289   7.294
16482SOL    HW151405   6.321   4.354   7.368
16482SOL    HW251406   6.362   4.209   7.303
16483SOL     OW51407   7.036   4.944   7.219
16483SOL    HW151408   7.027   4.934   7.318
16483SOL    HW251409   7.132   4.937   7.193
16484SOL     OW51410   5.976   5.465   7.146
16484SOL    HW151411   5.885   5.506   7.144
16484SOL    HW251412   5.969   5.371   7.178
16485SOL     OW51413   7.260   4.607   6.840
16485SOL    HW151414   7.233   4.518   6.803
16485SOL    HW251415   7.261   4.675   6.767
16486SOL     OW51416   6.811   4.049   6.035
16486SOL    HW151417   6.876   3.975   6.024
16486SOL    HW251418   6.831   4.099   6.119
16487SOL     OW51419   6.180   4.469   6.238
16487SOL    HW151420   6.230   4.554   6.219
16487SOL    HW251421   6.092   4.471   6.190
16488SOL     OW51422   7.363   4.066   7.228
16488SOL    HW151423   7.346   4.097   7.134
16488SOL    HW251424   7.279   4.029   7.266
16489SOL     OW51425   7.316   4.658   7.103
16489SOL    HW151426   7.354   4.749   7.118
16489SOL    HW251427   7.308   4.641   7.004
16490SOL     OW51428   6.445   5.098   5.602
16490SOL    HW151429   6.399   5.113   5.690
16490SOL    HW251430   6.489   5.183   5.572
16491SOL     OW51431   6.247   5.514   6.539
16491SOL    HW151432   6.201   5.602   6.526
16491SOL    HW251433   6.346   5.526   6.532
16492SOL     OW51434   6.994   5.575   7.306
16492SOL    HW151435   6.898   5.564   7.279
16492SOL    HW251436   7.050   5.508   7.258
16493SOL     OW51437   6.445   4.680   6.447
16493SOL    HW151438   6.499   4.611   6.495
16493SOL    HW251439   6.413   4.749   6.513
16494SOL     OW51440   6.669   4.708   5.673
16494SOL    HW151441   6.646   4.761   5.591
16494SOL    HW251442   6.750   4.652   5.654
16495SOL     OW51443   7.447   5.293   6.437
16495SOL    HW151444   7.376   5.281   6.367
16495SOL    HW251445   7.448   5.214   6.497
16496SOL     OW51446   5.807   5.038   7.430
16496SOL    HW151447   5.742   4.965   7.409
16496SOL    HW251448   5.811   5.052   7.528
16497SOL     OW51449   5.665   4.964   6.239
16497SOL    HW151450   5.664   4.917   6.327
16497SOL    HW251451   5.747   4.936   6.188
16498SOL     OW51452   6.258   5.115   7.210
16498SOL    HW151453   6.180   5.065   7.248
16498SOL    HW251454   6.255   5.210   7.241
16499SOL     OW51455   7.410   3.916   6.813
16499SOL    HW151456   7.406   3.826   6.857
16499SOL    HW251457   7.413   3.905   6.714
16500SOL     OW51458   6.014   4.148   6.106
16500SOL    HW151459   6.044   4.076   6.044
16500SOL    HW251460   5.975   4.108   6.189
16501SOL     OW51461   7.291   5.211   6.690
16501SOL    HW151462   7.198   5.186   6.663
16501SOL    HW251463   7.317   5.161   6.772
16502SOL     OW51464   5.903   4.271   6.866
16502SOL    HW151465   5.941   4.212   6.938
16502SOL    HW251466   5.943   4.245   6.778
16503SOL     OW51467   6.398   5.310   6.273
16503SOL    HW151468   6.430   5.320   6.179
16503SOL    HW251469   6.319   5.248   6.275
16504SOL     OW51470   7.010   3.938   6.698
16504SOL    HW151471   7.062   3.873   6.753
16504SOL    HW251472   6.961   4.001   6.759
16505SOL     OW51473   6.356   5.054   5.887
16505SOL    HW151474   6.310   4.967   5.904
16505SOL    HW251475   6.447   5.051   5.928
16506SOL     OW51476   6.204   5.291   6.870
16506SOL    HW151477   6.199   5.373   6.927
16506SOL    HW251478   6.293   5.288   6.825
16507SOL     OW51479   6.886   4.177   6.277
16507SOL    HW151480   6.827   4.257   6.281
16507SOL    HW251481   6.901   4.142   6.370
16508SOL     OW51482   5.625   4.801   5.886
16508SOL    HW151483   5.724   4.790   5.877
16508SOL    HW251484   5.585   4.715   5.918
16509SOL     OW51485   6.461   5.370   5.923
16509SOL    HW151486   6.384   5.335   5.869
16509SOL    HW251487   6.429   5.441   5.985
16510SOL     OW51488   5.816   4.352   7.561
16510SOL    HW151489   5.723   4.350   7.598
16510SOL    HW251490   5.817   4.313   7.469
16511SOL     OW51491   5.811   3.999   8.444
16511SOL    HW151492   5.846   3.982   8.536
16511SOL    HW251493   5.723   3.954   8.432
16512SOL     OW51494   5.605   4.092   8.095
16512SOL    HW151495   5.523   4.135   8.134
16512SOL    HW251496   5.577   4.019   8.032
16513SOL     OW51497   6.155   4.999   8.613
16513SOL    HW151498   6.062   4.992   8.576
16513SOL    HW251499   6.166   5.088   8.657
16514SOL     OW51500   7.141   5.235   8.151
16514SOL    HW151501   7.084   5.219   8.232
16514SOL    HW251502   7.082   5.245   8.071
16515SOL     OW51503   7.329   4.342   8.304
16515SOL    HW151504   7.362   4.436   8.304
16515SOL    HW251505   7.380   4.288   8.370
16516SOL     OW51506   6.721   4.427   8.165
16516SOL    HW151507   6.778   4.505   8.140
16516SOL    HW251508   6.661   4.453   8.241
16517SOL     OW51509   7.341   4.331   7.679
16517SOL    HW151510   7.329   4.318   7.580
16517SOL    HW251511   7.311   4.250   7.728
16518SOL     OW51512   6.354   4.868   8.471
16518SOL    HW151513   6.276   4.885   8.531
16518SOL    HW251514   6.388   4.955   8.435
16519SOL     OW51515   6.271   4.736   8.113
16519SOL    HW151516   6.340   4.720   8.183
16519SOL    HW251517   6.198   4.793   8.151
16520SOL     OW51518   5.921   5.159   8.509
16520SOL    HW151519   5.843   5.128   8.456
16520SOL    HW251520   5.979   5.217   8.452
16521SOL     OW51521   7.046   5.229   8.787
16521SOL    HW151522   7.070   5.323   8.813
16521SOL    HW251523   7.030   5.175   8.869
16522SOL     OW51524   6.024   4.116   8.947
16522SOL    HW151525   6.106   4.060   8.956
16522SOL    HW251526   5.943   4.058   8.951
16523SOL     OW51527   7.189   4.171   8.185
16523SOL    HW151528   7.115   4.217   8.135
16523SOL    HW251529   7.240   4.239   8.238
16524SOL     OW51530   5.817   5.437   7.931
16524SOL    HW151531   5.851   5.514   7.985
16524SOL    HW251532   5.861   5.437   7.841
16525SOL     OW51533   5.816   5.158   7.986
16525SOL    HW151534   5.790   5.254   7.986
16525SOL    HW251535   5.745   5.104   8.031
16526SOL     OW51536   5.826   4.815   8.334
16526SOL    HW151537   5.840   4.731   8.386
16526SOL    HW251538   5.771   4.879   8.389
16527SOL     OW51539   6.206   5.510   8.887
16527SOL    HW151540   6.114   5.493   8.922
16527SOL    HW251541   6.234   5.602   8.913
16528SOL     OW51542   6.192   4.688   7.571
16528SOL    HW151543   6.199   4.772   7.517
16528SOL    HW251544   6.238   4.701   7.659
16529SOL     OW51545   7.180   3.838   8.928
16529SOL    HW151546   7.162   3.905   8.856
16529SOL    HW251547   7.177   3.884   9.017
16530SOL     OW51548   5.708   4.367   8.011
16530SOL    HW151549   5.663   4.279   8.028
16530SOL    HW251550   5.707   4.421   8.095
16531SOL     OW51551   7.428   5.491   7.807
16531SOL    HW151552   7.482   5.462   7.887
16531SOL    HW251553   7.458   5.581   7.778
16532SOL     OW51554   5.613   5.320   7.565
16532SOL    HW151555   5.594   5.224   7.586
16532SOL    HW251556   5.580   5.378   7.640
16533SOL     OW51557   7.275   4.646   8.060
16533SOL    HW151558   7.370   4.617   8.068
16533SOL    HW251559   7.267   4.711   7.985
16534SOL     OW51560   7.227   4.832   7.880
16534SOL    HW151561   7.313   4.834   7.828
16534SOL    HW251562   7.241   4.879   7.968
16535SOL     OW51563   6.199   5.089   8.174
16535SOL    HW151564   6.150   5.002   8.183
16535SOL    HW251565   6.176   5.132   8.087
16536SOL     OW51566   6.395   3.728   7.950
16536SOL    HW151567   6.435   3.819   7.941
16536SOL    HW251568   6.295   3.736   7.956
16537SOL     OW51569   5.783   4.700   8.712
16537SOL    HW151570   5.872   4.655   8.698
16537SOL    HW251571   5.710   4.635   8.693
16538SOL     OW51572   7.111   4.723   7.638
16538SOL    HW151573   7.048   4.647   7.651
16538SOL    HW251574   7.159   4.741   7.724
16539SOL     OW51575   7.052   5.141   8.401
16539SOL    HW151576   6.993   5.147   8.481
16539SOL    HW251577   7.037   5.053   8.355
16540SOL     OW51578   7.253   5.438   8.020
16540SOL    HW151579   7.212   5.415   7.932
16540SOL    HW251580   7.235   5.364   8.085
16541SOL     OW51581   6.184   4.453   7.718
16541SOL    HW151582   6.208   4.522   7.650
16541SOL    HW251583   6.106   4.486   7.772
16542SOL     OW51584   6.867   4.069   8.392
16542SOL    HW151585   6.781   4.019   8.379
16542SOL    HW251586   6.929   4.015   8.448
16543SOL     OW51587   7.162   5.386   7.755
16543SOL    HW151588   7.251   5.432   7.758
16543SOL    HW251589   7.141   5.362   7.660
16544SOL     OW51590   6.393   4.329   8.913
16544SOL    HW151591   6.346   4.326   9.002
16544SOL    HW251592   6.342   4.274   8.847
16545SOL     OW51593   6.577   4.134   8.690
16545SOL    HW151594   6.500   4.168   8.744
16545SOL    HW251595   6.543   4.083   8.611
16546SOL     OW51596   6.627   4.425   7.877
16546SOL    HW151597   6.653   4.421   7.973
16546SOL    HW251598   6.542   4.374   7.863
16547SOL     OW51599   5.662   4.535   8.237
16547SOL    HW151600   5.761   4.523   8.246
16547SOL    HW251601   5.638   4.630   8.258
16548SOL     OW51602   5.716   5.545   0.019
16548SOL    HW151603   5.706   5.530   0.118
16548SOL    HW251604   5.630   5.581  -0.017
16549SOL     OW51605   6.451   4.072   7.643
16549SOL    HW151606   6.510   4.135   7.594
16549SOL    HW251607   6.470   3.978   7.614
16550SOL     OW51608   6.948   4.868   7.993
16550SOL    HW151609   7.031   4.839   7.945
16550SOL    HW251610   6.899   4.935   7.937
16551SOL     OW51611   6.136   3.920   8.333
16551SOL    HW151612   6.131   3.915   8.433
16551SOL    HW251613   6.138   4.016   8.304
16552SOL     OW51614   6.594   5.180   7.925
16552SOL    HW151615   6.548   5.252   7.873
16552SOL    HW251616   6.590   5.200   8.023
16553SOL     OW51617   5.937   5.525   8.301
16553SOL    HW151618   5.987   5.439   8.307
16553SOL    HW251619   6.002   5.602   8.298
16554SOL     OW51620   7.381   4.790   8.321
16554SOL    HW151621   7.319   4.775   8.245
16554SOL    HW251622   7.329   4.801   8.406
16555SOL     OW51623   5.907   4.667   7.690
16555SOL    HW151624   5.989   4.706   7.648
16555SOL    HW251625   5.880   4.585   7.641
16556SOL     OW51626   7.044   4.459   8.176
16556SOL    HW151627   7.039   4.394   8.251
16556SOL    HW251628   7.124   4.518   8.189
16557SOL     OW51629   6.697   5.500   7.685
16557SOL    HW151630   6.637   5.438   7.735
16557SOL    HW251631   6.728   5.456   7.600
16558SOL     OW51632   5.788   4.009   8.946
16558SOL    HW151633   5.708   4.069   8.933
16558SOL    HW251634   5.778   3.960   9.032
16559SOL     OW51635   7.218   5.101   7.529
16559SOL    HW151636   7.186   5.195   7.519
16559SOL    HW251637   7.142   5.038   7.517
16560SOL     OW51638   6.050   5.467   7.771
16560SOL    HW151639   6.083   5.506   7.857
16560SOL    HW251640   6.126   5.460   7.706
16561SOL     OW51641   6.986   3.831   7.874
16561SOL    HW151642   6.962   3.794   7.784
16561SOL    HW251643   7.085   3.847   7.878
16562SOL     OW51644   5.835   5.509   8.689
16562SOL    HW151645   5.892   5.444   8.739
16562SOL    HW251646   5.819   5.476   8.596
16563SOL     OW51647   6.526   5.422   8.352
16563SOL    HW151648   6.606   5.365   8.373
16563SOL    HW251649   6.477   5.382   8.275
16564SOL     OW51650   5.968   4.424   7.928
16564SOL    HW151651   6.013   4.334   7.925
16564SOL    HW251652   5.874   4.413   7.961
16565SOL     OW51653   6.200   3.846   7.565
16565SOL    HW151654   6.298   3.824   7.572
16565SOL    HW251655   6.169   3.829   7.472
16566SOL     OW51656   6.474   5.238   8.643
16566SOL    HW151657   6.451   5.213   8.549
16566SOL    HW251658   6.535   5.169   8.682
16567SOL     OW51659   6.389   5.126   8.372
16567SOL    HW151660   6.479   5.140   8.330
16567SOL    HW251661   6.318   5.128   8.301
16568SOL     OW51662   6.508   4.227   8.347
16568SOL    HW151663   6.483   4.218   8.251
16568SOL    HW251664   6.556   4.145   8.378
16569SOL     OW51665   6.125   3.788   7.960
16569SOL    HW151666   6.044   3.789   8.018
16569SOL    HW251667   6.128   3.871   7.905
16570SOL     OW51668   7.020   4.912   7.489
16570SOL    HW151669   7.052   4.836   7.546
16570SOL    HW251670   6.928   4.939   7.519
16571SOL     OW51671   5.883   3.759   7.619
16571SOL    HW151672   5.932   3.843   7.598
16571SOL    HW251673   5.945   3.694   7.664
16572SOL     OW51674   6.521   3.960   7.928
16572SOL    HW151675   6.473   4.001   7.850
16572SOL    HW251676   6.620   3.958   7.909
16573SOL     OW51677   6.813   5.294   8.241
16573SOL    HW151678   6.834   5.368   8.176
16573SOL    HW251679   6.881   5.294   8.314
16574SOL     OW51680   6.045   4.876   8.189
16574SOL    HW151681   5.974   4.849   8.254
16574SOL    HW251682   6.019   4.848   8.096
16575SOL     OW51683   6.857   5.521   8.039
16575SOL    HW151684   6.901   5.585   7.975
16575SOL    HW251685   6.807   5.573   8.109
16576SOL     OW51686   6.618   4.273   7.464
16576SOL    HW151687   6.577   4.355   7.425
16576SOL    HW251688   6.682   4.299   7.537
16577SOL     OW51689   5.664   4.280   8.834
16577SOL    HW151690   5.756   4.279   8.793
16577SOL    HW251691   5.658   4.354   8.901
16578SOL     OW51692   6.147   3.946   8.595
16578SOL    HW151693   6.185   3.862   8.632
16578SOL    HW251694   6.059   3.965   8.639
16579SOL     OW51695   6.452   4.178   8.090
16579SOL    HW151696   6.420   4.250   8.028
16579SOL    HW251697   6.476   4.097   8.037
16580SOL     OW51698   6.603   3.763   8.201
16580SOL    HW151699   6.531   3.768   8.132
16580SOL    HW251700   6.579   3.694   8.270
16581SOL     OW51701   7.015   4.897   8.315
16581SOL    HW151702   6.960   4.813   8.308
16581SOL    HW251703   7.041   4.926   8.223
16582SOL     OW51704   7.052   4.314   8.440
16582SOL    HW151705   7.022   4.219   8.447
16582SOL    HW251706   7.125   4.330   8.506
16583SOL     OW51707   7.443   4.557   7.825
16583SOL    HW151708   7.485   4.493   7.889
16583SOL    HW251709   7.405   4.506   7.747
16584SOL     OW51710   6.074   5.109   7.622
16584SOL    HW151711   5.987   5.094   7.669
16584SOL    HW251712   6.057   5.135   7.527
16585SOL     OW51713   7.250   5.004   8.105
16585SOL    HW151714   7.349   5.012   8.119
16585SOL    HW251715   7.205   5.088   8.136
16586SOL     OW51716   6.976   4.299   7.526
16586SOL    HW151717   6.922   4.278   7.607
16586SOL    HW251718   7.067   4.258   7.535
16587SOL     OW51719   6.113   3.980   7.776
16587SOL    HW151720   6.140   3.921   7.701
16587SOL    HW251721   6.113   4.075   7.745
16588SOL     OW51722   6.650   5.071   8.788
16588SOL    HW151723   6.570   5.048   8.843
16588SOL    HW251724   6.733   5.045   8.837
16589SOL     OW51725   6.697   4.919   8.548
16589SOL    HW151726   6.657   4.963   8.629
16589SOL    HW251727   6.656   4.956   8.465
16590SOL     OW51728   7.224   4.823   8.527
16590SOL    HW151729   7.229   4.904   8.586
16590SOL    HW251730   7.138   4.825   8.476
16591SOL     OW51731   6.501   3.813   8.850
16591SOL    HW151732   6.526   3.793   8.755
16591SOL    HW251733   6.573   3.869   8.892
16592SOL     OW51734   6.291   4.774   7.816
16592SOL    HW151735   6.277   4.781   7.915
16592SOL    HW251736   6.375   4.723   7.798
16593SOL     OW51737   5.996   4.537   8.699
16593SOL    HW151738   6.082   4.549   8.749
16593SOL    HW251739   5.954   4.450   8.726
16594SOL     OW51740   6.860   4.110   8.710
16594SOL    HW151741   6.881   4.184   8.774
16594SOL    HW251742   6.771   4.127   8.667
16595SOL     OW51743   5.650   5.288   8.779
16595SOL    HW151744   5.604   5.370   8.745
16595SOL    HW251745   5.748   5.307   8.788
16596SOL     OW51746   5.953   4.824   7.949
16596SOL    HW151747   5.946   4.907   7.893
16596SOL    HW251748   5.957   4.744   7.889
16597SOL     OW51749   6.152   4.261   8.313
16597SOL    HW151750   6.164   4.327   8.239
16597SOL    HW251751   6.198   4.295   8.396
16598SOL     OW51752   6.838   5.072   7.836
16598SOL    HW151753   6.888   5.149   7.876
16598SOL    HW251754   6.743   5.074   7.868
16599SOL     OW51755   6.858   5.169   8.590
16599SOL    HW151756   6.905   5.182   8.677
16599SOL    HW251757   6.792   5.095   8.599
16600SOL     OW51758   7.168   4.363   7.920
16600SOL    HW151759   7.137   4.424   7.993
16600SOL    HW251760   7.218   4.415   7.851
16601SOL     OW51761   5.940   5.234   8.777
16601SOL    HW151762   5.919   5.190   8.690
16601SOL    HW251763   6.037   5.260   8.780
16602SOL     OW51764   5.988   4.475   0.046
16602SOL    HW151765   6.056   4.530  -0.001
16602SOL    HW251766   6.028   4.387   0.073
16603SOL     OW51767   7.173   4.503   0.118
16603SOL    HW151768   7.081   4.541   0.113
16603SOL    HW251769   7.233   4.550   0.053
16604SOL     OW51770   6.159   4.594   8.477
16604SOL    HW151771   6.203   4.683   8.468
16604SOL    HW251772   6.096   4.594   8.554
16605SOL     OW51773   6.946   4.586   8.493
16605SOL    HW151774   6.871   4.586   8.427
16605SOL    HW251775   6.983   4.494   8.502
16606SOL     OW51776   6.795   4.249   7.723
16606SOL    HW151777   6.808   4.165   7.777
16606SOL    HW251778   6.766   4.323   7.783
16607SOL     OW51779   5.893   3.937   8.679
16607SOL    HW151780   5.870   3.974   8.769
16607SOL    HW251781   5.863   3.842   8.673
16608SOL     OW51782   5.623   5.034   8.730
16608SOL    HW151783   5.676   4.985   8.798
16608SOL    HW251784   5.645   5.132   8.735
16609SOL     OW51785   6.318   4.358   8.512
16609SOL    HW151786   6.377   4.332   8.436
16609SOL    HW251787   6.290   4.454   8.501
16610SOL     OW51788   7.208   4.091   7.822
16610SOL    HW151789   7.210   4.015   7.886
16610SOL    HW251790   7.160   4.168   7.862
16611SOL     OW51791   6.609   4.490   8.414
16611SOL    HW151792   6.624   4.511   8.510
16611SOL    HW251793   6.579   4.395   8.405
16612SOL     OW51794   6.566   5.297   0.148
16612SOL    HW151795   6.546   5.341   0.060
16612SOL    HW251796   6.605   5.206   0.132
16613SOL     OW51797   7.445   5.242   0.053
16613SOL    HW151798   7.459   5.269  -0.042
16613SOL    HW251799   7.528   5.264   0.106
16614SOL     OW51800   7.126   3.998   7.573
16614SOL    HW151801   7.065   3.923   7.596
16614SOL    HW251802   7.148   4.050   7.656
16615SOL     OW51803   6.889   4.562   7.490
16615SOL    HW151804   6.923   4.469   7.505
16615SOL    HW251805   6.907   4.589   7.395
16616SOL     OW51806   6.654   5.057   8.297
16616SOL    HW151807   6.661   4.973   8.242
16616SOL    HW251808   6.716   5.126   8.261
16617SOL     OW51809   5.905   4.534   8.397
16617SOL    HW151810   5.998   4.570   8.402
16617SOL    HW251811   5.899   4.449   8.449
16618SOL     OW51812   5.925   4.233   8.454
16618SOL    HW151813   5.873   4.150   8.437
16618SOL    HW251814   6.002   4.238   8.390
16619SOL     OW51815   6.724   4.104   0.126
16619SOL    HW151816   6.679   4.167   0.190
16619SOL    HW251817   6.817   4.135   0.109
16620SOL     OW51818   6.746   3.931   8.925
16620SOL    HW151819   6.746   3.995   9.002
16620SOL    HW251820   6.774   3.979   8.842
16621SOL     OW51821   5.594   5.050   7.648
16621SOL    HW151822   5.501   5.071   7.617
16621SOL    HW251823   5.604   4.951   7.661
16622SOL     OW51824   5.674   5.525   8.375
16622SOL    HW151825   5.632   5.439   8.348
16622SOL    HW251826   5.768   5.528   8.341
16623SOL     OW51827   6.090   5.292   8.358
16623SOL    HW151828   6.156   5.366   8.367
16623SOL    HW251829   6.134   5.213   8.316
16624SOL     OW51830   6.588   4.520   8.686
16624SOL    HW151831   6.629   4.488   8.772
16624SOL    HW251832   6.492   4.493   8.683
16625SOL     OW51833   5.626   4.268   8.562
16625SOL    HW151834   5.711   4.235   8.521
16625SOL    HW251835   5.639   4.283   8.660
16626SOL     OW51836   6.401   4.296   7.773
16626SOL    HW151837   6.408   4.207   7.727
16626SOL    HW251838   6.307   4.330   7.765
16627SOL     OW51839   7.243   4.328   8.654
16627SOL    HW151840   7.205   4.259   8.716
16627SOL    HW251841   7.325   4.292   8.610
16628SOL     OW51842   6.257   4.188   8.717
16628SOL    HW151843   6.223   4.099   8.687
16628SOL    HW251844   6.283   4.242   8.637
16629SOL     OW51845   6.516   5.402   8.913
16629SOL    HW151846   6.492   5.384   8.818
16629SOL    HW251847   6.546   5.496   8.923
16630SOL     OW51848   6.059   4.224   7.639
16630SOL    HW151849   6.120   4.304   7.643
16630SOL    HW251850   5.964   4.255   7.646
16631SOL     OW51851   5.745   4.861   8.914
16631SOL    HW151852   5.767   4.800   8.990
16631SOL    HW251853   5.755   4.812   8.828
16632SOL     OW51854   6.933   4.783   8.682
16632SOL    HW151855   6.957   4.720   8.608
16632SOL    HW251856   6.843   4.823   8.664
16633SOL     OW51857   6.888   4.579   7.757
16633SOL    HW151858   6.802   4.548   7.799
16633SOL    HW251859   6.884   4.565   7.658
16634SOL     OW51860   7.345   5.471   8.602
16634SOL    HW151861   7.406   5.501   8.529
16634SOL    HW251862   7.307   5.382   8.580
16635SOL     OW51863   6.838   5.455   8.576
16635SOL    HW151864   6.922   5.460   8.522
16635SOL    HW251865   6.815   5.359   8.594
16636SOL     OW51866   5.669   4.982   8.470
16636SOL    HW151867   5.664   4.981   8.570
16636SOL    HW251868   5.586   4.941   8.432
16637SOL     OW51869   6.489   3.810   7.581
16637SOL    HW151870   6.540   3.811   7.495
16637SOL    HW251871   6.545   3.768   7.652
16638SOL     OW51872   7.312   3.859   7.971
16638SOL    HW151873   7.385   3.842   7.904
16638SOL    HW251874   7.281   3.772   8.009
16639SOL     OW51875   6.974   5.297   7.925
16639SOL    HW151876   7.041   5.309   7.851
16639SOL    HW251877   6.934   5.386   7.948
16640SOL     OW51878   6.866   4.651   8.120
16640SOL    HW151879   6.926   4.570   8.122
16640SOL    HW251880   6.906   4.720   8.060
16641SOL     OW51881   6.258   5.340   7.602
16641SOL    HW151882   6.267   5.350   7.503
16641SOL    HW251883   6.218   5.251   7.623
16642SOL     OW51884   7.236   5.444   8.842
16642SOL    HW151885   7.289   5.454   8.758
16642SOL    HW251886   7.209   5.534   8.876
16643SOL     OW51887   7.427   3.899   8.411
16643SOL    HW151888   7.466   3.814   8.375
16643SOL    HW251889   7.329   3.901   8.392
16644SOL     OW51890   5.849   4.050   8.168
16644SOL    HW151891   5.770   4.101   8.134
16644SOL    HW251892   5.840   4.035   8.266
16645SOL     OW51893   6.780   5.336   7.479
16645SOL    HW151894   6.786   5.243   7.516
16645SOL    HW251895   6.721   5.336   7.399
16646SOL     OW51896   6.408   4.726   8.820
16646SOL    HW151897   6.448   4.725   8.728
16646SOL    HW251898   6.418   4.818   8.860
16647SOL     OW51899   6.502   4.634   7.739
16647SOL    HW151900   6.565   4.672   7.671
16647SOL    HW251901   6.542   4.551   7.778
16648SOL     OW51902   7.090   5.331   7.492
16648SOL    HW151903   6.998   5.368   7.499
16648SOL    HW251904   7.128   5.351   7.402
16649SOL     OW51905   5.958   5.012   8.938
16649SOL    HW151906   5.945   5.105   8.904
16649SOL    HW251907   5.874   4.960   8.925
16650SOL     OW51908   7.200   5.016   8.737
16650SOL    HW151909   7.260   5.019   8.817
16650SOL    HW251910   7.125   5.080   8.750
16651SOL     OW51911   6.625   4.822   8.144
16651SOL    HW151912   6.555   4.775   8.198
16651SOL    HW251913   6.684   4.754   8.101
16652SOL     OW51914   6.600   3.960   8.419
16652SOL    HW151915   6.592   3.924   8.326
16652SOL    HW251916   6.598   3.884   8.484
16653SOL     OW51917   6.176   5.211   7.939
16653SOL    HW151918   6.218   5.153   7.869
16653SOL    HW251919   6.132   5.290   7.895
16654SOL     OW51920   7.295   4.109   8.829
16654SOL    HW151921   7.368   4.178   8.833
16654SOL    HW251922   7.323   4.034   8.770
16655SOL     OW51923   5.841   5.072   7.738
16655SOL    HW151924   5.745   5.073   7.711
16655SOL    HW251925   5.853   5.125   7.822
16656SOL     OW51926   5.661   4.069   7.481
16656SOL    HW151927   5.569   4.041   7.452
16656SOL    HW251928   5.692   4.146   7.425
16657SOL     OW51929   7.026   4.580   8.846
16657SOL    HW151930   6.969   4.632   8.783
16657SOL    HW251931   7.122   4.592   8.822
16658SOL     OW51932   5.658   3.890   7.766
16658SOL    HW151933   5.641   3.973   7.712
16658SOL    HW251934   5.748   3.853   7.744
16659SOL     OW51935   6.769   5.059   7.567
16659SOL    HW151936   6.670   5.048   7.569
16659SOL    HW251937   6.803   5.074   7.660
16660SOL     OW51938   6.199   4.566   8.879
16660SOL    HW151939   6.255   4.647   8.862
16660SOL    HW251940   6.258   4.486   8.882
16661SOL     OW51941   7.079   5.491   8.407
16661SOL    HW151942   7.112   5.555   8.338
16661SOL    HW251943   7.145   5.485   8.482
16662SOL     OW51944   5.976   5.465   0.008
16662SOL    HW151945   5.885   5.506   0.006
16662SOL    HW251946   5.969   5.371   0.040
16663SOL     OW51947   7.260   4.607   8.702
16663SOL    HW151948   7.233   4.518   8.665
16663SOL    HW251949   7.261   4.675   8.629
16664SOL     OW51950   6.811   4.049   7.897
16664SOL    HW151951   6.876   3.975   7.886
16664SOL    HW251952   6.831   4.099   7.981
16665SOL     OW51953   6.180   4.469   8.100
16665SOL    HW151954   6.230   4.554   8.081
16665SOL    HW251955   6.092   4.471   8.052
16666SOL     OW51956   7.363   4.066   0.090
16666SOL    HW151957   7.346   4.097  -0.004
16666SOL    HW251958   7.279   4.029   0.128
16667SOL     OW51959   7.316   4.658   8.965
16667SOL    HW151960   7.354   4.749   8.980
16667SOL    HW251961   7.308   4.641   8.866
16668SOL     OW51962   6.445   5.098   7.464
16668SOL    HW151963   6.399   5.113   7.552
16668SOL    HW251964   6.489   5.183   7.434
16669SOL     OW51965   6.247   5.514   8.401
16669SOL    HW151966   6.201   5.602   8.388
16669SOL    HW251967   6.346   5.526   8.394
16670SOL     OW51968   6.994   5.575   0.168
16670SOL    HW151969   6.898   5.564   0.141
16670SOL    HW251970   7.050   5.508   0.120
16671SOL     OW51971   6.445   4.680   8.309
16671SOL    HW151972   6.499   4.611   8.357
16671SOL    HW251973   6.413   4.749   8.375
16672SOL     OW51974   6.669   4.708   7.535
16672SOL    HW151975   6.646   4.761   7.453
16672SOL    HW251976   6.750   4.652   7.516
16673SOL     OW51977   7.447   5.293   8.299
16673SOL    HW151978   7.376   5.281   8.229
16673SOL    HW251979   7.448   5.214   8.359
16674SOL     OW51980   5.665   4.964   8.101
16674SOL    HW151981   5.664   4.917   8.189
16674SOL    HW251982   5.747   4.936   8.050
16675SOL     OW51983   7.410   3.916   8.675
16675SOL    HW151984   7.406   3.826   8.719
16675SOL    HW251985   7.413   3.905   8.576
16676SOL     OW51986   6.014   4.148   7.968
16676SOL    HW151987   6.044   4.076   7.906
16676SOL    HW251988   5.975   4.108   8.051
16677SOL     OW51989   7.291   5.211   8.552
16677SOL    HW151990   7.198   5.186   8.525
16677SOL    HW251991   7.317   5.161   8.634
16678SOL     OW51992   5.903   4.271   8.728
16678SOL    HW151993   5.941   4.212   8.800
16678SOL    HW251994   5.943   4.245   8.640
16679SOL     OW51995   6.398   5.310   8.135
16679SOL    HW151996   6.430   5.320   8.041
16679SOL    HW251997   6.319   5.248   8.137
16680SOL     OW51998   7.010   3.938   8.560
16680SOL    HW151999   7.062   3.873   8.615
16680SOL    HW252000   6.961   4.001   8.621
16681SOL     OW52001   6.587   3.758   8.602
16681SOL    HW152002   6.524   3.686   8.571
16681SOL    HW252003   6.680   3.722   8.602
16682SOL     OW52004   6.356   5.054   7.749
16682SOL    HW152005   6.310   4.967   7.766
16682SOL    HW252006   6.447   5.051   7.790
16683SOL     OW52007   6.204   5.291   8.732
16683SOL    HW152008   6.199   5.373   8.789
16683SOL    HW252009   6.293   5.288   8.687
16684SOL     OW52010   6.938   3.776   7.616
16684SOL    HW152011   6.973   3.735   7.532
16684SOL    HW252012   6.848   3.738   7.636
16685SOL     OW52013   6.886   4.177   8.139
16685SOL    HW152014   6.827   4.257   8.143
16685SOL    HW252015   6.901   4.142   8.232
16686SOL     OW52016   7.179   3.945   8.330
16686SOL    HW152017   7.095   3.944   8.384
16686SOL    HW252018   7.181   4.028   8.274
16687SOL     OW52019   5.625   4.801   7.748
16687SOL    HW152020   5.724   4.790   7.739
16687SOL    HW252021   5.585   4.715   7.780
16688SOL     OW52022   6.461   5.370   7.785
16688SOL    HW152023   6.384   5.335   7.731
16688SOL    HW252024   6.429   5.441   7.847
16689SOL     OW52025   5.816   6.214   0.113
16689SOL    HW152026   5.723   6.212   0.150
16689SOL    HW252027   5.817   6.175   0.021
16690SOL     OW52028   5.811   5.861   0.996
16690SOL    HW152029   5.846   5.844   1.088
16690SOL    HW252030   5.723   5.816   0.984
16691SOL     OW52031   5.605   5.954   0.647
16691SOL    HW152032   5.523   5.997   0.686
16691SOL    HW252033   5.577   5.881   0.584
16692SOL     OW52034   6.155   6.861   1.165
16692SOL    HW152035   6.062   6.854   1.128
16692SOL    HW252036   6.166   6.950   1.209
16693SOL     OW52037   7.141   7.097   0.703
16693SOL    HW152038   7.084   7.081   0.784
16693SOL    HW252039   7.082   7.107   0.623
16694SOL     OW52040   7.329   6.204   0.856
16694SOL    HW152041   7.362   6.298   0.856
16694SOL    HW252042   7.380   6.150   0.922
16695SOL     OW52043   6.721   6.289   0.717
16695SOL    HW152044   6.778   6.367   0.692
16695SOL    HW252045   6.661   6.315   0.793
16696SOL     OW52046   7.341   6.193   0.231
16696SOL    HW152047   7.329   6.180   0.132
16696SOL    HW252048   7.311   6.112   0.280
16697SOL     OW52049   6.354   6.730   1.023
16697SOL    HW152050   6.276   6.747   1.083
16697SOL    HW252051   6.388   6.817   0.987
16698SOL     OW52052   6.436   6.384   1.823
16698SOL    HW152053   6.432   6.460   1.888
16698SOL    HW252054   6.458   6.420   1.732
16699SOL     OW52055   6.271   6.598   0.665
16699SOL    HW152056   6.340   6.582   0.735
16699SOL    HW252057   6.198   6.655   0.703
16700SOL     OW52058   6.272   6.747   1.803
16700SOL    HW152059   6.332   6.826   1.817
16700SOL    HW252060   6.186   6.778   1.762
16701SOL     OW52061   5.921   7.021   1.061
16701SOL    HW152062   5.843   6.990   1.008
16701SOL    HW252063   5.979   7.079   1.004
16702SOL     OW52064   7.046   7.091   1.339
16702SOL    HW152065   7.070   7.185   1.365
16702SOL    HW252066   7.030   7.037   1.421
16703SOL     OW52067   6.024   5.978   1.499
16703SOL    HW152068   6.106   5.922   1.508
16703SOL    HW252069   5.943   5.920   1.503
16704SOL     OW52070   7.189   6.033   0.737
16704SOL    HW152071   7.115   6.079   0.687
16704SOL    HW252072   7.240   6.101   0.790
16705SOL     OW52073   5.817   7.299   0.483
16705SOL    HW152074   5.851   7.376   0.537
16705SOL    HW252075   5.861   7.299   0.393
16706SOL     OW52076   6.713   6.927   1.690
16706SOL    HW152077   6.760   6.927   1.778
16706SOL    HW252078   6.665   6.840   1.679
16707SOL     OW52079   5.816   7.020   0.538
16707SOL    HW152080   5.790   7.116   0.538
16707SOL    HW252081   5.745   6.966   0.583
16708SOL     OW52082   5.826   6.677   0.886
16708SOL    HW152083   5.840   6.593   0.938
16708SOL    HW252084   5.771   6.741   0.941
16709SOL     OW52085   6.206   7.372   1.439
16709SOL    HW152086   6.114   7.355   1.474
16709SOL    HW252087   6.234   7.464   1.465
16710SOL     OW52088   6.192   6.550   0.123
16710SOL    HW152089   6.199   6.634   0.069
16710SOL    HW252090   6.238   6.563   0.211
16711SOL     OW52091   7.180   5.700   1.480
16711SOL    HW152092   7.162   5.767   1.408
16711SOL    HW252093   7.177   5.746   1.569
16712SOL     OW52094   5.708   6.229   0.563
16712SOL    HW152095   5.663   6.141   0.580
16712SOL    HW252096   5.707   6.283   0.647
16713SOL     OW52097   7.428   7.353   0.359
16713SOL    HW152098   7.482   7.324   0.439
16713SOL    HW252099   7.458   7.443   0.330
16714SOL     OW52100   7.275   6.508   0.612
16714SOL    HW152101   7.370   6.479   0.620
16714SOL    HW252102   7.267   6.573   0.537
16715SOL     OW52103   7.227   6.694   0.432
16715SOL    HW152104   7.313   6.696   0.380
16715SOL    HW252105   7.241   6.741   0.520
16716SOL     OW52106   5.699   6.323   1.597
16716SOL    HW152107   5.787   6.310   1.642
16716SOL    HW252108   5.686   6.420   1.575
16717SOL     OW52109   6.199   6.951   0.726
16717SOL    HW152110   6.150   6.864   0.735
16717SOL    HW252111   6.176   6.994   0.639
16718SOL     OW52112   6.879   6.814   1.423
16718SOL    HW152113   6.916   6.741   1.365
16718SOL    HW252114   6.931   6.819   1.508
16719SOL     OW52115   6.395   5.590   0.502
16719SOL    HW152116   6.435   5.681   0.493
16719SOL    HW252117   6.295   5.598   0.508
16720SOL     OW52118   5.783   6.562   1.264
16720SOL    HW152119   5.872   6.517   1.250
16720SOL    HW252120   5.710   6.497   1.245
16721SOL     OW52121   7.111   6.585   0.190
16721SOL    HW152122   7.048   6.509   0.203
16721SOL    HW252123   7.159   6.603   0.276
16722SOL     OW52124   6.773   7.378   1.616
16722SOL    HW152125   6.797   7.438   1.540
16722SOL    HW252126   6.780   7.283   1.586
16723SOL     OW52127   5.903   5.837   1.801
16723SOL    HW152128   5.974   5.908   1.807
16723SOL    HW252129   5.815   5.876   1.829
16724SOL     OW52130   7.052   7.003   0.953
16724SOL    HW152131   6.993   7.009   1.033
16724SOL    HW252132   7.037   6.915   0.907
16725SOL     OW52133   7.253   7.300   0.572
16725SOL    HW152134   7.212   7.277   0.484
16725SOL    HW252135   7.235   7.226   0.637
16726SOL     OW52136   6.184   6.315   0.270
16726SOL    HW152137   6.208   6.384   0.202
16726SOL    HW252138   6.106   6.348   0.324
16727SOL     OW52139   6.867   5.931   0.944
16727SOL    HW152140   6.781   5.881   0.931
16727SOL    HW252141   6.929   5.877   1.000
16728SOL     OW52142   7.162   7.248   0.307
16728SOL    HW152143   7.251   7.294   0.310
16728SOL    HW252144   7.141   7.224   0.212
16729SOL     OW52145   6.393   6.191   1.465
16729SOL    HW152146   6.346   6.188   1.554
16729SOL    HW252147   6.342   6.136   1.399
16730SOL     OW52148   6.980   6.055   1.674
16730SOL    HW152149   6.960   6.098   1.762
16730SOL    HW252150   7.058   5.993   1.683
16731SOL     OW52151   6.559   6.476   1.572
16731SOL    HW152152   6.605   6.392   1.543
16731SOL    HW252153   6.503   6.510   1.497
16732SOL     OW52154   6.577   5.996   1.242
16732SOL    HW152155   6.500   6.030   1.296
16732SOL    HW252156   6.543   5.945   1.163
16733SOL     OW52157   6.627   6.287   0.429
16733SOL    HW152158   6.653   6.283   0.525
16733SOL    HW252159   6.542   6.236   0.415
16734SOL     OW52160   5.662   6.397   0.789
16734SOL    HW152161   5.761   6.385   0.798
16734SOL    HW252162   5.638   6.492   0.810
16735SOL     OW52163   5.716   7.407   1.571
16735SOL    HW152164   5.706   7.392   1.670
16735SOL    HW252165   5.630   7.443   1.535
16736SOL     OW52166   6.451   5.934   0.195
16736SOL    HW152167   6.510   5.997   0.146
16736SOL    HW252168   6.470   5.840   0.166
16737SOL     OW52169   7.305   6.171   1.831
16737SOL    HW152170   7.279   6.260   1.795
16737SOL    HW252171   7.303   6.103   1.758
16738SOL     OW52172   6.948   6.730   0.545
16738SOL    HW152173   7.031   6.701   0.497
16738SOL    HW252174   6.899   6.797   0.489
16739SOL     OW52175   6.136   5.782   0.885
16739SOL    HW152176   6.131   5.777   0.985
16739SOL    HW252177   6.138   5.878   0.856
16740SOL     OW52178   6.594   7.042   0.477
16740SOL    HW152179   6.548   7.114   0.425
16740SOL    HW252180   6.590   7.062   0.575
16741SOL     OW52181   5.937   7.387   0.853
16741SOL    HW152182   5.987   7.301   0.859
16741SOL    HW252183   6.002   7.464   0.850
16742SOL     OW52184   7.381   6.652   0.873
16742SOL    HW152185   7.319   6.637   0.797
16742SOL    HW252186   7.329   6.663   0.958
16743SOL     OW52187   6.813   7.136   1.506
16743SOL    HW152188   6.819   7.059   1.570
16743SOL    HW252189   6.761   7.110   1.426
16744SOL     OW52190   5.907   6.529   0.242
16744SOL    HW152191   5.989   6.568   0.200
16744SOL    HW252192   5.880   6.447   0.193
16745SOL     OW52193   7.044   6.321   0.728
16745SOL    HW152194   7.039   6.256   0.803
16745SOL    HW252195   7.124   6.380   0.741
16746SOL     OW52196   6.047   6.852   1.727
16746SOL    HW152197   5.997   6.853   1.641
16746SOL    HW252198   5.984   6.834   1.803
16747SOL     OW52199   6.697   7.362   0.237
16747SOL    HW152200   6.637   7.300   0.287
16747SOL    HW252201   6.728   7.318   0.152
16748SOL     OW52202   5.788   5.871   1.498
16748SOL    HW152203   5.708   5.931   1.485
16748SOL    HW252204   5.778   5.822   1.584
16749SOL     OW52205   7.218   6.963   0.081
16749SOL    HW152206   7.186   7.057   0.071
16749SOL    HW252207   7.142   6.900   0.069
16750SOL     OW52208   6.050   7.329   0.323
16750SOL    HW152209   6.083   7.368   0.409
16750SOL    HW252210   6.126   7.322   0.258
16751SOL     OW52211   6.986   5.693   0.426
16751SOL    HW152212   6.962   5.656   0.336
16751SOL    HW252213   7.085   5.709   0.430
16752SOL     OW52214   5.835   7.371   1.241
16752SOL    HW152215   5.892   7.306   1.291
16752SOL    HW252216   5.819   7.338   1.148
16753SOL     OW52217   6.526   7.284   0.904
16753SOL    HW152218   6.606   7.227   0.925
16753SOL    HW252219   6.477   7.244   0.827
16754SOL     OW52220   5.968   6.286   0.480
16754SOL    HW152221   6.013   6.196   0.477
16754SOL    HW252222   5.874   6.275   0.513
16755SOL     OW52223   7.133   5.808   1.729
16755SOL    HW152224   7.128   5.845   1.821
16755SOL    HW252225   7.061   5.739   1.717
16756SOL     OW52226   6.200   5.708   0.117
16756SOL    HW152227   6.298   5.686   0.124
16756SOL    HW252228   6.169   5.691   0.024
16757SOL     OW52229   6.367   5.850   1.749
16757SOL    HW152230   6.434   5.789   1.792
16757SOL    HW252231   6.294   5.869   1.814
16758SOL     OW52232   6.474   7.100   1.195
16758SOL    HW152233   6.451   7.075   1.101
16758SOL    HW252234   6.535   7.031   1.234
16759SOL     OW52235   6.937   6.176   1.433
16759SOL    HW152236   6.965   6.133   1.518
16759SOL    HW252237   6.962   6.272   1.434
16760SOL     OW52238   6.389   6.988   0.924
16760SOL    HW152239   6.479   7.002   0.882
16760SOL    HW252240   6.318   6.990   0.853
16761SOL     OW52241   6.508   6.089   0.899
16761SOL    HW152242   6.483   6.080   0.803
16761SOL    HW252243   6.556   6.007   0.930
16762SOL     OW52244   6.125   5.650   0.512
16762SOL    HW152245   6.044   5.651   0.570
16762SOL    HW252246   6.128   5.733   0.457
16763SOL     OW52247   7.020   6.774   0.041
16763SOL    HW152248   7.052   6.698   0.098
16763SOL    HW252249   6.928   6.801   0.071
16764SOL     OW52250   5.883   5.621   0.171
16764SOL    HW152251   5.932   5.705   0.150
16764SOL    HW252252   5.945   5.556   0.216
16765SOL     OW52253   6.521   5.822   0.480
16765SOL    HW152254   6.473   5.863   0.402
16765SOL    HW252255   6.620   5.820   0.461
16766SOL     OW52256   6.662   6.269   1.464
16766SOL    HW152257   6.582   6.208   1.467
16766SOL    HW252258   6.743   6.216   1.440
16767SOL     OW52259   6.813   7.156   0.793
16767SOL    HW152260   6.834   7.230   0.728
16767SOL    HW252261   6.881   7.156   0.866
16768SOL     OW52262   6.045   6.738   0.741
16768SOL    HW152263   5.974   6.711   0.806
16768SOL    HW252264   6.019   6.710   0.648
16769SOL     OW52265   6.857   7.383   0.591
16769SOL    HW152266   6.901   7.447   0.527
16769SOL    HW252267   6.807   7.435   0.661
16770SOL     OW52268   6.618   6.135   0.016
16770SOL    HW152269   6.577   6.217  -0.023
16770SOL    HW252270   6.682   6.161   0.089
16771SOL     OW52271   5.664   6.142   1.386
16771SOL    HW152272   5.756   6.141   1.345
16771SOL    HW252273   5.658   6.216   1.453
16772SOL     OW52274   6.147   5.808   1.147
16772SOL    HW152275   6.185   5.724   1.184
16772SOL    HW252276   6.059   5.827   1.191
16773SOL     OW52277   6.452   6.040   0.642
16773SOL    HW152278   6.420   6.112   0.580
16773SOL    HW252279   6.476   5.959   0.589
16774SOL     OW52280   6.603   5.625   0.753
16774SOL    HW152281   6.531   5.630   0.684
16774SOL    HW252282   6.579   5.556   0.822
16775SOL     OW52283   7.015   6.759   0.867
16775SOL    HW152284   6.960   6.675   0.860
16775SOL    HW252285   7.041   6.788   0.775
16776SOL     OW52286   7.052   6.176   0.992
16776SOL    HW152287   7.022   6.081   0.999
16776SOL    HW252288   7.125   6.192   1.058
16777SOL     OW52289   7.443   6.419   0.377
16777SOL    HW152290   7.485   6.355   0.441
16777SOL    HW252291   7.405   6.368   0.299
16778SOL     OW52292   6.074   6.971   0.174
16778SOL    HW152293   5.987   6.956   0.221
16778SOL    HW252294   6.057   6.997   0.079
16779SOL     OW52295   7.250   6.866   0.657
16779SOL    HW152296   7.349   6.874   0.671
16779SOL    HW252297   7.205   6.950   0.688
16780SOL     OW52298   6.976   6.161   0.078
16780SOL    HW152299   6.922   6.140   0.159
16780SOL    HW252300   7.067   6.120   0.087
16781SOL     OW52301   6.113   5.842   0.328
16781SOL    HW152302   6.140   5.783   0.253
16781SOL    HW252303   6.113   5.937   0.297
16782SOL     OW52304   7.340   6.809   1.588
16782SOL    HW152305   7.431   6.770   1.575
16782SOL    HW252306   7.348   6.905   1.612
16783SOL     OW52307   6.650   6.933   1.340
16783SOL    HW152308   6.570   6.910   1.395
16783SOL    HW252309   6.733   6.907   1.389
16784SOL     OW52310   7.178   7.215   1.625
16784SOL    HW152311   7.205   7.249   1.535
16784SOL    HW252312   7.257   7.177   1.671
16785SOL     OW52313   6.697   6.781   1.100
16785SOL    HW152314   6.657   6.825   1.181
16785SOL    HW252315   6.656   6.818   1.017
16786SOL     OW52316   7.224   6.685   1.079
16786SOL    HW152317   7.229   6.766   1.138
16786SOL    HW252318   7.138   6.687   1.028
16787SOL     OW52319   6.501   5.675   1.402
16787SOL    HW152320   6.526   5.655   1.307
16787SOL    HW252321   6.573   5.731   1.444
16788SOL     OW52322   6.566   6.702   1.719
16788SOL    HW152323   6.467   6.708   1.729
16788SOL    HW252324   6.589   6.622   1.663
16789SOL     OW52325   6.291   6.636   0.368
16789SOL    HW152326   6.277   6.643   0.467
16789SOL    HW252327   6.375   6.585   0.350
16790SOL     OW52328   5.996   6.399   1.251
16790SOL    HW152329   6.082   6.411   1.301
16790SOL    HW252330   5.954   6.312   1.278
16791SOL     OW52331   6.860   5.972   1.262
16791SOL    HW152332   6.881   6.046   1.326
16791SOL    HW252333   6.771   5.989   1.219
16792SOL     OW52334   5.650   7.150   1.331
16792SOL    HW152335   5.604   7.232   1.297
16792SOL    HW252336   5.748   7.169   1.340
16793SOL     OW52337   5.953   6.686   0.501
16793SOL    HW152338   5.946   6.769   0.445
16793SOL    HW252339   5.957   6.606   0.441
16794SOL     OW52340   6.152   6.123   0.865
16794SOL    HW152341   6.164   6.189   0.791
16794SOL    HW252342   6.198   6.157   0.948
16795SOL     OW52343   6.838   6.934   0.388
16795SOL    HW152344   6.888   7.011   0.428
16795SOL    HW252345   6.743   6.936   0.420
16796SOL     OW52346   6.858   7.031   1.142
16796SOL    HW152347   6.905   7.044   1.229
16796SOL    HW252348   6.792   6.957   1.151
16797SOL     OW52349   7.168   6.225   0.472
16797SOL    HW152350   7.137   6.286   0.545
16797SOL    HW252351   7.218   6.277   0.403
16798SOL     OW52352   5.940   7.096   1.329
16798SOL    HW152353   5.919   7.052   1.242
16798SOL    HW252354   6.037   7.122   1.332
16799SOL     OW52355   5.988   6.337   1.598
16799SOL    HW152356   6.056   6.392   1.551
16799SOL    HW252357   6.028   6.249   1.625
16800SOL     OW52358   7.173   6.365   1.670
16800SOL    HW152359   7.081   6.403   1.665
16800SOL    HW252360   7.233   6.412   1.605
16801SOL     OW52361   6.599   5.691   1.770
16801SOL    HW152362   6.605   5.776   1.718
16801SOL    HW252363   6.631   5.615   1.713
16802SOL     OW52364   6.090   5.636   1.740
16802SOL    HW152365   6.048   5.579   1.670
16802SOL    HW252366   6.024   5.705   1.772
16803SOL     OW52367   6.159   6.456   1.029
16803SOL    HW152368   6.203   6.545   1.020
16803SOL    HW252369   6.096   6.456   1.106
16804SOL     OW52370   6.946   6.448   1.045
16804SOL    HW152371   6.871   6.448   0.979
16804SOL    HW252372   6.983   6.356   1.054
16805SOL     OW52373   6.795   6.111   0.275
16805SOL    HW152374   6.808   6.027   0.329
16805SOL    HW252375   6.766   6.185   0.335
16806SOL     OW52376   5.893   5.799   1.231
16806SOL    HW152377   5.870   5.836   1.321
16806SOL    HW252378   5.863   5.704   1.225
16807SOL     OW52379   5.623   6.896   1.282
16807SOL    HW152380   5.676   6.847   1.350
16807SOL    HW252381   5.645   6.994   1.287
16808SOL     OW52382   6.318   6.220   1.064
16808SOL    HW152383   6.377   6.194   0.988
16808SOL    HW252384   6.290   6.316   1.053
16809SOL     OW52385   7.314   6.521   1.854
16809SOL    HW152386   7.268   6.514   1.765
16809SOL    HW252387   7.252   6.565   1.920
16810SOL     OW52388   5.893   5.649   0.618
16810SOL    HW152389   5.882   5.743   0.651
16810SOL    HW252390   5.888   5.586   0.695
16811SOL     OW52391   7.208   5.953   0.374
16811SOL    HW152392   7.210   5.877   0.438
16811SOL    HW252393   7.160   6.030   0.414
16812SOL     OW52394   6.609   6.352   0.966
16812SOL    HW152395   6.624   6.373   1.062
16812SOL    HW252396   6.579   6.257   0.957
16813SOL     OW52397   6.566   7.159   1.700
16813SOL    HW152398   6.546   7.203   1.612
16813SOL    HW252399   6.605   7.068   1.684
16814SOL     OW52400   7.445   7.104   1.605
16814SOL    HW152401   7.459   7.131   1.510
16814SOL    HW252402   7.528   7.126   1.658
16815SOL     OW52403   5.936   6.484   1.804
16815SOL    HW152404   6.012   6.528   1.852
16815SOL    HW252405   5.971   6.437   1.722
16816SOL     OW52406   7.126   5.860   0.125
16816SOL    HW152407   7.065   5.785   0.148
16816SOL    HW252408   7.148   5.912   0.208
16817SOL     OW52409   6.889   6.424   0.042
16817SOL    HW152410   6.923   6.331   0.057
16817SOL    HW252411   6.907   6.451  -0.053
16818SOL     OW52412   6.654   6.919   0.849
16818SOL    HW152413   6.661   6.835   0.794
16818SOL    HW252414   6.716   6.988   0.813
16819SOL     OW52415   5.905   6.396   0.949
16819SOL    HW152416   5.998   6.432   0.954
16819SOL    HW252417   5.899   6.311   1.001
16820SOL     OW52418   5.925   6.095   1.006
16820SOL    HW152419   5.873   6.012   0.989
16820SOL    HW252420   6.002   6.100   0.942
16821SOL     OW52421   6.097   6.001   1.808
16821SOL    HW152422   6.079   6.046   1.896
16821SOL    HW252423   6.139   6.066   1.745
16822SOL     OW52424   6.724   5.966   1.678
16822SOL    HW152425   6.679   6.029   1.742
16822SOL    HW252426   6.817   5.997   1.661
16823SOL     OW52427   6.746   5.793   1.477
16823SOL    HW152428   6.746   5.857   1.554
16823SOL    HW252429   6.774   5.841   1.394
16824SOL     OW52430   5.594   6.912   0.200
16824SOL    HW152431   5.501   6.933   0.169
16824SOL    HW252432   5.604   6.813   0.213
16825SOL     OW52433   5.674   7.387   0.927
16825SOL    HW152434   5.632   7.301   0.900
16825SOL    HW252435   5.768   7.390   0.893
16826SOL     OW52436   6.090   7.154   0.910
16826SOL    HW152437   6.156   7.228   0.919
16826SOL    HW252438   6.134   7.075   0.868
16827SOL     OW52439   6.588   6.382   1.238
16827SOL    HW152440   6.629   6.350   1.324
16827SOL    HW252441   6.492   6.355   1.235
16828SOL     OW52442   5.626   6.130   1.114
16828SOL    HW152443   5.711   6.097   1.073
16828SOL    HW252444   5.639   6.145   1.212
16829SOL     OW52445   5.775   6.106   1.722
16829SOL    HW152446   5.834   6.066   1.652
16829SOL    HW252447   5.717   6.177   1.681
16830SOL     OW52448   6.955   6.536   1.660
16830SOL    HW152449   6.994   6.625   1.680
16830SOL    HW252450   6.965   6.516   1.563
16831SOL     OW52451   6.401   6.158   0.325
16831SOL    HW152452   6.408   6.069   0.279
16831SOL    HW252453   6.307   6.192   0.317
16832SOL     OW52454   7.243   6.190   1.206
16832SOL    HW152455   7.205   6.121   1.268
16832SOL    HW252456   7.325   6.154   1.162
16833SOL     OW52457   5.838   7.150   1.744
16833SOL    HW152458   5.808   7.207   1.820
16833SOL    HW252459   5.831   7.053   1.770
16834SOL     OW52460   6.257   6.050   1.269
16834SOL    HW152461   6.223   5.961   1.239
16834SOL    HW252462   6.283   6.104   1.189
16835SOL     OW52463   6.516   7.264   1.465
16835SOL    HW152464   6.492   7.246   1.370
16835SOL    HW252465   6.546   7.358   1.475
16836SOL     OW52466   6.059   6.086   0.191
16836SOL    HW152467   6.120   6.166   0.195
16836SOL    HW252468   5.964   6.117   0.198
16837SOL     OW52469   5.745   6.723   1.466
16837SOL    HW152470   5.767   6.662   1.542
16837SOL    HW252471   5.755   6.674   1.380
16838SOL     OW52472   6.933   6.645   1.234
16838SOL    HW152473   6.957   6.582   1.160
16838SOL    HW252474   6.843   6.685   1.216
16839SOL     OW52475   6.888   6.441   0.309
16839SOL    HW152476   6.802   6.410   0.351
16839SOL    HW252477   6.884   6.427   0.210
16840SOL     OW52478   7.345   7.333   1.154
16840SOL    HW152479   7.406   7.363   1.081
16840SOL    HW252480   7.307   7.244   1.132
16841SOL     OW52481   6.838   7.317   1.128
16841SOL    HW152482   6.922   7.322   1.074
16841SOL    HW252483   6.815   7.221   1.146
16842SOL     OW52484   5.669   6.844   1.022
16842SOL    HW152485   5.664   6.843   1.122
16842SOL    HW252486   5.586   6.803   0.984
16843SOL     OW52487   6.274   7.248   1.716
16843SOL    HW152488   6.218   7.329   1.725
16843SOL    HW252489   6.326   7.252   1.630
16844SOL     OW52490   6.489   5.672   0.133
16844SOL    HW152491   6.540   5.673   0.047
16844SOL    HW252492   6.545   5.630   0.204
16845SOL     OW52493   7.312   5.721   0.523
16845SOL    HW152494   7.385   5.704   0.456
16845SOL    HW252495   7.281   5.634   0.561
16846SOL     OW52496   6.974   7.159   0.477
16846SOL    HW152497   7.041   7.171   0.403
16846SOL    HW252498   6.934   7.248   0.500
16847SOL     OW52499   5.716   7.380   1.851
16847SOL    HW152500   5.675   7.306   1.904
16847SOL    HW252501   5.780   7.431   1.909
16848SOL     OW52502   6.866   6.513   0.672
16848SOL    HW152503   6.926   6.432   0.674
16848SOL    HW252504   6.906   6.582   0.612
16849SOL     OW52505   6.416   6.859   1.422
16849SOL    HW152506   6.411   6.892   1.517
16849SOL    HW252507   6.330   6.878   1.376
16850SOL     OW52508   6.258   7.202   0.154
16850SOL    HW152509   6.267   7.212   0.055
16850SOL    HW252510   6.218   7.113   0.175
16851SOL     OW52511   7.236   7.306   1.394
16851SOL    HW152512   7.289   7.316   1.310
16851SOL    HW252513   7.209   7.396   1.428
16852SOL     OW52514   7.427   5.761   0.963
16852SOL    HW152515   7.466   5.676   0.927
16852SOL    HW252516   7.329   5.763   0.944
16853SOL     OW52517   5.849   5.912   0.720
16853SOL    HW152518   5.770   5.963   0.686
16853SOL    HW252519   5.840   5.897   0.818
16854SOL     OW52520   6.780   7.198   0.031
16854SOL    HW152521   6.786   7.105   0.068
16854SOL    HW252522   6.721   7.198  -0.049
16855SOL     OW52523   6.408   6.588   1.372
16855SOL    HW152524   6.448   6.587   1.280
16855SOL    HW252525   6.418   6.680   1.412
16856SOL     OW52526   6.502   6.496   0.291
16856SOL    HW152527   6.565   6.534   0.223
16856SOL    HW252528   6.542   6.413   0.330
16857SOL     OW52529   7.090   7.193   0.044
16857SOL    HW152530   6.998   7.230   0.051
16857SOL    HW252531   7.128   7.213  -0.046
16858SOL     OW52532   5.958   6.874   1.490
16858SOL    HW152533   5.945   6.967   1.456
16858SOL    HW252534   5.874   6.822   1.477
16859SOL     OW52535   7.200   6.878   1.289
16859SOL    HW152536   7.260   6.881   1.369
16859SOL    HW252537   7.125   6.942   1.302
16860SOL     OW52538   6.625   6.684   0.696
16860SOL    HW152539   6.555   6.637   0.750
16860SOL    HW252540   6.684   6.616   0.653
16861SOL     OW52541   6.600   5.822   0.971
16861SOL    HW152542   6.592   5.786   0.878
16861SOL    HW252543   6.598   5.746   1.036
16862SOL     OW52544   6.176   7.073   0.491
16862SOL    HW152545   6.218   7.015   0.421
16862SOL    HW252546   6.132   7.152   0.447
16863SOL     OW52547   7.295   5.971   1.381
16863SOL    HW152548   7.368   6.040   1.385
16863SOL    HW252549   7.323   5.896   1.322
16864SOL     OW52550   5.841   6.934   0.290
16864SOL    HW152551   5.745   6.935   0.263
16864SOL    HW252552   5.853   6.987   0.374
16865SOL     OW52553   5.691   6.599   1.726
16865SOL    HW152554   5.614   6.566   1.780
16865SOL    HW252555   5.776   6.569   1.768
16866SOL     OW52556   6.258   5.789   1.489
16866SOL    HW152557   6.348   5.773   1.449
16866SOL    HW252558   6.266   5.794   1.588
16867SOL     OW52559   7.026   6.442   1.398
16867SOL    HW152560   6.969   6.494   1.335
16867SOL    HW252561   7.122   6.454   1.374
16868SOL     OW52562   5.658   5.752   0.318
16868SOL    HW152563   5.641   5.835   0.264
16868SOL    HW252564   5.748   5.715   0.296
16869SOL     OW52565   6.769   6.921   0.119
16869SOL    HW152566   6.670   6.910   0.121
16869SOL    HW252567   6.803   6.936   0.212
16870SOL     OW52568   6.199   6.428   1.431
16870SOL    HW152569   6.255   6.509   1.414
16870SOL    HW252570   6.258   6.348   1.434
16871SOL     OW52571   7.079   7.353   0.959
16871SOL    HW152572   7.112   7.417   0.890
16871SOL    HW252573   7.145   7.347   1.034
16872SOL     OW52574   6.302   6.151   1.708
16872SOL    HW152575   6.321   6.216   1.782
16872SOL    HW252576   6.362   6.071   1.717
16873SOL     OW52577   7.036   6.806   1.633
16873SOL    HW152578   7.027   6.796   1.732
16873SOL    HW252579   7.132   6.799   1.607
16874SOL     OW52580   5.976   7.327   1.560
16874SOL    HW152581   5.885   7.368   1.558
16874SOL    HW252582   5.969   7.233   1.592
16875SOL     OW52583   7.260   6.469   1.254
16875SOL    HW152584   7.233   6.380   1.217
16875SOL    HW252585   7.261   6.537   1.181
16876SOL     OW52586   6.811   5.911   0.449
16876SOL    HW152587   6.876   5.837   0.438
16876SOL    HW252588   6.831   5.961   0.533
16877SOL     OW52589   6.180   6.331   0.652
16877SOL    HW152590   6.230   6.416   0.633
16877SOL    HW252591   6.092   6.333   0.604
16878SOL     OW52592   7.363   5.928   1.642
16878SOL    HW152593   7.346   5.959   1.548
16878SOL    HW252594   7.279   5.891   1.680
16879SOL     OW52595   7.316   6.520   1.517
16879SOL    HW152596   7.354   6.611   1.532
16879SOL    HW252597   7.308   6.503   1.418
16880SOL     OW52598   6.445   6.960   0.016
16880SOL    HW152599   6.399   6.975   0.104
16880SOL    HW252600   6.489   7.045  -0.014
16881SOL     OW52601   6.247   7.376   0.953
16881SOL    HW152602   6.201   7.464   0.940
16881SOL    HW252603   6.346   7.388   0.946
16882SOL     OW52604   6.994   7.437   1.720
16882SOL    HW152605   6.898   7.426   1.693
16882SOL    HW252606   7.050   7.370   1.672
16883SOL     OW52607   6.445   6.542   0.861
16883SOL    HW152608   6.499   6.473   0.909
16883SOL    HW252609   6.413   6.611   0.927
16884SOL     OW52610   6.669   6.570   0.087
16884SOL    HW152611   6.646   6.623   0.005
16884SOL    HW252612   6.750   6.514   0.068
16885SOL     OW52613   7.447   7.155   0.851
16885SOL    HW152614   7.376   7.143   0.781
16885SOL    HW252615   7.448   7.076   0.911
16886SOL     OW52616   5.807   6.900   1.844
16886SOL    HW152617   5.742   6.827   1.823
16886SOL    HW252618   5.811   6.914   1.942
16887SOL     OW52619   5.665   6.826   0.653
16887SOL    HW152620   5.664   6.779   0.741
16887SOL    HW252621   5.747   6.798   0.602
16888SOL     OW52622   6.258   6.977   1.624
16888SOL    HW152623   6.180   6.927   1.662
16888SOL    HW252624   6.255   7.072   1.655
16889SOL     OW52625   7.410   5.778   1.227
16889SOL    HW152626   7.406   5.688   1.271
16889SOL    HW252627   7.413   5.767   1.128
16890SOL     OW52628   6.014   6.010   0.520
16890SOL    HW152629   6.044   5.938   0.458
16890SOL    HW252630   5.975   5.970   0.603
16891SOL     OW52631   7.291   7.073   1.104
16891SOL    HW152632   7.198   7.048   1.077
16891SOL    HW252633   7.317   7.023   1.186
16892SOL     OW52634   5.903   6.133   1.280
16892SOL    HW152635   5.941   6.074   1.352
16892SOL    HW252636   5.943   6.107   1.192
16893SOL     OW52637   6.398   7.172   0.687
16893SOL    HW152638   6.430   7.182   0.593
16893SOL    HW252639   6.319   7.110   0.689
16894SOL     OW52640   7.010   5.800   1.112
16894SOL    HW152641   7.062   5.735   1.167
16894SOL    HW252642   6.961   5.863   1.173
16895SOL     OW52643   6.587   5.620   1.154
16895SOL    HW152644   6.524   5.548   1.123
16895SOL    HW252645   6.680   5.584   1.154
16896SOL     OW52646   6.356   6.916   0.301
16896SOL    HW152647   6.310   6.829   0.318
16896SOL    HW252648   6.447   6.913   0.342
16897SOL     OW52649   6.204   7.153   1.284
16897SOL    HW152650   6.199   7.235   1.341
16897SOL    HW252651   6.293   7.150   1.239
16898SOL     OW52652   6.886   6.039   0.691
16898SOL    HW152653   6.827   6.119   0.695
16898SOL    HW252654   6.901   6.004   0.784
16899SOL     OW52655   7.179   5.807   0.882
16899SOL    HW152656   7.095   5.806   0.936
16899SOL    HW252657   7.181   5.890   0.826
16900SOL     OW52658   5.625   6.663   0.300
16900SOL    HW152659   5.724   6.652   0.291
16900SOL    HW252660   5.585   6.577   0.332
16901SOL     OW52661   6.461   7.232   0.337
16901SOL    HW152662   6.384   7.197   0.283
16901SOL    HW252663   6.429   7.303   0.399
16902SOL     OW52664   5.816   6.214   1.975
16902SOL    HW152665   5.723   6.212   2.012
16902SOL    HW252666   5.817   6.175   1.883
16903SOL     OW52667   5.811   5.861   2.858
16903SOL    HW152668   5.846   5.844   2.950
16903SOL    HW252669   5.723   5.816   2.846
16904SOL     OW52670   5.605   5.954   2.509
16904SOL    HW152671   5.523   5.997   2.548
16904SOL    HW252672   5.577   5.881   2.446
16905SOL     OW52673   6.155   6.861   3.027
16905SOL    HW152674   6.062   6.854   2.990
16905SOL    HW252675   6.166   6.950   3.071
16906SOL     OW52676   7.141   7.097   2.565
16906SOL    HW152677   7.084   7.081   2.646
16906SOL    HW252678   7.082   7.107   2.485
16907SOL     OW52679   7.329   6.204   2.718
16907SOL    HW152680   7.362   6.298   2.718
16907SOL    HW252681   7.380   6.150   2.784
16908SOL     OW52682   6.721   6.289   2.579
16908SOL    HW152683   6.778   6.367   2.554
16908SOL    HW252684   6.661   6.315   2.655
16909SOL     OW52685   7.341   6.193   2.093
16909SOL    HW152686   7.329   6.180   1.994
16909SOL    HW252687   7.311   6.112   2.142
16910SOL     OW52688   6.354   6.730   2.885
16910SOL    HW152689   6.276   6.747   2.945
16910SOL    HW252690   6.388   6.817   2.849
16911SOL     OW52691   6.436   6.384   3.685
16911SOL    HW152692   6.432   6.460   3.750
16911SOL    HW252693   6.458   6.420   3.594
16912SOL     OW52694   6.271   6.598   2.527
16912SOL    HW152695   6.340   6.582   2.597
16912SOL    HW252696   6.198   6.655   2.565
16913SOL     OW52697   6.272   6.747   3.665
16913SOL    HW152698   6.332   6.826   3.679
16913SOL    HW252699   6.186   6.778   3.624
16914SOL     OW52700   5.921   7.021   2.923
16914SOL    HW152701   5.843   6.990   2.870
16914SOL    HW252702   5.979   7.079   2.866
16915SOL     OW52703   7.046   7.091   3.201
16915SOL    HW152704   7.070   7.185   3.227
16915SOL    HW252705   7.030   7.037   3.283
16916SOL     OW52706   6.024   5.978   3.361
16916SOL    HW152707   6.106   5.922   3.370
16916SOL    HW252708   5.943   5.920   3.365
16917SOL     OW52709   7.189   6.033   2.599
16917SOL    HW152710   7.115   6.079   2.549
16917SOL    HW252711   7.240   6.101   2.652
16918SOL     OW52712   5.817   7.299   2.345
16918SOL    HW152713   5.851   7.376   2.399
16918SOL    HW252714   5.861   7.299   2.255
16919SOL     OW52715   6.713   6.927   3.552
16919SOL    HW152716   6.760   6.927   3.640
16919SOL    HW252717   6.665   6.840   3.541
16920SOL     OW52718   5.816   7.020   2.400
16920SOL    HW152719   5.790   7.116   2.400
16920SOL    HW252720   5.745   6.966   2.445
16921SOL     OW52721   5.826   6.677   2.748
16921SOL    HW152722   5.840   6.593   2.800
16921SOL    HW252723   5.771   6.741   2.803
16922SOL     OW52724   6.206   7.372   3.301
16922SOL    HW152725   6.114   7.355   3.336
16922SOL    HW252726   6.234   7.464   3.327
16923SOL     OW52727   6.192   6.550   1.985
16923SOL    HW152728   6.199   6.634   1.931
16923SOL    HW252729   6.238   6.563   2.073
16924SOL     OW52730   7.180   5.700   3.342
16924SOL    HW152731   7.162   5.767   3.270
16924SOL    HW252732   7.177   5.746   3.431
16925SOL     OW52733   5.708   6.229   2.425
16925SOL    HW152734   5.663   6.141   2.442
16925SOL    HW252735   5.707   6.283   2.509
16926SOL     OW52736   7.428   7.353   2.221
16926SOL    HW152737   7.482   7.324   2.301
16926SOL    HW252738   7.458   7.443   2.192
16927SOL     OW52739   5.613   7.182   1.979
16927SOL    HW152740   5.594   7.086   2.000
16927SOL    HW252741   5.580   7.240   2.054
16928SOL     OW52742   7.275   6.508   2.474
16928SOL    HW152743   7.370   6.479   2.482
16928SOL    HW252744   7.267   6.573   2.399
16929SOL     OW52745   7.227   6.694   2.294
16929SOL    HW152746   7.313   6.696   2.242
16929SOL    HW252747   7.241   6.741   2.382
16930SOL     OW52748   5.699   6.323   3.459
16930SOL    HW152749   5.787   6.310   3.504
16930SOL    HW252750   5.686   6.420   3.437
16931SOL     OW52751   6.199   6.951   2.588
16931SOL    HW152752   6.150   6.864   2.597
16931SOL    HW252753   6.176   6.994   2.501
16932SOL     OW52754   6.879   6.814   3.285
16932SOL    HW152755   6.916   6.741   3.227
16932SOL    HW252756   6.931   6.819   3.370
16933SOL     OW52757   6.395   5.590   2.364
16933SOL    HW152758   6.435   5.681   2.355
16933SOL    HW252759   6.295   5.598   2.370
16934SOL     OW52760   5.783   6.562   3.126
16934SOL    HW152761   5.872   6.517   3.112
16934SOL    HW252762   5.710   6.497   3.107
16935SOL     OW52763   7.111   6.585   2.052
16935SOL    HW152764   7.048   6.509   2.065
16935SOL    HW252765   7.159   6.603   2.138
16936SOL     OW52766   6.773   7.378   3.478
16936SOL    HW152767   6.797   7.438   3.402
16936SOL    HW252768   6.780   7.283   3.448
16937SOL     OW52769   5.903   5.837   3.663
16937SOL    HW152770   5.974   5.908   3.669
16937SOL    HW252771   5.815   5.876   3.691
16938SOL     OW52772   7.052   7.003   2.815
16938SOL    HW152773   6.993   7.009   2.895
16938SOL    HW252774   7.037   6.915   2.769
16939SOL     OW52775   7.253   7.300   2.434
16939SOL    HW152776   7.212   7.277   2.346
16939SOL    HW252777   7.235   7.226   2.499
16940SOL     OW52778   6.184   6.315   2.132
16940SOL    HW152779   6.208   6.384   2.064
16940SOL    HW252780   6.106   6.348   2.186
16941SOL     OW52781   6.867   5.931   2.806
16941SOL    HW152782   6.781   5.881   2.793
16941SOL    HW252783   6.929   5.877   2.862
16942SOL     OW52784   7.162   7.248   2.169
16942SOL    HW152785   7.251   7.294   2.172
16942SOL    HW252786   7.141   7.224   2.074
16943SOL     OW52787   6.393   6.191   3.327
16943SOL    HW152788   6.346   6.188   3.416
16943SOL    HW252789   6.342   6.136   3.261
16944SOL     OW52790   6.980   6.055   3.536
16944SOL    HW152791   6.960   6.098   3.624
16944SOL    HW252792   7.058   5.993   3.545
16945SOL     OW52793   6.559   6.476   3.434
16945SOL    HW152794   6.605   6.392   3.405
16945SOL    HW252795   6.503   6.510   3.359
16946SOL     OW52796   6.577   5.996   3.104
16946SOL    HW152797   6.500   6.030   3.158
16946SOL    HW252798   6.543   5.945   3.025
16947SOL     OW52799   6.627   6.287   2.291
16947SOL    HW152800   6.653   6.283   2.387
16947SOL    HW252801   6.542   6.236   2.277
16948SOL     OW52802   5.662   6.397   2.651
16948SOL    HW152803   5.761   6.385   2.660
16948SOL    HW252804   5.638   6.492   2.672
16949SOL     OW52805   5.716   7.407   3.433
16949SOL    HW152806   5.706   7.392   3.532
16949SOL    HW252807   5.630   7.443   3.397
16950SOL     OW52808   6.451   5.934   2.057
16950SOL    HW152809   6.510   5.997   2.008
16950SOL    HW252810   6.470   5.840   2.028
16951SOL     OW52811   7.305   6.171   3.693
16951SOL    HW152812   7.279   6.260   3.657
16951SOL    HW252813   7.303   6.103   3.620
16952SOL     OW52814   6.948   6.730   2.407
16952SOL    HW152815   7.031   6.701   2.359
16952SOL    HW252816   6.899   6.797   2.351
16953SOL     OW52817   6.136   5.782   2.747
16953SOL    HW152818   6.131   5.777   2.847
16953SOL    HW252819   6.138   5.878   2.718
16954SOL     OW52820   6.594   7.042   2.339
16954SOL    HW152821   6.548   7.114   2.287
16954SOL    HW252822   6.590   7.062   2.437
16955SOL     OW52823   5.937   7.387   2.715
16955SOL    HW152824   5.987   7.301   2.721
16955SOL    HW252825   6.002   7.464   2.712
16956SOL     OW52826   7.381   6.652   2.735
16956SOL    HW152827   7.319   6.637   2.659
16956SOL    HW252828   7.329   6.663   2.820
16957SOL     OW52829   6.813   7.136   3.368
16957SOL    HW152830   6.819   7.059   3.432
16957SOL    HW252831   6.761   7.110   3.288
16958SOL     OW52832   5.907   6.529   2.104
16958SOL    HW152833   5.989   6.568   2.062
16958SOL    HW252834   5.880   6.447   2.055
16959SOL     OW52835   7.044   6.321   2.590
16959SOL    HW152836   7.039   6.256   2.665
16959SOL    HW252837   7.124   6.380   2.603
16960SOL     OW52838   6.047   6.852   3.589
16960SOL    HW152839   5.997   6.853   3.503
16960SOL    HW252840   5.984   6.834   3.665
16961SOL     OW52841   6.697   7.362   2.099
16961SOL    HW152842   6.637   7.300   2.149
16961SOL    HW252843   6.728   7.318   2.014
16962SOL     OW52844   5.788   5.871   3.360
16962SOL    HW152845   5.708   5.931   3.347
16962SOL    HW252846   5.778   5.822   3.446
16963SOL     OW52847   7.218   6.963   1.943
16963SOL    HW152848   7.186   7.057   1.933
16963SOL    HW252849   7.142   6.900   1.931
16964SOL     OW52850   6.050   7.329   2.185
16964SOL    HW152851   6.083   7.368   2.271
16964SOL    HW252852   6.126   7.322   2.120
16965SOL     OW52853   5.835   7.371   3.103
16965SOL    HW152854   5.892   7.306   3.153
16965SOL    HW252855   5.819   7.338   3.010
16966SOL     OW52856   6.526   7.284   2.766
16966SOL    HW152857   6.606   7.227   2.787
16966SOL    HW252858   6.477   7.244   2.689
16967SOL     OW52859   5.968   6.286   2.342
16967SOL    HW152860   6.013   6.196   2.339
16967SOL    HW252861   5.874   6.275   2.375
16968SOL     OW52862   7.133   5.808   3.591
16968SOL    HW152863   7.128   5.845   3.683
16968SOL    HW252864   7.061   5.739   3.579
16969SOL     OW52865   6.367   5.850   3.611
16969SOL    HW152866   6.434   5.789   3.654
16969SOL    HW252867   6.294   5.869   3.676
16970SOL     OW52868   6.474   7.100   3.057
16970SOL    HW152869   6.451   7.075   2.963
16970SOL    HW252870   6.535   7.031   3.096
16971SOL     OW52871   6.937   6.176   3.295
16971SOL    HW152872   6.965   6.133   3.380
16971SOL    HW252873   6.962   6.272   3.296
16972SOL     OW52874   6.389   6.988   2.786
16972SOL    HW152875   6.479   7.002   2.744
16972SOL    HW252876   6.318   6.990   2.715
16973SOL     OW52877   6.508   6.089   2.761
16973SOL    HW152878   6.483   6.080   2.665
16973SOL    HW252879   6.556   6.007   2.792
16974SOL     OW52880   7.020   6.774   1.903
16974SOL    HW152881   7.052   6.698   1.960
16974SOL    HW252882   6.928   6.801   1.933
16975SOL     OW52883   5.883   5.621   2.033
16975SOL    HW152884   5.932   5.705   2.012
16975SOL    HW252885   5.945   5.556   2.078
16976SOL     OW52886   6.521   5.822   2.342
16976SOL    HW152887   6.473   5.863   2.264
16976SOL    HW252888   6.620   5.820   2.323
16977SOL     OW52889   6.662   6.269   3.326
16977SOL    HW152890   6.582   6.208   3.329
16977SOL    HW252891   6.743   6.216   3.302
16978SOL     OW52892   6.813   7.156   2.655
16978SOL    HW152893   6.834   7.230   2.590
16978SOL    HW252894   6.881   7.156   2.728
16979SOL     OW52895   6.045   6.738   2.603
16979SOL    HW152896   5.974   6.711   2.668
16979SOL    HW252897   6.019   6.710   2.510
16980SOL     OW52898   6.857   7.383   2.453
16980SOL    HW152899   6.901   7.447   2.389
16980SOL    HW252900   6.807   7.435   2.523
16981SOL     OW52901   6.618   6.135   1.878
16981SOL    HW152902   6.577   6.217   1.839
16981SOL    HW252903   6.682   6.161   1.951
16982SOL     OW52904   5.664   6.142   3.248
16982SOL    HW152905   5.756   6.141   3.207
16982SOL    HW252906   5.658   6.216   3.315
16983SOL     OW52907   6.147   5.808   3.009
16983SOL    HW152908   6.185   5.724   3.046
16983SOL    HW252909   6.059   5.827   3.053
16984SOL     OW52910   6.452   6.040   2.504
16984SOL    HW152911   6.420   6.112   2.442
16984SOL    HW252912   6.476   5.959   2.451
16985SOL     OW52913   6.603   5.625   2.615
16985SOL    HW152914   6.531   5.630   2.546
16985SOL    HW252915   6.579   5.556   2.684
16986SOL     OW52916   7.015   6.759   2.729
16986SOL    HW152917   6.960   6.675   2.722
16986SOL    HW252918   7.041   6.788   2.637
16987SOL     OW52919   7.052   6.176   2.854
16987SOL    HW152920   7.022   6.081   2.861
16987SOL    HW252921   7.125   6.192   2.920
16988SOL     OW52922   7.443   6.419   2.239
16988SOL    HW152923   7.485   6.355   2.303
16988SOL    HW252924   7.405   6.368   2.161
16989SOL     OW52925   6.074   6.971   2.036
16989SOL    HW152926   5.987   6.956   2.083
16989SOL    HW252927   6.057   6.997   1.941
16990SOL     OW52928   7.250   6.866   2.519
16990SOL    HW152929   7.349   6.874   2.533
16990SOL    HW252930   7.205   6.950   2.550
16991SOL     OW52931   6.976   6.161   1.940
16991SOL    HW152932   6.922   6.140   2.021
16991SOL    HW252933   7.067   6.120   1.949
16992SOL     OW52934   6.113   5.842   2.190
16992SOL    HW152935   6.140   5.783   2.115
16992SOL    HW252936   6.113   5.937   2.159
16993SOL     OW52937   7.340   6.809   3.450
16993SOL    HW152938   7.431   6.770   3.437
16993SOL    HW252939   7.348   6.905   3.474
16994SOL     OW52940   6.650   6.933   3.202
16994SOL    HW152941   6.570   6.910   3.257
16994SOL    HW252942   6.733   6.907   3.251
16995SOL     OW52943   7.178   7.215   3.487
16995SOL    HW152944   7.205   7.249   3.397
16995SOL    HW252945   7.257   7.177   3.533
16996SOL     OW52946   6.697   6.781   2.962
16996SOL    HW152947   6.657   6.825   3.043
16996SOL    HW252948   6.656   6.818   2.879
16997SOL     OW52949   7.224   6.685   2.941
16997SOL    HW152950   7.229   6.766   3.000
16997SOL    HW252951   7.138   6.687   2.890
16998SOL     OW52952   6.501   5.675   3.264
16998SOL    HW152953   6.526   5.655   3.169
16998SOL    HW252954   6.573   5.731   3.306
16999SOL     OW52955   6.566   6.702   3.581
16999SOL    HW152956   6.467   6.708   3.591
16999SOL    HW252957   6.589   6.622   3.525
17000SOL     OW52958   6.291   6.636   2.230
17000SOL    HW152959   6.277   6.643   2.329
17000SOL    HW252960   6.375   6.585   2.212
17001SOL     OW52961   5.996   6.399   3.113
17001SOL    HW152962   6.082   6.411   3.163
17001SOL    HW252963   5.954   6.312   3.140
17002SOL     OW52964   6.860   5.972   3.124
17002SOL    HW152965   6.881   6.046   3.188
17002SOL    HW252966   6.771   5.989   3.081
17003SOL     OW52967   5.650   7.150   3.193
17003SOL    HW152968   5.604   7.232   3.159
17003SOL    HW252969   5.748   7.169   3.202
17004SOL     OW52970   5.953   6.686   2.363
17004SOL    HW152971   5.946   6.769   2.307
17004SOL    HW252972   5.957   6.606   2.303
17005SOL     OW52973   6.152   6.123   2.727
17005SOL    HW152974   6.164   6.189   2.653
17005SOL    HW252975   6.198   6.157   2.810
17006SOL     OW52976   6.838   6.934   2.250
17006SOL    HW152977   6.888   7.011   2.290
17006SOL    HW252978   6.743   6.936   2.282
17007SOL     OW52979   6.858   7.031   3.004
17007SOL    HW152980   6.905   7.044   3.091
17007SOL    HW252981   6.792   6.957   3.013
17008SOL     OW52982   7.168   6.225   2.334
17008SOL    HW152983   7.137   6.286   2.407
17008SOL    HW252984   7.218   6.277   2.265
17009SOL     OW52985   5.940   7.096   3.191
17009SOL    HW152986   5.919   7.052   3.104
17009SOL    HW252987   6.037   7.122   3.194
17010SOL     OW52988   5.988   6.337   3.460
17010SOL    HW152989   6.056   6.392   3.413
17010SOL    HW252990   6.028   6.249   3.487
17011SOL     OW52991   7.173   6.365   3.532
17011SOL    HW152992   7.081   6.403   3.527
17011SOL    HW252993   7.233   6.412   3.467
17012SOL     OW52994   6.599   5.691   3.632
17012SOL    HW152995   6.605   5.776   3.580
17012SOL    HW252996   6.631   5.615   3.575
17013SOL     OW52997   6.090   5.636   3.602
17013SOL    HW152998   6.048   5.579   3.532
17013SOL    HW252999   6.024   5.705   3.634
17014SOL     OW53000   6.159   6.456   2.891
17014SOL    HW153001   6.203   6.545   2.882
17014SOL    HW253002   6.096   6.456   2.968
17015SOL     OW53003   6.946   6.448   2.907
17015SOL    HW153004   6.871   6.448   2.841
17015SOL    HW253005   6.983   6.356   2.916
17016SOL     OW53006   6.795   6.111   2.137
17016SOL    HW153007   6.808   6.027   2.191
17016SOL    HW253008   6.766   6.185   2.197
17017SOL     OW53009   5.893   5.799   3.093
17017SOL    HW153010   5.870   5.836   3.183
17017SOL    HW253011   5.863   5.704   3.087
17018SOL     OW53012   5.623   6.896   3.144
17018SOL    HW153013   5.676   6.847   3.212
17018SOL    HW253014   5.645   6.994   3.149
17019SOL     OW53015   6.318   6.220   2.926
17019SOL    HW153016   6.377   6.194   2.850
17019SOL    HW253017   6.290   6.316   2.915
17020SOL     OW53018   7.314   6.521   3.716
17020SOL    HW153019   7.268   6.514   3.627
17020SOL    HW253020   7.252   6.565   3.782
17021SOL     OW53021   5.893   5.649   2.480
17021SOL    HW153022   5.882   5.743   2.513
17021SOL    HW253023   5.888   5.586   2.557
17022SOL     OW53024   7.208   5.953   2.236
17022SOL    HW153025   7.210   5.877   2.300
17022SOL    HW253026   7.160   6.030   2.276
17023SOL     OW53027   6.609   6.352   2.828
17023SOL    HW153028   6.624   6.373   2.924
17023SOL    HW253029   6.579   6.257   2.819
17024SOL     OW53030   6.566   7.159   3.562
17024SOL    HW153031   6.546   7.203   3.474
17024SOL    HW253032   6.605   7.068   3.546
17025SOL     OW53033   7.445   7.104   3.467
17025SOL    HW153034   7.459   7.131   3.372
17025SOL    HW253035   7.528   7.126   3.520
17026SOL     OW53036   5.936   6.484   3.666
17026SOL    HW153037   6.012   6.528   3.714
17026SOL    HW253038   5.971   6.437   3.584
17027SOL     OW53039   7.126   5.860   1.987
17027SOL    HW153040   7.065   5.785   2.010
17027SOL    HW253041   7.148   5.912   2.070
17028SOL     OW53042   6.889   6.424   1.904
17028SOL    HW153043   6.923   6.331   1.919
17028SOL    HW253044   6.907   6.451   1.809
17029SOL     OW53045   6.654   6.919   2.711
17029SOL    HW153046   6.661   6.835   2.656
17029SOL    HW253047   6.716   6.988   2.675
17030SOL     OW53048   5.905   6.396   2.811
17030SOL    HW153049   5.998   6.432   2.816
17030SOL    HW253050   5.899   6.311   2.863
17031SOL     OW53051   5.925   6.095   2.868
17031SOL    HW153052   5.873   6.012   2.851
17031SOL    HW253053   6.002   6.100   2.804
17032SOL     OW53054   6.097   6.001   3.670
17032SOL    HW153055   6.079   6.046   3.758
17032SOL    HW253056   6.139   6.066   3.607
17033SOL     OW53057   6.724   5.966   3.540
17033SOL    HW153058   6.679   6.029   3.604
17033SOL    HW253059   6.817   5.997   3.523
17034SOL     OW53060   6.746   5.793   3.339
17034SOL    HW153061   6.746   5.857   3.416
17034SOL    HW253062   6.774   5.841   3.256
17035SOL     OW53063   5.594   6.912   2.062
17035SOL    HW153064   5.501   6.933   2.031
17035SOL    HW253065   5.604   6.813   2.075
17036SOL     OW53066   5.674   7.387   2.789
17036SOL    HW153067   5.632   7.301   2.762
17036SOL    HW253068   5.768   7.390   2.755
17037SOL     OW53069   6.090   7.154   2.772
17037SOL    HW153070   6.156   7.228   2.781
17037SOL    HW253071   6.134   7.075   2.730
17038SOL     OW53072   6.588   6.382   3.100
17038SOL    HW153073   6.629   6.350   3.186
17038SOL    HW253074   6.492   6.355   3.097
17039SOL     OW53075   5.626   6.130   2.976
17039SOL    HW153076   5.711   6.097   2.935
17039SOL    HW253077   5.639   6.145   3.074
17040SOL     OW53078   5.775   6.106   3.584
17040SOL    HW153079   5.834   6.066   3.514
17040SOL    HW253080   5.717   6.177   3.543
17041SOL     OW53081   6.955   6.536   3.522
17041SOL    HW153082   6.994   6.625   3.542
17041SOL    HW253083   6.965   6.516   3.425
17042SOL     OW53084   6.401   6.158   2.187
17042SOL    HW153085   6.408   6.069   2.141
17042SOL    HW253086   6.307   6.192   2.179
17043SOL     OW53087   7.243   6.190   3.068
17043SOL    HW153088   7.205   6.121   3.130
17043SOL    HW253089   7.325   6.154   3.024
17044SOL     OW53090   5.838   7.150   3.606
17044SOL    HW153091   5.808   7.207   3.682
17044SOL    HW253092   5.831   7.053   3.632
17045SOL     OW53093   6.257   6.050   3.131
17045SOL    HW153094   6.223   5.961   3.101
17045SOL    HW253095   6.283   6.104   3.051
17046SOL     OW53096   6.516   7.264   3.327
17046SOL    HW153097   6.492   7.246   3.232
17046SOL    HW253098   6.546   7.358   3.337
17047SOL     OW53099   6.059   6.086   2.053
17047SOL    HW153100   6.120   6.166   2.057
17047SOL    HW253101   5.964   6.117   2.060
17048SOL     OW53102   5.745   6.723   3.328
17048SOL    HW153103   5.767   6.662   3.404
17048SOL    HW253104   5.755   6.674   3.242
17049SOL     OW53105   6.933   6.645   3.096
17049SOL    HW153106   6.957   6.582   3.022
17049SOL    HW253107   6.843   6.685   3.078
17050SOL     OW53108   6.888   6.441   2.171
17050SOL    HW153109   6.802   6.410   2.213
17050SOL    HW253110   6.884   6.427   2.072
17051SOL     OW53111   7.345   7.333   3.016
17051SOL    HW153112   7.406   7.363   2.943
17051SOL    HW253113   7.307   7.244   2.994
17052SOL     OW53114   6.838   7.317   2.990
17052SOL    HW153115   6.922   7.322   2.936
17052SOL    HW253116   6.815   7.221   3.008
17053SOL     OW53117   5.669   6.844   2.884
17053SOL    HW153118   5.664   6.843   2.984
17053SOL    HW253119   5.586   6.803   2.846
17054SOL     OW53120   6.274   7.248   3.578
17054SOL    HW153121   6.218   7.329   3.587
17054SOL    HW253122   6.326   7.252   3.492
17055SOL     OW53123   6.974   7.159   2.339
17055SOL    HW153124   7.041   7.171   2.265
17055SOL    HW253125   6.934   7.248   2.362
17056SOL     OW53126   5.716   7.380   3.713
17056SOL    HW153127   5.675   7.306   3.766
17056SOL    HW253128   5.780   7.431   3.771
17057SOL     OW53129   6.866   6.513   2.534
17057SOL    HW153130   6.926   6.432   2.536
17057SOL    HW253131   6.906   6.582   2.474
17058SOL     OW53132   6.416   6.859   3.284
17058SOL    HW153133   6.411   6.892   3.379
17058SOL    HW253134   6.330   6.878   3.238
17059SOL     OW53135   6.258   7.202   2.016
17059SOL    HW153136   6.267   7.212   1.917
17059SOL    HW253137   6.218   7.113   2.037
17060SOL     OW53138   7.236   7.306   3.256
17060SOL    HW153139   7.289   7.316   3.172
17060SOL    HW253140   7.209   7.396   3.290
17061SOL     OW53141   5.849   5.912   2.582
17061SOL    HW153142   5.770   5.963   2.548
17061SOL    HW253143   5.840   5.897   2.680
17062SOL     OW53144   6.780   7.198   1.893
17062SOL    HW153145   6.786   7.105   1.930
17062SOL    HW253146   6.721   7.198   1.813
17063SOL     OW53147   6.408   6.588   3.234
17063SOL    HW153148   6.448   6.587   3.142
17063SOL    HW253149   6.418   6.680   3.274
17064SOL     OW53150   6.502   6.496   2.153
17064SOL    HW153151   6.565   6.534   2.085
17064SOL    HW253152   6.542   6.413   2.192
17065SOL     OW53153   7.090   7.193   1.906
17065SOL    HW153154   6.998   7.230   1.913
17065SOL    HW253155   7.128   7.213   1.816
17066SOL     OW53156   5.958   6.874   3.352
17066SOL    HW153157   5.945   6.967   3.318
17066SOL    HW253158   5.874   6.822   3.339
17067SOL     OW53159   7.200   6.878   3.151
17067SOL    HW153160   7.260   6.881   3.231
17067SOL    HW253161   7.125   6.942   3.164
17068SOL     OW53162   6.625   6.684   2.558
17068SOL    HW153163   6.555   6.637   2.612
17068SOL    HW253164   6.684   6.616   2.515
17069SOL     OW53165   6.600   5.822   2.833
17069SOL    HW153166   6.592   5.786   2.740
17069SOL    HW253167   6.598   5.746   2.898
17070SOL     OW53168   6.176   7.073   2.353
17070SOL    HW153169   6.218   7.015   2.283
17070SOL    HW253170   6.132   7.152   2.309
17071SOL     OW53171   7.295   5.971   3.243
17071SOL    HW153172   7.368   6.040   3.247
17071SOL    HW253173   7.323   5.896   3.184
17072SOL     OW53174   5.841   6.934   2.152
17072SOL    HW153175   5.745   6.935   2.125
17072SOL    HW253176   5.853   6.987   2.236
17073SOL     OW53177   5.691   6.599   3.588
17073SOL    HW153178   5.614   6.566   3.642
17073SOL    HW253179   5.776   6.569   3.630
17074SOL     OW53180   6.258   5.789   3.351
17074SOL    HW153181   6.348   5.773   3.311
17074SOL    HW253182   6.266   5.794   3.450
17075SOL     OW53183   5.661   5.931   1.895
17075SOL    HW153184   5.569   5.903   1.866
17075SOL    HW253185   5.692   6.008   1.839
17076SOL     OW53186   7.026   6.442   3.260
17076SOL    HW153187   6.969   6.494   3.197
17076SOL    HW253188   7.122   6.454   3.236
17077SOL     OW53189   5.658   5.752   2.180
17077SOL    HW153190   5.641   5.835   2.126
17077SOL    HW253191   5.748   5.715   2.158
17078SOL     OW53192   6.769   6.921   1.981
17078SOL    HW153193   6.670   6.910   1.983
17078SOL    HW253194   6.803   6.936   2.074
17079SOL     OW53195   6.199   6.428   3.293
17079SOL    HW153196   6.255   6.509   3.276
17079SOL    HW253197   6.258   6.348   3.296
17080SOL     OW53198   7.079   7.353   2.821
17080SOL    HW153199   7.112   7.417   2.752
17080SOL    HW253200   7.145   7.347   2.896
17081SOL     OW53201   6.302   6.151   3.570
17081SOL    HW153202   6.321   6.216   3.644
17081SOL    HW253203   6.362   6.071   3.579
17082SOL     OW53204   7.036   6.806   3.495
17082SOL    HW153205   7.027   6.796   3.594
17082SOL    HW253206   7.132   6.799   3.469
17083SOL     OW53207   5.976   7.327   3.422
17083SOL    HW153208   5.885   7.368   3.420
17083SOL    HW253209   5.969   7.233   3.454
17084SOL     OW53210   7.260   6.469   3.116
17084SOL    HW153211   7.233   6.380   3.079
17084SOL    HW253212   7.261   6.537   3.043
17085SOL     OW53213   6.811   5.911   2.311
17085SOL    HW153214   6.876   5.837   2.300
17085SOL    HW253215   6.831   5.961   2.395
17086SOL     OW53216   6.180   6.331   2.514
17086SOL    HW153217   6.230   6.416   2.495
17086SOL    HW253218   6.092   6.333   2.466
17087SOL     OW53219   7.363   5.928   3.504
17087SOL    HW153220   7.346   5.959   3.410
17087SOL    HW253221   7.279   5.891   3.542
17088SOL     OW53222   7.316   6.520   3.379
17088SOL    HW153223   7.354   6.611   3.394
17088SOL    HW253224   7.308   6.503   3.280
17089SOL     OW53225   6.445   6.960   1.878
17089SOL    HW153226   6.399   6.975   1.966
17089SOL    HW253227   6.489   7.045   1.848
17090SOL     OW53228   6.247   7.376   2.815
17090SOL    HW153229   6.201   7.464   2.802
17090SOL    HW253230   6.346   7.388   2.808
17091SOL     OW53231   6.994   7.437   3.582
17091SOL    HW153232   6.898   7.426   3.555
17091SOL    HW253233   7.050   7.370   3.534
17092SOL     OW53234   6.445   6.542   2.723
17092SOL    HW153235   6.499   6.473   2.771
17092SOL    HW253236   6.413   6.611   2.789
17093SOL     OW53237   6.669   6.570   1.949
17093SOL    HW153238   6.646   6.623   1.867
17093SOL    HW253239   6.750   6.514   1.930
17094SOL     OW53240   7.447   7.155   2.713
17094SOL    HW153241   7.376   7.143   2.643
17094SOL    HW253242   7.448   7.076   2.773
17095SOL     OW53243   5.807   6.900   3.706
17095SOL    HW153244   5.742   6.827   3.685
17095SOL    HW253245   5.811   6.914   3.804
17096SOL     OW53246   5.665   6.826   2.515
17096SOL    HW153247   5.664   6.779   2.603
17096SOL    HW253248   5.747   6.798   2.464
17097SOL     OW53249   6.258   6.977   3.486
17097SOL    HW153250   6.180   6.927   3.524
17097SOL    HW253251   6.255   7.072   3.517
17098SOL     OW53252   6.014   6.010   2.382
17098SOL    HW153253   6.044   5.938   2.320
17098SOL    HW253254   5.975   5.970   2.465
17099SOL     OW53255   7.291   7.073   2.966
17099SOL    HW153256   7.198   7.048   2.939
17099SOL    HW253257   7.317   7.023   3.048
17100SOL     OW53258   5.903   6.133   3.142
17100SOL    HW153259   5.941   6.074   3.214
17100SOL    HW253260   5.943   6.107   3.054
17101SOL     OW53261   6.398   7.172   2.549
17101SOL    HW153262   6.430   7.182   2.455
17101SOL    HW253263   6.319   7.110   2.551
17102SOL     OW53264   6.587   5.620   3.016
17102SOL    HW153265   6.524   5.548   2.985
17102SOL    HW253266   6.680   5.584   3.016
17103SOL     OW53267   6.356   6.916   2.163
17103SOL    HW153268   6.310   6.829   2.180
17103SOL    HW253269   6.447   6.913   2.204
17104SOL     OW53270   6.204   7.153   3.146
17104SOL    HW153271   6.199   7.235   3.203
17104SOL    HW253272   6.293   7.150   3.101
17105SOL     OW53273   6.886   6.039   2.553
17105SOL    HW153274   6.827   6.119   2.557
17105SOL    HW253275   6.901   6.004   2.646
17106SOL     OW53276   5.625   6.663   2.162
17106SOL    HW153277   5.724   6.652   2.153
17106SOL    HW253278   5.585   6.577   2.194
17107SOL     OW53279   6.461   7.232   2.199
17107SOL    HW153280   6.384   7.197   2.145
17107SOL    HW253281   6.429   7.303   2.261
17108SOL     OW53282   5.816   6.214   3.837
17108SOL    HW153283   5.723   6.212   3.874
17108SOL    HW253284   5.817   6.175   3.745
17109SOL     OW53285   5.811   5.861   4.720
17109SOL    HW153286   5.846   5.844   4.812
17109SOL    HW253287   5.723   5.816   4.708
17110SOL     OW53288   5.605   5.954   4.371
17110SOL    HW153289   5.523   5.997   4.410
17110SOL    HW253290   5.577   5.881   4.308
17111SOL     OW53291   6.155   6.861   4.889
17111SOL    HW153292   6.062   6.854   4.852
17111SOL    HW253293   6.166   6.950   4.933
17112SOL     OW53294   7.141   7.097   4.427
17112SOL    HW153295   7.084   7.081   4.508
17112SOL    HW253296   7.082   7.107   4.347
17113SOL     OW53297   7.329   6.204   4.580
17113SOL    HW153298   7.362   6.298   4.580
17113SOL    HW253299   7.380   6.150   4.646
17114SOL     OW53300   6.721   6.289   4.441
17114SOL    HW153301   6.778   6.367   4.416
17114SOL    HW253302   6.661   6.315   4.517
17115SOL     OW53303   7.341   6.193   3.955
17115SOL    HW153304   7.329   6.180   3.856
17115SOL    HW253305   7.311   6.112   4.004
17116SOL     OW53306   6.354   6.730   4.747
17116SOL    HW153307   6.276   6.747   4.807
17116SOL    HW253308   6.388   6.817   4.711
17117SOL     OW53309   6.436   6.384   5.547
17117SOL    HW153310   6.432   6.460   5.612
17117SOL    HW253311   6.458   6.420   5.456
17118SOL     OW53312   6.271   6.598   4.389
17118SOL    HW153313   6.340   6.582   4.459
17118SOL    HW253314   6.198   6.655   4.427
17119SOL     OW53315   6.272   6.747   5.527
17119SOL    HW153316   6.332   6.826   5.541
17119SOL    HW253317   6.186   6.778   5.486
17120SOL     OW53318   5.921   7.021   4.785
17120SOL    HW153319   5.843   6.990   4.732
17120SOL    HW253320   5.979   7.079   4.728
17121SOL     OW53321   7.046   7.091   5.063
17121SOL    HW153322   7.070   7.185   5.089
17121SOL    HW253323   7.030   7.037   5.145
17122SOL     OW53324   6.024   5.978   5.223
17122SOL    HW153325   6.106   5.922   5.232
17122SOL    HW253326   5.943   5.920   5.227
17123SOL     OW53327   7.189   6.033   4.461
17123SOL    HW153328   7.115   6.079   4.411
17123SOL    HW253329   7.240   6.101   4.514
17124SOL     OW53330   5.817   7.299   4.207
17124SOL    HW153331   5.851   7.376   4.261
17124SOL    HW253332   5.861   7.299   4.117
17125SOL     OW53333   6.713   6.927   5.414
17125SOL    HW153334   6.760   6.927   5.502
17125SOL    HW253335   6.665   6.840   5.403
17126SOL     OW53336   5.816   7.020   4.262
17126SOL    HW153337   5.790   7.116   4.262
17126SOL    HW253338   5.745   6.966   4.307
17127SOL     OW53339   5.826   6.677   4.610
17127SOL    HW153340   5.840   6.593   4.662
17127SOL    HW253341   5.771   6.741   4.665
17128SOL     OW53342   6.206   7.372   5.163
17128SOL    HW153343   6.114   7.355   5.198
17128SOL    HW253344   6.234   7.464   5.189
17129SOL     OW53345   6.192   6.550   3.847
17129SOL    HW153346   6.199   6.634   3.793
17129SOL    HW253347   6.238   6.563   3.935
17130SOL     OW53348   7.180   5.700   5.204
17130SOL    HW153349   7.162   5.767   5.132
17130SOL    HW253350   7.177   5.746   5.293
17131SOL     OW53351   5.708   6.229   4.287
17131SOL    HW153352   5.663   6.141   4.304
17131SOL    HW253353   5.707   6.283   4.371
17132SOL     OW53354   7.428   7.353   4.083
17132SOL    HW153355   7.482   7.324   4.163
17132SOL    HW253356   7.458   7.443   4.054
17133SOL     OW53357   5.613   7.182   3.841
17133SOL    HW153358   5.594   7.086   3.862
17133SOL    HW253359   5.580   7.240   3.916
17134SOL     OW53360   7.275   6.508   4.336
17134SOL    HW153361   7.370   6.479   4.344
17134SOL    HW253362   7.267   6.573   4.261
17135SOL     OW53363   7.227   6.694   4.156
17135SOL    HW153364   7.313   6.696   4.104
17135SOL    HW253365   7.241   6.741   4.244
17136SOL     OW53366   5.699   6.323   5.321
17136SOL    HW153367   5.787   6.310   5.366
17136SOL    HW253368   5.686   6.420   5.299
17137SOL     OW53369   6.199   6.951   4.450
17137SOL    HW153370   6.150   6.864   4.459
17137SOL    HW253371   6.176   6.994   4.363
17138SOL     OW53372   6.879   6.814   5.147
17138SOL    HW153373   6.916   6.741   5.089
17138SOL    HW253374   6.931   6.819   5.232
17139SOL     OW53375   6.395   5.590   4.226
17139SOL    HW153376   6.435   5.681   4.217
17139SOL    HW253377   6.295   5.598   4.232
17140SOL     OW53378   5.783   6.562   4.988
17140SOL    HW153379   5.872   6.517   4.974
17140SOL    HW253380   5.710   6.497   4.969
17141SOL     OW53381   7.111   6.585   3.914
17141SOL    HW153382   7.048   6.509   3.927
17141SOL    HW253383   7.159   6.603   4.000
17142SOL     OW53384   6.773   7.378   5.340
17142SOL    HW153385   6.797   7.438   5.264
17142SOL    HW253386   6.780   7.283   5.310
17143SOL     OW53387   5.903   5.837   5.525
17143SOL    HW153388   5.974   5.908   5.531
17143SOL    HW253389   5.815   5.876   5.553
17144SOL     OW53390   7.052   7.003   4.677
17144SOL    HW153391   6.993   7.009   4.757
17144SOL    HW253392   7.037   6.915   4.631
17145SOL     OW53393   7.253   7.300   4.296
17145SOL    HW153394   7.212   7.277   4.208
17145SOL    HW253395   7.235   7.226   4.361
17146SOL     OW53396   6.184   6.315   3.994
17146SOL    HW153397   6.208   6.384   3.926
17146SOL    HW253398   6.106   6.348   4.048
17147SOL     OW53399   6.867   5.931   4.668
17147SOL    HW153400   6.781   5.881   4.655
17147SOL    HW253401   6.929   5.877   4.724
17148SOL     OW53402   7.162   7.248   4.031
17148SOL    HW153403   7.251   7.294   4.034
17148SOL    HW253404   7.141   7.224   3.936
17149SOL     OW53405   6.393   6.191   5.189
17149SOL    HW153406   6.346   6.188   5.278
17149SOL    HW253407   6.342   6.136   5.123
17150SOL     OW53408   6.980   6.055   5.398
17150SOL    HW153409   6.960   6.098   5.486
17150SOL    HW253410   7.058   5.993   5.407
17151SOL     OW53411   6.559   6.476   5.296
17151SOL    HW153412   6.605   6.392   5.267
17151SOL    HW253413   6.503   6.510   5.221
17152SOL     OW53414   6.577   5.996   4.966
17152SOL    HW153415   6.500   6.030   5.020
17152SOL    HW253416   6.543   5.945   4.887
17153SOL     OW53417   6.627   6.287   4.153
17153SOL    HW153418   6.653   6.283   4.249
17153SOL    HW253419   6.542   6.236   4.139
17154SOL     OW53420   5.662   6.397   4.513
17154SOL    HW153421   5.761   6.385   4.522
17154SOL    HW253422   5.638   6.492   4.534
17155SOL     OW53423   5.716   7.407   5.295
17155SOL    HW153424   5.706   7.392   5.394
17155SOL    HW253425   5.630   7.443   5.259
17156SOL     OW53426   6.451   5.934   3.919
17156SOL    HW153427   6.510   5.997   3.870
17156SOL    HW253428   6.470   5.840   3.890
17157SOL     OW53429   7.305   6.171   5.555
17157SOL    HW153430   7.279   6.260   5.519
17157SOL    HW253431   7.303   6.103   5.482
17158SOL     OW53432   6.948   6.730   4.269
17158SOL    HW153433   7.031   6.701   4.221
17158SOL    HW253434   6.899   6.797   4.213
17159SOL     OW53435   6.136   5.782   4.609
17159SOL    HW153436   6.131   5.777   4.709
17159SOL    HW253437   6.138   5.878   4.580
17160SOL     OW53438   6.594   7.042   4.201
17160SOL    HW153439   6.548   7.114   4.149
17160SOL    HW253440   6.590   7.062   4.299
17161SOL     OW53441   5.937   7.387   4.577
17161SOL    HW153442   5.987   7.301   4.583
17161SOL    HW253443   6.002   7.464   4.574
17162SOL     OW53444   7.381   6.652   4.597
17162SOL    HW153445   7.319   6.637   4.521
17162SOL    HW253446   7.329   6.663   4.682
17163SOL     OW53447   6.813   7.136   5.230
17163SOL    HW153448   6.819   7.059   5.294
17163SOL    HW253449   6.761   7.110   5.150
17164SOL     OW53450   5.907   6.529   3.966
17164SOL    HW153451   5.989   6.568   3.924
17164SOL    HW253452   5.880   6.447   3.917
17165SOL     OW53453   7.044   6.321   4.452
17165SOL    HW153454   7.039   6.256   4.527
17165SOL    HW253455   7.124   6.380   4.465
17166SOL     OW53456   6.047   6.852   5.451
17166SOL    HW153457   5.997   6.853   5.365
17166SOL    HW253458   5.984   6.834   5.527
17167SOL     OW53459   6.697   7.362   3.961
17167SOL    HW153460   6.637   7.300   4.011
17167SOL    HW253461   6.728   7.318   3.876
17168SOL     OW53462   5.788   5.871   5.222
17168SOL    HW153463   5.708   5.931   5.209
17168SOL    HW253464   5.778   5.822   5.308
17169SOL     OW53465   7.218   6.963   3.805
17169SOL    HW153466   7.186   7.057   3.795
17169SOL    HW253467   7.142   6.900   3.793
17170SOL     OW53468   6.050   7.329   4.047
17170SOL    HW153469   6.083   7.368   4.133
17170SOL    HW253470   6.126   7.322   3.982
17171SOL     OW53471   6.986   5.693   4.150
17171SOL    HW153472   6.962   5.656   4.060
17171SOL    HW253473   7.085   5.709   4.154
17172SOL     OW53474   5.835   7.371   4.965
17172SOL    HW153475   5.892   7.306   5.015
17172SOL    HW253476   5.819   7.338   4.872
17173SOL     OW53477   6.526   7.284   4.628
17173SOL    HW153478   6.606   7.227   4.649
17173SOL    HW253479   6.477   7.244   4.551
17174SOL     OW53480   5.968   6.286   4.204
17174SOL    HW153481   6.013   6.196   4.201
17174SOL    HW253482   5.874   6.275   4.237
17175SOL     OW53483   7.133   5.808   5.453
17175SOL    HW153484   7.128   5.845   5.545
17175SOL    HW253485   7.061   5.739   5.441
17176SOL     OW53486   6.200   5.708   3.841
17176SOL    HW153487   6.298   5.686   3.848
17176SOL    HW253488   6.169   5.691   3.748
17177SOL     OW53489   6.367   5.850   5.473
17177SOL    HW153490   6.434   5.789   5.516
17177SOL    HW253491   6.294   5.869   5.538
17178SOL     OW53492   6.474   7.100   4.919
17178SOL    HW153493   6.451   7.075   4.825
17178SOL    HW253494   6.535   7.031   4.958
17179SOL     OW53495   6.937   6.176   5.157
17179SOL    HW153496   6.965   6.133   5.242
17179SOL    HW253497   6.962   6.272   5.158
17180SOL     OW53498   6.389   6.988   4.648
17180SOL    HW153499   6.479   7.002   4.606
17180SOL    HW253500   6.318   6.990   4.577
17181SOL     OW53501   6.508   6.089   4.623
17181SOL    HW153502   6.483   6.080   4.527
17181SOL    HW253503   6.556   6.007   4.654
17182SOL     OW53504   6.125   5.650   4.236
17182SOL    HW153505   6.044   5.651   4.294
17182SOL    HW253506   6.128   5.733   4.181
17183SOL     OW53507   7.020   6.774   3.765
17183SOL    HW153508   7.052   6.698   3.822
17183SOL    HW253509   6.928   6.801   3.795
17184SOL     OW53510   5.883   5.621   3.895
17184SOL    HW153511   5.932   5.705   3.874
17184SOL    HW253512   5.945   5.556   3.940
17185SOL     OW53513   6.521   5.822   4.204
17185SOL    HW153514   6.473   5.863   4.126
17185SOL    HW253515   6.620   5.820   4.185
17186SOL     OW53516   6.662   6.269   5.188
17186SOL    HW153517   6.582   6.208   5.191
17186SOL    HW253518   6.743   6.216   5.164
17187SOL     OW53519   6.813   7.156   4.517
17187SOL    HW153520   6.834   7.230   4.452
17187SOL    HW253521   6.881   7.156   4.590
17188SOL     OW53522   6.045   6.738   4.465
17188SOL    HW153523   5.974   6.711   4.530
17188SOL    HW253524   6.019   6.710   4.372
17189SOL     OW53525   6.857   7.383   4.315
17189SOL    HW153526   6.901   7.447   4.251
17189SOL    HW253527   6.807   7.435   4.385
17190SOL     OW53528   6.618   6.135   3.740
17190SOL    HW153529   6.577   6.217   3.701
17190SOL    HW253530   6.682   6.161   3.813
17191SOL     OW53531   5.664   6.142   5.110
17191SOL    HW153532   5.756   6.141   5.069
17191SOL    HW253533   5.658   6.216   5.177
17192SOL     OW53534   6.147   5.808   4.871
17192SOL    HW153535   6.185   5.724   4.908
17192SOL    HW253536   6.059   5.827   4.915
17193SOL     OW53537   6.452   6.040   4.366
17193SOL    HW153538   6.420   6.112   4.304
17193SOL    HW253539   6.476   5.959   4.313
17194SOL     OW53540   6.603   5.625   4.477
17194SOL    HW153541   6.531   5.630   4.408
17194SOL    HW253542   6.579   5.556   4.546
17195SOL     OW53543   7.015   6.759   4.591
17195SOL    HW153544   6.960   6.675   4.584
17195SOL    HW253545   7.041   6.788   4.499
17196SOL     OW53546   7.052   6.176   4.716
17196SOL    HW153547   7.022   6.081   4.723
17196SOL    HW253548   7.125   6.192   4.782
17197SOL     OW53549   7.443   6.419   4.101
17197SOL    HW153550   7.485   6.355   4.165
17197SOL    HW253551   7.405   6.368   4.023
17198SOL     OW53552   6.074   6.971   3.898
17198SOL    HW153553   5.987   6.956   3.945
17198SOL    HW253554   6.057   6.997   3.803
17199SOL     OW53555   7.250   6.866   4.381
17199SOL    HW153556   7.349   6.874   4.395
17199SOL    HW253557   7.205   6.950   4.412
17200SOL     OW53558   6.976   6.161   3.802
17200SOL    HW153559   6.922   6.140   3.883
17200SOL    HW253560   7.067   6.120   3.811
17201SOL     OW53561   6.113   5.842   4.052
17201SOL    HW153562   6.140   5.783   3.977
17201SOL    HW253563   6.113   5.937   4.021
17202SOL     OW53564   7.340   6.809   5.312
17202SOL    HW153565   7.431   6.770   5.299
17202SOL    HW253566   7.348   6.905   5.336
17203SOL     OW53567   6.650   6.933   5.064
17203SOL    HW153568   6.570   6.910   5.119
17203SOL    HW253569   6.733   6.907   5.113
17204SOL     OW53570   7.178   7.215   5.349
17204SOL    HW153571   7.205   7.249   5.259
17204SOL    HW253572   7.257   7.177   5.395
17205SOL     OW53573   6.697   6.781   4.824
17205SOL    HW153574   6.657   6.825   4.905
17205SOL    HW253575   6.656   6.818   4.741
17206SOL     OW53576   7.224   6.685   4.803
17206SOL    HW153577   7.229   6.766   4.862
17206SOL    HW253578   7.138   6.687   4.752
17207SOL     OW53579   6.501   5.675   5.126
17207SOL    HW153580   6.526   5.655   5.031
17207SOL    HW253581   6.573   5.731   5.168
17208SOL     OW53582   6.566   6.702   5.443
17208SOL    HW153583   6.467   6.708   5.453
17208SOL    HW253584   6.589   6.622   5.387
17209SOL     OW53585   6.291   6.636   4.092
17209SOL    HW153586   6.277   6.643   4.191
17209SOL    HW253587   6.375   6.585   4.074
17210SOL     OW53588   5.996   6.399   4.975
17210SOL    HW153589   6.082   6.411   5.025
17210SOL    HW253590   5.954   6.312   5.002
17211SOL     OW53591   6.860   5.972   4.986
17211SOL    HW153592   6.881   6.046   5.050
17211SOL    HW253593   6.771   5.989   4.943
17212SOL     OW53594   5.650   7.150   5.055
17212SOL    HW153595   5.604   7.232   5.021
17212SOL    HW253596   5.748   7.169   5.064
17213SOL     OW53597   5.953   6.686   4.225
17213SOL    HW153598   5.946   6.769   4.169
17213SOL    HW253599   5.957   6.606   4.165
17214SOL     OW53600   6.152   6.123   4.589
17214SOL    HW153601   6.164   6.189   4.515
17214SOL    HW253602   6.198   6.157   4.672
17215SOL     OW53603   6.838   6.934   4.112
17215SOL    HW153604   6.888   7.011   4.152
17215SOL    HW253605   6.743   6.936   4.144
17216SOL     OW53606   6.858   7.031   4.866
17216SOL    HW153607   6.905   7.044   4.953
17216SOL    HW253608   6.792   6.957   4.875
17217SOL     OW53609   7.168   6.225   4.196
17217SOL    HW153610   7.137   6.286   4.269
17217SOL    HW253611   7.218   6.277   4.127
17218SOL     OW53612   5.940   7.096   5.053
17218SOL    HW153613   5.919   7.052   4.966
17218SOL    HW253614   6.037   7.122   5.056
17219SOL     OW53615   5.988   6.337   5.322
17219SOL    HW153616   6.056   6.392   5.275
17219SOL    HW253617   6.028   6.249   5.349
17220SOL     OW53618   7.173   6.365   5.394
17220SOL    HW153619   7.081   6.403   5.389
17220SOL    HW253620   7.233   6.412   5.329
17221SOL     OW53621   6.599   5.691   5.494
17221SOL    HW153622   6.605   5.776   5.442
17221SOL    HW253623   6.631   5.615   5.437
17222SOL     OW53624   6.090   5.636   5.464
17222SOL    HW153625   6.048   5.579   5.394
17222SOL    HW253626   6.024   5.705   5.496
17223SOL     OW53627   6.159   6.456   4.753
17223SOL    HW153628   6.203   6.545   4.744
17223SOL    HW253629   6.096   6.456   4.830
17224SOL     OW53630   6.946   6.448   4.769
17224SOL    HW153631   6.871   6.448   4.703
17224SOL    HW253632   6.983   6.356   4.778
17225SOL     OW53633   6.795   6.111   3.999
17225SOL    HW153634   6.808   6.027   4.053
17225SOL    HW253635   6.766   6.185   4.059
17226SOL     OW53636   5.893   5.799   4.955
17226SOL    HW153637   5.870   5.836   5.045
17226SOL    HW253638   5.863   5.704   4.949
17227SOL     OW53639   5.623   6.896   5.006
17227SOL    HW153640   5.676   6.847   5.074
17227SOL    HW253641   5.645   6.994   5.011
17228SOL     OW53642   6.318   6.220   4.788
17228SOL    HW153643   6.377   6.194   4.712
17228SOL    HW253644   6.290   6.316   4.777
17229SOL     OW53645   7.314   6.521   5.578
17229SOL    HW153646   7.268   6.514   5.489
17229SOL    HW253647   7.252   6.565   5.644
17230SOL     OW53648   5.893   5.649   4.342
17230SOL    HW153649   5.882   5.743   4.375
17230SOL    HW253650   5.888   5.586   4.419
17231SOL     OW53651   7.208   5.953   4.098
17231SOL    HW153652   7.210   5.877   4.162
17231SOL    HW253653   7.160   6.030   4.138
17232SOL     OW53654   6.609   6.352   4.690
17232SOL    HW153655   6.624   6.373   4.786
17232SOL    HW253656   6.579   6.257   4.681
17233SOL     OW53657   6.566   7.159   5.424
17233SOL    HW153658   6.546   7.203   5.336
17233SOL    HW253659   6.605   7.068   5.408
17234SOL     OW53660   7.445   7.104   5.329
17234SOL    HW153661   7.459   7.131   5.234
17234SOL    HW253662   7.528   7.126   5.382
17235SOL     OW53663   5.936   6.484   5.528
17235SOL    HW153664   6.012   6.528   5.576
17235SOL    HW253665   5.971   6.437   5.446
17236SOL     OW53666   7.126   5.860   3.849
17236SOL    HW153667   7.065   5.785   3.872
17236SOL    HW253668   7.148   5.912   3.932
17237SOL     OW53669   6.889   6.424   3.766
17237SOL    HW153670   6.923   6.331   3.781
17237SOL    HW253671   6.907   6.451   3.671
17238SOL     OW53672   6.654   6.919   4.573
17238SOL    HW153673   6.661   6.835   4.518
17238SOL    HW253674   6.716   6.988   4.537
17239SOL     OW53675   5.905   6.396   4.673
17239SOL    HW153676   5.998   6.432   4.678
17239SOL    HW253677   5.899   6.311   4.725
17240SOL     OW53678   5.925   6.095   4.730
17240SOL    HW153679   5.873   6.012   4.713
17240SOL    HW253680   6.002   6.100   4.666
17241SOL     OW53681   6.097   6.001   5.532
17241SOL    HW153682   6.079   6.046   5.620
17241SOL    HW253683   6.139   6.066   5.469
17242SOL     OW53684   6.724   5.966   5.402
17242SOL    HW153685   6.679   6.029   5.466
17242SOL    HW253686   6.817   5.997   5.385
17243SOL     OW53687   6.746   5.793   5.201
17243SOL    HW153688   6.746   5.857   5.278
17243SOL    HW253689   6.774   5.841   5.118
17244SOL     OW53690   5.594   6.912   3.924
17244SOL    HW153691   5.501   6.933   3.893
17244SOL    HW253692   5.604   6.813   3.937
17245SOL     OW53693   5.674   7.387   4.651
17245SOL    HW153694   5.632   7.301   4.624
17245SOL    HW253695   5.768   7.390   4.617
17246SOL     OW53696   6.090   7.154   4.634
17246SOL    HW153697   6.156   7.228   4.643
17246SOL    HW253698   6.134   7.075   4.592
17247SOL     OW53699   6.588   6.382   4.962
17247SOL    HW153700   6.629   6.350   5.048
17247SOL    HW253701   6.492   6.355   4.959
17248SOL     OW53702   5.626   6.130   4.838
17248SOL    HW153703   5.711   6.097   4.797
17248SOL    HW253704   5.639   6.145   4.936
17249SOL     OW53705   5.775   6.106   5.446
17249SOL    HW153706   5.834   6.066   5.376
17249SOL    HW253707   5.717   6.177   5.405
17250SOL     OW53708   6.955   6.536   5.384
17250SOL    HW153709   6.994   6.625   5.404
17250SOL    HW253710   6.965   6.516   5.287
17251SOL     OW53711   6.401   6.158   4.049
17251SOL    HW153712   6.408   6.069   4.003
17251SOL    HW253713   6.307   6.192   4.041
17252SOL     OW53714   7.243   6.190   4.930
17252SOL    HW153715   7.205   6.121   4.992
17252SOL    HW253716   7.325   6.154   4.886
17253SOL     OW53717   5.838   7.150   5.468
17253SOL    HW153718   5.808   7.207   5.544
17253SOL    HW253719   5.831   7.053   5.494
17254SOL     OW53720   6.257   6.050   4.993
17254SOL    HW153721   6.223   5.961   4.963
17254SOL    HW253722   6.283   6.104   4.913
17255SOL     OW53723   6.516   7.264   5.189
17255SOL    HW153724   6.492   7.246   5.094
17255SOL    HW253725   6.546   7.358   5.199
17256SOL     OW53726   6.059   6.086   3.915
17256SOL    HW153727   6.120   6.166   3.919
17256SOL    HW253728   5.964   6.117   3.922
17257SOL     OW53729   5.745   6.723   5.190
17257SOL    HW153730   5.767   6.662   5.266
17257SOL    HW253731   5.755   6.674   5.104
17258SOL     OW53732   6.933   6.645   4.958
17258SOL    HW153733   6.957   6.582   4.884
17258SOL    HW253734   6.843   6.685   4.940
17259SOL     OW53735   6.888   6.441   4.033
17259SOL    HW153736   6.802   6.410   4.075
17259SOL    HW253737   6.884   6.427   3.934
17260SOL     OW53738   7.345   7.333   4.878
17260SOL    HW153739   7.406   7.363   4.805
17260SOL    HW253740   7.307   7.244   4.856
17261SOL     OW53741   6.838   7.317   4.852
17261SOL    HW153742   6.922   7.322   4.798
17261SOL    HW253743   6.815   7.221   4.870
17262SOL     OW53744   5.669   6.844   4.746
17262SOL    HW153745   5.664   6.843   4.846
17262SOL    HW253746   5.586   6.803   4.708
17263SOL     OW53747   6.274   7.248   5.440
17263SOL    HW153748   6.218   7.329   5.449
17263SOL    HW253749   6.326   7.252   5.354
17264SOL     OW53750   6.489   5.672   3.857
17264SOL    HW153751   6.540   5.673   3.771
17264SOL    HW253752   6.545   5.630   3.928
17265SOL     OW53753   7.312   5.721   4.247
17265SOL    HW153754   7.385   5.704   4.180
17265SOL    HW253755   7.281   5.634   4.285
17266SOL     OW53756   6.974   7.159   4.201
17266SOL    HW153757   7.041   7.171   4.127
17266SOL    HW253758   6.934   7.248   4.224
17267SOL     OW53759   5.716   7.380   5.575
17267SOL    HW153760   5.675   7.306   5.628
17267SOL    HW253761   5.780   7.431   5.633
17268SOL     OW53762   6.866   6.513   4.396
17268SOL    HW153763   6.926   6.432   4.398
17268SOL    HW253764   6.906   6.582   4.336
17269SOL     OW53765   6.416   6.859   5.146
17269SOL    HW153766   6.411   6.892   5.241
17269SOL    HW253767   6.330   6.878   5.100
17270SOL     OW53768   6.258   7.202   3.878
17270SOL    HW153769   6.267   7.212   3.779
17270SOL    HW253770   6.218   7.113   3.899
17271SOL     OW53771   7.236   7.306   5.118
17271SOL    HW153772   7.289   7.316   5.034
17271SOL    HW253773   7.209   7.396   5.152
17272SOL     OW53774   7.427   5.761   4.687
17272SOL    HW153775   7.466   5.676   4.651
17272SOL    HW253776   7.329   5.763   4.668
17273SOL     OW53777   5.849   5.912   4.444
17273SOL    HW153778   5.770   5.963   4.410
17273SOL    HW253779   5.840   5.897   4.542
17274SOL     OW53780   6.780   7.198   3.755
17274SOL    HW153781   6.786   7.105   3.792
17274SOL    HW253782   6.721   7.198   3.675
17275SOL     OW53783   6.408   6.588   5.096
17275SOL    HW153784   6.448   6.587   5.004
17275SOL    HW253785   6.418   6.680   5.136
17276SOL     OW53786   6.502   6.496   4.015
17276SOL    HW153787   6.565   6.534   3.947
17276SOL    HW253788   6.542   6.413   4.054
17277SOL     OW53789   7.090   7.193   3.768
17277SOL    HW153790   6.998   7.230   3.775
17277SOL    HW253791   7.128   7.213   3.678
17278SOL     OW53792   5.958   6.874   5.214
17278SOL    HW153793   5.945   6.967   5.180
17278SOL    HW253794   5.874   6.822   5.201
17279SOL     OW53795   7.200   6.878   5.013
17279SOL    HW153796   7.260   6.881   5.093
17279SOL    HW253797   7.125   6.942   5.026
17280SOL     OW53798   6.625   6.684   4.420
17280SOL    HW153799   6.555   6.637   4.474
17280SOL    HW253800   6.684   6.616   4.377
17281SOL     OW53801   6.600   5.822   4.695
17281SOL    HW153802   6.592   5.786   4.602
17281SOL    HW253803   6.598   5.746   4.760
17282SOL     OW53804   6.176   7.073   4.215
17282SOL    HW153805   6.218   7.015   4.145
17282SOL    HW253806   6.132   7.152   4.171
17283SOL     OW53807   7.295   5.971   5.105
17283SOL    HW153808   7.368   6.040   5.109
17283SOL    HW253809   7.323   5.896   5.046
17284SOL     OW53810   5.841   6.934   4.014
17284SOL    HW153811   5.745   6.935   3.987
17284SOL    HW253812   5.853   6.987   4.098
17285SOL     OW53813   5.691   6.599   5.450
17285SOL    HW153814   5.614   6.566   5.504
17285SOL    HW253815   5.776   6.569   5.492
17286SOL     OW53816   6.258   5.789   5.213
17286SOL    HW153817   6.348   5.773   5.173
17286SOL    HW253818   6.266   5.794   5.312
17287SOL     OW53819   5.661   5.931   3.757
17287SOL    HW153820   5.569   5.903   3.728
17287SOL    HW253821   5.692   6.008   3.701
17288SOL     OW53822   7.026   6.442   5.122
17288SOL    HW153823   6.969   6.494   5.059
17288SOL    HW253824   7.122   6.454   5.098
17289SOL     OW53825   5.658   5.752   4.042
17289SOL    HW153826   5.641   5.835   3.988
17289SOL    HW253827   5.748   5.715   4.020
17290SOL     OW53828   6.769   6.921   3.843
17290SOL    HW153829   6.670   6.910   3.845
17290SOL    HW253830   6.803   6.936   3.936
17291SOL     OW53831   6.199   6.428   5.155
17291SOL    HW153832   6.255   6.509   5.138
17291SOL    HW253833   6.258   6.348   5.158
17292SOL     OW53834   7.079   7.353   4.683
17292SOL    HW153835   7.112   7.417   4.614
17292SOL    HW253836   7.145   7.347   4.758
17293SOL     OW53837   6.302   6.151   5.432
17293SOL    HW153838   6.321   6.216   5.506
17293SOL    HW253839   6.362   6.071   5.441
17294SOL     OW53840   7.036   6.806   5.357
17294SOL    HW153841   7.027   6.796   5.456
17294SOL    HW253842   7.132   6.799   5.331
17295SOL     OW53843   5.976   7.327   5.284
17295SOL    HW153844   5.885   7.368   5.282
17295SOL    HW253845   5.969   7.233   5.316
17296SOL     OW53846   7.260   6.469   4.978
17296SOL    HW153847   7.233   6.380   4.941
17296SOL    HW253848   7.261   6.537   4.905
17297SOL     OW53849   6.811   5.911   4.173
17297SOL    HW153850   6.876   5.837   4.162
17297SOL    HW253851   6.831   5.961   4.257
17298SOL     OW53852   6.180   6.331   4.376
17298SOL    HW153853   6.230   6.416   4.357
17298SOL    HW253854   6.092   6.333   4.328
17299SOL     OW53855   7.363   5.928   5.366
17299SOL    HW153856   7.346   5.959   5.272
17299SOL    HW253857   7.279   5.891   5.404
17300SOL     OW53858   7.316   6.520   5.241
17300SOL    HW153859   7.354   6.611   5.256
17300SOL    HW253860   7.308   6.503   5.142
17301SOL     OW53861   6.445   6.960   3.740
17301SOL    HW153862   6.399   6.975   3.828
17301SOL    HW253863   6.489   7.045   3.710
17302SOL     OW53864   6.247   7.376   4.677
17302SOL    HW153865   6.201   7.464   4.664
17302SOL    HW253866   6.346   7.388   4.670
17303SOL     OW53867   6.994   7.437   5.444
17303SOL    HW153868   6.898   7.426   5.417
17303SOL    HW253869   7.050   7.370   5.396
17304SOL     OW53870   6.445   6.542   4.585
17304SOL    HW153871   6.499   6.473   4.633
17304SOL    HW253872   6.413   6.611   4.651
17305SOL     OW53873   6.669   6.570   3.811
17305SOL    HW153874   6.646   6.623   3.729
17305SOL    HW253875   6.750   6.514   3.792
17306SOL     OW53876   7.447   7.155   4.575
17306SOL    HW153877   7.376   7.143   4.505
17306SOL    HW253878   7.448   7.076   4.635
17307SOL     OW53879   5.807   6.900   5.568
17307SOL    HW153880   5.742   6.827   5.547
17307SOL    HW253881   5.811   6.914   5.666
17308SOL     OW53882   5.665   6.826   4.377
17308SOL    HW153883   5.664   6.779   4.465
17308SOL    HW253884   5.747   6.798   4.326
17309SOL     OW53885   6.258   6.977   5.348
17309SOL    HW153886   6.180   6.927   5.386
17309SOL    HW253887   6.255   7.072   5.379
17310SOL     OW53888   7.410   5.778   4.951
17310SOL    HW153889   7.406   5.688   4.995
17310SOL    HW253890   7.413   5.767   4.852
17311SOL     OW53891   6.014   6.010   4.244
17311SOL    HW153892   6.044   5.938   4.182
17311SOL    HW253893   5.975   5.970   4.327
17312SOL     OW53894   7.291   7.073   4.828
17312SOL    HW153895   7.198   7.048   4.801
17312SOL    HW253896   7.317   7.023   4.910
17313SOL     OW53897   5.903   6.133   5.004
17313SOL    HW153898   5.941   6.074   5.076
17313SOL    HW253899   5.943   6.107   4.916
17314SOL     OW53900   6.398   7.172   4.411
17314SOL    HW153901   6.430   7.182   4.317
17314SOL    HW253902   6.319   7.110   4.413
17315SOL     OW53903   7.010   5.800   4.836
17315SOL    HW153904   7.062   5.735   4.891
17315SOL    HW253905   6.961   5.863   4.897
17316SOL     OW53906   6.587   5.620   4.878
17316SOL    HW153907   6.524   5.548   4.847
17316SOL    HW253908   6.680   5.584   4.878
17317SOL     OW53909   6.356   6.916   4.025
17317SOL    HW153910   6.310   6.829   4.042
17317SOL    HW253911   6.447   6.913   4.066
17318SOL     OW53912   6.204   7.153   5.008
17318SOL    HW153913   6.199   7.235   5.065
17318SOL    HW253914   6.293   7.150   4.963
17319SOL     OW53915   6.938   5.638   3.892
17319SOL    HW153916   6.973   5.597   3.808
17319SOL    HW253917   6.848   5.600   3.912
17320SOL     OW53918   6.886   6.039   4.415
17320SOL    HW153919   6.827   6.119   4.419
17320SOL    HW253920   6.901   6.004   4.508
17321SOL     OW53921   7.179   5.807   4.606
17321SOL    HW153922   7.095   5.806   4.660
17321SOL    HW253923   7.181   5.890   4.550
17322SOL     OW53924   5.625   6.663   4.024
17322SOL    HW153925   5.724   6.652   4.015
17322SOL    HW253926   5.585   6.577   4.056
17323SOL     OW53927   6.461   7.232   4.061
17323SOL    HW153928   6.384   7.197   4.007
17323SOL    HW253929   6.429   7.303   4.123
17324SOL     OW53930   5.816   6.214   5.699
17324SOL    HW153931   5.723   6.212   5.736
17324SOL    HW253932   5.817   6.175   5.607
17325SOL     OW53933   5.811   5.861   6.582
17325SOL    HW153934   5.846   5.844   6.674
17325SOL    HW253935   5.723   5.816   6.570
17326SOL     OW53936   5.605   5.954   6.233
17326SOL    HW153937   5.523   5.997   6.272
17326SOL    HW253938   5.577   5.881   6.170
17327SOL     OW53939   6.155   6.861   6.751
17327SOL    HW153940   6.062   6.854   6.714
17327SOL    HW253941   6.166   6.950   6.795
17328SOL     OW53942   7.141   7.097   6.289
17328SOL    HW153943   7.084   7.081   6.370
17328SOL    HW253944   7.082   7.107   6.209
17329SOL     OW53945   7.329   6.204   6.442
17329SOL    HW153946   7.362   6.298   6.442
17329SOL    HW253947   7.380   6.150   6.508
17330SOL     OW53948   6.721   6.289   6.303
17330SOL    HW153949   6.778   6.367   6.278
17330SOL    HW253950   6.661   6.315   6.379
17331SOL     OW53951   7.341   6.193   5.817
17331SOL    HW153952   7.329   6.180   5.718
17331SOL    HW253953   7.311   6.112   5.866
17332SOL     OW53954   6.354   6.730   6.609
17332SOL    HW153955   6.276   6.747   6.669
17332SOL    HW253956   6.388   6.817   6.573
17333SOL     OW53957   6.436   6.384   7.409
17333SOL    HW153958   6.432   6.460   7.474
17333SOL    HW253959   6.458   6.420   7.318
17334SOL     OW53960   6.271   6.598   6.251
17334SOL    HW153961   6.340   6.582   6.321
17334SOL    HW253962   6.198   6.655   6.289
17335SOL     OW53963   6.272   6.747   7.389
17335SOL    HW153964   6.332   6.826   7.403
17335SOL    HW253965   6.186   6.778   7.348
17336SOL     OW53966   5.921   7.021   6.647
17336SOL    HW153967   5.843   6.990   6.594
17336SOL    HW253968   5.979   7.079   6.590
17337SOL     OW53969   7.046   7.091   6.925
17337SOL    HW153970   7.070   7.185   6.951
17337SOL    HW253971   7.030   7.037   7.007
17338SOL     OW53972   6.024   5.978   7.085
17338SOL    HW153973   6.106   5.922   7.094
17338SOL    HW253974   5.943   5.920   7.089
17339SOL     OW53975   7.189   6.033   6.323
17339SOL    HW153976   7.115   6.079   6.273
17339SOL    HW253977   7.240   6.101   6.376
17340SOL     OW53978   5.817   7.299   6.069
17340SOL    HW153979   5.851   7.376   6.123
17340SOL    HW253980   5.861   7.299   5.979
17341SOL     OW53981   6.713   6.927   7.276
17341SOL    HW153982   6.760   6.927   7.364
17341SOL    HW253983   6.665   6.840   7.265
17342SOL     OW53984   5.816   7.020   6.124
17342SOL    HW153985   5.790   7.116   6.124
17342SOL    HW253986   5.745   6.966   6.169
17343SOL     OW53987   5.826   6.677   6.472
17343SOL    HW153988   5.840   6.593   6.524
17343SOL    HW253989   5.771   6.741   6.527
17344SOL     OW53990   6.206   7.372   7.025
17344SOL    HW153991   6.114   7.355   7.060
17344SOL    HW253992   6.234   7.464   7.051
17345SOL     OW53993   6.192   6.550   5.709
17345SOL    HW153994   6.199   6.634   5.655
17345SOL    HW253995   6.238   6.563   5.797
17346SOL     OW53996   7.180   5.700   7.066
17346SOL    HW153997   7.162   5.767   6.994
17346SOL    HW253998   7.177   5.746   7.155
17347SOL     OW53999   5.708   6.229   6.149
17347SOL    HW154000   5.663   6.141   6.166
17347SOL    HW254001   5.707   6.283   6.233
17348SOL     OW54002   7.428   7.353   5.945
17348SOL    HW154003   7.482   7.324   6.025
17348SOL    HW254004   7.458   7.443   5.916
17349SOL     OW54005   5.613   7.182   5.703
17349SOL    HW154006   5.594   7.086   5.724
17349SOL    HW254007   5.580   7.240   5.778
17350SOL     OW54008   7.275   6.508   6.198
17350SOL    HW154009   7.370   6.479   6.206
17350SOL    HW254010   7.267   6.573   6.123
17351SOL     OW54011   7.227   6.694   6.018
17351SOL    HW154012   7.313   6.696   5.966
17351SOL    HW254013   7.241   6.741   6.106
17352SOL     OW54014   5.699   6.323   7.183
17352SOL    HW154015   5.787   6.310   7.228
17352SOL    HW254016   5.686   6.420   7.161
17353SOL     OW54017   6.199   6.951   6.312
17353SOL    HW154018   6.150   6.864   6.321
17353SOL    HW254019   6.176   6.994   6.225
17354SOL     OW54020   6.879   6.814   7.009
17354SOL    HW154021   6.916   6.741   6.951
17354SOL    HW254022   6.931   6.819   7.094
17355SOL     OW54023   6.395   5.590   6.088
17355SOL    HW154024   6.435   5.681   6.079
17355SOL    HW254025   6.295   5.598   6.094
17356SOL     OW54026   5.783   6.562   6.850
17356SOL    HW154027   5.872   6.517   6.836
17356SOL    HW254028   5.710   6.497   6.831
17357SOL     OW54029   7.111   6.585   5.776
17357SOL    HW154030   7.048   6.509   5.789
17357SOL    HW254031   7.159   6.603   5.862
17358SOL     OW54032   6.773   7.378   7.202
17358SOL    HW154033   6.797   7.438   7.126
17358SOL    HW254034   6.780   7.283   7.172
17359SOL     OW54035   5.903   5.837   7.387
17359SOL    HW154036   5.974   5.908   7.393
17359SOL    HW254037   5.815   5.876   7.415
17360SOL     OW54038   7.052   7.003   6.539
17360SOL    HW154039   6.993   7.009   6.619
17360SOL    HW254040   7.037   6.915   6.493
17361SOL     OW54041   7.253   7.300   6.158
17361SOL    HW154042   7.212   7.277   6.070
17361SOL    HW254043   7.235   7.226   6.223
17362SOL     OW54044   6.184   6.315   5.856
17362SOL    HW154045   6.208   6.384   5.788
17362SOL    HW254046   6.106   6.348   5.910
17363SOL     OW54047   6.867   5.931   6.530
17363SOL    HW154048   6.781   5.881   6.517
17363SOL    HW254049   6.929   5.877   6.586
17364SOL     OW54050   7.162   7.248   5.893
17364SOL    HW154051   7.251   7.294   5.896
17364SOL    HW254052   7.141   7.224   5.798
17365SOL     OW54053   6.393   6.191   7.051
17365SOL    HW154054   6.346   6.188   7.140
17365SOL    HW254055   6.342   6.136   6.985
17366SOL     OW54056   6.980   6.055   7.260
17366SOL    HW154057   6.960   6.098   7.348
17366SOL    HW254058   7.058   5.993   7.269
17367SOL     OW54059   6.559   6.476   7.158
17367SOL    HW154060   6.605   6.392   7.129
17367SOL    HW254061   6.503   6.510   7.083
17368SOL     OW54062   6.577   5.996   6.828
17368SOL    HW154063   6.500   6.030   6.882
17368SOL    HW254064   6.543   5.945   6.749
17369SOL     OW54065   6.627   6.287   6.015
17369SOL    HW154066   6.653   6.283   6.111
17369SOL    HW254067   6.542   6.236   6.001
17370SOL     OW54068   5.662   6.397   6.375
17370SOL    HW154069   5.761   6.385   6.384
17370SOL    HW254070   5.638   6.492   6.396
17371SOL     OW54071   5.716   7.407   7.157
17371SOL    HW154072   5.706   7.392   7.256
17371SOL    HW254073   5.630   7.443   7.121
17372SOL     OW54074   6.451   5.934   5.781
17372SOL    HW154075   6.510   5.997   5.732
17372SOL    HW254076   6.470   5.840   5.752
17373SOL     OW54077   7.305   6.171   7.417
17373SOL    HW154078   7.279   6.260   7.381
17373SOL    HW254079   7.303   6.103   7.344
17374SOL     OW54080   6.948   6.730   6.131
17374SOL    HW154081   7.031   6.701   6.083
17374SOL    HW254082   6.899   6.797   6.075
17375SOL     OW54083   6.136   5.782   6.471
17375SOL    HW154084   6.131   5.777   6.571
17375SOL    HW254085   6.138   5.878   6.442
17376SOL     OW54086   6.594   7.042   6.063
17376SOL    HW154087   6.548   7.114   6.011
17376SOL    HW254088   6.590   7.062   6.161
17377SOL     OW54089   5.937   7.387   6.439
17377SOL    HW154090   5.987   7.301   6.445
17377SOL    HW254091   6.002   7.464   6.436
17378SOL     OW54092   7.381   6.652   6.459
17378SOL    HW154093   7.319   6.637   6.383
17378SOL    HW254094   7.329   6.663   6.544
17379SOL     OW54095   6.813   7.136   7.092
17379SOL    HW154096   6.819   7.059   7.156
17379SOL    HW254097   6.761   7.110   7.012
17380SOL     OW54098   5.907   6.529   5.828
17380SOL    HW154099   5.989   6.568   5.786
17380SOL    HW254100   5.880   6.447   5.779
17381SOL     OW54101   7.044   6.321   6.314
17381SOL    HW154102   7.039   6.256   6.389
17381SOL    HW254103   7.124   6.380   6.327
17382SOL     OW54104   6.047   6.852   7.313
17382SOL    HW154105   5.997   6.853   7.227
17382SOL    HW254106   5.984   6.834   7.389
17383SOL     OW54107   6.697   7.362   5.823
17383SOL    HW154108   6.637   7.300   5.873
17383SOL    HW254109   6.728   7.318   5.738
17384SOL     OW54110   5.788   5.871   7.084
17384SOL    HW154111   5.708   5.931   7.071
17384SOL    HW254112   5.778   5.822   7.170
17385SOL     OW54113   7.218   6.963   5.667
17385SOL    HW154114   7.186   7.057   5.657
17385SOL    HW254115   7.142   6.900   5.655
17386SOL     OW54116   6.050   7.329   5.909
17386SOL    HW154117   6.083   7.368   5.995
17386SOL    HW254118   6.126   7.322   5.844
17387SOL     OW54119   6.986   5.693   6.012
17387SOL    HW154120   6.962   5.656   5.922
17387SOL    HW254121   7.085   5.709   6.016
17388SOL     OW54122   5.835   7.371   6.827
17388SOL    HW154123   5.892   7.306   6.877
17388SOL    HW254124   5.819   7.338   6.734
17389SOL     OW54125   6.526   7.284   6.490
17389SOL    HW154126   6.606   7.227   6.511
17389SOL    HW254127   6.477   7.244   6.413
17390SOL     OW54128   5.968   6.286   6.066
17390SOL    HW154129   6.013   6.196   6.063
17390SOL    HW254130   5.874   6.275   6.099
17391SOL     OW54131   7.133   5.808   7.315
17391SOL    HW154132   7.128   5.845   7.407
17391SOL    HW254133   7.061   5.739   7.303
17392SOL     OW54134   6.200   5.708   5.703
17392SOL    HW154135   6.298   5.686   5.710
17392SOL    HW254136   6.169   5.691   5.610
17393SOL     OW54137   6.367   5.850   7.335
17393SOL    HW154138   6.434   5.789   7.378
17393SOL    HW254139   6.294   5.869   7.400
17394SOL     OW54140   6.474   7.100   6.781
17394SOL    HW154141   6.451   7.075   6.687
17394SOL    HW254142   6.535   7.031   6.820
17395SOL     OW54143   6.937   6.176   7.019
17395SOL    HW154144   6.965   6.133   7.104
17395SOL    HW254145   6.962   6.272   7.020
17396SOL     OW54146   6.389   6.988   6.510
17396SOL    HW154147   6.479   7.002   6.468
17396SOL    HW254148   6.318   6.990   6.439
17397SOL     OW54149   6.508   6.089   6.485
17397SOL    HW154150   6.483   6.080   6.389
17397SOL    HW254151   6.556   6.007   6.516
17398SOL     OW54152   6.125   5.650   6.098
17398SOL    HW154153   6.044   5.651   6.156
17398SOL    HW254154   6.128   5.733   6.043
17399SOL     OW54155   7.020   6.774   5.627
17399SOL    HW154156   7.052   6.698   5.684
17399SOL    HW254157   6.928   6.801   5.657
17400SOL     OW54158   5.883   5.621   5.757
17400SOL    HW154159   5.932   5.705   5.736
17400SOL    HW254160   5.945   5.556   5.802
17401SOL     OW54161   6.521   5.822   6.066
17401SOL    HW154162   6.473   5.863   5.988
17401SOL    HW254163   6.620   5.820   6.047
17402SOL     OW54164   6.662   6.269   7.050
17402SOL    HW154165   6.582   6.208   7.053
17402SOL    HW254166   6.743   6.216   7.026
17403SOL     OW54167   6.813   7.156   6.379
17403SOL    HW154168   6.834   7.230   6.314
17403SOL    HW254169   6.881   7.156   6.452
17404SOL     OW54170   6.045   6.738   6.327
17404SOL    HW154171   5.974   6.711   6.392
17404SOL    HW254172   6.019   6.710   6.234
17405SOL     OW54173   6.857   7.383   6.177
17405SOL    HW154174   6.901   7.447   6.113
17405SOL    HW254175   6.807   7.435   6.247
17406SOL     OW54176   6.618   6.135   5.602
17406SOL    HW154177   6.577   6.217   5.563
17406SOL    HW254178   6.682   6.161   5.675
17407SOL     OW54179   5.664   6.142   6.972
17407SOL    HW154180   5.756   6.141   6.931
17407SOL    HW254181   5.658   6.216   7.039
17408SOL     OW54182   6.147   5.808   6.733
17408SOL    HW154183   6.185   5.724   6.770
17408SOL    HW254184   6.059   5.827   6.777
17409SOL     OW54185   6.452   6.040   6.228
17409SOL    HW154186   6.420   6.112   6.166
17409SOL    HW254187   6.476   5.959   6.175
17410SOL     OW54188   6.603   5.625   6.339
17410SOL    HW154189   6.531   5.630   6.270
17410SOL    HW254190   6.579   5.556   6.408
17411SOL     OW54191   7.015   6.759   6.453
17411SOL    HW154192   6.960   6.675   6.446
17411SOL    HW254193   7.041   6.788   6.361
17412SOL     OW54194   7.052   6.176   6.578
17412SOL    HW154195   7.022   6.081   6.585
17412SOL    HW254196   7.125   6.192   6.644
17413SOL     OW54197   7.443   6.419   5.963
17413SOL    HW154198   7.485   6.355   6.027
17413SOL    HW254199   7.405   6.368   5.885
17414SOL     OW54200   6.074   6.971   5.760
17414SOL    HW154201   5.987   6.956   5.807
17414SOL    HW254202   6.057   6.997   5.665
17415SOL     OW54203   7.250   6.866   6.243
17415SOL    HW154204   7.349   6.874   6.257
17415SOL    HW254205   7.205   6.950   6.274
17416SOL     OW54206   6.976   6.161   5.664
17416SOL    HW154207   6.922   6.140   5.745
17416SOL    HW254208   7.067   6.120   5.673
17417SOL     OW54209   6.113   5.842   5.914
17417SOL    HW154210   6.140   5.783   5.839
17417SOL    HW254211   6.113   5.937   5.883
17418SOL     OW54212   7.340   6.809   7.174
17418SOL    HW154213   7.431   6.770   7.161
17418SOL    HW254214   7.348   6.905   7.198
17419SOL     OW54215   6.650   6.933   6.926
17419SOL    HW154216   6.570   6.910   6.981
17419SOL    HW254217   6.733   6.907   6.975
17420SOL     OW54218   7.178   7.215   7.211
17420SOL    HW154219   7.205   7.249   7.121
17420SOL    HW254220   7.257   7.177   7.257
17421SOL     OW54221   6.697   6.781   6.686
17421SOL    HW154222   6.657   6.825   6.767
17421SOL    HW254223   6.656   6.818   6.603
17422SOL     OW54224   7.224   6.685   6.665
17422SOL    HW154225   7.229   6.766   6.724
17422SOL    HW254226   7.138   6.687   6.614
17423SOL     OW54227   6.501   5.675   6.988
17423SOL    HW154228   6.526   5.655   6.893
17423SOL    HW254229   6.573   5.731   7.030
17424SOL     OW54230   6.566   6.702   7.305
17424SOL    HW154231   6.467   6.708   7.315
17424SOL    HW254232   6.589   6.622   7.249
17425SOL     OW54233   6.291   6.636   5.954
17425SOL    HW154234   6.277   6.643   6.053
17425SOL    HW254235   6.375   6.585   5.936
17426SOL     OW54236   5.996   6.399   6.837
17426SOL    HW154237   6.082   6.411   6.887
17426SOL    HW254238   5.954   6.312   6.864
17427SOL     OW54239   6.860   5.972   6.848
17427SOL    HW154240   6.881   6.046   6.912
17427SOL    HW254241   6.771   5.989   6.805
17428SOL     OW54242   5.650   7.150   6.917
17428SOL    HW154243   5.604   7.232   6.883
17428SOL    HW254244   5.748   7.169   6.926
17429SOL     OW54245   5.953   6.686   6.087
17429SOL    HW154246   5.946   6.769   6.031
17429SOL    HW254247   5.957   6.606   6.027
17430SOL     OW54248   6.152   6.123   6.451
17430SOL    HW154249   6.164   6.189   6.377
17430SOL    HW254250   6.198   6.157   6.534
17431SOL     OW54251   6.838   6.934   5.974
17431SOL    HW154252   6.888   7.011   6.014
17431SOL    HW254253   6.743   6.936   6.006
17432SOL     OW54254   6.858   7.031   6.728
17432SOL    HW154255   6.905   7.044   6.815
17432SOL    HW254256   6.792   6.957   6.737
17433SOL     OW54257   7.168   6.225   6.058
17433SOL    HW154258   7.137   6.286   6.131
17433SOL    HW254259   7.218   6.277   5.989
17434SOL     OW54260   5.940   7.096   6.915
17434SOL    HW154261   5.919   7.052   6.828
17434SOL    HW254262   6.037   7.122   6.918
17435SOL     OW54263   5.988   6.337   7.184
17435SOL    HW154264   6.056   6.392   7.137
17435SOL    HW254265   6.028   6.249   7.211
17436SOL     OW54266   7.173   6.365   7.256
17436SOL    HW154267   7.081   6.403   7.251
17436SOL    HW254268   7.233   6.412   7.191
17437SOL     OW54269   6.599   5.691   7.356
17437SOL    HW154270   6.605   5.776   7.304
17437SOL    HW254271   6.631   5.615   7.299
17438SOL     OW54272   6.090   5.636   7.326
17438SOL    HW154273   6.048   5.579   7.256
17438SOL    HW254274   6.024   5.705   7.358
17439SOL     OW54275   6.159   6.456   6.615
17439SOL    HW154276   6.203   6.545   6.606
17439SOL    HW254277   6.096   6.456   6.692
17440SOL     OW54278   6.946   6.448   6.631
17440SOL    HW154279   6.871   6.448   6.565
17440SOL    HW254280   6.983   6.356   6.640
17441SOL     OW54281   6.795   6.111   5.861
17441SOL    HW154282   6.808   6.027   5.915
17441SOL    HW254283   6.766   6.185   5.921
17442SOL     OW54284   5.893   5.799   6.817
17442SOL    HW154285   5.870   5.836   6.907
17442SOL    HW254286   5.863   5.704   6.811
17443SOL     OW54287   5.623   6.896   6.868
17443SOL    HW154288   5.676   6.847   6.936
17443SOL    HW254289   5.645   6.994   6.873
17444SOL     OW54290   6.318   6.220   6.650
17444SOL    HW154291   6.377   6.194   6.574
17444SOL    HW254292   6.290   6.316   6.639
17445SOL     OW54293   7.314   6.521   7.440
17445SOL    HW154294   7.268   6.514   7.351
17445SOL    HW254295   7.252   6.565   7.506
17446SOL     OW54296   5.893   5.649   6.204
17446SOL    HW154297   5.882   5.743   6.237
17446SOL    HW254298   5.888   5.586   6.281
17447SOL     OW54299   7.208   5.953   5.960
17447SOL    HW154300   7.210   5.877   6.024
17447SOL    HW254301   7.160   6.030   6.000
17448SOL     OW54302   6.609   6.352   6.552
17448SOL    HW154303   6.624   6.373   6.648
17448SOL    HW254304   6.579   6.257   6.543
17449SOL     OW54305   6.566   7.159   7.286
17449SOL    HW154306   6.546   7.203   7.198
17449SOL    HW254307   6.605   7.068   7.270
17450SOL     OW54308   7.445   7.104   7.191
17450SOL    HW154309   7.459   7.131   7.096
17450SOL    HW254310   7.528   7.126   7.244
17451SOL     OW54311   5.936   6.484   7.390
17451SOL    HW154312   6.012   6.528   7.438
17451SOL    HW254313   5.971   6.437   7.308
17452SOL     OW54314   7.126   5.860   5.711
17452SOL    HW154315   7.065   5.785   5.734
17452SOL    HW254316   7.148   5.912   5.794
17453SOL     OW54317   6.889   6.424   5.628
17453SOL    HW154318   6.923   6.331   5.643
17453SOL    HW254319   6.907   6.451   5.533
17454SOL     OW54320   6.654   6.919   6.435
17454SOL    HW154321   6.661   6.835   6.380
17454SOL    HW254322   6.716   6.988   6.399
17455SOL     OW54323   5.905   6.396   6.535
17455SOL    HW154324   5.998   6.432   6.540
17455SOL    HW254325   5.899   6.311   6.587
17456SOL     OW54326   5.925   6.095   6.592
17456SOL    HW154327   5.873   6.012   6.575
17456SOL    HW254328   6.002   6.100   6.528
17457SOL     OW54329   6.097   6.001   7.394
17457SOL    HW154330   6.079   6.046   7.482
17457SOL    HW254331   6.139   6.066   7.331
17458SOL     OW54332   6.724   5.966   7.264
17458SOL    HW154333   6.679   6.029   7.328
17458SOL    HW254334   6.817   5.997   7.247
17459SOL     OW54335   6.746   5.793   7.063
17459SOL    HW154336   6.746   5.857   7.140
17459SOL    HW254337   6.774   5.841   6.980
17460SOL     OW54338   5.594   6.912   5.786
17460SOL    HW154339   5.501   6.933   5.755
17460SOL    HW254340   5.604   6.813   5.799
17461SOL     OW54341   5.674   7.387   6.513
17461SOL    HW154342   5.632   7.301   6.486
17461SOL    HW254343   5.768   7.390   6.479
17462SOL     OW54344   6.090   7.154   6.496
17462SOL    HW154345   6.156   7.228   6.505
17462SOL    HW254346   6.134   7.075   6.454
17463SOL     OW54347   6.588   6.382   6.824
17463SOL    HW154348   6.629   6.350   6.910
17463SOL    HW254349   6.492   6.355   6.821
17464SOL     OW54350   5.626   6.130   6.700
17464SOL    HW154351   5.711   6.097   6.659
17464SOL    HW254352   5.639   6.145   6.798
17465SOL     OW54353   5.775   6.106   7.308
17465SOL    HW154354   5.834   6.066   7.238
17465SOL    HW254355   5.717   6.177   7.267
17466SOL     OW54356   6.955   6.536   7.246
17466SOL    HW154357   6.994   6.625   7.266
17466SOL    HW254358   6.965   6.516   7.149
17467SOL     OW54359   6.401   6.158   5.911
17467SOL    HW154360   6.408   6.069   5.865
17467SOL    HW254361   6.307   6.192   5.903
17468SOL     OW54362   7.243   6.190   6.792
17468SOL    HW154363   7.205   6.121   6.854
17468SOL    HW254364   7.325   6.154   6.748
17469SOL     OW54365   5.838   7.150   7.330
17469SOL    HW154366   5.808   7.207   7.406
17469SOL    HW254367   5.831   7.053   7.356
17470SOL     OW54368   6.257   6.050   6.855
17470SOL    HW154369   6.223   5.961   6.825
17470SOL    HW254370   6.283   6.104   6.775
17471SOL     OW54371   6.516   7.264   7.051
17471SOL    HW154372   6.492   7.246   6.956
17471SOL    HW254373   6.546   7.358   7.061
17472SOL     OW54374   6.059   6.086   5.777
17472SOL    HW154375   6.120   6.166   5.781
17472SOL    HW254376   5.964   6.117   5.784
17473SOL     OW54377   5.745   6.723   7.052
17473SOL    HW154378   5.767   6.662   7.128
17473SOL    HW254379   5.755   6.674   6.966
17474SOL     OW54380   6.933   6.645   6.820
17474SOL    HW154381   6.957   6.582   6.746
17474SOL    HW254382   6.843   6.685   6.802
17475SOL     OW54383   6.888   6.441   5.895
17475SOL    HW154384   6.802   6.410   5.937
17475SOL    HW254385   6.884   6.427   5.796
17476SOL     OW54386   7.345   7.333   6.740
17476SOL    HW154387   7.406   7.363   6.667
17476SOL    HW254388   7.307   7.244   6.718
17477SOL     OW54389   6.838   7.317   6.714
17477SOL    HW154390   6.922   7.322   6.660
17477SOL    HW254391   6.815   7.221   6.732
17478SOL     OW54392   5.669   6.844   6.608
17478SOL    HW154393   5.664   6.843   6.708
17478SOL    HW254394   5.586   6.803   6.570
17479SOL     OW54395   6.274   7.248   7.302
17479SOL    HW154396   6.218   7.329   7.311
17479SOL    HW254397   6.326   7.252   7.216
17480SOL     OW54398   6.489   5.672   5.719
17480SOL    HW154399   6.540   5.673   5.633
17480SOL    HW254400   6.545   5.630   5.790
17481SOL     OW54401   7.312   5.721   6.109
17481SOL    HW154402   7.385   5.704   6.042
17481SOL    HW254403   7.281   5.634   6.147
17482SOL     OW54404   6.974   7.159   6.063
17482SOL    HW154405   7.041   7.171   5.989
17482SOL    HW254406   6.934   7.248   6.086
17483SOL     OW54407   5.716   7.380   7.437
17483SOL    HW154408   5.675   7.306   7.490
17483SOL    HW254409   5.780   7.431   7.495
17484SOL     OW54410   6.866   6.513   6.258
17484SOL    HW154411   6.926   6.432   6.260
17484SOL    HW254412   6.906   6.582   6.198
17485SOL     OW54413   6.416   6.859   7.008
17485SOL    HW154414   6.411   6.892   7.103
17485SOL    HW254415   6.330   6.878   6.962
17486SOL     OW54416   6.258   7.202   5.740
17486SOL    HW154417   6.267   7.212   5.641
17486SOL    HW254418   6.218   7.113   5.761
17487SOL     OW54419   7.236   7.306   6.980
17487SOL    HW154420   7.289   7.316   6.896
17487SOL    HW254421   7.209   7.396   7.014
17488SOL     OW54422   7.427   5.761   6.549
17488SOL    HW154423   7.466   5.676   6.513
17488SOL    HW254424   7.329   5.763   6.530
17489SOL     OW54425   5.849   5.912   6.306
17489SOL    HW154426   5.770   5.963   6.272
17489SOL    HW254427   5.840   5.897   6.404
17490SOL     OW54428   6.780   7.198   5.617
17490SOL    HW154429   6.786   7.105   5.654
17490SOL    HW254430   6.721   7.198   5.537
17491SOL     OW54431   6.408   6.588   6.958
17491SOL    HW154432   6.448   6.587   6.866
17491SOL    HW254433   6.418   6.680   6.998
17492SOL     OW54434   6.502   6.496   5.877
17492SOL    HW154435   6.565   6.534   5.809
17492SOL    HW254436   6.542   6.413   5.916
17493SOL     OW54437   7.090   7.193   5.630
17493SOL    HW154438   6.998   7.230   5.637
17493SOL    HW254439   7.128   7.213   5.540
17494SOL     OW54440   5.958   6.874   7.076
17494SOL    HW154441   5.945   6.967   7.042
17494SOL    HW254442   5.874   6.822   7.063
17495SOL     OW54443   7.200   6.878   6.875
17495SOL    HW154444   7.260   6.881   6.955
17495SOL    HW254445   7.125   6.942   6.888
17496SOL     OW54446   6.625   6.684   6.282
17496SOL    HW154447   6.555   6.637   6.336
17496SOL    HW254448   6.684   6.616   6.239
17497SOL     OW54449   6.600   5.822   6.557
17497SOL    HW154450   6.592   5.786   6.464
17497SOL    HW254451   6.598   5.746   6.622
17498SOL     OW54452   6.176   7.073   6.077
17498SOL    HW154453   6.218   7.015   6.007
17498SOL    HW254454   6.132   7.152   6.033
17499SOL     OW54455   7.295   5.971   6.967
17499SOL    HW154456   7.368   6.040   6.971
17499SOL    HW254457   7.323   5.896   6.908
17500SOL     OW54458   5.841   6.934   5.876
17500SOL    HW154459   5.745   6.935   5.849
17500SOL    HW254460   5.853   6.987   5.960
17501SOL     OW54461   5.691   6.599   7.312
17501SOL    HW154462   5.614   6.566   7.366
17501SOL    HW254463   5.776   6.569   7.354
17502SOL     OW54464   6.258   5.789   7.075
17502SOL    HW154465   6.348   5.773   7.035
17502SOL    HW254466   6.266   5.794   7.174
17503SOL     OW54467   5.661   5.931   5.619
17503SOL    HW154468   5.569   5.903   5.590
17503SOL    HW254469   5.692   6.008   5.563
17504SOL     OW54470   7.026   6.442   6.984
17504SOL    HW154471   6.969   6.494   6.921
17504SOL    HW254472   7.122   6.454   6.960
17505SOL     OW54473   5.658   5.752   5.904
17505SOL    HW154474   5.641   5.835   5.850
17505SOL    HW254475   5.748   5.715   5.882
17506SOL     OW54476   6.769   6.921   5.705
17506SOL    HW154477   6.670   6.910   5.707
17506SOL    HW254478   6.803   6.936   5.798
17507SOL     OW54479   6.199   6.428   7.017
17507SOL    HW154480   6.255   6.509   7.000
17507SOL    HW254481   6.258   6.348   7.020
17508SOL     OW54482   7.079   7.353   6.545
17508SOL    HW154483   7.112   7.417   6.476
17508SOL    HW254484   7.145   7.347   6.620
17509SOL     OW54485   6.302   6.151   7.294
17509SOL    HW154486   6.321   6.216   7.368
17509SOL    HW254487   6.362   6.071   7.303
17510SOL     OW54488   7.036   6.806   7.219
17510SOL    HW154489   7.027   6.796   7.318
17510SOL    HW254490   7.132   6.799   7.193
17511SOL     OW54491   5.976   7.327   7.146
17511SOL    HW154492   5.885   7.368   7.144
17511SOL    HW254493   5.969   7.233   7.178
17512SOL     OW54494   7.260   6.469   6.840
17512SOL    HW154495   7.233   6.380   6.803
17512SOL    HW254496   7.261   6.537   6.767
17513SOL     OW54497   6.811   5.911   6.035
17513SOL    HW154498   6.876   5.837   6.024
17513SOL    HW254499   6.831   5.961   6.119
17514SOL     OW54500   6.180   6.331   6.238
17514SOL    HW154501   6.230   6.416   6.219
17514SOL    HW254502   6.092   6.333   6.190
17515SOL     OW54503   7.363   5.928   7.228
17515SOL    HW154504   7.346   5.959   7.134
17515SOL    HW254505   7.279   5.891   7.266
17516SOL     OW54506   7.316   6.520   7.103
17516SOL    HW154507   7.354   6.611   7.118
17516SOL    HW254508   7.308   6.503   7.004
17517SOL     OW54509   6.445   6.960   5.602
17517SOL    HW154510   6.399   6.975   5.690
17517SOL    HW254511   6.489   7.045   5.572
17518SOL     OW54512   6.247   7.376   6.539
17518SOL    HW154513   6.201   7.464   6.526
17518SOL    HW254514   6.346   7.388   6.532
17519SOL     OW54515   6.994   7.437   7.306
17519SOL    HW154516   6.898   7.426   7.279
17519SOL    HW254517   7.050   7.370   7.258
17520SOL     OW54518   6.445   6.542   6.447
17520SOL    HW154519   6.499   6.473   6.495
17520SOL    HW254520   6.413   6.611   6.513
17521SOL     OW54521   6.669   6.570   5.673
17521SOL    HW154522   6.646   6.623   5.591
17521SOL    HW254523   6.750   6.514   5.654
17522SOL     OW54524   7.447   7.155   6.437
17522SOL    HW154525   7.376   7.143   6.367
17522SOL    HW254526   7.448   7.076   6.497
17523SOL     OW54527   5.807   6.900   7.430
17523SOL    HW154528   5.742   6.827   7.409
17523SOL    HW254529   5.811   6.914   7.528
17524SOL     OW54530   5.665   6.826   6.239
17524SOL    HW154531   5.664   6.779   6.327
17524SOL    HW254532   5.747   6.798   6.188
17525SOL     OW54533   6.258   6.977   7.210
17525SOL    HW154534   6.180   6.927   7.248
17525SOL    HW254535   6.255   7.072   7.241
17526SOL     OW54536   7.410   5.778   6.813
17526SOL    HW154537   7.406   5.688   6.857
17526SOL    HW254538   7.413   5.767   6.714
17527SOL     OW54539   6.014   6.010   6.106
17527SOL    HW154540   6.044   5.938   6.044
17527SOL    HW254541   5.975   5.970   6.189
17528SOL     OW54542   7.291   7.073   6.690
17528SOL    HW154543   7.198   7.048   6.663
17528SOL    HW254544   7.317   7.023   6.772
17529SOL     OW54545   5.903   6.133   6.866
17529SOL    HW154546   5.941   6.074   6.938
17529SOL    HW254547   5.943   6.107   6.778
17530SOL     OW54548   6.398   7.172   6.273
17530SOL    HW154549   6.430   7.182   6.179
17530SOL    HW254550   6.319   7.110   6.275
17531SOL     OW54551   7.010   5.800   6.698
17531SOL    HW154552   7.062   5.735   6.753
17531SOL    HW254553   6.961   5.863   6.759
17532SOL     OW54554   6.587   5.620   6.740
17532SOL    HW154555   6.524   5.548   6.709
17532SOL    HW254556   6.680   5.584   6.740
17533SOL     OW54557   6.356   6.916   5.887
17533SOL    HW154558   6.310   6.829   5.904
17533SOL    HW254559   6.447   6.913   5.928
17534SOL     OW54560   6.204   7.153   6.870
17534SOL    HW154561   6.199   7.235   6.927
17534SOL    HW254562   6.293   7.150   6.825
17535SOL     OW54563   6.938   5.638   5.754
17535SOL    HW154564   6.973   5.597   5.670
17535SOL    HW254565   6.848   5.600   5.774
17536SOL     OW54566   6.886   6.039   6.277
17536SOL    HW154567   6.827   6.119   6.281
17536SOL    HW254568   6.901   6.004   6.370
17537SOL     OW54569   7.179   5.807   6.468
17537SOL    HW154570   7.095   5.806   6.522
17537SOL    HW254571   7.181   5.890   6.412
17538SOL     OW54572   5.625   6.663   5.886
17538SOL    HW154573   5.724   6.652   5.877
17538SOL    HW254574   5.585   6.577   5.918
17539SOL     OW54575   6.461   7.232   5.923
17539SOL    HW154576   6.384   7.197   5.869
17539SOL    HW254577   6.429   7.303   5.985
17540SOL     OW54578   5.816   6.214   7.561
17540SOL    HW154579   5.723   6.212   7.598
17540SOL    HW254580   5.817   6.175   7.469
17541SOL     OW54581   5.811   5.861   8.444
17541SOL    HW154582   5.846   5.844   8.536
17541SOL    HW254583   5.723   5.816   8.432
17542SOL     OW54584   5.605   5.954   8.095
17542SOL    HW154585   5.523   5.997   8.134
17542SOL    HW254586   5.577   5.881   8.032
17543SOL     OW54587   6.155   6.861   8.613
17543SOL    HW154588   6.062   6.854   8.576
17543SOL    HW254589   6.166   6.950   8.657
17544SOL     OW54590   7.141   7.097   8.151
17544SOL    HW154591   7.084   7.081   8.232
17544SOL    HW254592   7.082   7.107   8.071
17545SOL     OW54593   7.329   6.204   8.304
17545SOL    HW154594   7.362   6.298   8.304
17545SOL    HW254595   7.380   6.150   8.370
17546SOL     OW54596   6.721   6.289   8.165
17546SOL    HW154597   6.778   6.367   8.140
17546SOL    HW254598   6.661   6.315   8.241
17547SOL     OW54599   7.341   6.193   7.679
17547SOL    HW154600   7.329   6.180   7.580
17547SOL    HW254601   7.311   6.112   7.728
17548SOL     OW54602   6.354   6.730   8.471
17548SOL    HW154603   6.276   6.747   8.531
17548SOL    HW254604   6.388   6.817   8.435
17549SOL     OW54605   6.271   6.598   8.113
17549SOL    HW154606   6.340   6.582   8.183
17549SOL    HW254607   6.198   6.655   8.151
17550SOL     OW54608   5.921   7.021   8.509
17550SOL    HW154609   5.843   6.990   8.456
17550SOL    HW254610   5.979   7.079   8.452
17551SOL     OW54611   7.046   7.091   8.787
17551SOL    HW154612   7.070   7.185   8.813
17551SOL    HW254613   7.030   7.037   8.869
17552SOL     OW54614   6.024   5.978   8.947
17552SOL    HW154615   6.106   5.922   8.956
17552SOL    HW254616   5.943   5.920   8.951
17553SOL     OW54617   7.189   6.033   8.185
17553SOL    HW154618   7.115   6.079   8.135
17553SOL    HW254619   7.240   6.101   8.238
17554SOL     OW54620   5.817   7.299   7.931
17554SOL    HW154621   5.851   7.376   7.985
17554SOL    HW254622   5.861   7.299   7.841
17555SOL     OW54623   5.816   7.020   7.986
17555SOL    HW154624   5.790   7.116   7.986
17555SOL    HW254625   5.745   6.966   8.031
17556SOL     OW54626   5.826   6.677   8.334
17556SOL    HW154627   5.840   6.593   8.386
17556SOL    HW254628   5.771   6.741   8.389
17557SOL     OW54629   6.206   7.372   8.887
17557SOL    HW154630   6.114   7.355   8.922
17557SOL    HW254631   6.234   7.464   8.913
17558SOL     OW54632   6.192   6.550   7.571
17558SOL    HW154633   6.199   6.634   7.517
17558SOL    HW254634   6.238   6.563   7.659
17559SOL     OW54635   7.180   5.700   8.928
17559SOL    HW154636   7.162   5.767   8.856
17559SOL    HW254637   7.177   5.746   9.017
17560SOL     OW54638   5.708   6.229   8.011
17560SOL    HW154639   5.663   6.141   8.028
17560SOL    HW254640   5.707   6.283   8.095
17561SOL     OW54641   7.428   7.353   7.807
17561SOL    HW154642   7.482   7.324   7.887
17561SOL    HW254643   7.458   7.443   7.778
17562SOL     OW54644   5.613   7.182   7.565
17562SOL    HW154645   5.594   7.086   7.586
17562SOL    HW254646   5.580   7.240   7.640
17563SOL     OW54647   7.275   6.508   8.060
17563SOL    HW154648   7.370   6.479   8.068
17563SOL    HW254649   7.267   6.573   7.985
17564SOL     OW54650   7.227   6.694   7.880
17564SOL    HW154651   7.313   6.696   7.828
17564SOL    HW254652   7.241   6.741   7.968
17565SOL     OW54653   6.199   6.951   8.174
17565SOL    HW154654   6.150   6.864   8.183
17565SOL    HW254655   6.176   6.994   8.087
17566SOL     OW54656   6.395   5.590   7.950
17566SOL    HW154657   6.435   5.681   7.941
17566SOL    HW254658   6.295   5.598   7.956
17567SOL     OW54659   5.783   6.562   8.712
17567SOL    HW154660   5.872   6.517   8.698
17567SOL    HW254661   5.710   6.497   8.693
17568SOL     OW54662   7.111   6.585   7.638
17568SOL    HW154663   7.048   6.509   7.651
17568SOL    HW254664   7.159   6.603   7.724
17569SOL     OW54665   7.052   7.003   8.401
17569SOL    HW154666   6.993   7.009   8.481
17569SOL    HW254667   7.037   6.915   8.355
17570SOL     OW54668   7.253   7.300   8.020
17570SOL    HW154669   7.212   7.277   7.932
17570SOL    HW254670   7.235   7.226   8.085
17571SOL     OW54671   6.184   6.315   7.718
17571SOL    HW154672   6.208   6.384   7.650
17571SOL    HW254673   6.106   6.348   7.772
17572SOL     OW54674   6.867   5.931   8.392
17572SOL    HW154675   6.781   5.881   8.379
17572SOL    HW254676   6.929   5.877   8.448
17573SOL     OW54677   7.162   7.248   7.755
17573SOL    HW154678   7.251   7.294   7.758
17573SOL    HW254679   7.141   7.224   7.660
17574SOL     OW54680   6.393   6.191   8.913
17574SOL    HW154681   6.346   6.188   9.002
17574SOL    HW254682   6.342   6.136   8.847
17575SOL     OW54683   6.577   5.996   8.690
17575SOL    HW154684   6.500   6.030   8.744
17575SOL    HW254685   6.543   5.945   8.611
17576SOL     OW54686   6.627   6.287   7.877
17576SOL    HW154687   6.653   6.283   7.973
17576SOL    HW254688   6.542   6.236   7.863
17577SOL     OW54689   5.662   6.397   8.237
17577SOL    HW154690   5.761   6.385   8.246
17577SOL    HW254691   5.638   6.492   8.258
17578SOL     OW54692   5.716   7.407   0.019
17578SOL    HW154693   5.706   7.392   0.118
17578SOL    HW254694   5.630   7.443  -0.017
17579SOL     OW54695   6.451   5.934   7.643
17579SOL    HW154696   6.510   5.997   7.594
17579SOL    HW254697   6.470   5.840   7.614
17580SOL     OW54698   6.948   6.730   7.993
17580SOL    HW154699   7.031   6.701   7.945
17580SOL    HW254700   6.899   6.797   7.937
17581SOL     OW54701   6.136   5.782   8.333
17581SOL    HW154702   6.131   5.777   8.433
17581SOL    HW254703   6.138   5.878   8.304
17582SOL     OW54704   6.594   7.042   7.925
17582SOL    HW154705   6.548   7.114   7.873
17582SOL    HW254706   6.590   7.062   8.023
17583SOL     OW54707   5.937   7.387   8.301
17583SOL    HW154708   5.987   7.301   8.307
17583SOL    HW254709   6.002   7.464   8.298
17584SOL     OW54710   7.381   6.652   8.321
17584SOL    HW154711   7.319   6.637   8.245
17584SOL    HW254712   7.329   6.663   8.406
17585SOL     OW54713   5.907   6.529   7.690
17585SOL    HW154714   5.989   6.568   7.648
17585SOL    HW254715   5.880   6.447   7.641
17586SOL     OW54716   7.044   6.321   8.176
17586SOL    HW154717   7.039   6.256   8.251
17586SOL    HW254718   7.124   6.380   8.189
17587SOL     OW54719   6.697   7.362   7.685
17587SOL    HW154720   6.637   7.300   7.735
17587SOL    HW254721   6.728   7.318   7.600
17588SOL     OW54722   5.788   5.871   8.946
17588SOL    HW154723   5.708   5.931   8.933
17588SOL    HW254724   5.778   5.822   9.032
17589SOL     OW54725   7.218   6.963   7.529
17589SOL    HW154726   7.186   7.057   7.519
17589SOL    HW254727   7.142   6.900   7.517
17590SOL     OW54728   6.050   7.329   7.771
17590SOL    HW154729   6.083   7.368   7.857
17590SOL    HW254730   6.126   7.322   7.706
17591SOL     OW54731   6.986   5.693   7.874
17591SOL    HW154732   6.962   5.656   7.784
17591SOL    HW254733   7.085   5.709   7.878
17592SOL     OW54734   5.835   7.371   8.689
17592SOL    HW154735   5.892   7.306   8.739
17592SOL    HW254736   5.819   7.338   8.596
17593SOL     OW54737   6.526   7.284   8.352
17593SOL    HW154738   6.606   7.227   8.373
17593SOL    HW254739   6.477   7.244   8.275
17594SOL     OW54740   5.968   6.286   7.928
17594SOL    HW154741   6.013   6.196   7.925
17594SOL    HW254742   5.874   6.275   7.961
17595SOL     OW54743   6.200   5.708   7.565
17595SOL    HW154744   6.298   5.686   7.572
17595SOL    HW254745   6.169   5.691   7.472
17596SOL     OW54746   6.474   7.100   8.643
17596SOL    HW154747   6.451   7.075   8.549
17596SOL    HW254748   6.535   7.031   8.682
17597SOL     OW54749   6.389   6.988   8.372
17597SOL    HW154750   6.479   7.002   8.330
17597SOL    HW254751   6.318   6.990   8.301
17598SOL     OW54752   6.508   6.089   8.347
17598SOL    HW154753   6.483   6.080   8.251
17598SOL    HW254754   6.556   6.007   8.378
17599SOL     OW54755   6.125   5.650   7.960
17599SOL    HW154756   6.044   5.651   8.018
17599SOL    HW254757   6.128   5.733   7.905
17600SOL     OW54758   7.020   6.774   7.489
17600SOL    HW154759   7.052   6.698   7.546
17600SOL    HW254760   6.928   6.801   7.519
17601SOL     OW54761   5.883   5.621   7.619
17601SOL    HW154762   5.932   5.705   7.598
17601SOL    HW254763   5.945   5.556   7.664
17602SOL     OW54764   6.521   5.822   7.928
17602SOL    HW154765   6.473   5.863   7.850
17602SOL    HW254766   6.620   5.820   7.909
17603SOL     OW54767   6.813   7.156   8.241
17603SOL    HW154768   6.834   7.230   8.176
17603SOL    HW254769   6.881   7.156   8.314
17604SOL     OW54770   6.045   6.738   8.189
17604SOL    HW154771   5.974   6.711   8.254
17604SOL    HW254772   6.019   6.710   8.096
17605SOL     OW54773   6.857   7.383   8.039
17605SOL    HW154774   6.901   7.447   7.975
17605SOL    HW254775   6.807   7.435   8.109
17606SOL     OW54776   6.618   6.135   7.464
17606SOL    HW154777   6.577   6.217   7.425
17606SOL    HW254778   6.682   6.161   7.537
17607SOL     OW54779   5.664   6.142   8.834
17607SOL    HW154780   5.756   6.141   8.793
17607SOL    HW254781   5.658   6.216   8.901
17608SOL     OW54782   6.147   5.808   8.595
17608SOL    HW154783   6.185   5.724   8.632
17608SOL    HW254784   6.059   5.827   8.639
17609SOL     OW54785   6.452   6.040   8.090
17609SOL    HW154786   6.420   6.112   8.028
17609SOL    HW254787   6.476   5.959   8.037
17610SOL     OW54788   6.603   5.625   8.201
17610SOL    HW154789   6.531   5.630   8.132
17610SOL    HW254790   6.579   5.556   8.270
17611SOL     OW54791   7.015   6.759   8.315
17611SOL    HW154792   6.960   6.675   8.308
17611SOL    HW254793   7.041   6.788   8.223
17612SOL     OW54794   7.052   6.176   8.440
17612SOL    HW154795   7.022   6.081   8.447
17612SOL    HW254796   7.125   6.192   8.506
17613SOL     OW54797   7.443   6.419   7.825
17613SOL    HW154798   7.485   6.355   7.889
17613SOL    HW254799   7.405   6.368   7.747
17614SOL     OW54800   6.074   6.971   7.622
17614SOL    HW154801   5.987   6.956   7.669
17614SOL    HW254802   6.057   6.997   7.527
17615SOL     OW54803   7.250   6.866   8.105
17615SOL    HW154804   7.349   6.874   8.119
17615SOL    HW254805   7.205   6.950   8.136
17616SOL     OW54806   6.976   6.161   7.526
17616SOL    HW154807   6.922   6.140   7.607
17616SOL    HW254808   7.067   6.120   7.535
17617SOL     OW54809   6.113   5.842   7.776
17617SOL    HW154810   6.140   5.783   7.701
17617SOL    HW254811   6.113   5.937   7.745
17618SOL     OW54812   6.650   6.933   8.788
17618SOL    HW154813   6.570   6.910   8.843
17618SOL    HW254814   6.733   6.907   8.837
17619SOL     OW54815   6.697   6.781   8.548
17619SOL    HW154816   6.657   6.825   8.629
17619SOL    HW254817   6.656   6.818   8.465
17620SOL     OW54818   7.224   6.685   8.527
17620SOL    HW154819   7.229   6.766   8.586
17620SOL    HW254820   7.138   6.687   8.476
17621SOL     OW54821   6.501   5.675   8.850
17621SOL    HW154822   6.526   5.655   8.755
17621SOL    HW254823   6.573   5.731   8.892
17622SOL     OW54824   6.291   6.636   7.816
17622SOL    HW154825   6.277   6.643   7.915
17622SOL    HW254826   6.375   6.585   7.798
17623SOL     OW54827   5.996   6.399   8.699
17623SOL    HW154828   6.082   6.411   8.749
17623SOL    HW254829   5.954   6.312   8.726
17624SOL     OW54830   6.860   5.972   8.710
17624SOL    HW154831   6.881   6.046   8.774
17624SOL    HW254832   6.771   5.989   8.667
17625SOL     OW54833   5.650   7.150   8.779
17625SOL    HW154834   5.604   7.232   8.745
17625SOL    HW254835   5.748   7.169   8.788
17626SOL     OW54836   5.953   6.686   7.949
17626SOL    HW154837   5.946   6.769   7.893
17626SOL    HW254838   5.957   6.606   7.889
17627SOL     OW54839   6.152   6.123   8.313
17627SOL    HW154840   6.164   6.189   8.239
17627SOL    HW254841   6.198   6.157   8.396
17628SOL     OW54842   6.838   6.934   7.836
17628SOL    HW154843   6.888   7.011   7.876
17628SOL    HW254844   6.743   6.936   7.868
17629SOL     OW54845   6.858   7.031   8.590
17629SOL    HW154846   6.905   7.044   8.677
17629SOL    HW254847   6.792   6.957   8.599
17630SOL     OW54848   7.168   6.225   7.920
17630SOL    HW154849   7.137   6.286   7.993
17630SOL    HW254850   7.218   6.277   7.851
17631SOL     OW54851   5.940   7.096   8.777
17631SOL    HW154852   5.919   7.052   8.690
17631SOL    HW254853   6.037   7.122   8.780
17632SOL     OW54854   5.988   6.337   0.046
17632SOL    HW154855   6.056   6.392  -0.001
17632SOL    HW254856   6.028   6.249   0.073
17633SOL     OW54857   7.173   6.365   0.118
17633SOL    HW154858   7.081   6.403   0.113
17633SOL    HW254859   7.233   6.412   0.053
17634SOL     OW54860   6.159   6.456   8.477
17634SOL    HW154861   6.203   6.545   8.468
17634SOL    HW254862   6.096   6.456   8.554
17635SOL     OW54863   6.946   6.448   8.493
17635SOL    HW154864   6.871   6.448   8.427
17635SOL    HW254865   6.983   6.356   8.502
17636SOL     OW54866   6.795   6.111   7.723
17636SOL    HW154867   6.808   6.027   7.777
17636SOL    HW254868   6.766   6.185   7.783
17637SOL     OW54869   5.893   5.799   8.679
17637SOL    HW154870   5.870   5.836   8.769
17637SOL    HW254871   5.863   5.704   8.673
17638SOL     OW54872   5.623   6.896   8.730
17638SOL    HW154873   5.676   6.847   8.798
17638SOL    HW254874   5.645   6.994   8.735
17639SOL     OW54875   6.318   6.220   8.512
17639SOL    HW154876   6.377   6.194   8.436
17639SOL    HW254877   6.290   6.316   8.501
17640SOL     OW54878   5.893   5.649   8.066
17640SOL    HW154879   5.882   5.743   8.099
17640SOL    HW254880   5.888   5.586   8.143
17641SOL     OW54881   7.208   5.953   7.822
17641SOL    HW154882   7.210   5.877   7.886
17641SOL    HW254883   7.160   6.030   7.862
17642SOL     OW54884   6.609   6.352   8.414
17642SOL    HW154885   6.624   6.373   8.510
17642SOL    HW254886   6.579   6.257   8.405
17643SOL     OW54887   6.566   7.159   0.148
17643SOL    HW154888   6.546   7.203   0.060
17643SOL    HW254889   6.605   7.068   0.132
17644SOL     OW54890   7.445   7.104   0.053
17644SOL    HW154891   7.459   7.131  -0.042
17644SOL    HW254892   7.528   7.126   0.106
17645SOL     OW54893   7.126   5.860   7.573
17645SOL    HW154894   7.065   5.785   7.596
17645SOL    HW254895   7.148   5.912   7.656
17646SOL     OW54896   6.889   6.424   7.490
17646SOL    HW154897   6.923   6.331   7.505
17646SOL    HW254898   6.907   6.451   7.395
17647SOL     OW54899   6.654   6.919   8.297
17647SOL    HW154900   6.661   6.835   8.242
17647SOL    HW254901   6.716   6.988   8.261
17648SOL     OW54902   5.905   6.396   8.397
17648SOL    HW154903   5.998   6.432   8.402
17648SOL    HW254904   5.899   6.311   8.449
17649SOL     OW54905   5.925   6.095   8.454
17649SOL    HW154906   5.873   6.012   8.437
17649SOL    HW254907   6.002   6.100   8.390
17650SOL     OW54908   6.724   5.966   0.126
17650SOL    HW154909   6.679   6.029   0.190
17650SOL    HW254910   6.817   5.997   0.109
17651SOL     OW54911   6.746   5.793   8.925
17651SOL    HW154912   6.746   5.857   9.002
17651SOL    HW254913   6.774   5.841   8.842
17652SOL     OW54914   5.594   6.912   7.648
17652SOL    HW154915   5.501   6.933   7.617
17652SOL    HW254916   5.604   6.813   7.661
17653SOL     OW54917   5.674   7.387   8.375
17653SOL    HW154918   5.632   7.301   8.348
17653SOL    HW254919   5.768   7.390   8.341
17654SOL     OW54920   6.090   7.154   8.358
17654SOL    HW154921   6.156   7.228   8.367
17654SOL    HW254922   6.134   7.075   8.316
17655SOL     OW54923   6.588   6.382   8.686
17655SOL    HW154924   6.629   6.350   8.772
17655SOL    HW254925   6.492   6.355   8.683
17656SOL     OW54926   5.626   6.130   8.562
17656SOL    HW154927   5.711   6.097   8.521
17656SOL    HW254928   5.639   6.145   8.660
17657SOL     OW54929   6.401   6.158   7.773
17657SOL    HW154930   6.408   6.069   7.727
17657SOL    HW254931   6.307   6.192   7.765
17658SOL     OW54932   7.243   6.190   8.654
17658SOL    HW154933   7.205   6.121   8.716
17658SOL    HW254934   7.325   6.154   8.610
17659SOL     OW54935   6.257   6.050   8.717
17659SOL    HW154936   6.223   5.961   8.687
17659SOL    HW254937   6.283   6.104   8.637
17660SOL     OW54938   6.516   7.264   8.913
17660SOL    HW154939   6.492   7.246   8.818
17660SOL    HW254940   6.546   7.358   8.923
17661SOL     OW54941   6.059   6.086   7.639
17661SOL    HW154942   6.120   6.166   7.643
17661SOL    HW254943   5.964   6.117   7.646
17662SOL     OW54944   5.745   6.723   8.914
17662SOL    HW154945   5.767   6.662   8.990
17662SOL    HW254946   5.755   6.674   8.828
17663SOL     OW54947   6.933   6.645   8.682
17663SOL    HW154948   6.957   6.582   8.608
17663SOL    HW254949   6.843   6.685   8.664
17664SOL     OW54950   6.888   6.441   7.757
17664SOL    HW154951   6.802   6.410   7.799
17664SOL    HW254952   6.884   6.427   7.658
17665SOL     OW54953   7.345   7.333   8.602
17665SOL    HW154954   7.406   7.363   8.529
17665SOL    HW254955   7.307   7.244   8.580
17666SOL     OW54956   6.838   7.317   8.576
17666SOL    HW154957   6.922   7.322   8.522
17666SOL    HW254958   6.815   7.221   8.594
17667SOL     OW54959   5.669   6.844   8.470
17667SOL    HW154960   5.664   6.843   8.570
17667SOL    HW254961   5.586   6.803   8.432
17668SOL     OW54962   6.489   5.672   7.581
17668SOL    HW154963   6.540   5.673   7.495
17668SOL    HW254964   6.545   5.630   7.652
17669SOL     OW54965   7.312   5.721   7.971
17669SOL    HW154966   7.385   5.704   7.904
17669SOL    HW254967   7.281   5.634   8.009
17670SOL     OW54968   6.974   7.159   7.925
17670SOL    HW154969   7.041   7.171   7.851
17670SOL    HW254970   6.934   7.248   7.948
17671SOL     OW54971   6.866   6.513   8.120
17671SOL    HW154972   6.926   6.432   8.122
17671SOL    HW254973   6.906   6.582   8.060
17672SOL     OW54974   6.258   7.202   7.602
17672SOL    HW154975   6.267   7.212   7.503
17672SOL    HW254976   6.218   7.113   7.623
17673SOL     OW54977   7.236   7.306   8.842
17673SOL    HW154978   7.289   7.316   8.758
17673SOL    HW254979   7.209   7.396   8.876
17674SOL     OW54980   7.427   5.761   8.411
17674SOL    HW154981   7.466   5.676   8.375
17674SOL    HW254982   7.329   5.763   8.392
17675SOL     OW54983   5.849   5.912   8.168
17675SOL    HW154984   5.770   5.963   8.134
17675SOL    HW254985   5.840   5.897   8.266
17676SOL     OW54986   6.780   7.198   7.479
17676SOL    HW154987   6.786   7.105   7.516
17676SOL    HW254988   6.721   7.198   7.399
17677SOL     OW54989   6.408   6.588   8.820
17677SOL    HW154990   6.448   6.587   8.728
17677SOL    HW254991   6.418   6.680   8.860
17678SOL     OW54992   6.502   6.496   7.739
17678SOL    HW154993   6.565   6.534   7.671
17678SOL    HW254994   6.542   6.413   7.778
17679SOL     OW54995   7.090   7.193   7.492
17679SOL    HW154996   6.998   7.230   7.499
17679SOL    HW254997   7.128   7.213   7.402
17680SOL     OW54998   5.958   6.874   8.938
17680SOL    HW154999   5.945   6.967   8.904
17680SOL    HW255000   5.874   6.822   8.925
17681SOL     OW55001   7.200   6.878   8.737
17681SOL    HW155002   7.260   6.881   8.817
17681SOL    HW255003   7.125   6.942   8.750
17682SOL     OW55004   6.625   6.684   8.144
17682SOL    HW155005   6.555   6.637   8.198
17682SOL    HW255006   6.684   6.616   8.101
17683SOL     OW55007   6.600   5.822   8.419
17683SOL    HW155008   6.592   5.786   8.326
17683SOL    HW255009   6.598   5.746   8.484
17684SOL     OW55010   6.176   7.073   7.939
17684SOL    HW155011   6.218   7.015   7.869
17684SOL    HW255012   6.132   7.152   7.895
17685SOL     OW55013   7.295   5.971   8.829
17685SOL    HW155014   7.368   6.040   8.833
17685SOL    HW255015   7.323   5.896   8.770
17686SOL     OW55016   5.841   6.934   7.738
17686SOL    HW155017   5.745   6.935   7.711
17686SOL    HW255018   5.853   6.987   7.822
17687SOL     OW55019   5.661   5.931   7.481
17687SOL    HW155020   5.569   5.903   7.452
17687SOL    HW255021   5.692   6.008   7.425
17688SOL     OW55022   7.026   6.442   8.846
17688SOL    HW155023   6.969   6.494   8.783
17688SOL    HW255024   7.122   6.454   8.822
17689SOL     OW55025   5.658   5.752   7.766
17689SOL    HW155026   5.641   5.835   7.712
17689SOL    HW255027   5.748   5.715   7.744
17690SOL     OW55028   6.769   6.921   7.567
17690SOL    HW155029   6.670   6.910   7.569
17690SOL    HW255030   6.803   6.936   7.660
17691SOL     OW55031   6.199   6.428   8.879
17691SOL    HW155032   6.255   6.509   8.862
17691SOL    HW255033   6.258   6.348   8.882
17692SOL     OW55034   7.079   7.353   8.407
17692SOL    HW155035   7.112   7.417   8.338
17692SOL    HW255036   7.145   7.347   8.482
17693SOL     OW55037   5.976   7.327   0.008
17693SOL    HW155038   5.885   7.368   0.006
17693SOL    HW255039   5.969   7.233   0.040
17694SOL     OW55040   7.260   6.469   8.702
17694SOL    HW155041   7.233   6.380   8.665
17694SOL    HW255042   7.261   6.537   8.629
17695SOL     OW55043   6.811   5.911   7.897
17695SOL    HW155044   6.876   5.837   7.886
17695SOL    HW255045   6.831   5.961   7.981
17696SOL     OW55046   6.180   6.331   8.100
17696SOL    HW155047   6.230   6.416   8.081
17696SOL    HW255048   6.092   6.333   8.052
17697SOL     OW55049   7.363   5.928   0.090
17697SOL    HW155050   7.346   5.959  -0.004
17697SOL    HW255051   7.279   5.891   0.128
17698SOL     OW55052   7.316   6.520   8.965
17698SOL    HW155053   7.354   6.611   8.980
17698SOL    HW255054   7.308   6.503   8.866
17699SOL     OW55055   6.445   6.960   7.464
17699SOL    HW155056   6.399   6.975   7.552
17699SOL    HW255057   6.489   7.045   7.434
17700SOL     OW55058   6.247   7.376   8.401
17700SOL    HW155059   6.201   7.464   8.388
17700SOL    HW255060   6.346   7.388   8.394
17701SOL     OW55061   6.994   7.437   0.168
17701SOL    HW155062   6.898   7.426   0.141
17701SOL    HW255063   7.050   7.370   0.120
17702SOL     OW55064   6.445   6.542   8.309
17702SOL    HW155065   6.499   6.473   8.357
17702SOL    HW255066   6.413   6.611   8.375
17703SOL     OW55067   6.669   6.570   7.535
17703SOL    HW155068   6.646   6.623   7.453
17703SOL    HW255069   6.750   6.514   7.516
17704SOL     OW55070   7.447   7.155   8.299
17704SOL    HW155071   7.376   7.143   8.229
17704SOL    HW255072   7.448   7.076   8.359
17705SOL     OW55073   5.665   6.826   8.101
17705SOL    HW155074   5.664   6.779   8.189
17705SOL    HW255075   5.747   6.798   8.050
17706SOL     OW55076   7.410   5.778   8.675
17706SOL    HW155077   7.406   5.688   8.719
17706SOL    HW255078   7.413   5.767   8.576
17707SOL     OW55079   6.014   6.010   7.968
17707SOL    HW155080   6.044   5.938   7.906
17707SOL    HW255081   5.975   5.970   8.051
17708SOL     OW55082   7.291   7.073   8.552
17708SOL    HW155083   7.198   7.048   8.525
17708SOL    HW255084   7.317   7.023   8.634
17709SOL     OW55085   5.903   6.133   8.728
17709SOL    HW155086   5.941   6.074   8.800
17709SOL    HW255087   5.943   6.107   8.640
17710SOL     OW55088   6.398   7.172   8.135
17710SOL    HW155089   6.430   7.182   8.041
17710SOL    HW255090   6.319   7.110   8.137
17711SOL     OW55091   7.010   5.800   8.560
17711SOL    HW155092   7.062   5.735   8.615
17711SOL    HW255093   6.961   5.863   8.621
17712SOL     OW55094   6.587   5.620   8.602
17712SOL    HW155095   6.524   5.548   8.571
17712SOL    HW255096   6.680   5.584   8.602
17713SOL     OW55097   6.356   6.916   7.749
17713SOL    HW155098   6.310   6.829   7.766
17713SOL    HW255099   6.447   6.913   7.790
17714SOL     OW55100   6.204   7.153   8.732
17714SOL    HW155101   6.199   7.235   8.789
17714SOL    HW255102   6.293   7.150   8.687
17715SOL     OW55103   6.938   5.638   7.616
17715SOL    HW155104   6.973   5.597   7.532
17715SOL    HW255105   6.848   5.600   7.636
17716SOL     OW55106   6.886   6.039   8.139
17716SOL    HW155107   6.827   6.119   8.143
17716SOL    HW255108   6.901   6.004   8.232
17717SOL     OW55109   7.179   5.807   8.330
17717SOL    HW155110   7.095   5.806   8.384
17717SOL    HW255111   7.181   5.890   8.274
17718SOL     OW55112   5.625   6.663   7.748
17718SOL    HW155113   5.724   6.652   7.739
17718SOL    HW255114   5.585   6.577   7.780
17719SOL     OW55115   6.461   7.232   7.785
17719SOL    HW155116   6.384   7.197   7.731
17719SOL    HW255117   6.429   7.303   7.847
17720SOL     OW55118   5.816   8.076   0.113
17720SOL    HW155119   5.723   8.074   0.150
17720SOL    HW255120   5.817   8.037   0.021
17721SOL     OW55121   5.811   7.723   0.996
17721SOL    HW155122   5.846   7.706   1.088
17721SOL    HW255123   5.723   7.678   0.984
17722SOL     OW55124   5.605   7.816   0.647
17722SOL    HW155125   5.523   7.859   0.686
17722SOL    HW255126   5.577   7.743   0.584
17723SOL     OW55127   6.155   8.723   1.165
17723SOL    HW155128   6.062   8.716   1.128
17723SOL    HW255129   6.166   8.812   1.209
17724SOL     OW55130   7.141   8.959   0.703
17724SOL    HW155131   7.084   8.943   0.784
17724SOL    HW255132   7.082   8.969   0.623
17725SOL     OW55133   7.329   8.066   0.856
17725SOL    HW155134   7.362   8.160   0.856
17725SOL    HW255135   7.380   8.012   0.922
17726SOL     OW55136   6.721   8.151   0.717
17726SOL    HW155137   6.778   8.229   0.692
17726SOL    HW255138   6.661   8.177   0.793
17727SOL     OW55139   7.341   8.055   0.231
17727SOL    HW155140   7.329   8.042   0.132
17727SOL    HW255141   7.311   7.974   0.280
17728SOL     OW55142   6.354   8.592   1.023
17728SOL    HW155143   6.276   8.609   1.083
17728SOL    HW255144   6.388   8.679   0.987
17729SOL     OW55145   6.436   8.246   1.823
17729SOL    HW155146   6.432   8.322   1.888
17729SOL    HW255147   6.458   8.282   1.732
17730SOL     OW55148   6.271   8.460   0.665
17730SOL    HW155149   6.340   8.444   0.735
17730SOL    HW255150   6.198   8.517   0.703
17731SOL     OW55151   6.272   8.609   1.803
17731SOL    HW155152   6.332   8.688   1.817
17731SOL    HW255153   6.186   8.640   1.762
17732SOL     OW55154   5.921   8.883   1.061
17732SOL    HW155155   5.843   8.852   1.008
17732SOL    HW255156   5.979   8.941   1.004
17733SOL     OW55157   7.046   8.953   1.339
17733SOL    HW155158   7.070   9.047   1.365
17733SOL    HW255159   7.030   8.899   1.421
17734SOL     OW55160   6.024   7.840   1.499
17734SOL    HW155161   6.106   7.784   1.508
17734SOL    HW255162   5.943   7.782   1.503
17735SOL     OW55163   7.189   7.895   0.737
17735SOL    HW155164   7.115   7.941   0.687
17735SOL    HW255165   7.240   7.963   0.790
17736SOL     OW55166   5.817   0.161   0.483
17736SOL    HW155167   5.851   0.238   0.537
17736SOL    HW255168   5.861   0.161   0.393
17737SOL     OW55169   6.713   8.789   1.690
17737SOL    HW155170   6.760   8.789   1.778
17737SOL    HW255171   6.665   8.702   1.679
17738SOL     OW55172   5.816   8.882   0.538
17738SOL    HW155173   5.790   8.978   0.538
17738SOL    HW255174   5.745   8.828   0.583
17739SOL     OW55175   5.826   8.539   0.886
17739SOL    HW155176   5.840   8.455   0.938
17739SOL    HW255177   5.771   8.603   0.941
17740SOL     OW55178   6.192   8.412   0.123
17740SOL    HW155179   6.199   8.496   0.069
17740SOL    HW255180   6.238   8.425   0.211
17741SOL     OW55181   7.180   7.562   1.480
17741SOL    HW155182   7.162   7.629   1.408
17741SOL    HW255183   7.177   7.608   1.569
17742SOL     OW55184   5.708   8.091   0.563
17742SOL    HW155185   5.663   8.003   0.580
17742SOL    HW255186   5.707   8.145   0.647
17743SOL     OW55187   7.275   8.370   0.612
17743SOL    HW155188   7.370   8.341   0.620
17743SOL    HW255189   7.267   8.435   0.537
17744SOL     OW55190   7.227   8.556   0.432
17744SOL    HW155191   7.313   8.558   0.380
17744SOL    HW255192   7.241   8.603   0.520
17745SOL     OW55193   5.699   8.185   1.597
17745SOL    HW155194   5.787   8.172   1.642
17745SOL    HW255195   5.686   8.282   1.575
17746SOL     OW55196   6.199   8.813   0.726
17746SOL    HW155197   6.150   8.726   0.735
17746SOL    HW255198   6.176   8.856   0.639
17747SOL     OW55199   6.879   8.676   1.423
17747SOL    HW155200   6.916   8.603   1.365
17747SOL    HW255201   6.931   8.681   1.508
17748SOL     OW55202   6.395   7.452   0.502
17748SOL    HW155203   6.435   7.543   0.493
17748SOL    HW255204   6.295   7.460   0.508
17749SOL     OW55205   5.783   8.424   1.264
17749SOL    HW155206   5.872   8.379   1.250
17749SOL    HW255207   5.710   8.359   1.245
17750SOL     OW55208   7.111   8.447   0.190
17750SOL    HW155209   7.048   8.371   0.203
17750SOL    HW255210   7.159   8.465   0.276
17751SOL     OW55211   5.903   7.699   1.801
17751SOL    HW155212   5.974   7.770   1.807
17751SOL    HW255213   5.815   7.738   1.829
17752SOL     OW55214   7.052   8.865   0.953
17752SOL    HW155215   6.993   8.871   1.033
17752SOL    HW255216   7.037   8.777   0.907
17753SOL     OW55217   6.184   8.177   0.270
17753SOL    HW155218   6.208   8.246   0.202
17753SOL    HW255219   6.106   8.210   0.324
17754SOL     OW55220   6.867   7.793   0.944
17754SOL    HW155221   6.781   7.743   0.931
17754SOL    HW255222   6.929   7.739   1.000
17755SOL     OW55223   6.393   8.053   1.465
17755SOL    HW155224   6.346   8.050   1.554
17755SOL    HW255225   6.342   7.998   1.399
17756SOL     OW55226   6.980   7.917   1.674
17756SOL    HW155227   6.960   7.960   1.762
17756SOL    HW255228   7.058   7.855   1.683
17757SOL     OW55229   6.559   8.338   1.572
17757SOL    HW155230   6.605   8.254   1.543
17757SOL    HW255231   6.503   8.372   1.497
17758SOL     OW55232   6.577   7.858   1.242
17758SOL    HW155233   6.500   7.892   1.296
17758SOL    HW255234   6.543   7.807   1.163
17759SOL     OW55235   6.627   8.149   0.429
17759SOL    HW155236   6.653   8.145   0.525
17759SOL    HW255237   6.542   8.098   0.415
17760SOL     OW55238   5.662   8.259   0.789
17760SOL    HW155239   5.761   8.247   0.798
17760SOL    HW255240   5.638   8.354   0.810
17761SOL     OW55241   6.451   7.796   0.195
17761SOL    HW155242   6.510   7.859   0.146
17761SOL    HW255243   6.470   7.702   0.166
17762SOL     OW55244   7.305   8.033   1.831
17762SOL    HW155245   7.279   8.122   1.795
17762SOL    HW255246   7.303   7.965   1.758
17763SOL     OW55247   6.948   8.592   0.545
17763SOL    HW155248   7.031   8.563   0.497
17763SOL    HW255249   6.899   8.659   0.489
17764SOL     OW55250   6.136   7.644   0.885
17764SOL    HW155251   6.131   7.639   0.985
17764SOL    HW255252   6.138   7.740   0.856
17765SOL     OW55253   6.594   8.904   0.477
17765SOL    HW155254   6.548   8.976   0.425
17765SOL    HW255255   6.590   8.924   0.575
17766SOL     OW55256   7.381   8.514   0.873
17766SOL    HW155257   7.319   8.499   0.797
17766SOL    HW255258   7.329   8.525   0.958
17767SOL     OW55259   6.813   8.998   1.506
17767SOL    HW155260   6.819   8.921   1.570
17767SOL    HW255261   6.761   8.972   1.426
17768SOL     OW55262   5.907   8.391   0.242
17768SOL    HW155263   5.989   8.430   0.200
17768SOL    HW255264   5.880   8.309   0.193
17769SOL     OW55265   7.044   8.183   0.728
17769SOL    HW155266   7.039   8.118   0.803
17769SOL    HW255267   7.124   8.242   0.741
17770SOL     OW55268   6.047   8.714   1.727
17770SOL    HW155269   5.997   8.715   1.641
17770SOL    HW255270   5.984   8.696   1.803
17771SOL     OW55271   6.697   0.224   0.237
17771SOL    HW155272   6.637   0.162   0.287
17771SOL    HW255273   6.728   0.180   0.152
17772SOL     OW55274   5.788   7.733   1.498
17772SOL    HW155275   5.708   7.793   1.485
17772SOL    HW255276   5.778   7.684   1.584
17773SOL     OW55277   7.218   8.825   0.081
17773SOL    HW155278   7.186   8.919   0.071
17773SOL    HW255279   7.142   8.762   0.069
17774SOL     OW55280   6.986   7.555   0.426
17774SOL    HW155281   6.962   7.518   0.336
17774SOL    HW255282   7.085   7.571   0.430
17775SOL     OW55283   5.968   8.148   0.480
17775SOL    HW155284   6.013   8.058   0.477
17775SOL    HW255285   5.874   8.137   0.513
17776SOL     OW55286   7.133   7.670   1.729
17776SOL    HW155287   7.128   7.707   1.821
17776SOL    HW255288   7.061   7.601   1.717
17777SOL     OW55289   6.200   7.570   0.117
17777SOL    HW155290   6.298   7.548   0.124
17777SOL    HW255291   6.169   7.553   0.024
17778SOL     OW55292   6.367   7.712   1.749
17778SOL    HW155293   6.434   7.651   1.792
17778SOL    HW255294   6.294   7.731   1.814
17779SOL     OW55295   6.937   8.038   1.433
17779SOL    HW155296   6.965   7.995   1.518
17779SOL    HW255297   6.962   8.134   1.434
17780SOL     OW55298   6.389   8.850   0.924
17780SOL    HW155299   6.479   8.864   0.882
17780SOL    HW255300   6.318   8.852   0.853
17781SOL     OW55301   6.508   7.951   0.899
17781SOL    HW155302   6.483   7.942   0.803
17781SOL    HW255303   6.556   7.869   0.930
17782SOL     OW55304   6.125   7.512   0.512
17782SOL    HW155305   6.044   7.513   0.570
17782SOL    HW255306   6.128   7.595   0.457
17783SOL     OW55307   7.020   8.636   0.041
17783SOL    HW155308   7.052   8.560   0.098
17783SOL    HW255309   6.928   8.663   0.071
17784SOL     OW55310   5.883   7.483   0.171
17784SOL    HW155311   5.932   7.567   0.150
17784SOL    HW255312   5.945   7.418   0.216
17785SOL     OW55313   6.521   7.684   0.480
17785SOL    HW155314   6.473   7.725   0.402
17785SOL    HW255315   6.620   7.682   0.461
17786SOL     OW55316   6.662   8.131   1.464
17786SOL    HW155317   6.582   8.070   1.467
17786SOL    HW255318   6.743   8.078   1.440
17787SOL     OW55319   6.813   0.018   0.793
17787SOL    HW155320   6.834   0.092   0.728
17787SOL    HW255321   6.881   0.018   0.866
17788SOL     OW55322   6.045   8.600   0.741
17788SOL    HW155323   5.974   8.573   0.806
17788SOL    HW255324   6.019   8.572   0.648
17789SOL     OW55325   6.618   7.997   0.016
17789SOL    HW155326   6.577   8.079  -0.023
17789SOL    HW255327   6.682   8.023   0.089
17790SOL     OW55328   5.664   8.004   1.386
17790SOL    HW155329   5.756   8.003   1.345
17790SOL    HW255330   5.658   8.078   1.453
17791SOL     OW55331   6.147   7.670   1.147
17791SOL    HW155332   6.185   7.586   1.184
17791SOL    HW255333   6.059   7.689   1.191
17792SOL     OW55334   6.452   7.902   0.642
17792SOL    HW155335   6.420   7.974   0.580
17792SOL    HW255336   6.476   7.821   0.589
17793SOL     OW55337   6.603   7.487   0.753
17793SOL    HW155338   6.531   7.492   0.684
17793SOL    HW255339   6.579   7.418   0.822
17794SOL     OW55340   7.015   8.621   0.867
17794SOL    HW155341   6.960   8.537   0.860
17794SOL    HW255342   7.041   8.650   0.775
17795SOL     OW55343   7.052   8.038   0.992
17795SOL    HW155344   7.022   7.943   0.999
17795SOL    HW255345   7.125   8.054   1.058
17796SOL     OW55346   7.443   8.281   0.377
17796SOL    HW155347   7.485   8.217   0.441
17796SOL    HW255348   7.405   8.230   0.299
17797SOL     OW55349   6.074   8.833   0.174
17797SOL    HW155350   5.987   8.818   0.221
17797SOL    HW255351   6.057   8.859   0.079
17798SOL     OW55352   7.250   8.728   0.657
17798SOL    HW155353   7.349   8.736   0.671
17798SOL    HW255354   7.205   8.812   0.688
17799SOL     OW55355   6.976   8.023   0.078
17799SOL    HW155356   6.922   8.002   0.159
17799SOL    HW255357   7.067   7.982   0.087
17800SOL     OW55358   6.113   7.704   0.328
17800SOL    HW155359   6.140   7.645   0.253
17800SOL    HW255360   6.113   7.799   0.297
17801SOL     OW55361   7.340   8.671   1.588
17801SOL    HW155362   7.431   8.632   1.575
17801SOL    HW255363   7.348   8.767   1.612
17802SOL     OW55364   6.650   8.795   1.340
17802SOL    HW155365   6.570   8.772   1.395
17802SOL    HW255366   6.733   8.769   1.389
17803SOL     OW55367   6.697   8.643   1.100
17803SOL    HW155368   6.657   8.687   1.181
17803SOL    HW255369   6.656   8.680   1.017
17804SOL     OW55370   7.224   8.547   1.079
17804SOL    HW155371   7.229   8.628   1.138
17804SOL    HW255372   7.138   8.549   1.028
17805SOL     OW55373   6.501   7.537   1.402
17805SOL    HW155374   6.526   7.517   1.307
17805SOL    HW255375   6.573   7.593   1.444
17806SOL     OW55376   6.566   8.564   1.719
17806SOL    HW155377   6.467   8.570   1.729
17806SOL    HW255378   6.589   8.484   1.663
17807SOL     OW55379   6.291   8.498   0.368
17807SOL    HW155380   6.277   8.505   0.467
17807SOL    HW255381   6.375   8.447   0.350
17808SOL     OW55382   5.996   8.261   1.251
17808SOL    HW155383   6.082   8.273   1.301
17808SOL    HW255384   5.954   8.174   1.278
17809SOL     OW55385   6.860   7.834   1.262
17809SOL    HW155386   6.881   7.908   1.326
17809SOL    HW255387   6.771   7.851   1.219
17810SOL     OW55388   5.953   8.548   0.501
17810SOL    HW155389   5.946   8.631   0.445
17810SOL    HW255390   5.957   8.468   0.441
17811SOL     OW55391   6.152   7.985   0.865
17811SOL    HW155392   6.164   8.051   0.791
17811SOL    HW255393   6.198   8.019   0.948
17812SOL     OW55394   6.838   8.796   0.388
17812SOL    HW155395   6.888   8.873   0.428
17812SOL    HW255396   6.743   8.798   0.420
17813SOL     OW55397   6.858   8.893   1.142
17813SOL    HW155398   6.905   8.906   1.229
17813SOL    HW255399   6.792   8.819   1.151
17814SOL     OW55400   7.168   8.087   0.472
17814SOL    HW155401   7.137   8.148   0.545
17814SOL    HW255402   7.218   8.139   0.403
17815SOL     OW55403   5.940   8.958   1.329
17815SOL    HW155404   5.919   8.914   1.242
17815SOL    HW255405   6.037   8.984   1.332
17816SOL     OW55406   5.988   8.199   1.598
17816SOL    HW155407   6.056   8.254   1.551
17816SOL    HW255408   6.028   8.111   1.625
17817SOL     OW55409   7.173   8.227   1.670
17817SOL    HW155410   7.081   8.265   1.665
17817SOL    HW255411   7.233   8.274   1.605
17818SOL     OW55412   6.599   7.553   1.770
17818SOL    HW155413   6.605   7.638   1.718
17818SOL    HW255414   6.631   7.477   1.713
17819SOL     OW55415   6.090   7.498   1.740
17819SOL    HW155416   6.048   7.441   1.670
17819SOL    HW255417   6.024   7.567   1.772
17820SOL     OW55418   6.159   8.318   1.029
17820SOL    HW155419   6.203   8.407   1.020
17820SOL    HW255420   6.096   8.318   1.106
17821SOL     OW55421   6.946   8.310   1.045
17821SOL    HW155422   6.871   8.310   0.979
17821SOL    HW255423   6.983   8.218   1.054
17822SOL     OW55424   6.795   7.973   0.275
17822SOL    HW155425   6.808   7.889   0.329
17822SOL    HW255426   6.766   8.047   0.335
17823SOL     OW55427   5.893   7.661   1.231
17823SOL    HW155428   5.870   7.698   1.321
17823SOL    HW255429   5.863   7.566   1.225
17824SOL     OW55430   5.623   8.758   1.282
17824SOL    HW155431   5.676   8.709   1.350
17824SOL    HW255432   5.645   8.856   1.287
17825SOL     OW55433   6.318   8.082   1.064
17825SOL    HW155434   6.377   8.056   0.988
17825SOL    HW255435   6.290   8.178   1.053
17826SOL     OW55436   7.314   8.383   1.854
17826SOL    HW155437   7.268   8.376   1.765
17826SOL    HW255438   7.252   8.427   1.920
17827SOL     OW55439   5.893   7.511   0.618
17827SOL    HW155440   5.882   7.605   0.651
17827SOL    HW255441   5.888   7.448   0.695
17828SOL     OW55442   7.208   7.815   0.374
17828SOL    HW155443   7.210   7.739   0.438
17828SOL    HW255444   7.160   7.892   0.414
17829SOL     OW55445   6.609   8.214   0.966
17829SOL    HW155446   6.624   8.235   1.062
17829SOL    HW255447   6.579   8.119   0.957
17830SOL     OW55448   7.445   8.966   1.605
17830SOL    HW155449   7.459   8.993   1.510
17830SOL    HW255450   7.528   8.988   1.658
17831SOL     OW55451   5.936   8.346   1.804
17831SOL    HW155452   6.012   8.390   1.852
17831SOL    HW255453   5.971   8.299   1.722
17832SOL     OW55454   7.126   7.722   0.125
17832SOL    HW155455   7.065   7.647   0.148
17832SOL    HW255456   7.148   7.774   0.208
17833SOL     OW55457   6.889   8.286   0.042
17833SOL    HW155458   6.923   8.193   0.057
17833SOL    HW255459   6.907   8.313  -0.053
17834SOL     OW55460   6.654   8.781   0.849
17834SOL    HW155461   6.661   8.697   0.794
17834SOL    HW255462   6.716   8.850   0.813
17835SOL     OW55463   5.905   8.258   0.949
17835SOL    HW155464   5.998   8.294   0.954
17835SOL    HW255465   5.899   8.173   1.001
17836SOL     OW55466   5.925   7.957   1.006
17836SOL    HW155467   5.873   7.874   0.989
17836SOL    HW255468   6.002   7.962   0.942
17837SOL     OW55469   6.097   7.863   1.808
17837SOL    HW155470   6.079   7.908   1.896
17837SOL    HW255471   6.139   7.928   1.745
17838SOL     OW55472   6.724   7.828   1.678
17838SOL    HW155473   6.679   7.891   1.742
17838SOL    HW255474   6.817   7.859   1.661
17839SOL     OW55475   6.746   7.655   1.477
17839SOL    HW155476   6.746   7.719   1.554
17839SOL    HW255477   6.774   7.703   1.394
17840SOL     OW55478   5.594   8.774   0.200
17840SOL    HW155479   5.501   8.795   0.169
17840SOL    HW255480   5.604   8.675   0.213
17841SOL     OW55481   6.588   8.244   1.238
17841SOL    HW155482   6.629   8.212   1.324
17841SOL    HW255483   6.492   8.217   1.235
17842SOL     OW55484   5.626   7.992   1.114
17842SOL    HW155485   5.711   7.959   1.073
17842SOL    HW255486   5.639   8.007   1.212
17843SOL     OW55487   5.775   7.968   1.722
17843SOL    HW155488   5.834   7.928   1.652
17843SOL    HW255489   5.717   8.039   1.681
17844SOL     OW55490   6.955   8.398   1.660
17844SOL    HW155491   6.994   8.487   1.680
17844SOL    HW255492   6.965   8.378   1.563
17845SOL     OW55493   6.401   8.020   0.325
17845SOL    HW155494   6.408   7.931   0.279
17845SOL    HW255495   6.307   8.054   0.317
17846SOL     OW55496   7.243   8.052   1.206
17846SOL    HW155497   7.205   7.983   1.268
17846SOL    HW255498   7.325   8.016   1.162
17847SOL     OW55499   5.838   0.012   1.744
17847SOL    HW155500   5.808   0.069   1.820
17847SOL    HW255501   5.831  -0.085   1.770
17848SOL     OW55502   6.257   7.912   1.269
17848SOL    HW155503   6.223   7.823   1.239
17848SOL    HW255504   6.283   7.966   1.189
17849SOL     OW55505   6.059   7.948   0.191
17849SOL    HW155506   6.120   8.028   0.195
17849SOL    HW255507   5.964   7.979   0.198
17850SOL     OW55508   5.745   8.585   1.466
17850SOL    HW155509   5.767   8.524   1.542
17850SOL    HW255510   5.755   8.536   1.380
17851SOL     OW55511   6.933   8.507   1.234
17851SOL    HW155512   6.957   8.444   1.160
17851SOL    HW255513   6.843   8.547   1.216
17852SOL     OW55514   6.888   8.303   0.309
17852SOL    HW155515   6.802   8.272   0.351
17852SOL    HW255516   6.884   8.289   0.210
17853SOL     OW55517   5.669   8.706   1.022
17853SOL    HW155518   5.664   8.705   1.122
17853SOL    HW255519   5.586   8.665   0.984
17854SOL     OW55520   6.489   7.534   0.133
17854SOL    HW155521   6.540   7.535   0.047
17854SOL    HW255522   6.545   7.492   0.204
17855SOL     OW55523   7.312   7.583   0.523
17855SOL    HW155524   7.385   7.566   0.456
17855SOL    HW255525   7.281   7.496   0.561
17856SOL     OW55526   6.866   8.375   0.672
17856SOL    HW155527   6.926   8.294   0.674
17856SOL    HW255528   6.906   8.444   0.612
17857SOL     OW55529   6.416   8.721   1.422
17857SOL    HW155530   6.411   8.754   1.517
17857SOL    HW255531   6.330   8.740   1.376
17858SOL     OW55532   7.427   7.623   0.963
17858SOL    HW155533   7.466   7.538   0.927
17858SOL    HW255534   7.329   7.625   0.944
17859SOL     OW55535   5.849   7.774   0.720
17859SOL    HW155536   5.770   7.825   0.686
17859SOL    HW255537   5.840   7.759   0.818
17860SOL     OW55538   6.408   8.450   1.372
17860SOL    HW155539   6.448   8.449   1.280
17860SOL    HW255540   6.418   8.542   1.412
17861SOL     OW55541   6.502   8.358   0.291
17861SOL    HW155542   6.565   8.396   0.223
17861SOL    HW255543   6.542   8.275   0.330
17862SOL     OW55544   5.958   8.736   1.490
17862SOL    HW155545   5.945   8.829   1.456
17862SOL    HW255546   5.874   8.684   1.477
17863SOL     OW55547   7.200   8.740   1.289
17863SOL    HW155548   7.260   8.743   1.369
17863SOL    HW255549   7.125   8.804   1.302
17864SOL     OW55550   6.625   8.546   0.696
17864SOL    HW155551   6.555   8.499   0.750
17864SOL    HW255552   6.684   8.478   0.653
17865SOL     OW55553   6.600   7.684   0.971
17865SOL    HW155554   6.592   7.648   0.878
17865SOL    HW255555   6.598   7.608   1.036
17866SOL     OW55556   7.295   7.833   1.381
17866SOL    HW155557   7.368   7.902   1.385
17866SOL    HW255558   7.323   7.758   1.322
17867SOL     OW55559   5.841   8.796   0.290
17867SOL    HW155560   5.745   8.797   0.263
17867SOL    HW255561   5.853   8.849   0.374
17868SOL     OW55562   5.691   8.461   1.726
17868SOL    HW155563   5.614   8.428   1.780
17868SOL    HW255564   5.776   8.431   1.768
17869SOL     OW55565   6.258   7.651   1.489
17869SOL    HW155566   6.348   7.635   1.449
17869SOL    HW255567   6.266   7.656   1.588
17870SOL     OW55568   7.026   8.304   1.398
17870SOL    HW155569   6.969   8.356   1.335
17870SOL    HW255570   7.122   8.316   1.374
17871SOL     OW55571   5.658   7.614   0.318
17871SOL    HW155572   5.641   7.697   0.264
17871SOL    HW255573   5.748   7.577   0.296
17872SOL     OW55574   6.769   8.783   0.119
17872SOL    HW155575   6.670   8.772   0.121
17872SOL    HW255576   6.803   8.798   0.212
17873SOL     OW55577   6.199   8.290   1.431
17873SOL    HW155578   6.255   8.371   1.414
17873SOL    HW255579   6.258   8.210   1.434
17874SOL     OW55580   6.302   8.013   1.708
17874SOL    HW155581   6.321   8.078   1.782
17874SOL    HW255582   6.362   7.933   1.717
17875SOL     OW55583   7.036   8.668   1.633
17875SOL    HW155584   7.027   8.658   1.732
17875SOL    HW255585   7.132   8.661   1.607
17876SOL     OW55586   7.260   8.331   1.254
17876SOL    HW155587   7.233   8.242   1.217
17876SOL    HW255588   7.261   8.399   1.181
17877SOL     OW55589   6.811   7.773   0.449
17877SOL    HW155590   6.876   7.699   0.438
17877SOL    HW255591   6.831   7.823   0.533
17878SOL     OW55592   6.180   8.193   0.652
17878SOL    HW155593   6.230   8.278   0.633
17878SOL    HW255594   6.092   8.195   0.604
17879SOL     OW55595   7.363   7.790   1.642
17879SOL    HW155596   7.346   7.821   1.548
17879SOL    HW255597   7.279   7.753   1.680
17880SOL     OW55598   7.316   8.382   1.517
17880SOL    HW155599   7.354   8.473   1.532
17880SOL    HW255600   7.308   8.365   1.418
17881SOL     OW55601   6.445   8.822   0.016
17881SOL    HW155602   6.399   8.837   0.104
17881SOL    HW255603   6.489   8.907  -0.014
17882SOL     OW55604   6.445   8.404   0.861
17882SOL    HW155605   6.499   8.335   0.909
17882SOL    HW255606   6.413   8.473   0.927
17883SOL     OW55607   6.669   8.432   0.087
17883SOL    HW155608   6.646   8.485   0.005
17883SOL    HW255609   6.750   8.376   0.068
17884SOL     OW55610   5.807   8.762   1.844
17884SOL    HW155611   5.742   8.689   1.823
17884SOL    HW255612   5.811   8.776   1.942
17885SOL     OW55613   5.665   8.688   0.653
17885SOL    HW155614   5.664   8.641   0.741
17885SOL    HW255615   5.747   8.660   0.602
17886SOL     OW55616   6.258   8.839   1.624
17886SOL    HW155617   6.180   8.789   1.662
17886SOL    HW255618   6.255   8.934   1.655
17887SOL     OW55619   7.410   7.640   1.227
17887SOL    HW155620   7.406   7.550   1.271
17887SOL    HW255621   7.413   7.629   1.128
17888SOL     OW55622   6.014   7.872   0.520
17888SOL    HW155623   6.044   7.800   0.458
17888SOL    HW255624   5.975   7.832   0.603
17889SOL     OW55625   7.291   8.935   1.104
17889SOL    HW155626   7.198   8.910   1.077
17889SOL    HW255627   7.317   8.885   1.186
17890SOL     OW55628   5.903   7.995   1.280
17890SOL    HW155629   5.941   7.936   1.352
17890SOL    HW255630   5.943   7.969   1.192
17891SOL     OW55631   7.010   7.662   1.112
17891SOL    HW155632   7.062   7.597   1.167
17891SOL    HW255633   6.961   7.725   1.173
17892SOL     OW55634   6.587   7.482   1.154
17892SOL    HW155635   6.524   7.410   1.123
17892SOL    HW255636   6.680   7.446   1.154
17893SOL     OW55637   6.356   8.778   0.301
17893SOL    HW155638   6.310   8.691   0.318
17893SOL    HW255639   6.447   8.775   0.342
17894SOL     OW55640   6.204   0.015   1.284
17894SOL    HW155641   6.199   0.097   1.341
17894SOL    HW255642   6.293   0.012   1.239
17895SOL     OW55643   6.886   7.901   0.691
17895SOL    HW155644   6.827   7.981   0.695
17895SOL    HW255645   6.901   7.866   0.784
17896SOL     OW55646   7.179   7.669   0.882
17896SOL    HW155647   7.095   7.668   0.936
17896SOL    HW255648   7.181   7.752   0.826
17897SOL     OW55649   5.625   8.525   0.300
17897SOL    HW155650   5.724   8.514   0.291
17897SOL    HW255651   5.585   8.439   0.332
17898SOL     OW55652   5.816   8.076   1.975
17898SOL    HW155653   5.723   8.074   2.012
17898SOL    HW255654   5.817   8.037   1.883
17899SOL     OW55655   5.811   7.723   2.858
17899SOL    HW155656   5.846   7.706   2.950
17899SOL    HW255657   5.723   7.678   2.846
17900SOL     OW55658   5.605   7.816   2.509
17900SOL    HW155659   5.523   7.859   2.548
17900SOL    HW255660   5.577   7.743   2.446
17901SOL     OW55661   6.155   8.723   3.027
17901SOL    HW155662   6.062   8.716   2.990
17901SOL    HW255663   6.166   8.812   3.071
17902SOL     OW55664   7.141   8.959   2.565
17902SOL    HW155665   7.084   8.943   2.646
17902SOL    HW255666   7.082   8.969   2.485
17903SOL     OW55667   7.329   8.066   2.718
17903SOL    HW155668   7.362   8.160   2.718
17903SOL    HW255669   7.380   8.012   2.784
17904SOL     OW55670   6.721   8.151   2.579
17904SOL    HW155671   6.778   8.229   2.554
17904SOL    HW255672   6.661   8.177   2.655
17905SOL     OW55673   7.341   8.055   2.093
17905SOL    HW155674   7.329   8.042   1.994
17905SOL    HW255675   7.311   7.974   2.142
17906SOL     OW55676   6.354   8.592   2.885
17906SOL    HW155677   6.276   8.609   2.945
17906SOL    HW255678   6.388   8.679   2.849
17907SOL     OW55679   6.436   8.246   3.685
17907SOL    HW155680   6.432   8.322   3.750
17907SOL    HW255681   6.458   8.282   3.594
17908SOL     OW55682   6.271   8.460   2.527
17908SOL    HW155683   6.340   8.444   2.597
17908SOL    HW255684   6.198   8.517   2.565
17909SOL     OW55685   6.272   8.609   3.665
17909SOL    HW155686   6.332   8.688   3.679
17909SOL    HW255687   6.186   8.640   3.624
17910SOL     OW55688   5.921   8.883   2.923
17910SOL    HW155689   5.843   8.852   2.870
17910SOL    HW255690   5.979   8.941   2.866
17911SOL     OW55691   7.046   8.953   3.201
17911SOL    HW155692   7.070   9.047   3.227
17911SOL    HW255693   7.030   8.899   3.283
17912SOL     OW55694   6.024   7.840   3.361
17912SOL    HW155695   6.106   7.784   3.370
17912SOL    HW255696   5.943   7.782   3.365
17913SOL     OW55697   7.189   7.895   2.599
17913SOL    HW155698   7.115   7.941   2.549
17913SOL    HW255699   7.240   7.963   2.652
17914SOL     OW55700   5.817   0.161   2.345
17914SOL    HW155701   5.851   0.238   2.399
17914SOL    HW255702   5.861   0.161   2.255
17915SOL     OW55703   6.713   8.789   3.552
17915SOL    HW155704   6.760   8.789   3.640
17915SOL    HW255705   6.665   8.702   3.541
17916SOL     OW55706   5.816   8.882   2.400
17916SOL    HW155707   5.790   8.978   2.400
17916SOL    HW255708   5.745   8.828   2.445
17917SOL     OW55709   5.826   8.539   2.748
17917SOL    HW155710   5.840   8.455   2.800
17917SOL    HW255711   5.771   8.603   2.803
17918SOL     OW55712   6.192   8.412   1.985
17918SOL    HW155713   6.199   8.496   1.931
17918SOL    HW255714   6.238   8.425   2.073
17919SOL     OW55715   7.180   7.562   3.342
17919SOL    HW155716   7.162   7.629   3.270
17919SOL    HW255717   7.177   7.608   3.431
17920SOL     OW55718   5.708   8.091   2.425
17920SOL    HW155719   5.663   8.003   2.442
17920SOL    HW255720   5.707   8.145   2.509
17921SOL     OW55721   5.613   0.044   1.979
17921SOL    HW155722   5.594  -0.052   2.000
17921SOL    HW255723   5.580   0.102   2.054
17922SOL     OW55724   7.275   8.370   2.474
17922SOL    HW155725   7.370   8.341   2.482
17922SOL    HW255726   7.267   8.435   2.399
17923SOL     OW55727   7.227   8.556   2.294
17923SOL    HW155728   7.313   8.558   2.242
17923SOL    HW255729   7.241   8.603   2.382
17924SOL     OW55730   5.699   8.185   3.459
17924SOL    HW155731   5.787   8.172   3.504
17924SOL    HW255732   5.686   8.282   3.437
17925SOL     OW55733   6.199   8.813   2.588
17925SOL    HW155734   6.150   8.726   2.597
17925SOL    HW255735   6.176   8.856   2.501
17926SOL     OW55736   6.879   8.676   3.285
17926SOL    HW155737   6.916   8.603   3.227
17926SOL    HW255738   6.931   8.681   3.370
17927SOL     OW55739   6.395   7.452   2.364
17927SOL    HW155740   6.435   7.543   2.355
17927SOL    HW255741   6.295   7.460   2.370
17928SOL     OW55742   5.783   8.424   3.126
17928SOL    HW155743   5.872   8.379   3.112
17928SOL    HW255744   5.710   8.359   3.107
17929SOL     OW55745   7.111   8.447   2.052
17929SOL    HW155746   7.048   8.371   2.065
17929SOL    HW255747   7.159   8.465   2.138
17930SOL     OW55748   5.903   7.699   3.663
17930SOL    HW155749   5.974   7.770   3.669
17930SOL    HW255750   5.815   7.738   3.691
17931SOL     OW55751   7.052   8.865   2.815
17931SOL    HW155752   6.993   8.871   2.895
17931SOL    HW255753   7.037   8.777   2.769
17932SOL     OW55754   6.184   8.177   2.132
17932SOL    HW155755   6.208   8.246   2.064
17932SOL    HW255756   6.106   8.210   2.186
17933SOL     OW55757   6.867   7.793   2.806
17933SOL    HW155758   6.781   7.743   2.793
17933SOL    HW255759   6.929   7.739   2.862
17934SOL     OW55760   6.393   8.053   3.327
17934SOL    HW155761   6.346   8.050   3.416
17934SOL    HW255762   6.342   7.998   3.261
17935SOL     OW55763   6.980   7.917   3.536
17935SOL    HW155764   6.960   7.960   3.624
17935SOL    HW255765   7.058   7.855   3.545
17936SOL     OW55766   6.559   8.338   3.434
17936SOL    HW155767   6.605   8.254   3.405
17936SOL    HW255768   6.503   8.372   3.359
17937SOL     OW55769   6.577   7.858   3.104
17937SOL    HW155770   6.500   7.892   3.158
17937SOL    HW255771   6.543   7.807   3.025
17938SOL     OW55772   6.627   8.149   2.291
17938SOL    HW155773   6.653   8.145   2.387
17938SOL    HW255774   6.542   8.098   2.277
17939SOL     OW55775   5.662   8.259   2.651
17939SOL    HW155776   5.761   8.247   2.660
17939SOL    HW255777   5.638   8.354   2.672
17940SOL     OW55778   6.451   7.796   2.057
17940SOL    HW155779   6.510   7.859   2.008
17940SOL    HW255780   6.470   7.702   2.028
17941SOL     OW55781   7.305   8.033   3.693
17941SOL    HW155782   7.279   8.122   3.657
17941SOL    HW255783   7.303   7.965   3.620
17942SOL     OW55784   6.948   8.592   2.407
17942SOL    HW155785   7.031   8.563   2.359
17942SOL    HW255786   6.899   8.659   2.351
17943SOL     OW55787   6.136   7.644   2.747
17943SOL    HW155788   6.131   7.639   2.847
17943SOL    HW255789   6.138   7.740   2.718
17944SOL     OW55790   6.594   8.904   2.339
17944SOL    HW155791   6.548   8.976   2.287
17944SOL    HW255792   6.590   8.924   2.437
17945SOL     OW55793   7.381   8.514   2.735
17945SOL    HW155794   7.319   8.499   2.659
17945SOL    HW255795   7.329   8.525   2.820
17946SOL     OW55796   6.813   8.998   3.368
17946SOL    HW155797   6.819   8.921   3.432
17946SOL    HW255798   6.761   8.972   3.288
17947SOL     OW55799   5.907   8.391   2.104
17947SOL    HW155800   5.989   8.430   2.062
17947SOL    HW255801   5.880   8.309   2.055
17948SOL     OW55802   7.044   8.183   2.590
17948SOL    HW155803   7.039   8.118   2.665
17948SOL    HW255804   7.124   8.242   2.603
17949SOL     OW55805   6.047   8.714   3.589
17949SOL    HW155806   5.997   8.715   3.503
17949SOL    HW255807   5.984   8.696   3.665
17950SOL     OW55808   6.697   0.224   2.099
17950SOL    HW155809   6.637   0.162   2.149
17950SOL    HW255810   6.728   0.180   2.014
17951SOL     OW55811   5.788   7.733   3.360
17951SOL    HW155812   5.708   7.793   3.347
17951SOL    HW255813   5.778   7.684   3.446
17952SOL     OW55814   7.218   8.825   1.943
17952SOL    HW155815   7.186   8.919   1.933
17952SOL    HW255816   7.142   8.762   1.931
17953SOL     OW55817   6.986   7.555   2.288
17953SOL    HW155818   6.962   7.518   2.198
17953SOL    HW255819   7.085   7.571   2.292
17954SOL     OW55820   5.968   8.148   2.342
17954SOL    HW155821   6.013   8.058   2.339
17954SOL    HW255822   5.874   8.137   2.375
17955SOL     OW55823   7.133   7.670   3.591
17955SOL    HW155824   7.128   7.707   3.683
17955SOL    HW255825   7.061   7.601   3.579
17956SOL     OW55826   6.200   7.570   1.979
17956SOL    HW155827   6.298   7.548   1.986
17956SOL    HW255828   6.169   7.553   1.886
17957SOL     OW55829   6.367   7.712   3.611
17957SOL    HW155830   6.434   7.651   3.654
17957SOL    HW255831   6.294   7.731   3.676
17958SOL     OW55832   6.937   8.038   3.295
17958SOL    HW155833   6.965   7.995   3.380
17958SOL    HW255834   6.962   8.134   3.296
17959SOL     OW55835   6.389   8.850   2.786
17959SOL    HW155836   6.479   8.864   2.744
17959SOL    HW255837   6.318   8.852   2.715
17960SOL     OW55838   6.508   7.951   2.761
17960SOL    HW155839   6.483   7.942   2.665
17960SOL    HW255840   6.556   7.869   2.792
17961SOL     OW55841   6.125   7.512   2.374
17961SOL    HW155842   6.044   7.513   2.432
17961SOL    HW255843   6.128   7.595   2.319
17962SOL     OW55844   7.020   8.636   1.903
17962SOL    HW155845   7.052   8.560   1.960
17962SOL    HW255846   6.928   8.663   1.933
17963SOL     OW55847   5.883   7.483   2.033
17963SOL    HW155848   5.932   7.567   2.012
17963SOL    HW255849   5.945   7.418   2.078
17964SOL     OW55850   6.521   7.684   2.342
17964SOL    HW155851   6.473   7.725   2.264
17964SOL    HW255852   6.620   7.682   2.323
17965SOL     OW55853   6.662   8.131   3.326
17965SOL    HW155854   6.582   8.070   3.329
17965SOL    HW255855   6.743   8.078   3.302
17966SOL     OW55856   6.813   0.018   2.655
17966SOL    HW155857   6.834   0.092   2.590
17966SOL    HW255858   6.881   0.018   2.728
17967SOL     OW55859   6.045   8.600   2.603
17967SOL    HW155860   5.974   8.573   2.668
17967SOL    HW255861   6.019   8.572   2.510
17968SOL     OW55862   6.618   7.997   1.878
17968SOL    HW155863   6.577   8.079   1.839
17968SOL    HW255864   6.682   8.023   1.951
17969SOL     OW55865   5.664   8.004   3.248
17969SOL    HW155866   5.756   8.003   3.207
17969SOL    HW255867   5.658   8.078   3.315
17970SOL     OW55868   6.147   7.670   3.009
17970SOL    HW155869   6.185   7.586   3.046
17970SOL    HW255870   6.059   7.689   3.053
17971SOL     OW55871   6.452   7.902   2.504
17971SOL    HW155872   6.420   7.974   2.442
17971SOL    HW255873   6.476   7.821   2.451
17972SOL     OW55874   6.603   7.487   2.615
17972SOL    HW155875   6.531   7.492   2.546
17972SOL    HW255876   6.579   7.418   2.684
17973SOL     OW55877   7.015   8.621   2.729
17973SOL    HW155878   6.960   8.537   2.722
17973SOL    HW255879   7.041   8.650   2.637
17974SOL     OW55880   7.052   8.038   2.854
17974SOL    HW155881   7.022   7.943   2.861
17974SOL    HW255882   7.125   8.054   2.920
17975SOL     OW55883   7.443   8.281   2.239
17975SOL    HW155884   7.485   8.217   2.303
17975SOL    HW255885   7.405   8.230   2.161
17976SOL     OW55886   6.074   8.833   2.036
17976SOL    HW155887   5.987   8.818   2.083
17976SOL    HW255888   6.057   8.859   1.941
17977SOL     OW55889   7.250   8.728   2.519
17977SOL    HW155890   7.349   8.736   2.533
17977SOL    HW255891   7.205   8.812   2.550
17978SOL     OW55892   6.976   8.023   1.940
17978SOL    HW155893   6.922   8.002   2.021
17978SOL    HW255894   7.067   7.982   1.949
17979SOL     OW55895   6.113   7.704   2.190
17979SOL    HW155896   6.140   7.645   2.115
17979SOL    HW255897   6.113   7.799   2.159
17980SOL     OW55898   7.340   8.671   3.450
17980SOL    HW155899   7.431   8.632   3.437
17980SOL    HW255900   7.348   8.767   3.474
17981SOL     OW55901   6.650   8.795   3.202
17981SOL    HW155902   6.570   8.772   3.257
17981SOL    HW255903   6.733   8.769   3.251
17982SOL     OW55904   6.697   8.643   2.962
17982SOL    HW155905   6.657   8.687   3.043
17982SOL    HW255906   6.656   8.680   2.879
17983SOL     OW55907   7.224   8.547   2.941
17983SOL    HW155908   7.229   8.628   3.000
17983SOL    HW255909   7.138   8.549   2.890
17984SOL     OW55910   6.501   7.537   3.264
17984SOL    HW155911   6.526   7.517   3.169
17984SOL    HW255912   6.573   7.593   3.306
17985SOL     OW55913   6.566   8.564   3.581
17985SOL    HW155914   6.467   8.570   3.591
17985SOL    HW255915   6.589   8.484   3.525
17986SOL     OW55916   6.291   8.498   2.230
17986SOL    HW155917   6.277   8.505   2.329
17986SOL    HW255918   6.375   8.447   2.212
17987SOL     OW55919   5.996   8.261   3.113
17987SOL    HW155920   6.082   8.273   3.163
17987SOL    HW255921   5.954   8.174   3.140
17988SOL     OW55922   6.860   7.834   3.124
17988SOL    HW155923   6.881   7.908   3.188
17988SOL    HW255924   6.771   7.851   3.081
17989SOL     OW55925   5.953   8.548   2.363
17989SOL    HW155926   5.946   8.631   2.307
17989SOL    HW255927   5.957   8.468   2.303
17990SOL     OW55928   6.152   7.985   2.727
17990SOL    HW155929   6.164   8.051   2.653
17990SOL    HW255930   6.198   8.019   2.810
17991SOL     OW55931   6.838   8.796   2.250
17991SOL    HW155932   6.888   8.873   2.290
17991SOL    HW255933   6.743   8.798   2.282
17992SOL     OW55934   6.858   8.893   3.004
17992SOL    HW155935   6.905   8.906   3.091
17992SOL    HW255936   6.792   8.819   3.013
17993SOL     OW55937   7.168   8.087   2.334
17993SOL    HW155938   7.137   8.148   2.407
17993SOL    HW255939   7.218   8.139   2.265
17994SOL     OW55940   5.940   8.958   3.191
17994SOL    HW155941   5.919   8.914   3.104
17994SOL    HW255942   6.037   8.984   3.194
17995SOL     OW55943   5.988   8.199   3.460
17995SOL    HW155944   6.056   8.254   3.413
17995SOL    HW255945   6.028   8.111   3.487
17996SOL     OW55946   7.173   8.227   3.532
17996SOL    HW155947   7.081   8.265   3.527
17996SOL    HW255948   7.233   8.274   3.467
17997SOL     OW55949   6.599   7.553   3.632
17997SOL    HW155950   6.605   7.638   3.580
17997SOL    HW255951   6.631   7.477   3.575
17998SOL     OW55952   6.090   7.498   3.602
17998SOL    HW155953   6.048   7.441   3.532
17998SOL    HW255954   6.024   7.567   3.634
17999SOL     OW55955   6.159   8.318   2.891
17999SOL    HW155956   6.203   8.407   2.882
17999SOL    HW255957   6.096   8.318   2.968
18000SOL     OW55958   6.946   8.310   2.907
18000SOL    HW155959   6.871   8.310   2.841
18000SOL    HW255960   6.983   8.218   2.916
18001SOL     OW55961   6.795   7.973   2.137
18001SOL    HW155962   6.808   7.889   2.191
18001SOL    HW255963   6.766   8.047   2.197
18002SOL     OW55964   5.893   7.661   3.093
18002SOL    HW155965   5.870   7.698   3.183
18002SOL    HW255966   5.863   7.566   3.087
18003SOL     OW55967   5.623   8.758   3.144
18003SOL    HW155968   5.676   8.709   3.212
18003SOL    HW255969   5.645   8.856   3.149
18004SOL     OW55970   6.318   8.082   2.926
18004SOL    HW155971   6.377   8.056   2.850
18004SOL    HW255972   6.290   8.178   2.915
18005SOL     OW55973   7.314   8.383   3.716
18005SOL    HW155974   7.268   8.376   3.627
18005SOL    HW255975   7.252   8.427   3.782
18006SOL     OW55976   5.893   7.511   2.480
18006SOL    HW155977   5.882   7.605   2.513
18006SOL    HW255978   5.888   7.448   2.557
18007SOL     OW55979   7.208   7.815   2.236
18007SOL    HW155980   7.210   7.739   2.300
18007SOL    HW255981   7.160   7.892   2.276
18008SOL     OW55982   6.609   8.214   2.828
18008SOL    HW155983   6.624   8.235   2.924
18008SOL    HW255984   6.579   8.119   2.819
18009SOL     OW55985   7.445   8.966   3.467
18009SOL    HW155986   7.459   8.993   3.372
18009SOL    HW255987   7.528   8.988   3.520
18010SOL     OW55988   5.936   8.346   3.666
18010SOL    HW155989   6.012   8.390   3.714
18010SOL    HW255990   5.971   8.299   3.584
18011SOL     OW55991   7.126   7.722   1.987
18011SOL    HW155992   7.065   7.647   2.010
18011SOL    HW255993   7.148   7.774   2.070
18012SOL     OW55994   6.889   8.286   1.904
18012SOL    HW155995   6.923   8.193   1.919
18012SOL    HW255996   6.907   8.313   1.809
18013SOL     OW55997   6.654   8.781   2.711
18013SOL    HW155998   6.661   8.697   2.656
18013SOL    HW255999   6.716   8.850   2.675
18014SOL     OW56000   5.905   8.258   2.811
18014SOL    HW156001   5.998   8.294   2.816
18014SOL    HW256002   5.899   8.173   2.863
18015SOL     OW56003   5.925   7.957   2.868
18015SOL    HW156004   5.873   7.874   2.851
18015SOL    HW256005   6.002   7.962   2.804
18016SOL     OW56006   6.097   7.863   3.670
18016SOL    HW156007   6.079   7.908   3.758
18016SOL    HW256008   6.139   7.928   3.607
18017SOL     OW56009   6.724   7.828   3.540
18017SOL    HW156010   6.679   7.891   3.604
18017SOL    HW256011   6.817   7.859   3.523
18018SOL     OW56012   6.746   7.655   3.339
18018SOL    HW156013   6.746   7.719   3.416
18018SOL    HW256014   6.774   7.703   3.256
18019SOL     OW56015   5.594   8.774   2.062
18019SOL    HW156016   5.501   8.795   2.031
18019SOL    HW256017   5.604   8.675   2.075
18020SOL     OW56018   6.588   8.244   3.100
18020SOL    HW156019   6.629   8.212   3.186
18020SOL    HW256020   6.492   8.217   3.097
18021SOL     OW56021   5.626   7.992   2.976
18021SOL    HW156022   5.711   7.959   2.935
18021SOL    HW256023   5.639   8.007   3.074
18022SOL     OW56024   5.775   7.968   3.584
18022SOL    HW156025   5.834   7.928   3.514
18022SOL    HW256026   5.717   8.039   3.543
18023SOL     OW56027   6.955   8.398   3.522
18023SOL    HW156028   6.994   8.487   3.542
18023SOL    HW256029   6.965   8.378   3.425
18024SOL     OW56030   6.401   8.020   2.187
18024SOL    HW156031   6.408   7.931   2.141
18024SOL    HW256032   6.307   8.054   2.179
18025SOL     OW56033   7.243   8.052   3.068
18025SOL    HW156034   7.205   7.983   3.130
18025SOL    HW256035   7.325   8.016   3.024
18026SOL     OW56036   5.838   0.012   3.606
18026SOL    HW156037   5.808   0.069   3.682
18026SOL    HW256038   5.831  -0.085   3.632
18027SOL     OW56039   6.257   7.912   3.131
18027SOL    HW156040   6.223   7.823   3.101
18027SOL    HW256041   6.283   7.966   3.051
18028SOL     OW56042   6.059   7.948   2.053
18028SOL    HW156043   6.120   8.028   2.057
18028SOL    HW256044   5.964   7.979   2.060
18029SOL     OW56045   5.745   8.585   3.328
18029SOL    HW156046   5.767   8.524   3.404
18029SOL    HW256047   5.755   8.536   3.242
18030SOL     OW56048   6.933   8.507   3.096
18030SOL    HW156049   6.957   8.444   3.022
18030SOL    HW256050   6.843   8.547   3.078
18031SOL     OW56051   6.888   8.303   2.171
18031SOL    HW156052   6.802   8.272   2.213
18031SOL    HW256053   6.884   8.289   2.072
18032SOL     OW56054   5.669   8.706   2.884
18032SOL    HW156055   5.664   8.705   2.984
18032SOL    HW256056   5.586   8.665   2.846
18033SOL     OW56057   6.489   7.534   1.995
18033SOL    HW156058   6.540   7.535   1.909
18033SOL    HW256059   6.545   7.492   2.066
18034SOL     OW56060   7.312   7.583   2.385
18034SOL    HW156061   7.385   7.566   2.318
18034SOL    HW256062   7.281   7.496   2.423
18035SOL     OW56063   6.866   8.375   2.534
18035SOL    HW156064   6.926   8.294   2.536
18035SOL    HW256065   6.906   8.444   2.474
18036SOL     OW56066   6.416   8.721   3.284
18036SOL    HW156067   6.411   8.754   3.379
18036SOL    HW256068   6.330   8.740   3.238
18037SOL     OW56069   7.427   7.623   2.825
18037SOL    HW156070   7.466   7.538   2.789
18037SOL    HW256071   7.329   7.625   2.806
18038SOL     OW56072   5.849   7.774   2.582
18038SOL    HW156073   5.770   7.825   2.548
18038SOL    HW256074   5.840   7.759   2.680
18039SOL     OW56075   6.408   8.450   3.234
18039SOL    HW156076   6.448   8.449   3.142
18039SOL    HW256077   6.418   8.542   3.274
18040SOL     OW56078   6.502   8.358   2.153
18040SOL    HW156079   6.565   8.396   2.085
18040SOL    HW256080   6.542   8.275   2.192
18041SOL     OW56081   5.958   8.736   3.352
18041SOL    HW156082   5.945   8.829   3.318
18041SOL    HW256083   5.874   8.684   3.339
18042SOL     OW56084   7.200   8.740   3.151
18042SOL    HW156085   7.260   8.743   3.231
18042SOL    HW256086   7.125   8.804   3.164
18043SOL     OW56087   6.625   8.546   2.558
18043SOL    HW156088   6.555   8.499   2.612
18043SOL    HW256089   6.684   8.478   2.515
18044SOL     OW56090   6.600   7.684   2.833
18044SOL    HW156091   6.592   7.648   2.740
18044SOL    HW256092   6.598   7.608   2.898
18045SOL     OW56093   7.295   7.833   3.243
18045SOL    HW156094   7.368   7.902   3.247
18045SOL    HW256095   7.323   7.758   3.184
18046SOL     OW56096   5.841   8.796   2.152
18046SOL    HW156097   5.745   8.797   2.125
18046SOL    HW256098   5.853   8.849   2.236
18047SOL     OW56099   5.691   8.461   3.588
18047SOL    HW156100   5.614   8.428   3.642
18047SOL    HW256101   5.776   8.431   3.630
18048SOL     OW56102   6.258   7.651   3.351
18048SOL    HW156103   6.348   7.635   3.311
18048SOL    HW256104   6.266   7.656   3.450
18049SOL     OW56105   5.661   7.793   1.895
18049SOL    HW156106   5.569   7.765   1.866
18049SOL    HW256107   5.692   7.870   1.839
18050SOL     OW56108   7.026   8.304   3.260
18050SOL    HW156109   6.969   8.356   3.197
18050SOL    HW256110   7.122   8.316   3.236
18051SOL     OW56111   5.658   7.614   2.180
18051SOL    HW156112   5.641   7.697   2.126
18051SOL    HW256113   5.748   7.577   2.158
18052SOL     OW56114   6.769   8.783   1.981
18052SOL    HW156115   6.670   8.772   1.983
18052SOL    HW256116   6.803   8.798   2.074
18053SOL     OW56117   6.199   8.290   3.293
18053SOL    HW156118   6.255   8.371   3.276
18053SOL    HW256119   6.258   8.210   3.296
18054SOL     OW56120   6.302   8.013   3.570
18054SOL    HW156121   6.321   8.078   3.644
18054SOL    HW256122   6.362   7.933   3.579
18055SOL     OW56123   7.036   8.668   3.495
18055SOL    HW156124   7.027   8.658   3.594
18055SOL    HW256125   7.132   8.661   3.469
18056SOL     OW56126   7.260   8.331   3.116
18056SOL    HW156127   7.233   8.242   3.079
18056SOL    HW256128   7.261   8.399   3.043
18057SOL     OW56129   6.811   7.773   2.311
18057SOL    HW156130   6.876   7.699   2.300
18057SOL    HW256131   6.831   7.823   2.395
18058SOL     OW56132   6.180   8.193   2.514
18058SOL    HW156133   6.230   8.278   2.495
18058SOL    HW256134   6.092   8.195   2.466
18059SOL     OW56135   7.363   7.790   3.504
18059SOL    HW156136   7.346   7.821   3.410
18059SOL    HW256137   7.279   7.753   3.542
18060SOL     OW56138   7.316   8.382   3.379
18060SOL    HW156139   7.354   8.473   3.394
18060SOL    HW256140   7.308   8.365   3.280
18061SOL     OW56141   6.445   8.822   1.878
18061SOL    HW156142   6.399   8.837   1.966
18061SOL    HW256143   6.489   8.907   1.848
18062SOL     OW56144   6.445   8.404   2.723
18062SOL    HW156145   6.499   8.335   2.771
18062SOL    HW256146   6.413   8.473   2.789
18063SOL     OW56147   6.669   8.432   1.949
18063SOL    HW156148   6.646   8.485   1.867
18063SOL    HW256149   6.750   8.376   1.930
18064SOL     OW56150   5.807   8.762   3.706
18064SOL    HW156151   5.742   8.689   3.685
18064SOL    HW256152   5.811   8.776   3.804
18065SOL     OW56153   5.665   8.688   2.515
18065SOL    HW156154   5.664   8.641   2.603
18065SOL    HW256155   5.747   8.660   2.464
18066SOL     OW56156   6.258   8.839   3.486
18066SOL    HW156157   6.180   8.789   3.524
18066SOL    HW256158   6.255   8.934   3.517
18067SOL     OW56159   7.410   7.640   3.089
18067SOL    HW156160   7.406   7.550   3.133
18067SOL    HW256161   7.413   7.629   2.990
18068SOL     OW56162   6.014   7.872   2.382
18068SOL    HW156163   6.044   7.800   2.320
18068SOL    HW256164   5.975   7.832   2.465
18069SOL     OW56165   7.291   8.935   2.966
18069SOL    HW156166   7.198   8.910   2.939
18069SOL    HW256167   7.317   8.885   3.048
18070SOL     OW56168   5.903   7.995   3.142
18070SOL    HW156169   5.941   7.936   3.214
18070SOL    HW256170   5.943   7.969   3.054
18071SOL     OW56171   7.010   7.662   2.974
18071SOL    HW156172   7.062   7.597   3.029
18071SOL    HW256173   6.961   7.725   3.035
18072SOL     OW56174   6.587   7.482   3.016
18072SOL    HW156175   6.524   7.410   2.985
18072SOL    HW256176   6.680   7.446   3.016
18073SOL     OW56177   6.356   8.778   2.163
18073SOL    HW156178   6.310   8.691   2.180
18073SOL    HW256179   6.447   8.775   2.204
18074SOL     OW56180   6.204   0.015   3.146
18074SOL    HW156181   6.199   0.097   3.203
18074SOL    HW256182   6.293   0.012   3.101
18075SOL     OW56183   6.938   7.500   2.030
18075SOL    HW156184   6.973   7.459   1.946
18075SOL    HW256185   6.848   7.462   2.050
18076SOL     OW56186   6.886   7.901   2.553
18076SOL    HW156187   6.827   7.981   2.557
18076SOL    HW256188   6.901   7.866   2.646
18077SOL     OW56189   7.179   7.669   2.744
18077SOL    HW156190   7.095   7.668   2.798
18077SOL    HW256191   7.181   7.752   2.688
18078SOL     OW56192   5.625   8.525   2.162
18078SOL    HW156193   5.724   8.514   2.153
18078SOL    HW256194   5.585   8.439   2.194
18079SOL     OW56195   5.816   8.076   3.837
18079SOL    HW156196   5.723   8.074   3.874
18079SOL    HW256197   5.817   8.037   3.745
18080SOL     OW56198   5.811   7.723   4.720
18080SOL    HW156199   5.846   7.706   4.812
18080SOL    HW256200   5.723   7.678   4.708
18081SOL     OW56201   5.605   7.816   4.371
18081SOL    HW156202   5.523   7.859   4.410
18081SOL    HW256203   5.577   7.743   4.308
18082SOL     OW56204   6.155   8.723   4.889
18082SOL    HW156205   6.062   8.716   4.852
18082SOL    HW256206   6.166   8.812   4.933
18083SOL     OW56207   7.141   8.959   4.427
18083SOL    HW156208   7.084   8.943   4.508
18083SOL    HW256209   7.082   8.969   4.347
18084SOL     OW56210   7.329   8.066   4.580
18084SOL    HW156211   7.362   8.160   4.580
18084SOL    HW256212   7.380   8.012   4.646
18085SOL     OW56213   6.721   8.151   4.441
18085SOL    HW156214   6.778   8.229   4.416
18085SOL    HW256215   6.661   8.177   4.517
18086SOL     OW56216   7.341   8.055   3.955
18086SOL    HW156217   7.329   8.042   3.856
18086SOL    HW256218   7.311   7.974   4.004
18087SOL     OW56219   6.354   8.592   4.747
18087SOL    HW156220   6.276   8.609   4.807
18087SOL    HW256221   6.388   8.679   4.711
18088SOL     OW56222   6.436   8.246   5.547
18088SOL    HW156223   6.432   8.322   5.612
18088SOL    HW256224   6.458   8.282   5.456
18089SOL     OW56225   6.271   8.460   4.389
18089SOL    HW156226   6.340   8.444   4.459
18089SOL    HW256227   6.198   8.517   4.427
18090SOL     OW56228   6.272   8.609   5.527
18090SOL    HW156229   6.332   8.688   5.541
18090SOL    HW256230   6.186   8.640   5.486
18091SOL     OW56231   5.921   8.883   4.785
18091SOL    HW156232   5.843   8.852   4.732
18091SOL    HW256233   5.979   8.941   4.728
18092SOL     OW56234   7.046   8.953   5.063
18092SOL    HW156235   7.070   9.047   5.089
18092SOL    HW256236   7.030   8.899   5.145
18093SOL     OW56237   6.024   7.840   5.223
18093SOL    HW156238   6.106   7.784   5.232
18093SOL    HW256239   5.943   7.782   5.227
18094SOL     OW56240   7.189   7.895   4.461
18094SOL    HW156241   7.115   7.941   4.411
18094SOL    HW256242   7.240   7.963   4.514
18095SOL     OW56243   5.817   0.161   4.207
18095SOL    HW156244   5.851   0.238   4.261
18095SOL    HW256245   5.861   0.161   4.117
18096SOL     OW56246   6.713   8.789   5.414
18096SOL    HW156247   6.760   8.789   5.502
18096SOL    HW256248   6.665   8.702   5.403
18097SOL     OW56249   5.816   8.882   4.262
18097SOL    HW156250   5.790   8.978   4.262
18097SOL    HW256251   5.745   8.828   4.307
18098SOL     OW56252   5.826   8.539   4.610
18098SOL    HW156253   5.840   8.455   4.662
18098SOL    HW256254   5.771   8.603   4.665
18099SOL     OW56255   6.192   8.412   3.847
18099SOL    HW156256   6.199   8.496   3.793
18099SOL    HW256257   6.238   8.425   3.935
18100SOL     OW56258   7.180   7.562   5.204
18100SOL    HW156259   7.162   7.629   5.132
18100SOL    HW256260   7.177   7.608   5.293
18101SOL     OW56261   5.708   8.091   4.287
18101SOL    HW156262   5.663   8.003   4.304
18101SOL    HW256263   5.707   8.145   4.371
18102SOL     OW56264   5.613   0.044   3.841
18102SOL    HW156265   5.594  -0.052   3.862
18102SOL    HW256266   5.580   0.102   3.916
18103SOL     OW56267   7.275   8.370   4.336
18103SOL    HW156268   7.370   8.341   4.344
18103SOL    HW256269   7.267   8.435   4.261
18104SOL     OW56270   7.227   8.556   4.156
18104SOL    HW156271   7.313   8.558   4.104
18104SOL    HW256272   7.241   8.603   4.244
18105SOL     OW56273   5.699   8.185   5.321
18105SOL    HW156274   5.787   8.172   5.366
18105SOL    HW256275   5.686   8.282   5.299
18106SOL     OW56276   6.199   8.813   4.450
18106SOL    HW156277   6.150   8.726   4.459
18106SOL    HW256278   6.176   8.856   4.363
18107SOL     OW56279   6.879   8.676   5.147
18107SOL    HW156280   6.916   8.603   5.089
18107SOL    HW256281   6.931   8.681   5.232
18108SOL     OW56282   6.395   7.452   4.226
18108SOL    HW156283   6.435   7.543   4.217
18108SOL    HW256284   6.295   7.460   4.232
18109SOL     OW56285   5.783   8.424   4.988
18109SOL    HW156286   5.872   8.379   4.974
18109SOL    HW256287   5.710   8.359   4.969
18110SOL     OW56288   7.111   8.447   3.914
18110SOL    HW156289   7.048   8.371   3.927
18110SOL    HW256290   7.159   8.465   4.000
18111SOL     OW56291   5.903   7.699   5.525
18111SOL    HW156292   5.974   7.770   5.531
18111SOL    HW256293   5.815   7.738   5.553
18112SOL     OW56294   7.052   8.865   4.677
18112SOL    HW156295   6.993   8.871   4.757
18112SOL    HW256296   7.037   8.777   4.631
18113SOL     OW56297   6.184   8.177   3.994
18113SOL    HW156298   6.208   8.246   3.926
18113SOL    HW256299   6.106   8.210   4.048
18114SOL     OW56300   6.867   7.793   4.668
18114SOL    HW156301   6.781   7.743   4.655
18114SOL    HW256302   6.929   7.739   4.724
18115SOL     OW56303   6.393   8.053   5.189
18115SOL    HW156304   6.346   8.050   5.278
18115SOL    HW256305   6.342   7.998   5.123
18116SOL     OW56306   6.980   7.917   5.398
18116SOL    HW156307   6.960   7.960   5.486
18116SOL    HW256308   7.058   7.855   5.407
18117SOL     OW56309   6.559   8.338   5.296
18117SOL    HW156310   6.605   8.254   5.267
18117SOL    HW256311   6.503   8.372   5.221
18118SOL     OW56312   6.577   7.858   4.966
18118SOL    HW156313   6.500   7.892   5.020
18118SOL    HW256314   6.543   7.807   4.887
18119SOL     OW56315   6.627   8.149   4.153
18119SOL    HW156316   6.653   8.145   4.249
18119SOL    HW256317   6.542   8.098   4.139
18120SOL     OW56318   5.662   8.259   4.513
18120SOL    HW156319   5.761   8.247   4.522
18120SOL    HW256320   5.638   8.354   4.534
18121SOL     OW56321   6.451   7.796   3.919
18121SOL    HW156322   6.510   7.859   3.870
18121SOL    HW256323   6.470   7.702   3.890
18122SOL     OW56324   7.305   8.033   5.555
18122SOL    HW156325   7.279   8.122   5.519
18122SOL    HW256326   7.303   7.965   5.482
18123SOL     OW56327   6.948   8.592   4.269
18123SOL    HW156328   7.031   8.563   4.221
18123SOL    HW256329   6.899   8.659   4.213
18124SOL     OW56330   6.136   7.644   4.609
18124SOL    HW156331   6.131   7.639   4.709
18124SOL    HW256332   6.138   7.740   4.580
18125SOL     OW56333   6.594   8.904   4.201
18125SOL    HW156334   6.548   8.976   4.149
18125SOL    HW256335   6.590   8.924   4.299
18126SOL     OW56336   7.381   8.514   4.597
18126SOL    HW156337   7.319   8.499   4.521
18126SOL    HW256338   7.329   8.525   4.682
18127SOL     OW56339   6.813   8.998   5.230
18127SOL    HW156340   6.819   8.921   5.294
18127SOL    HW256341   6.761   8.972   5.150
18128SOL     OW56342   5.907   8.391   3.966
18128SOL    HW156343   5.989   8.430   3.924
18128SOL    HW256344   5.880   8.309   3.917
18129SOL     OW56345   7.044   8.183   4.452
18129SOL    HW156346   7.039   8.118   4.527
18129SOL    HW256347   7.124   8.242   4.465
18130SOL     OW56348   6.047   8.714   5.451
18130SOL    HW156349   5.997   8.715   5.365
18130SOL    HW256350   5.984   8.696   5.527
18131SOL     OW56351   6.697   0.224   3.961
18131SOL    HW156352   6.637   0.162   4.011
18131SOL    HW256353   6.728   0.180   3.876
18132SOL     OW56354   5.788   7.733   5.222
18132SOL    HW156355   5.708   7.793   5.209
18132SOL    HW256356   5.778   7.684   5.308
18133SOL     OW56357   7.218   8.825   3.805
18133SOL    HW156358   7.186   8.919   3.795
18133SOL    HW256359   7.142   8.762   3.793
18134SOL     OW56360   6.986   7.555   4.150
18134SOL    HW156361   6.962   7.518   4.060
18134SOL    HW256362   7.085   7.571   4.154
18135SOL     OW56363   5.968   8.148   4.204
18135SOL    HW156364   6.013   8.058   4.201
18135SOL    HW256365   5.874   8.137   4.237
18136SOL     OW56366   7.133   7.670   5.453
18136SOL    HW156367   7.128   7.707   5.545
18136SOL    HW256368   7.061   7.601   5.441
18137SOL     OW56369   6.200   7.570   3.841
18137SOL    HW156370   6.298   7.548   3.848
18137SOL    HW256371   6.169   7.553   3.748
18138SOL     OW56372   6.367   7.712   5.473
18138SOL    HW156373   6.434   7.651   5.516
18138SOL    HW256374   6.294   7.731   5.538
18139SOL     OW56375   6.937   8.038   5.157
18139SOL    HW156376   6.965   7.995   5.242
18139SOL    HW256377   6.962   8.134   5.158
18140SOL     OW56378   6.389   8.850   4.648
18140SOL    HW156379   6.479   8.864   4.606
18140SOL    HW256380   6.318   8.852   4.577
18141SOL     OW56381   6.508   7.951   4.623
18141SOL    HW156382   6.483   7.942   4.527
18141SOL    HW256383   6.556   7.869   4.654
18142SOL     OW56384   6.125   7.512   4.236
18142SOL    HW156385   6.044   7.513   4.294
18142SOL    HW256386   6.128   7.595   4.181
18143SOL     OW56387   7.020   8.636   3.765
18143SOL    HW156388   7.052   8.560   3.822
18143SOL    HW256389   6.928   8.663   3.795
18144SOL     OW56390   5.883   7.483   3.895
18144SOL    HW156391   5.932   7.567   3.874
18144SOL    HW256392   5.945   7.418   3.940
18145SOL     OW56393   6.521   7.684   4.204
18145SOL    HW156394   6.473   7.725   4.126
18145SOL    HW256395   6.620   7.682   4.185
18146SOL     OW56396   6.662   8.131   5.188
18146SOL    HW156397   6.582   8.070   5.191
18146SOL    HW256398   6.743   8.078   5.164
18147SOL     OW56399   6.813   0.018   4.517
18147SOL    HW156400   6.834   0.092   4.452
18147SOL    HW256401   6.881   0.018   4.590
18148SOL     OW56402   6.045   8.600   4.465
18148SOL    HW156403   5.974   8.573   4.530
18148SOL    HW256404   6.019   8.572   4.372
18149SOL     OW56405   6.618   7.997   3.740
18149SOL    HW156406   6.577   8.079   3.701
18149SOL    HW256407   6.682   8.023   3.813
18150SOL     OW56408   5.664   8.004   5.110
18150SOL    HW156409   5.756   8.003   5.069
18150SOL    HW256410   5.658   8.078   5.177
18151SOL     OW56411   6.147   7.670   4.871
18151SOL    HW156412   6.185   7.586   4.908
18151SOL    HW256413   6.059   7.689   4.915
18152SOL     OW56414   6.452   7.902   4.366
18152SOL    HW156415   6.420   7.974   4.304
18152SOL    HW256416   6.476   7.821   4.313
18153SOL     OW56417   6.603   7.487   4.477
18153SOL    HW156418   6.531   7.492   4.408
18153SOL    HW256419   6.579   7.418   4.546
18154SOL     OW56420   7.015   8.621   4.591
18154SOL    HW156421   6.960   8.537   4.584
18154SOL    HW256422   7.041   8.650   4.499
18155SOL     OW56423   7.052   8.038   4.716
18155SOL    HW156424   7.022   7.943   4.723
18155SOL    HW256425   7.125   8.054   4.782
18156SOL     OW56426   7.443   8.281   4.101
18156SOL    HW156427   7.485   8.217   4.165
18156SOL    HW256428   7.405   8.230   4.023
18157SOL     OW56429   6.074   8.833   3.898
18157SOL    HW156430   5.987   8.818   3.945
18157SOL    HW256431   6.057   8.859   3.803
18158SOL     OW56432   7.250   8.728   4.381
18158SOL    HW156433   7.349   8.736   4.395
18158SOL    HW256434   7.205   8.812   4.412
18159SOL     OW56435   6.976   8.023   3.802
18159SOL    HW156436   6.922   8.002   3.883
18159SOL    HW256437   7.067   7.982   3.811
18160SOL     OW56438   6.113   7.704   4.052
18160SOL    HW156439   6.140   7.645   3.977
18160SOL    HW256440   6.113   7.799   4.021
18161SOL     OW56441   7.340   8.671   5.312
18161SOL    HW156442   7.431   8.632   5.299
18161SOL    HW256443   7.348   8.767   5.336
18162SOL     OW56444   6.650   8.795   5.064
18162SOL    HW156445   6.570   8.772   5.119
18162SOL    HW256446   6.733   8.769   5.113
18163SOL     OW56447   6.697   8.643   4.824
18163SOL    HW156448   6.657   8.687   4.905
18163SOL    HW256449   6.656   8.680   4.741
18164SOL     OW56450   7.224   8.547   4.803
18164SOL    HW156451   7.229   8.628   4.862
18164SOL    HW256452   7.138   8.549   4.752
18165SOL     OW56453   6.501   7.537   5.126
18165SOL    HW156454   6.526   7.517   5.031
18165SOL    HW256455   6.573   7.593   5.168
18166SOL     OW56456   6.566   8.564   5.443
18166SOL    HW156457   6.467   8.570   5.453
18166SOL    HW256458   6.589   8.484   5.387
18167SOL     OW56459   6.291   8.498   4.092
18167SOL    HW156460   6.277   8.505   4.191
18167SOL    HW256461   6.375   8.447   4.074
18168SOL     OW56462   5.996   8.261   4.975
18168SOL    HW156463   6.082   8.273   5.025
18168SOL    HW256464   5.954   8.174   5.002
18169SOL     OW56465   6.860   7.834   4.986
18169SOL    HW156466   6.881   7.908   5.050
18169SOL    HW256467   6.771   7.851   4.943
18170SOL     OW56468   5.953   8.548   4.225
18170SOL    HW156469   5.946   8.631   4.169
18170SOL    HW256470   5.957   8.468   4.165
18171SOL     OW56471   6.152   7.985   4.589
18171SOL    HW156472   6.164   8.051   4.515
18171SOL    HW256473   6.198   8.019   4.672
18172SOL     OW56474   6.838   8.796   4.112
18172SOL    HW156475   6.888   8.873   4.152
18172SOL    HW256476   6.743   8.798   4.144
18173SOL     OW56477   6.858   8.893   4.866
18173SOL    HW156478   6.905   8.906   4.953
18173SOL    HW256479   6.792   8.819   4.875
18174SOL     OW56480   7.168   8.087   4.196
18174SOL    HW156481   7.137   8.148   4.269
18174SOL    HW256482   7.218   8.139   4.127
18175SOL     OW56483   5.940   8.958   5.053
18175SOL    HW156484   5.919   8.914   4.966
18175SOL    HW256485   6.037   8.984   5.056
18176SOL     OW56486   5.988   8.199   5.322
18176SOL    HW156487   6.056   8.254   5.275
18176SOL    HW256488   6.028   8.111   5.349
18177SOL     OW56489   7.173   8.227   5.394
18177SOL    HW156490   7.081   8.265   5.389
18177SOL    HW256491   7.233   8.274   5.329
18178SOL     OW56492   6.599   7.553   5.494
18178SOL    HW156493   6.605   7.638   5.442
18178SOL    HW256494   6.631   7.477   5.437
18179SOL     OW56495   6.090   7.498   5.464
18179SOL    HW156496   6.048   7.441   5.394
18179SOL    HW256497   6.024   7.567   5.496
18180SOL     OW56498   6.159   8.318   4.753
18180SOL    HW156499   6.203   8.407   4.744
18180SOL    HW256500   6.096   8.318   4.830
18181SOL     OW56501   6.946   8.310   4.769
18181SOL    HW156502   6.871   8.310   4.703
18181SOL    HW256503   6.983   8.218   4.778
18182SOL     OW56504   6.795   7.973   3.999
18182SOL    HW156505   6.808   7.889   4.053
18182SOL    HW256506   6.766   8.047   4.059
18183SOL     OW56507   5.893   7.661   4.955
18183SOL    HW156508   5.870   7.698   5.045
18183SOL    HW256509   5.863   7.566   4.949
18184SOL     OW56510   5.623   8.758   5.006
18184SOL    HW156511   5.676   8.709   5.074
18184SOL    HW256512   5.645   8.856   5.011
18185SOL     OW56513   6.318   8.082   4.788
18185SOL    HW156514   6.377   8.056   4.712
18185SOL    HW256515   6.290   8.178   4.777
18186SOL     OW56516   7.314   8.383   5.578
18186SOL    HW156517   7.268   8.376   5.489
18186SOL    HW256518   7.252   8.427   5.644
18187SOL     OW56519   5.893   7.511   4.342
18187SOL    HW156520   5.882   7.605   4.375
18187SOL    HW256521   5.888   7.448   4.419
18188SOL     OW56522   7.208   7.815   4.098
18188SOL    HW156523   7.210   7.739   4.162
18188SOL    HW256524   7.160   7.892   4.138
18189SOL     OW56525   6.609   8.214   4.690
18189SOL    HW156526   6.624   8.235   4.786
18189SOL    HW256527   6.579   8.119   4.681
18190SOL     OW56528   7.445   8.966   5.329
18190SOL    HW156529   7.459   8.993   5.234
18190SOL    HW256530   7.528   8.988   5.382
18191SOL     OW56531   5.936   8.346   5.528
18191SOL    HW156532   6.012   8.390   5.576
18191SOL    HW256533   5.971   8.299   5.446
18192SOL     OW56534   7.126   7.722   3.849
18192SOL    HW156535   7.065   7.647   3.872
18192SOL    HW256536   7.148   7.774   3.932
18193SOL     OW56537   6.889   8.286   3.766
18193SOL    HW156538   6.923   8.193   3.781
18193SOL    HW256539   6.907   8.313   3.671
18194SOL     OW56540   6.654   8.781   4.573
18194SOL    HW156541   6.661   8.697   4.518
18194SOL    HW256542   6.716   8.850   4.537
18195SOL     OW56543   5.905   8.258   4.673
18195SOL    HW156544   5.998   8.294   4.678
18195SOL    HW256545   5.899   8.173   4.725
18196SOL     OW56546   5.925   7.957   4.730
18196SOL    HW156547   5.873   7.874   4.713
18196SOL    HW256548   6.002   7.962   4.666
18197SOL     OW56549   6.097   7.863   5.532
18197SOL    HW156550   6.079   7.908   5.620
18197SOL    HW256551   6.139   7.928   5.469
18198SOL     OW56552   6.724   7.828   5.402
18198SOL    HW156553   6.679   7.891   5.466
18198SOL    HW256554   6.817   7.859   5.385
18199SOL     OW56555   6.746   7.655   5.201
18199SOL    HW156556   6.746   7.719   5.278
18199SOL    HW256557   6.774   7.703   5.118
18200SOL     OW56558   5.594   8.774   3.924
18200SOL    HW156559   5.501   8.795   3.893
18200SOL    HW256560   5.604   8.675   3.937
18201SOL     OW56561   6.588   8.244   4.962
18201SOL    HW156562   6.629   8.212   5.048
18201SOL    HW256563   6.492   8.217   4.959
18202SOL     OW56564   5.626   7.992   4.838
18202SOL    HW156565   5.711   7.959   4.797
18202SOL    HW256566   5.639   8.007   4.936
18203SOL     OW56567   5.775   7.968   5.446
18203SOL    HW156568   5.834   7.928   5.376
18203SOL    HW256569   5.717   8.039   5.405
18204SOL     OW56570   6.955   8.398   5.384
18204SOL    HW156571   6.994   8.487   5.404
18204SOL    HW256572   6.965   8.378   5.287
18205SOL     OW56573   6.401   8.020   4.049
18205SOL    HW156574   6.408   7.931   4.003
18205SOL    HW256575   6.307   8.054   4.041
18206SOL     OW56576   7.243   8.052   4.930
18206SOL    HW156577   7.205   7.983   4.992
18206SOL    HW256578   7.325   8.016   4.886
18207SOL     OW56579   5.838   0.012   5.468
18207SOL    HW156580   5.808   0.069   5.544
18207SOL    HW256581   5.831  -0.085   5.494
18208SOL     OW56582   6.257   7.912   4.993
18208SOL    HW156583   6.223   7.823   4.963
18208SOL    HW256584   6.283   7.966   4.913
18209SOL     OW56585   6.059   7.948   3.915
18209SOL    HW156586   6.120   8.028   3.919
18209SOL    HW256587   5.964   7.979   3.922
18210SOL     OW56588   5.745   8.585   5.190
18210SOL    HW156589   5.767   8.524   5.266
18210SOL    HW256590   5.755   8.536   5.104
18211SOL     OW56591   6.933   8.507   4.958
18211SOL    HW156592   6.957   8.444   4.884
18211SOL    HW256593   6.843   8.547   4.940
18212SOL     OW56594   6.888   8.303   4.033
18212SOL    HW156595   6.802   8.272   4.075
18212SOL    HW256596   6.884   8.289   3.934
18213SOL     OW56597   5.669   8.706   4.746
18213SOL    HW156598   5.664   8.705   4.846
18213SOL    HW256599   5.586   8.665   4.708
18214SOL     OW56600   6.489   7.534   3.857
18214SOL    HW156601   6.540   7.535   3.771
18214SOL    HW256602   6.545   7.492   3.928
18215SOL     OW56603   7.312   7.583   4.247
18215SOL    HW156604   7.385   7.566   4.180
18215SOL    HW256605   7.281   7.496   4.285
18216SOL     OW56606   6.866   8.375   4.396
18216SOL    HW156607   6.926   8.294   4.398
18216SOL    HW256608   6.906   8.444   4.336
18217SOL     OW56609   6.416   8.721   5.146
18217SOL    HW156610   6.411   8.754   5.241
18217SOL    HW256611   6.330   8.740   5.100
18218SOL     OW56612   7.427   7.623   4.687
18218SOL    HW156613   7.466   7.538   4.651
18218SOL    HW256614   7.329   7.625   4.668
18219SOL     OW56615   5.849   7.774   4.444
18219SOL    HW156616   5.770   7.825   4.410
18219SOL    HW256617   5.840   7.759   4.542
18220SOL     OW56618   6.408   8.450   5.096
18220SOL    HW156619   6.448   8.449   5.004
18220SOL    HW256620   6.418   8.542   5.136
18221SOL     OW56621   6.502   8.358   4.015
18221SOL    HW156622   6.565   8.396   3.947
18221SOL    HW256623   6.542   8.275   4.054
18222SOL     OW56624   5.958   8.736   5.214
18222SOL    HW156625   5.945   8.829   5.180
18222SOL    HW256626   5.874   8.684   5.201
18223SOL     OW56627   7.200   8.740   5.013
18223SOL    HW156628   7.260   8.743   5.093
18223SOL    HW256629   7.125   8.804   5.026
18224SOL     OW56630   6.625   8.546   4.420
18224SOL    HW156631   6.555   8.499   4.474
18224SOL    HW256632   6.684   8.478   4.377
18225SOL     OW56633   6.600   7.684   4.695
18225SOL    HW156634   6.592   7.648   4.602
18225SOL    HW256635   6.598   7.608   4.760
18226SOL     OW56636   7.295   7.833   5.105
18226SOL    HW156637   7.368   7.902   5.109
18226SOL    HW256638   7.323   7.758   5.046
18227SOL     OW56639   5.841   8.796   4.014
18227SOL    HW156640   5.745   8.797   3.987
18227SOL    HW256641   5.853   8.849   4.098
18228SOL     OW56642   5.691   8.461   5.450
18228SOL    HW156643   5.614   8.428   5.504
18228SOL    HW256644   5.776   8.431   5.492
18229SOL     OW56645   6.258   7.651   5.213
18229SOL    HW156646   6.348   7.635   5.173
18229SOL    HW256647   6.266   7.656   5.312
18230SOL     OW56648   5.661   7.793   3.757
18230SOL    HW156649   5.569   7.765   3.728
18230SOL    HW256650   5.692   7.870   3.701
18231SOL     OW56651   7.026   8.304   5.122
18231SOL    HW156652   6.969   8.356   5.059
18231SOL    HW256653   7.122   8.316   5.098
18232SOL     OW56654   5.658   7.614   4.042
18232SOL    HW156655   5.641   7.697   3.988
18232SOL    HW256656   5.748   7.577   4.020
18233SOL     OW56657   6.769   8.783   3.843
18233SOL    HW156658   6.670   8.772   3.845
18233SOL    HW256659   6.803   8.798   3.936
18234SOL     OW56660   6.199   8.290   5.155
18234SOL    HW156661   6.255   8.371   5.138
18234SOL    HW256662   6.258   8.210   5.158
18235SOL     OW56663   6.302   8.013   5.432
18235SOL    HW156664   6.321   8.078   5.506
18235SOL    HW256665   6.362   7.933   5.441
18236SOL     OW56666   7.036   8.668   5.357
18236SOL    HW156667   7.027   8.658   5.456
18236SOL    HW256668   7.132   8.661   5.331
18237SOL     OW56669   7.260   8.331   4.978
18237SOL    HW156670   7.233   8.242   4.941
18237SOL    HW256671   7.261   8.399   4.905
18238SOL     OW56672   6.811   7.773   4.173
18238SOL    HW156673   6.876   7.699   4.162
18238SOL    HW256674   6.831   7.823   4.257
18239SOL     OW56675   6.180   8.193   4.376
18239SOL    HW156676   6.230   8.278   4.357
18239SOL    HW256677   6.092   8.195   4.328
18240SOL     OW56678   7.363   7.790   5.366
18240SOL    HW156679   7.346   7.821   5.272
18240SOL    HW256680   7.279   7.753   5.404
18241SOL     OW56681   7.316   8.382   5.241
18241SOL    HW156682   7.354   8.473   5.256
18241SOL    HW256683   7.308   8.365   5.142
18242SOL     OW56684   6.445   8.822   3.740
18242SOL    HW156685   6.399   8.837   3.828
18242SOL    HW256686   6.489   8.907   3.710
18243SOL     OW56687   6.445   8.404   4.585
18243SOL    HW156688   6.499   8.335   4.633
18243SOL    HW256689   6.413   8.473   4.651
18244SOL     OW56690   6.669   8.432   3.811
18244SOL    HW156691   6.646   8.485   3.729
18244SOL    HW256692   6.750   8.376   3.792
18245SOL     OW56693   5.807   8.762   5.568
18245SOL    HW156694   5.742   8.689   5.547
18245SOL    HW256695   5.811   8.776   5.666
18246SOL     OW56696   5.665   8.688   4.377
18246SOL    HW156697   5.664   8.641   4.465
18246SOL    HW256698   5.747   8.660   4.326
18247SOL     OW56699   6.258   8.839   5.348
18247SOL    HW156700   6.180   8.789   5.386
18247SOL    HW256701   6.255   8.934   5.379
18248SOL     OW56702   7.410   7.640   4.951
18248SOL    HW156703   7.406   7.550   4.995
18248SOL    HW256704   7.413   7.629   4.852
18249SOL     OW56705   6.014   7.872   4.244
18249SOL    HW156706   6.044   7.800   4.182
18249SOL    HW256707   5.975   7.832   4.327
18250SOL     OW56708   7.291   8.935   4.828
18250SOL    HW156709   7.198   8.910   4.801
18250SOL    HW256710   7.317   8.885   4.910
18251SOL     OW56711   5.903   7.995   5.004
18251SOL    HW156712   5.941   7.936   5.076
18251SOL    HW256713   5.943   7.969   4.916
18252SOL     OW56714   7.010   7.662   4.836
18252SOL    HW156715   7.062   7.597   4.891
18252SOL    HW256716   6.961   7.725   4.897
18253SOL     OW56717   6.587   7.482   4.878
18253SOL    HW156718   6.524   7.410   4.847
18253SOL    HW256719   6.680   7.446   4.878
18254SOL     OW56720   6.356   8.778   4.025
18254SOL    HW156721   6.310   8.691   4.042
18254SOL    HW256722   6.447   8.775   4.066
18255SOL     OW56723   6.204   0.015   5.008
18255SOL    HW156724   6.199   0.097   5.065
18255SOL    HW256725   6.293   0.012   4.963
18256SOL     OW56726   6.938   7.500   3.892
18256SOL    HW156727   6.973   7.459   3.808
18256SOL    HW256728   6.848   7.462   3.912
18257SOL     OW56729   6.886   7.901   4.415
18257SOL    HW156730   6.827   7.981   4.419
18257SOL    HW256731   6.901   7.866   4.508
18258SOL     OW56732   7.179   7.669   4.606
18258SOL    HW156733   7.095   7.668   4.660
18258SOL    HW256734   7.181   7.752   4.550
18259SOL     OW56735   5.625   8.525   4.024
18259SOL    HW156736   5.724   8.514   4.015
18259SOL    HW256737   5.585   8.439   4.056
18260SOL     OW56738   5.816   8.076   5.699
18260SOL    HW156739   5.723   8.074   5.736
18260SOL    HW256740   5.817   8.037   5.607
18261SOL     OW56741   5.811   7.723   6.582
18261SOL    HW156742   5.846   7.706   6.674
18261SOL    HW256743   5.723   7.678   6.570
18262SOL     OW56744   5.605   7.816   6.233
18262SOL    HW156745   5.523   7.859   6.272
18262SOL    HW256746   5.577   7.743   6.170
18263SOL     OW56747   6.155   8.723   6.751
18263SOL    HW156748   6.062   8.716   6.714
18263SOL    HW256749   6.166   8.812   6.795
18264SOL     OW56750   7.141   8.959   6.289
18264SOL    HW156751   7.084   8.943   6.370
18264SOL    HW256752   7.082   8.969   6.209
18265SOL     OW56753   7.329   8.066   6.442
18265SOL    HW156754   7.362   8.160   6.442
18265SOL    HW256755   7.380   8.012   6.508
18266SOL     OW56756   6.721   8.151   6.303
18266SOL    HW156757   6.778   8.229   6.278
18266SOL    HW256758   6.661   8.177   6.379
18267SOL     OW56759   7.341   8.055   5.817
18267SOL    HW156760   7.329   8.042   5.718
18267SOL    HW256761   7.311   7.974   5.866
18268SOL     OW56762   6.354   8.592   6.609
18268SOL    HW156763   6.276   8.609   6.669
18268SOL    HW256764   6.388   8.679   6.573
18269SOL     OW56765   6.436   8.246   7.409
18269SOL    HW156766   6.432   8.322   7.474
18269SOL    HW256767   6.458   8.282   7.318
18270SOL     OW56768   6.271   8.460   6.251
18270SOL    HW156769   6.340   8.444   6.321
18270SOL    HW256770   6.198   8.517   6.289
18271SOL     OW56771   6.272   8.609   7.389
18271SOL    HW156772   6.332   8.688   7.403
18271SOL    HW256773   6.186   8.640   7.348
18272SOL     OW56774   5.921   8.883   6.647
18272SOL    HW156775   5.843   8.852   6.594
18272SOL    HW256776   5.979   8.941   6.590
18273SOL     OW56777   7.046   8.953   6.925
18273SOL    HW156778   7.070   9.047   6.951
18273SOL    HW256779   7.030   8.899   7.007
18274SOL     OW56780   6.024   7.840   7.085
18274SOL    HW156781   6.106   7.784   7.094
18274SOL    HW256782   5.943   7.782   7.089
18275SOL     OW56783   7.189   7.895   6.323
18275SOL    HW156784   7.115   7.941   6.273
18275SOL    HW256785   7.240   7.963   6.376
18276SOL     OW56786   5.817   0.161   6.069
18276SOL    HW156787   5.851   0.238   6.123
18276SOL    HW256788   5.861   0.161   5.979
18277SOL     OW56789   6.713   8.789   7.276
18277SOL    HW156790   6.760   8.789   7.364
18277SOL    HW256791   6.665   8.702   7.265
18278SOL     OW56792   5.816   8.882   6.124
18278SOL    HW156793   5.790   8.978   6.124
18278SOL    HW256794   5.745   8.828   6.169
18279SOL     OW56795   5.826   8.539   6.472
18279SOL    HW156796   5.840   8.455   6.524
18279SOL    HW256797   5.771   8.603   6.527
18280SOL     OW56798   6.192   8.412   5.709
18280SOL    HW156799   6.199   8.496   5.655
18280SOL    HW256800   6.238   8.425   5.797
18281SOL     OW56801   7.180   7.562   7.066
18281SOL    HW156802   7.162   7.629   6.994
18281SOL    HW256803   7.177   7.608   7.155
18282SOL     OW56804   5.708   8.091   6.149
18282SOL    HW156805   5.663   8.003   6.166
18282SOL    HW256806   5.707   8.145   6.233
18283SOL     OW56807   5.613   0.044   5.703
18283SOL    HW156808   5.594  -0.052   5.724
18283SOL    HW256809   5.580   0.102   5.778
18284SOL     OW56810   7.275   8.370   6.198
18284SOL    HW156811   7.370   8.341   6.206
18284SOL    HW256812   7.267   8.435   6.123
18285SOL     OW56813   7.227   8.556   6.018
18285SOL    HW156814   7.313   8.558   5.966
18285SOL    HW256815   7.241   8.603   6.106
18286SOL     OW56816   5.699   8.185   7.183
18286SOL    HW156817   5.787   8.172   7.228
18286SOL    HW256818   5.686   8.282   7.161
18287SOL     OW56819   6.199   8.813   6.312
18287SOL    HW156820   6.150   8.726   6.321
18287SOL    HW256821   6.176   8.856   6.225
18288SOL     OW56822   6.879   8.676   7.009
18288SOL    HW156823   6.916   8.603   6.951
18288SOL    HW256824   6.931   8.681   7.094
18289SOL     OW56825   6.395   7.452   6.088
18289SOL    HW156826   6.435   7.543   6.079
18289SOL    HW256827   6.295   7.460   6.094
18290SOL     OW56828   5.783   8.424   6.850
18290SOL    HW156829   5.872   8.379   6.836
18290SOL    HW256830   5.710   8.359   6.831
18291SOL     OW56831   7.111   8.447   5.776
18291SOL    HW156832   7.048   8.371   5.789
18291SOL    HW256833   7.159   8.465   5.862
18292SOL     OW56834   5.903   7.699   7.387
18292SOL    HW156835   5.974   7.770   7.393
18292SOL    HW256836   5.815   7.738   7.415
18293SOL     OW56837   7.052   8.865   6.539
18293SOL    HW156838   6.993   8.871   6.619
18293SOL    HW256839   7.037   8.777   6.493
18294SOL     OW56840   6.184   8.177   5.856
18294SOL    HW156841   6.208   8.246   5.788
18294SOL    HW256842   6.106   8.210   5.910
18295SOL     OW56843   6.867   7.793   6.530
18295SOL    HW156844   6.781   7.743   6.517
18295SOL    HW256845   6.929   7.739   6.586
18296SOL     OW56846   6.393   8.053   7.051
18296SOL    HW156847   6.346   8.050   7.140
18296SOL    HW256848   6.342   7.998   6.985
18297SOL     OW56849   6.980   7.917   7.260
18297SOL    HW156850   6.960   7.960   7.348
18297SOL    HW256851   7.058   7.855   7.269
18298SOL     OW56852   6.559   8.338   7.158
18298SOL    HW156853   6.605   8.254   7.129
18298SOL    HW256854   6.503   8.372   7.083
18299SOL     OW56855   6.577   7.858   6.828
18299SOL    HW156856   6.500   7.892   6.882
18299SOL    HW256857   6.543   7.807   6.749
18300SOL     OW56858   6.627   8.149   6.015
18300SOL    HW156859   6.653   8.145   6.111
18300SOL    HW256860   6.542   8.098   6.001
18301SOL     OW56861   5.662   8.259   6.375
18301SOL    HW156862   5.761   8.247   6.384
18301SOL    HW256863   5.638   8.354   6.396
18302SOL     OW56864   6.451   7.796   5.781
18302SOL    HW156865   6.510   7.859   5.732
18302SOL    HW256866   6.470   7.702   5.752
18303SOL     OW56867   7.305   8.033   7.417
18303SOL    HW156868   7.279   8.122   7.381
18303SOL    HW256869   7.303   7.965   7.344
18304SOL     OW56870   6.948   8.592   6.131
18304SOL    HW156871   7.031   8.563   6.083
18304SOL    HW256872   6.899   8.659   6.075
18305SOL     OW56873   6.136   7.644   6.471
18305SOL    HW156874   6.131   7.639   6.571
18305SOL    HW256875   6.138   7.740   6.442
18306SOL     OW56876   6.594   8.904   6.063
18306SOL    HW156877   6.548   8.976   6.011
18306SOL    HW256878   6.590   8.924   6.161
18307SOL     OW56879   7.381   8.514   6.459
18307SOL    HW156880   7.319   8.499   6.383
18307SOL    HW256881   7.329   8.525   6.544
18308SOL     OW56882   6.813   8.998   7.092
18308SOL    HW156883   6.819   8.921   7.156
18308SOL    HW256884   6.761   8.972   7.012
18309SOL     OW56885   5.907   8.391   5.828
18309SOL    HW156886   5.989   8.430   5.786
18309SOL    HW256887   5.880   8.309   5.779
18310SOL     OW56888   7.044   8.183   6.314
18310SOL    HW156889   7.039   8.118   6.389
18310SOL    HW256890   7.124   8.242   6.327
18311SOL     OW56891   6.047   8.714   7.313
18311SOL    HW156892   5.997   8.715   7.227
18311SOL    HW256893   5.984   8.696   7.389
18312SOL     OW56894   6.697   0.224   5.823
18312SOL    HW156895   6.637   0.162   5.873
18312SOL    HW256896   6.728   0.180   5.738
18313SOL     OW56897   5.788   7.733   7.084
18313SOL    HW156898   5.708   7.793   7.071
18313SOL    HW256899   5.778   7.684   7.170
18314SOL     OW56900   7.218   8.825   5.667
18314SOL    HW156901   7.186   8.919   5.657
18314SOL    HW256902   7.142   8.762   5.655
18315SOL     OW56903   6.986   7.555   6.012
18315SOL    HW156904   6.962   7.518   5.922
18315SOL    HW256905   7.085   7.571   6.016
18316SOL     OW56906   5.968   8.148   6.066
18316SOL    HW156907   6.013   8.058   6.063
18316SOL    HW256908   5.874   8.137   6.099
18317SOL     OW56909   7.133   7.670   7.315
18317SOL    HW156910   7.128   7.707   7.407
18317SOL    HW256911   7.061   7.601   7.303
18318SOL     OW56912   6.200   7.570   5.703
18318SOL    HW156913   6.298   7.548   5.710
18318SOL    HW256914   6.169   7.553   5.610
18319SOL     OW56915   6.367   7.712   7.335
18319SOL    HW156916   6.434   7.651   7.378
18319SOL    HW256917   6.294   7.731   7.400
18320SOL     OW56918   6.937   8.038   7.019
18320SOL    HW156919   6.965   7.995   7.104
18320SOL    HW256920   6.962   8.134   7.020
18321SOL     OW56921   6.389   8.850   6.510
18321SOL    HW156922   6.479   8.864   6.468
18321SOL    HW256923   6.318   8.852   6.439
18322SOL     OW56924   6.508   7.951   6.485
18322SOL    HW156925   6.483   7.942   6.389
18322SOL    HW256926   6.556   7.869   6.516
18323SOL     OW56927   6.125   7.512   6.098
18323SOL    HW156928   6.044   7.513   6.156
18323SOL    HW256929   6.128   7.595   6.043
18324SOL     OW56930   7.020   8.636   5.627
18324SOL    HW156931   7.052   8.560   5.684
18324SOL    HW256932   6.928   8.663   5.657
18325SOL     OW56933   5.883   7.483   5.757
18325SOL    HW156934   5.932   7.567   5.736
18325SOL    HW256935   5.945   7.418   5.802
18326SOL     OW56936   6.521   7.684   6.066
18326SOL    HW156937   6.473   7.725   5.988
18326SOL    HW256938   6.620   7.682   6.047
18327SOL     OW56939   6.662   8.131   7.050
18327SOL    HW156940   6.582   8.070   7.053
18327SOL    HW256941   6.743   8.078   7.026
18328SOL     OW56942   6.813   0.018   6.379
18328SOL    HW156943   6.834   0.092   6.314
18328SOL    HW256944   6.881   0.018   6.452
18329SOL     OW56945   6.045   8.600   6.327
18329SOL    HW156946   5.974   8.573   6.392
18329SOL    HW256947   6.019   8.572   6.234
18330SOL     OW56948   6.618   7.997   5.602
18330SOL    HW156949   6.577   8.079   5.563
18330SOL    HW256950   6.682   8.023   5.675
18331SOL     OW56951   5.664   8.004   6.972
18331SOL    HW156952   5.756   8.003   6.931
18331SOL    HW256953   5.658   8.078   7.039
18332SOL     OW56954   6.147   7.670   6.733
18332SOL    HW156955   6.185   7.586   6.770
18332SOL    HW256956   6.059   7.689   6.777
18333SOL     OW56957   6.452   7.902   6.228
18333SOL    HW156958   6.420   7.974   6.166
18333SOL    HW256959   6.476   7.821   6.175
18334SOL     OW56960   6.603   7.487   6.339
18334SOL    HW156961   6.531   7.492   6.270
18334SOL    HW256962   6.579   7.418   6.408
18335SOL     OW56963   7.015   8.621   6.453
18335SOL    HW156964   6.960   8.537   6.446
18335SOL    HW256965   7.041   8.650   6.361
18336SOL     OW56966   7.052   8.038   6.578
18336SOL    HW156967   7.022   7.943   6.585
18336SOL    HW256968   7.125   8.054   6.644
18337SOL     OW56969   7.443   8.281   5.963
18337SOL    HW156970   7.485   8.217   6.027
18337SOL    HW256971   7.405   8.230   5.885
18338SOL     OW56972   6.074   8.833   5.760
18338SOL    HW156973   5.987   8.818   5.807
18338SOL    HW256974   6.057   8.859   5.665
18339SOL     OW56975   7.250   8.728   6.243
18339SOL    HW156976   7.349   8.736   6.257
18339SOL    HW256977   7.205   8.812   6.274
18340SOL     OW56978   6.976   8.023   5.664
18340SOL    HW156979   6.922   8.002   5.745
18340SOL    HW256980   7.067   7.982   5.673
18341SOL     OW56981   6.113   7.704   5.914
18341SOL    HW156982   6.140   7.645   5.839
18341SOL    HW256983   6.113   7.799   5.883
18342SOL     OW56984   7.340   8.671   7.174
18342SOL    HW156985   7.431   8.632   7.161
18342SOL    HW256986   7.348   8.767   7.198
18343SOL     OW56987   6.650   8.795   6.926
18343SOL    HW156988   6.570   8.772   6.981
18343SOL    HW256989   6.733   8.769   6.975
18344SOL     OW56990   6.697   8.643   6.686
18344SOL    HW156991   6.657   8.687   6.767
18344SOL    HW256992   6.656   8.680   6.603
18345SOL     OW56993   7.224   8.547   6.665
18345SOL    HW156994   7.229   8.628   6.724
18345SOL    HW256995   7.138   8.549   6.614
18346SOL     OW56996   6.501   7.537   6.988
18346SOL    HW156997   6.526   7.517   6.893
18346SOL    HW256998   6.573   7.593   7.030
18347SOL     OW56999   6.566   8.564   7.305
18347SOL    HW157000   6.467   8.570   7.315
18347SOL    HW257001   6.589   8.484   7.249
18348SOL     OW57002   6.291   8.498   5.954
18348SOL    HW157003   6.277   8.505   6.053
18348SOL    HW257004   6.375   8.447   5.936
18349SOL     OW57005   5.996   8.261   6.837
18349SOL    HW157006   6.082   8.273   6.887
18349SOL    HW257007   5.954   8.174   6.864
18350SOL     OW57008   6.860   7.834   6.848
18350SOL    HW157009   6.881   7.908   6.912
18350SOL    HW257010   6.771   7.851   6.805
18351SOL     OW57011   5.953   8.548   6.087
18351SOL    HW157012   5.946   8.631   6.031
18351SOL    HW257013   5.957   8.468   6.027
18352SOL     OW57014   6.152   7.985   6.451
18352SOL    HW157015   6.164   8.051   6.377
18352SOL    HW257016   6.198   8.019   6.534
18353SOL     OW57017   6.838   8.796   5.974
18353SOL    HW157018   6.888   8.873   6.014
18353SOL    HW257019   6.743   8.798   6.006
18354SOL     OW57020   6.858   8.893   6.728
18354SOL    HW157021   6.905   8.906   6.815
18354SOL    HW257022   6.792   8.819   6.737
18355SOL     OW57023   7.168   8.087   6.058
18355SOL    HW157024   7.137   8.148   6.131
18355SOL    HW257025   7.218   8.139   5.989
18356SOL     OW57026   5.940   8.958   6.915
18356SOL    HW157027   5.919   8.914   6.828
18356SOL    HW257028   6.037   8.984   6.918
18357SOL     OW57029   5.988   8.199   7.184
18357SOL    HW157030   6.056   8.254   7.137
18357SOL    HW257031   6.028   8.111   7.211
18358SOL     OW57032   7.173   8.227   7.256
18358SOL    HW157033   7.081   8.265   7.251
18358SOL    HW257034   7.233   8.274   7.191
18359SOL     OW57035   6.599   7.553   7.356
18359SOL    HW157036   6.605   7.638   7.304
18359SOL    HW257037   6.631   7.477   7.299
18360SOL     OW57038   6.090   7.498   7.326
18360SOL    HW157039   6.048   7.441   7.256
18360SOL    HW257040   6.024   7.567   7.358
18361SOL     OW57041   6.159   8.318   6.615
18361SOL    HW157042   6.203   8.407   6.606
18361SOL    HW257043   6.096   8.318   6.692
18362SOL     OW57044   6.946   8.310   6.631
18362SOL    HW157045   6.871   8.310   6.565
18362SOL    HW257046   6.983   8.218   6.640
18363SOL     OW57047   6.795   7.973   5.861
18363SOL    HW157048   6.808   7.889   5.915
18363SOL    HW257049   6.766   8.047   5.921
18364SOL     OW57050   5.893   7.661   6.817
18364SOL    HW157051   5.870   7.698   6.907
18364SOL    HW257052   5.863   7.566   6.811
18365SOL     OW57053   5.623   8.758   6.868
18365SOL    HW157054   5.676   8.709   6.936
18365SOL    HW257055   5.645   8.856   6.873
18366SOL     OW57056   6.318   8.082   6.650
18366SOL    HW157057   6.377   8.056   6.574
18366SOL    HW257058   6.290   8.178   6.639
18367SOL     OW57059   7.314   8.383   7.440
18367SOL    HW157060   7.268   8.376   7.351
18367SOL    HW257061   7.252   8.427   7.506
18368SOL     OW57062   5.893   7.511   6.204
18368SOL    HW157063   5.882   7.605   6.237
18368SOL    HW257064   5.888   7.448   6.281
18369SOL     OW57065   7.208   7.815   5.960
18369SOL    HW157066   7.210   7.739   6.024
18369SOL    HW257067   7.160   7.892   6.000
18370SOL     OW57068   6.609   8.214   6.552
18370SOL    HW157069   6.624   8.235   6.648
18370SOL    HW257070   6.579   8.119   6.543
18371SOL     OW57071   7.445   8.966   7.191
18371SOL    HW157072   7.459   8.993   7.096
18371SOL    HW257073   7.528   8.988   7.244
18372SOL     OW57074   5.936   8.346   7.390
18372SOL    HW157075   6.012   8.390   7.438
18372SOL    HW257076   5.971   8.299   7.308
18373SOL     OW57077   7.126   7.722   5.711
18373SOL    HW157078   7.065   7.647   5.734
18373SOL    HW257079   7.148   7.774   5.794
18374SOL     OW57080   6.889   8.286   5.628
18374SOL    HW157081   6.923   8.193   5.643
18374SOL    HW257082   6.907   8.313   5.533
18375SOL     OW57083   6.654   8.781   6.435
18375SOL    HW157084   6.661   8.697   6.380
18375SOL    HW257085   6.716   8.850   6.399
18376SOL     OW57086   5.905   8.258   6.535
18376SOL    HW157087   5.998   8.294   6.540
18376SOL    HW257088   5.899   8.173   6.587
18377SOL     OW57089   5.925   7.957   6.592
18377SOL    HW157090   5.873   7.874   6.575
18377SOL    HW257091   6.002   7.962   6.528
18378SOL     OW57092   6.097   7.863   7.394
18378SOL    HW157093   6.079   7.908   7.482
18378SOL    HW257094   6.139   7.928   7.331
18379SOL     OW57095   6.724   7.828   7.264
18379SOL    HW157096   6.679   7.891   7.328
18379SOL    HW257097   6.817   7.859   7.247
18380SOL     OW57098   6.746   7.655   7.063
18380SOL    HW157099   6.746   7.719   7.140
18380SOL    HW257100   6.774   7.703   6.980
18381SOL     OW57101   5.594   8.774   5.786
18381SOL    HW157102   5.501   8.795   5.755
18381SOL    HW257103   5.604   8.675   5.799
18382SOL     OW57104   6.588   8.244   6.824
18382SOL    HW157105   6.629   8.212   6.910
18382SOL    HW257106   6.492   8.217   6.821
18383SOL     OW57107   5.626   7.992   6.700
18383SOL    HW157108   5.711   7.959   6.659
18383SOL    HW257109   5.639   8.007   6.798
18384SOL     OW57110   5.775   7.968   7.308
18384SOL    HW157111   5.834   7.928   7.238
18384SOL    HW257112   5.717   8.039   7.267
18385SOL     OW57113   6.955   8.398   7.246
18385SOL    HW157114   6.994   8.487   7.266
18385SOL    HW257115   6.965   8.378   7.149
18386SOL     OW57116   6.401   8.020   5.911
18386SOL    HW157117   6.408   7.931   5.865
18386SOL    HW257118   6.307   8.054   5.903
18387SOL     OW57119   7.243   8.052   6.792
18387SOL    HW157120   7.205   7.983   6.854
18387SOL    HW257121   7.325   8.016   6.748
18388SOL     OW57122   5.838   0.012   7.330
18388SOL    HW157123   5.808   0.069   7.406
18388SOL    HW257124   5.831  -0.085   7.356
18389SOL     OW57125   6.257   7.912   6.855
18389SOL    HW157126   6.223   7.823   6.825
18389SOL    HW257127   6.283   7.966   6.775
18390SOL     OW57128   6.059   7.948   5.777
18390SOL    HW157129   6.120   8.028   5.781
18390SOL    HW257130   5.964   7.979   5.784
18391SOL     OW57131   5.745   8.585   7.052
18391SOL    HW157132   5.767   8.524   7.128
18391SOL    HW257133   5.755   8.536   6.966
18392SOL     OW57134   6.933   8.507   6.820
18392SOL    HW157135   6.957   8.444   6.746
18392SOL    HW257136   6.843   8.547   6.802
18393SOL     OW57137   6.888   8.303   5.895
18393SOL    HW157138   6.802   8.272   5.937
18393SOL    HW257139   6.884   8.289   5.796
18394SOL     OW57140   5.669   8.706   6.608
18394SOL    HW157141   5.664   8.705   6.708
18394SOL    HW257142   5.586   8.665   6.570
18395SOL     OW57143   6.489   7.534   5.719
18395SOL    HW157144   6.540   7.535   5.633
18395SOL    HW257145   6.545   7.492   5.790
18396SOL     OW57146   7.312   7.583   6.109
18396SOL    HW157147   7.385   7.566   6.042
18396SOL    HW257148   7.281   7.496   6.147
18397SOL     OW57149   6.866   8.375   6.258
18397SOL    HW157150   6.926   8.294   6.260
18397SOL    HW257151   6.906   8.444   6.198
18398SOL     OW57152   6.416   8.721   7.008
18398SOL    HW157153   6.411   8.754   7.103
18398SOL    HW257154   6.330   8.740   6.962
18399SOL     OW57155   7.427   7.623   6.549
18399SOL    HW157156   7.466   7.538   6.513
18399SOL    HW257157   7.329   7.625   6.530
18400SOL     OW57158   5.849   7.774   6.306
18400SOL    HW157159   5.770   7.825   6.272
18400SOL    HW257160   5.840   7.759   6.404
18401SOL     OW57161   6.408   8.450   6.958
18401SOL    HW157162   6.448   8.449   6.866
18401SOL    HW257163   6.418   8.542   6.998
18402SOL     OW57164   6.502   8.358   5.877
18402SOL    HW157165   6.565   8.396   5.809
18402SOL    HW257166   6.542   8.275   5.916
18403SOL     OW57167   5.958   8.736   7.076
18403SOL    HW157168   5.945   8.829   7.042
18403SOL    HW257169   5.874   8.684   7.063
18404SOL     OW57170   7.200   8.740   6.875
18404SOL    HW157171   7.260   8.743   6.955
18404SOL    HW257172   7.125   8.804   6.888
18405SOL     OW57173   6.625   8.546   6.282
18405SOL    HW157174   6.555   8.499   6.336
18405SOL    HW257175   6.684   8.478   6.239
18406SOL     OW57176   6.600   7.684   6.557
18406SOL    HW157177   6.592   7.648   6.464
18406SOL    HW257178   6.598   7.608   6.622
18407SOL     OW57179   7.295   7.833   6.967
18407SOL    HW157180   7.368   7.902   6.971
18407SOL    HW257181   7.323   7.758   6.908
18408SOL     OW57182   5.841   8.796   5.876
18408SOL    HW157183   5.745   8.797   5.849
18408SOL    HW257184   5.853   8.849   5.960
18409SOL     OW57185   5.691   8.461   7.312
18409SOL    HW157186   5.614   8.428   7.366
18409SOL    HW257187   5.776   8.431   7.354
18410SOL     OW57188   6.258   7.651   7.075
18410SOL    HW157189   6.348   7.635   7.035
18410SOL    HW257190   6.266   7.656   7.174
18411SOL     OW57191   5.661   7.793   5.619
18411SOL    HW157192   5.569   7.765   5.590
18411SOL    HW257193   5.692   7.870   5.563
18412SOL     OW57194   7.026   8.304   6.984
18412SOL    HW157195   6.969   8.356   6.921
18412SOL    HW257196   7.122   8.316   6.960
18413SOL     OW57197   5.658   7.614   5.904
18413SOL    HW157198   5.641   7.697   5.850
18413SOL    HW257199   5.748   7.577   5.882
18414SOL     OW57200   6.769   8.783   5.705
18414SOL    HW157201   6.670   8.772   5.707
18414SOL    HW257202   6.803   8.798   5.798
18415SOL     OW57203   6.199   8.290   7.017
18415SOL    HW157204   6.255   8.371   7.000
18415SOL    HW257205   6.258   8.210   7.020
18416SOL     OW57206   6.302   8.013   7.294
18416SOL    HW157207   6.321   8.078   7.368
18416SOL    HW257208   6.362   7.933   7.303
18417SOL     OW57209   7.036   8.668   7.219
18417SOL    HW157210   7.027   8.658   7.318
18417SOL    HW257211   7.132   8.661   7.193
18418SOL     OW57212   7.260   8.331   6.840
18418SOL    HW157213   7.233   8.242   6.803
18418SOL    HW257214   7.261   8.399   6.767
18419SOL     OW57215   6.811   7.773   6.035
18419SOL    HW157216   6.876   7.699   6.024
18419SOL    HW257217   6.831   7.823   6.119
18420SOL     OW57218   6.180   8.193   6.238
18420SOL    HW157219   6.230   8.278   6.219
18420SOL    HW257220   6.092   8.195   6.190
18421SOL     OW57221   7.363   7.790   7.228
18421SOL    HW157222   7.346   7.821   7.134
18421SOL    HW257223   7.279   7.753   7.266
18422SOL     OW57224   7.316   8.382   7.103
18422SOL    HW157225   7.354   8.473   7.118
18422SOL    HW257226   7.308   8.365   7.004
18423SOL     OW57227   6.445   8.822   5.602
18423SOL    HW157228   6.399   8.837   5.690
18423SOL    HW257229   6.489   8.907   5.572
18424SOL     OW57230   6.445   8.404   6.447
18424SOL    HW157231   6.499   8.335   6.495
18424SOL    HW257232   6.413   8.473   6.513
18425SOL     OW57233   6.669   8.432   5.673
18425SOL    HW157234   6.646   8.485   5.591
18425SOL    HW257235   6.750   8.376   5.654
18426SOL     OW57236   5.807   8.762   7.430
18426SOL    HW157237   5.742   8.689   7.409
18426SOL    HW257238   5.811   8.776   7.528
18427SOL     OW57239   5.665   8.688   6.239
18427SOL    HW157240   5.664   8.641   6.327
18427SOL    HW257241   5.747   8.660   6.188
18428SOL     OW57242   6.258   8.839   7.210
18428SOL    HW157243   6.180   8.789   7.248
18428SOL    HW257244   6.255   8.934   7.241
18429SOL     OW57245   7.410   7.640   6.813
18429SOL    HW157246   7.406   7.550   6.857
18429SOL    HW257247   7.413   7.629   6.714
18430SOL     OW57248   6.014   7.872   6.106
18430SOL    HW157249   6.044   7.800   6.044
18430SOL    HW257250   5.975   7.832   6.189
18431SOL     OW57251   7.291   8.935   6.690
18431SOL    HW157252   7.198   8.910   6.663
18431SOL    HW257253   7.317   8.885   6.772
18432SOL     OW57254   5.903   7.995   6.866
18432SOL    HW157255   5.941   7.936   6.938
18432SOL    HW257256   5.943   7.969   6.778
18433SOL     OW57257   7.010   7.662   6.698
18433SOL    HW157258   7.062   7.597   6.753
18433SOL    HW257259   6.961   7.725   6.759
18434SOL     OW57260   6.587   7.482   6.740
18434SOL    HW157261   6.524   7.410   6.709
18434SOL    HW257262   6.680   7.446   6.740
18435SOL     OW57263   6.356   8.778   5.887
18435SOL    HW157264   6.310   8.691   5.904
18435SOL    HW257265   6.447   8.775   5.928
18436SOL     OW57266   6.204   0.015   6.870
18436SOL    HW157267   6.199   0.097   6.927
18436SOL    HW257268   6.293   0.012   6.825
18437SOL     OW57269   6.938   7.500   5.754
18437SOL    HW157270   6.973   7.459   5.670
18437SOL    HW257271   6.848   7.462   5.774
18438SOL     OW57272   6.886   7.901   6.277
18438SOL    HW157273   6.827   7.981   6.281
18438SOL    HW257274   6.901   7.866   6.370
18439SOL     OW57275   7.179   7.669   6.468
18439SOL    HW157276   7.095   7.668   6.522
18439SOL    HW257277   7.181   7.752   6.412
18440SOL     OW57278   5.625   8.525   5.886
18440SOL    HW157279   5.724   8.514   5.877
18440SOL    HW257280   5.585   8.439   5.918
18441SOL     OW57281   5.816   8.076   7.561
18441SOL    HW157282   5.723   8.074   7.598
18441SOL    HW257283   5.817   8.037   7.469
18442SOL     OW57284   5.811   7.723   8.444
18442SOL    HW157285   5.846   7.706   8.536
18442SOL    HW257286   5.723   7.678   8.432
18443SOL     OW57287   5.605   7.816   8.095
18443SOL    HW157288   5.523   7.859   8.134
18443SOL    HW257289   5.577   7.743   8.032
18444SOL     OW57290   6.155   8.723   8.613
18444SOL    HW157291   6.062   8.716   8.576
18444SOL    HW257292   6.166   8.812   8.657
18445SOL     OW57293   7.141   8.959   8.151
18445SOL    HW157294   7.084   8.943   8.232
18445SOL    HW257295   7.082   8.969   8.071
18446SOL     OW57296   7.329   8.066   8.304
18446SOL    HW157297   7.362   8.160   8.304
18446SOL    HW257298   7.380   8.012   8.370
18447SOL     OW57299   6.721   8.151   8.165
18447SOL    HW157300   6.778   8.229   8.140
18447SOL    HW257301   6.661   8.177   8.241
18448SOL     OW57302   7.341   8.055   7.679
18448SOL    HW157303   7.329   8.042   7.580
18448SOL    HW257304   7.311   7.974   7.728
18449SOL     OW57305   6.354   8.592   8.471
18449SOL    HW157306   6.276   8.609   8.531
18449SOL    HW257307   6.388   8.679   8.435
18450SOL     OW57308   6.271   8.460   8.113
18450SOL    HW157309   6.340   8.444   8.183
18450SOL    HW257310   6.198   8.517   8.151
18451SOL     OW57311   5.921   8.883   8.509
18451SOL    HW157312   5.843   8.852   8.456
18451SOL    HW257313   5.979   8.941   8.452
18452SOL     OW57314   7.046   8.953   8.787
18452SOL    HW157315   7.070   9.047   8.813
18452SOL    HW257316   7.030   8.899   8.869
18453SOL     OW57317   6.024   7.840   8.947
18453SOL    HW157318   6.106   7.784   8.956
18453SOL    HW257319   5.943   7.782   8.951
18454SOL     OW57320   7.189   7.895   8.185
18454SOL    HW157321   7.115   7.941   8.135
18454SOL    HW257322   7.240   7.963   8.238
18455SOL     OW57323   5.817   0.161   7.931
18455SOL    HW157324   5.851   0.238   7.985
18455SOL    HW257325   5.861   0.161   7.841
18456SOL     OW57326   5.816   8.882   7.986
18456SOL    HW157327   5.790   8.978   7.986
18456SOL    HW257328   5.745   8.828   8.031
18457SOL     OW57329   5.826   8.539   8.334
18457SOL    HW157330   5.840   8.455   8.386
18457SOL    HW257331   5.771   8.603   8.389
18458SOL     OW57332   6.192   8.412   7.571
18458SOL    HW157333   6.199   8.496   7.517
18458SOL    HW257334   6.238   8.425   7.659
18459SOL     OW57335   7.180   7.562   8.928
18459SOL    HW157336   7.162   7.629   8.856
18459SOL    HW257337   7.177   7.608   9.017
18460SOL     OW57338   5.708   8.091   8.011
18460SOL    HW157339   5.663   8.003   8.028
18460SOL    HW257340   5.707   8.145   8.095
18461SOL     OW57341   5.613   0.044   7.565
18461SOL    HW157342   5.594  -0.052   7.586
18461SOL    HW257343   5.580   0.102   7.640
18462SOL     OW57344   7.275   8.370   8.060
18462SOL    HW157345   7.370   8.341   8.068
18462SOL    HW257346   7.267   8.435   7.985
18463SOL     OW57347   7.227   8.556   7.880
18463SOL    HW157348   7.313   8.558   7.828
18463SOL    HW257349   7.241   8.603   7.968
18464SOL     OW57350   6.199   8.813   8.174
18464SOL    HW157351   6.150   8.726   8.183
18464SOL    HW257352   6.176   8.856   8.087
18465SOL     OW57353   6.395   7.452   7.950
18465SOL    HW157354   6.435   7.543   7.941
18465SOL    HW257355   6.295   7.460   7.956
18466SOL     OW57356   5.783   8.424   8.712
18466SOL    HW157357   5.872   8.379   8.698
18466SOL    HW257358   5.710   8.359   8.693
18467SOL     OW57359   7.111   8.447   7.638
18467SOL    HW157360   7.048   8.371   7.651
18467SOL    HW257361   7.159   8.465   7.724
18468SOL     OW57362   7.052   8.865   8.401
18468SOL    HW157363   6.993   8.871   8.481
18468SOL    HW257364   7.037   8.777   8.355
18469SOL     OW57365   6.184   8.177   7.718
18469SOL    HW157366   6.208   8.246   7.650
18469SOL    HW257367   6.106   8.210   7.772
18470SOL     OW57368   6.867   7.793   8.392
18470SOL    HW157369   6.781   7.743   8.379
18470SOL    HW257370   6.929   7.739   8.448
18471SOL     OW57371   6.393   8.053   8.913
18471SOL    HW157372   6.346   8.050   9.002
18471SOL    HW257373   6.342   7.998   8.847
18472SOL     OW57374   6.577   7.858   8.690
18472SOL    HW157375   6.500   7.892   8.744
18472SOL    HW257376   6.543   7.807   8.611
18473SOL     OW57377   6.627   8.149   7.877
18473SOL    HW157378   6.653   8.145   7.973
18473SOL    HW257379   6.542   8.098   7.863
18474SOL     OW57380   5.662   8.259   8.237
18474SOL    HW157381   5.761   8.247   8.246
18474SOL    HW257382   5.638   8.354   8.258
18475SOL     OW57383   6.451   7.796   7.643
18475SOL    HW157384   6.510   7.859   7.594
18475SOL    HW257385   6.470   7.702   7.614
18476SOL     OW57386   6.948   8.592   7.993
18476SOL    HW157387   7.031   8.563   7.945
18476SOL    HW257388   6.899   8.659   7.937
18477SOL     OW57389   6.136   7.644   8.333
18477SOL    HW157390   6.131   7.639   8.433
18477SOL    HW257391   6.138   7.740   8.304
18478SOL     OW57392   6.594   8.904   7.925
18478SOL    HW157393   6.548   8.976   7.873
18478SOL    HW257394   6.590   8.924   8.023
18479SOL     OW57395   7.381   8.514   8.321
18479SOL    HW157396   7.319   8.499   8.245
18479SOL    HW257397   7.329   8.525   8.406
18480SOL     OW57398   6.813   8.998   8.954
18480SOL    HW157399   6.819   8.921   9.018
18480SOL    HW257400   6.761   8.972   8.874
18481SOL     OW57401   5.907   8.391   7.690
18481SOL    HW157402   5.989   8.430   7.648
18481SOL    HW257403   5.880   8.309   7.641
18482SOL     OW57404   7.044   8.183   8.176
18482SOL    HW157405   7.039   8.118   8.251
18482SOL    HW257406   7.124   8.242   8.189
18483SOL     OW57407   6.697   0.224   7.685
18483SOL    HW157408   6.637   0.162   7.735
18483SOL    HW257409   6.728   0.180   7.600
18484SOL     OW57410   5.788   7.733   8.946
18484SOL    HW157411   5.708   7.793   8.933
18484SOL    HW257412   5.778   7.684   9.032
18485SOL     OW57413   7.218   8.825   7.529
18485SOL    HW157414   7.186   8.919   7.519
18485SOL    HW257415   7.142   8.762   7.517
18486SOL     OW57416   6.986   7.555   7.874
18486SOL    HW157417   6.962   7.518   7.784
18486SOL    HW257418   7.085   7.571   7.878
18487SOL     OW57419   5.968   8.148   7.928
18487SOL    HW157420   6.013   8.058   7.925
18487SOL    HW257421   5.874   8.137   7.961
18488SOL     OW57422   6.200   7.570   7.565
18488SOL    HW157423   6.298   7.548   7.572
18488SOL    HW257424   6.169   7.553   7.472
18489SOL     OW57425   6.389   8.850   8.372
18489SOL    HW157426   6.479   8.864   8.330
18489SOL    HW257427   6.318   8.852   8.301
18490SOL     OW57428   6.508   7.951   8.347
18490SOL    HW157429   6.483   7.942   8.251
18490SOL    HW257430   6.556   7.869   8.378
18491SOL     OW57431   6.125   7.512   7.960
18491SOL    HW157432   6.044   7.513   8.018
18491SOL    HW257433   6.128   7.595   7.905
18492SOL     OW57434   7.020   8.636   7.489
18492SOL    HW157435   7.052   8.560   7.546
18492SOL    HW257436   6.928   8.663   7.519
18493SOL     OW57437   5.883   7.483   7.619
18493SOL    HW157438   5.932   7.567   7.598
18493SOL    HW257439   5.945   7.418   7.664
18494SOL     OW57440   6.521   7.684   7.928
18494SOL    HW157441   6.473   7.725   7.850
18494SOL    HW257442   6.620   7.682   7.909
18495SOL     OW57443   6.813   0.018   8.241
18495SOL    HW157444   6.834   0.092   8.176
18495SOL    HW257445   6.881   0.018   8.314
18496SOL     OW57446   6.045   8.600   8.189
18496SOL    HW157447   5.974   8.573   8.254
18496SOL    HW257448   6.019   8.572   8.096
18497SOL     OW57449   6.618   7.997   7.464
18497SOL    HW157450   6.577   8.079   7.425
18497SOL    HW257451   6.682   8.023   7.537
18498SOL     OW57452   5.664   8.004   8.834
18498SOL    HW157453   5.756   8.003   8.793
18498SOL    HW257454   5.658   8.078   8.901
18499SOL     OW57455   6.147   7.670   8.595
18499SOL    HW157456   6.185   7.586   8.632
18499SOL    HW257457   6.059   7.689   8.639
18500SOL     OW57458   6.452   7.902   8.090
18500SOL    HW157459   6.420   7.974   8.028
18500SOL    HW257460   6.476   7.821   8.037
18501SOL     OW57461   6.603   7.487   8.201
18501SOL    HW157462   6.531   7.492   8.132
18501SOL    HW257463   6.579   7.418   8.270
18502SOL     OW57464   7.015   8.621   8.315
18502SOL    HW157465   6.960   8.537   8.308
18502SOL    HW257466   7.041   8.650   8.223
18503SOL     OW57467   7.052   8.038   8.440
18503SOL    HW157468   7.022   7.943   8.447
18503SOL    HW257469   7.125   8.054   8.506
18504SOL     OW57470   7.443   8.281   7.825
18504SOL    HW157471   7.485   8.217   7.889
18504SOL    HW257472   7.405   8.230   7.747
18505SOL     OW57473   6.074   8.833   7.622
18505SOL    HW157474   5.987   8.818   7.669
18505SOL    HW257475   6.057   8.859   7.527
18506SOL     OW57476   7.250   8.728   8.105
18506SOL    HW157477   7.349   8.736   8.119
18506SOL    HW257478   7.205   8.812   8.136
18507SOL     OW57479   6.976   8.023   7.526
18507SOL    HW157480   6.922   8.002   7.607
18507SOL    HW257481   7.067   7.982   7.535
18508SOL     OW57482   6.113   7.704   7.776
18508SOL    HW157483   6.140   7.645   7.701
18508SOL    HW257484   6.113   7.799   7.745
18509SOL     OW57485   6.650   8.795   8.788
18509SOL    HW157486   6.570   8.772   8.843
18509SOL    HW257487   6.733   8.769   8.837
18510SOL     OW57488   6.697   8.643   8.548
18510SOL    HW157489   6.657   8.687   8.629
18510SOL    HW257490   6.656   8.680   8.465
18511SOL     OW57491   7.224   8.547   8.527
18511SOL    HW157492   7.229   8.628   8.586
18511SOL    HW257493   7.138   8.549   8.476
18512SOL     OW57494   6.501   7.537   8.850
18512SOL    HW157495   6.526   7.517   8.755
18512SOL    HW257496   6.573   7.593   8.892
18513SOL     OW57497   6.291   8.498   7.816
18513SOL    HW157498   6.277   8.505   7.915
18513SOL    HW257499   6.375   8.447   7.798
18514SOL     OW57500   5.996   8.261   8.699
18514SOL    HW157501   6.082   8.273   8.749
18514SOL    HW257502   5.954   8.174   8.726
18515SOL     OW57503   6.860   7.834   8.710
18515SOL    HW157504   6.881   7.908   8.774
18515SOL    HW257505   6.771   7.851   8.667
18516SOL     OW57506   5.953   8.548   7.949
18516SOL    HW157507   5.946   8.631   7.893
18516SOL    HW257508   5.957   8.468   7.889
18517SOL     OW57509   6.152   7.985   8.313
18517SOL    HW157510   6.164   8.051   8.239
18517SOL    HW257511   6.198   8.019   8.396
18518SOL     OW57512   6.838   8.796   7.836
18518SOL    HW157513   6.888   8.873   7.876
18518SOL    HW257514   6.743   8.798   7.868
18519SOL     OW57515   6.858   8.893   8.590
18519SOL    HW157516   6.905   8.906   8.677
18519SOL    HW257517   6.792   8.819   8.599
18520SOL     OW57518   7.168   8.087   7.920
18520SOL    HW157519   7.137   8.148   7.993
18520SOL    HW257520   7.218   8.139   7.851
18521SOL     OW57521   5.940   8.958   8.777
18521SOL    HW157522   5.919   8.914   8.690
18521SOL    HW257523   6.037   8.984   8.780
18522SOL     OW57524   5.988   8.199   0.046
18522SOL    HW157525   6.056   8.254  -0.001
18522SOL    HW257526   6.028   8.111   0.073
18523SOL     OW57527   7.173   8.227   0.118
18523SOL    HW157528   7.081   8.265   0.113
18523SOL    HW257529   7.233   8.274   0.053
18524SOL     OW57530   6.159   8.318   8.477
18524SOL    HW157531   6.203   8.407   8.468
18524SOL    HW257532   6.096   8.318   8.554
18525SOL     OW57533   6.946   8.310   8.493
18525SOL    HW157534   6.871   8.310   8.427
18525SOL    HW257535   6.983   8.218   8.502
18526SOL     OW57536   6.795   7.973   7.723
18526SOL    HW157537   6.808   7.889   7.777
18526SOL    HW257538   6.766   8.047   7.783
18527SOL     OW57539   5.893   7.661   8.679
18527SOL    HW157540   5.870   7.698   8.769
18527SOL    HW257541   5.863   7.566   8.673
18528SOL     OW57542   5.623   8.758   8.730
18528SOL    HW157543   5.676   8.709   8.798
18528SOL    HW257544   5.645   8.856   8.735
18529SOL     OW57545   6.318   8.082   8.512
18529SOL    HW157546   6.377   8.056   8.436
18529SOL    HW257547   6.290   8.178   8.501
18530SOL     OW57548   5.893   7.511   8.066
18530SOL    HW157549   5.882   7.605   8.099
18530SOL    HW257550   5.888   7.448   8.143
18531SOL     OW57551   7.208   7.815   7.822
18531SOL    HW157552   7.210   7.739   7.886
18531SOL    HW257553   7.160   7.892   7.862
18532SOL     OW57554   6.609   8.214   8.414
18532SOL    HW157555   6.624   8.235   8.510
18532SOL    HW257556   6.579   8.119   8.405
18533SOL     OW57557   7.445   8.966   0.053
18533SOL    HW157558   7.459   8.993  -0.042
18533SOL    HW257559   7.528   8.988   0.106
18534SOL     OW57560   7.126   7.722   7.573
18534SOL    HW157561   7.065   7.647   7.596
18534SOL    HW257562   7.148   7.774   7.656
18535SOL     OW57563   6.889   8.286   7.490
18535SOL    HW157564   6.923   8.193   7.505
18535SOL    HW257565   6.907   8.313   7.395
18536SOL     OW57566   6.654   8.781   8.297
18536SOL    HW157567   6.661   8.697   8.242
18536SOL    HW257568   6.716   8.850   8.261
18537SOL     OW57569   5.905   8.258   8.397
18537SOL    HW157570   5.998   8.294   8.402
18537SOL    HW257571   5.899   8.173   8.449
18538SOL     OW57572   5.925   7.957   8.454
18538SOL    HW157573   5.873   7.874   8.437
18538SOL    HW257574   6.002   7.962   8.390
18539SOL     OW57575   6.724   7.828   0.126
18539SOL    HW157576   6.679   7.891   0.190
18539SOL    HW257577   6.817   7.859   0.109
18540SOL     OW57578   6.746   7.655   8.925
18540SOL    HW157579   6.746   7.719   9.002
18540SOL    HW257580   6.774   7.703   8.842
18541SOL     OW57581   5.594   8.774   7.648
18541SOL    HW157582   5.501   8.795   7.617
18541SOL    HW257583   5.604   8.675   7.661
18542SOL     OW57584   6.588   8.244   8.686
18542SOL    HW157585   6.629   8.212   8.772
18542SOL    HW257586   6.492   8.217   8.683
18543SOL     OW57587   5.626   7.992   8.562
18543SOL    HW157588   5.711   7.959   8.521
18543SOL    HW257589   5.639   8.007   8.660
18544SOL     OW57590   6.401   8.020   7.773
18544SOL    HW157591   6.408   7.931   7.727
18544SOL    HW257592   6.307   8.054   7.765
18545SOL     OW57593   7.243   8.052   8.654
18545SOL    HW157594   7.205   7.983   8.716
18545SOL    HW257595   7.325   8.016   8.610
18546SOL     OW57596   6.257   7.912   8.717
18546SOL    HW157597   6.223   7.823   8.687
18546SOL    HW257598   6.283   7.966   8.637
18547SOL     OW57599   6.059   7.948   7.639
18547SOL    HW157600   6.120   8.028   7.643
18547SOL    HW257601   5.964   7.979   7.646
18548SOL     OW57602   5.745   8.585   8.914
18548SOL    HW157603   5.767   8.524   8.990
18548SOL    HW257604   5.755   8.536   8.828
18549SOL     OW57605   6.933   8.507   8.682
18549SOL    HW157606   6.957   8.444   8.608
18549SOL    HW257607   6.843   8.547   8.664
18550SOL     OW57608   6.888   8.303   7.757
18550SOL    HW157609   6.802   8.272   7.799
18550SOL    HW257610   6.884   8.289   7.658
18551SOL     OW57611   5.669   8.706   8.470
18551SOL    HW157612   5.664   8.705   8.570
18551SOL    HW257613   5.586   8.665   8.432
18552SOL     OW57614   6.489   7.534   7.581
18552SOL    HW157615   6.540   7.535   7.495
18552SOL    HW257616   6.545   7.492   7.652
18553SOL     OW57617   7.312   7.583   7.971
18553SOL    HW157618   7.385   7.566   7.904
18553SOL    HW257619   7.281   7.496   8.009
18554SOL     OW57620   6.866   8.375   8.120
18554SOL    HW157621   6.926   8.294   8.122
18554SOL    HW257622   6.906   8.444   8.060
18555SOL     OW57623   7.427   7.623   8.411
18555SOL    HW157624   7.466   7.538   8.375
18555SOL    HW257625   7.329   7.625   8.392
18556SOL     OW57626   5.849   7.774   8.168
18556SOL    HW157627   5.770   7.825   8.134
18556SOL    HW257628   5.840   7.759   8.266
18557SOL     OW57629   6.408   8.450   8.820
18557SOL    HW157630   6.448   8.449   8.728
18557SOL    HW257631   6.418   8.542   8.860
18558SOL     OW57632   6.502   8.358   7.739
18558SOL    HW157633   6.565   8.396   7.671
18558SOL    HW257634   6.542   8.275   7.778
18559SOL     OW57635   5.958   8.736   8.938
18559SOL    HW157636   5.945   8.829   8.904
18559SOL    HW257637   5.874   8.684   8.925
18560SOL     OW57638   7.200   8.740   8.737
18560SOL    HW157639   7.260   8.743   8.817
18560SOL    HW257640   7.125   8.804   8.750
18561SOL     OW57641   6.625   8.546   8.144
18561SOL    HW157642   6.555   8.499   8.198
18561SOL    HW257643   6.684   8.478   8.101
18562SOL     OW57644   6.600   7.684   8.419
18562SOL    HW157645   6.592   7.648   8.326
18562SOL    HW257646   6.598   7.608   8.484
18563SOL     OW57647   7.295   7.833   8.829
18563SOL    HW157648   7.368   7.902   8.833
18563SOL    HW257649   7.323   7.758   8.770
18564SOL     OW57650   5.841   8.796   7.738
18564SOL    HW157651   5.745   8.797   7.711
18564SOL    HW257652   5.853   8.849   7.822
18565SOL     OW57653   5.661   7.793   7.481
18565SOL    HW157654   5.569   7.765   7.452
18565SOL    HW257655   5.692   7.870   7.425
18566SOL     OW57656   7.026   8.304   8.846
18566SOL    HW157657   6.969   8.356   8.783
18566SOL    HW257658   7.122   8.316   8.822
18567SOL     OW57659   5.658   7.614   7.766
18567SOL    HW157660   5.641   7.697   7.712
18567SOL    HW257661   5.748   7.577   7.744
18568SOL     OW57662   6.769   8.783   7.567
18568SOL    HW157663   6.670   8.772   7.569
18568SOL    HW257664   6.803   8.798   7.660
18569SOL     OW57665   6.199   8.290   8.879
18569SOL    HW157666   6.255   8.371   8.862
18569SOL    HW257667   6.258   8.210   8.882
18570SOL     OW57668   7.260   8.331   8.702
18570SOL    HW157669   7.233   8.242   8.665
18570SOL    HW257670   7.261   8.399   8.629
18571SOL     OW57671   6.811   7.773   7.897
18571SOL    HW157672   6.876   7.699   7.886
18571SOL    HW257673   6.831   7.823   7.981
18572SOL     OW57674   6.180   8.193   8.100
18572SOL    HW157675   6.230   8.278   8.081
18572SOL    HW257676   6.092   8.195   8.052
18573SOL     OW57677   7.363   7.790   0.090
18573SOL    HW157678   7.346   7.821  -0.004
18573SOL    HW257679   7.279   7.753   0.128
18574SOL     OW57680   7.316   8.382   8.965
18574SOL    HW157681   7.354   8.473   8.980
18574SOL    HW257682   7.308   8.365   8.866
18575SOL     OW57683   6.445   8.822   7.464
18575SOL    HW157684   6.399   8.837   7.552
18575SOL    HW257685   6.489   8.907   7.434
18576SOL     OW57686   6.445   8.404   8.309
18576SOL    HW157687   6.499   8.335   8.357
18576SOL    HW257688   6.413   8.473   8.375
18577SOL     OW57689   6.669   8.432   7.535
18577SOL    HW157690   6.646   8.485   7.453
18577SOL    HW257691   6.750   8.376   7.516
18578SOL     OW57692   5.665   8.688   8.101
18578SOL    HW157693   5.664   8.641   8.189
18578SOL    HW257694   5.747   8.660   8.050
18579SOL     OW57695   7.410   7.640   8.675
18579SOL    HW157696   7.406   7.550   8.719
18579SOL    HW257697   7.413   7.629   8.576
18580SOL     OW57698   6.014   7.872   7.968
18580SOL    HW157699   6.044   7.800   7.906
18580SOL    HW257700   5.975   7.832   8.051
18581SOL     OW57701   7.291   8.935   8.552
18581SOL    HW157702   7.198   8.910   8.525
18581SOL    HW257703   7.317   8.885   8.634
18582SOL     OW57704   5.903   7.995   8.728
18582SOL    HW157705   5.941   7.936   8.800
18582SOL    HW257706   5.943   7.969   8.640
18583SOL     OW57707   7.010   7.662   8.560
18583SOL    HW157708   7.062   7.597   8.615
18583SOL    HW257709   6.961   7.725   8.621
18584SOL     OW57710   6.587   7.482   8.602
18584SOL    HW157711   6.524   7.410   8.571
18584SOL    HW257712   6.680   7.446   8.602
18585SOL     OW57713   6.356   8.778   7.749
18585SOL    HW157714   6.310   8.691   7.766
18585SOL    HW257715   6.447   8.775   7.790
18586SOL     OW57716   6.204   0.015   8.732
18586SOL    HW157717   6.199   0.097   8.789
18586SOL    HW257718   6.293   0.012   8.687
18587SOL     OW57719   6.938   7.500   7.616
18587SOL    HW157720   6.973   7.459   7.532
18587SOL    HW257721   6.848   7.462   7.636
18588SOL     OW57722   6.886   7.901   8.139
18588SOL    HW157723   6.827   7.981   8.143
18588SOL    HW257724   6.901   7.866   8.232
18589SOL     OW57725   7.179   7.669   8.330
18589SOL    HW157726   7.095   7.668   8.384
18589SOL    HW257727   7.181   7.752   8.274
18590SOL     OW57728   5.625   8.525   7.748
18590SOL    HW157729   5.724   8.514   7.739
18590SOL    HW257730   5.585   8.439   7.780
18591SOL     OW57731   7.678   0.628   0.113
18591SOL    HW157732   7.585   0.626   0.150
18591SOL    HW257733   7.679   0.589   0.021
18592SOL     OW57734   7.673   0.275   0.996
18592SOL    HW157735   7.708   0.258   1.088
18592SOL    HW257736   7.585   0.230   0.984
18593SOL     OW57737   7.467   0.368   0.647
18593SOL    HW157738   7.385   0.411   0.686
18593SOL    HW257739   7.439   0.295   0.584
18594SOL     OW57740   8.017   1.275   1.165
18594SOL    HW157741   7.924   1.268   1.128
18594SOL    HW257742   8.028   1.364   1.209
18595SOL     OW57743   0.003   1.511   0.703
18595SOL    HW157744  -0.054   1.495   0.784
18595SOL    HW257745  -0.056   1.521   0.623
18596SOL     OW57746   0.191   0.618   0.856
18596SOL    HW157747   0.224   0.712   0.856
18596SOL    HW257748   0.242   0.564   0.922
18597SOL     OW57749   8.583   0.703   0.717
18597SOL    HW157750   8.640   0.781   0.692
18597SOL    HW257751   8.523   0.729   0.793
18598SOL     OW57752   0.203   0.607   0.231
18598SOL    HW157753   0.191   0.594   0.132
18598SOL    HW257754   0.173   0.526   0.280
18599SOL     OW57755   8.216   1.144   1.023
18599SOL    HW157756   8.138   1.161   1.083
18599SOL    HW257757   8.250   1.231   0.987
18600SOL     OW57758   8.298   0.798   1.823
18600SOL    HW157759   8.294   0.874   1.888
18600SOL    HW257760   8.320   0.834   1.732
18601SOL     OW57761   8.133   1.012   0.665
18601SOL    HW157762   8.202   0.996   0.735
18601SOL    HW257763   8.060   1.069   0.703
18602SOL     OW57764   8.134   1.161   1.803
18602SOL    HW157765   8.194   1.240   1.817
18602SOL    HW257766   8.048   1.192   1.762
18603SOL     OW57767   7.783   1.435   1.061
18603SOL    HW157768   7.705   1.404   1.008
18603SOL    HW257769   7.841   1.493   1.004
18604SOL     OW57770   8.908   1.505   1.339
18604SOL    HW157771   8.932   1.599   1.365
18604SOL    HW257772   8.892   1.451   1.421
18605SOL     OW57773   7.886   0.392   1.499
18605SOL    HW157774   7.968   0.336   1.508
18605SOL    HW257775   7.805   0.334   1.503
18606SOL     OW57776   7.679   1.713   0.483
18606SOL    HW157777   7.713   1.790   0.537
18606SOL    HW257778   7.723   1.713   0.393
18607SOL     OW57779   8.575   1.341   1.690
18607SOL    HW157780   8.622   1.341   1.778
18607SOL    HW257781   8.527   1.254   1.679
18608SOL     OW57782   7.678   1.434   0.538
18608SOL    HW157783   7.652   1.530   0.538
18608SOL    HW257784   7.607   1.380   0.583
18609SOL     OW57785   7.688   1.091   0.886
18609SOL    HW157786   7.702   1.007   0.938
18609SOL    HW257787   7.633   1.155   0.941
18610SOL     OW57788   8.068   1.786   1.439
18610SOL    HW157789   7.976   1.769   1.474
18610SOL    HW257790   8.096   1.878   1.465
18611SOL     OW57791   8.054   0.964   0.123
18611SOL    HW157792   8.061   1.048   0.069
18611SOL    HW257793   8.100   0.977   0.211
18612SOL     OW57794   0.042   0.114   1.480
18612SOL    HW157795   0.024   0.181   1.408
18612SOL    HW257796   0.039   0.160   1.569
18613SOL     OW57797   7.570   0.643   0.563
18613SOL    HW157798   7.525   0.555   0.580
18613SOL    HW257799   7.569   0.697   0.647
18614SOL     OW57800   0.137   0.922   0.612
18614SOL    HW157801   0.232   0.893   0.620
18614SOL    HW257802   0.129   0.987   0.537
18615SOL     OW57803   0.089   1.108   0.432
18615SOL    HW157804   0.175   1.110   0.380
18615SOL    HW257805   0.103   1.155   0.520
18616SOL     OW57806   7.561   0.737   1.597
18616SOL    HW157807   7.649   0.724   1.642
18616SOL    HW257808   7.548   0.834   1.575
18617SOL     OW57809   8.061   1.365   0.726
18617SOL    HW157810   8.012   1.278   0.735
18617SOL    HW257811   8.038   1.408   0.639
18618SOL     OW57812   8.741   1.228   1.423
18618SOL    HW157813   8.778   1.155   1.365
18618SOL    HW257814   8.793   1.233   1.508
18619SOL     OW57815   8.257   0.004   0.502
18619SOL    HW157816   8.297   0.095   0.493
18619SOL    HW257817   8.157   0.012   0.508
18620SOL     OW57818   7.645   0.976   1.264
18620SOL    HW157819   7.734   0.931   1.250
18620SOL    HW257820   7.572   0.911   1.245
18621SOL     OW57821   8.973   0.999   0.190
18621SOL    HW157822   8.910   0.923   0.203
18621SOL    HW257823   9.021   1.017   0.276
18622SOL     OW57824   8.635   1.792   1.616
18622SOL    HW157825   8.659   1.852   1.540
18622SOL    HW257826   8.642   1.697   1.586
18623SOL     OW57827   7.765   0.251   1.801
18623SOL    HW157828   7.836   0.322   1.807
18623SOL    HW257829   7.677   0.290   1.829
18624SOL     OW57830   8.914   1.417   0.953
18624SOL    HW157831   8.855   1.423   1.033
18624SOL    HW257832   8.899   1.329   0.907
18625SOL     OW57833   0.115   1.714   0.572
18625SOL    HW157834   0.074   1.691   0.484
18625SOL    HW257835   0.097   1.640   0.637
18626SOL     OW57836   8.046   0.729   0.270
18626SOL    HW157837   8.070   0.798   0.202
18626SOL    HW257838   7.968   0.762   0.324
18627SOL     OW57839   8.729   0.345   0.944
18627SOL    HW157840   8.643   0.295   0.931
18627SOL    HW257841   8.791   0.291   1.000
18628SOL     OW57842   0.024   1.662   0.307
18628SOL    HW157843   0.113   1.708   0.310
18628SOL    HW257844   0.003   1.638   0.212
18629SOL     OW57845   8.255   0.605   1.465
18629SOL    HW157846   8.208   0.602   1.554
18629SOL    HW257847   8.204   0.550   1.399
18630SOL     OW57848   8.842   0.469   1.674
18630SOL    HW157849   8.822   0.512   1.762
18630SOL    HW257850   8.920   0.407   1.683
18631SOL     OW57851   8.421   0.890   1.572
18631SOL    HW157852   8.467   0.806   1.543
18631SOL    HW257853   8.365   0.924   1.497
18632SOL     OW57854   8.439   0.410   1.242
18632SOL    HW157855   8.362   0.444   1.296
18632SOL    HW257856   8.405   0.359   1.163
18633SOL     OW57857   8.489   0.701   0.429
18633SOL    HW157858   8.515   0.697   0.525
18633SOL    HW257859   8.404   0.650   0.415
18634SOL     OW57860   7.524   0.811   0.789
18634SOL    HW157861   7.623   0.799   0.798
18634SOL    HW257862   7.500   0.906   0.810
18635SOL     OW57863   7.578   1.821   1.571
18635SOL    HW157864   7.568   1.806   1.670
18635SOL    HW257865   7.492   1.857   1.535
18636SOL     OW57866   8.313   0.348   0.195
18636SOL    HW157867   8.372   0.411   0.146
18636SOL    HW257868   8.332   0.254   0.166
18637SOL     OW57869   0.167   0.585   1.831
18637SOL    HW157870   0.141   0.674   1.795
18637SOL    HW257871   0.165   0.517   1.758
18638SOL     OW57872   8.810   1.144   0.545
18638SOL    HW157873   8.893   1.115   0.497
18638SOL    HW257874   8.761   1.211   0.489
18639SOL     OW57875   7.998   0.196   0.885
18639SOL    HW157876   7.993   0.191   0.985
18639SOL    HW257877   8.000   0.292   0.856
18640SOL     OW57878   8.456   1.456   0.477
18640SOL    HW157879   8.410   1.528   0.425
18640SOL    HW257880   8.452   1.476   0.575
18641SOL     OW57881   7.799   1.801   0.853
18641SOL    HW157882   7.849   1.715   0.859
18641SOL    HW257883   7.864   1.878   0.850
18642SOL     OW57884   0.243   1.066   0.873
18642SOL    HW157885   0.181   1.051   0.797
18642SOL    HW257886   0.191   1.077   0.958
18643SOL     OW57887   8.675   1.550   1.506
18643SOL    HW157888   8.681   1.473   1.570
18643SOL    HW257889   8.623   1.524   1.426
18644SOL     OW57890   7.769   0.943   0.242
18644SOL    HW157891   7.851   0.982   0.200
18644SOL    HW257892   7.742   0.861   0.193
18645SOL     OW57893   8.906   0.735   0.728
18645SOL    HW157894   8.901   0.670   0.803
18645SOL    HW257895   8.986   0.794   0.741
18646SOL     OW57896   7.909   1.266   1.727
18646SOL    HW157897   7.859   1.267   1.641
18646SOL    HW257898   7.846   1.248   1.803
18647SOL     OW57899   8.559   1.776   0.237
18647SOL    HW157900   8.499   1.714   0.287
18647SOL    HW257901   8.590   1.732   0.152
18648SOL     OW57902   7.650   0.285   1.498
18648SOL    HW157903   7.570   0.345   1.485
18648SOL    HW257904   7.640   0.236   1.584
18649SOL     OW57905   0.080   1.377   0.081
18649SOL    HW157906   0.048   1.471   0.071
18649SOL    HW257907   0.004   1.314   0.069
18650SOL     OW57908   7.912   1.743   0.323
18650SOL    HW157909   7.945   1.782   0.409
18650SOL    HW257910   7.988   1.736   0.258
18651SOL     OW57911   8.848   0.107   0.426
18651SOL    HW157912   8.824   0.070   0.336
18651SOL    HW257913   8.947   0.123   0.430
18652SOL     OW57914   7.697   1.785   1.241
18652SOL    HW157915   7.754   1.720   1.291
18652SOL    HW257916   7.681   1.752   1.148
18653SOL     OW57917   8.388   1.698   0.904
18653SOL    HW157918   8.468   1.641   0.925
18653SOL    HW257919   8.339   1.658   0.827
18654SOL     OW57920   7.830   0.700   0.480
18654SOL    HW157921   7.875   0.610   0.477
18654SOL    HW257922   7.736   0.689   0.513
18655SOL     OW57923   8.995   0.222   1.729
18655SOL    HW157924   8.990   0.259   1.821
18655SOL    HW257925   8.923   0.153   1.717
18656SOL     OW57926   8.062   0.122   0.117
18656SOL    HW157927   8.160   0.100   0.124
18656SOL    HW257928   8.031   0.105   0.024
18657SOL     OW57929   8.229   0.264   1.749
18657SOL    HW157930   8.296   0.203   1.792
18657SOL    HW257931   8.156   0.283   1.814
18658SOL     OW57932   8.336   1.514   1.195
18658SOL    HW157933   8.313   1.489   1.101
18658SOL    HW257934   8.397   1.445   1.234
18659SOL     OW57935   8.799   0.590   1.433
18659SOL    HW157936   8.827   0.547   1.518
18659SOL    HW257937   8.824   0.686   1.434
18660SOL     OW57938   8.251   1.402   0.924
18660SOL    HW157939   8.341   1.416   0.882
18660SOL    HW257940   8.180   1.404   0.853
18661SOL     OW57941   8.370   0.503   0.899
18661SOL    HW157942   8.345   0.494   0.803
18661SOL    HW257943   8.418   0.421   0.930
18662SOL     OW57944   7.987   0.064   0.512
18662SOL    HW157945   7.906   0.065   0.570
18662SOL    HW257946   7.990   0.147   0.457
18663SOL     OW57947   8.882   1.188   0.041
18663SOL    HW157948   8.914   1.112   0.098
18663SOL    HW257949   8.790   1.215   0.071
18664SOL     OW57950   7.745   0.035   0.171
18664SOL    HW157951   7.794   0.119   0.150
18664SOL    HW257952   7.807  -0.030   0.216
18665SOL     OW57953   8.383   0.236   0.480
18665SOL    HW157954   8.335   0.277   0.402
18665SOL    HW257955   8.482   0.234   0.461
18666SOL     OW57956   8.524   0.683   1.464
18666SOL    HW157957   8.444   0.622   1.467
18666SOL    HW257958   8.605   0.630   1.440
18667SOL     OW57959   8.675   1.570   0.793
18667SOL    HW157960   8.696   1.644   0.728
18667SOL    HW257961   8.743   1.570   0.866
18668SOL     OW57962   7.907   1.152   0.741
18668SOL    HW157963   7.836   1.125   0.806
18668SOL    HW257964   7.881   1.124   0.648
18669SOL     OW57965   8.719   1.797   0.591
18669SOL    HW157966   8.763   1.861   0.527
18669SOL    HW257967   8.669   1.849   0.661
18670SOL     OW57968   8.480   0.549   0.016
18670SOL    HW157969   8.439   0.631  -0.023
18670SOL    HW257970   8.544   0.575   0.089
18671SOL     OW57971   7.526   0.556   1.386
18671SOL    HW157972   7.618   0.555   1.345
18671SOL    HW257973   7.520   0.630   1.453
18672SOL     OW57974   8.009   0.222   1.147
18672SOL    HW157975   8.047   0.138   1.184
18672SOL    HW257976   7.921   0.241   1.191
18673SOL     OW57977   8.314   0.454   0.642
18673SOL    HW157978   8.282   0.526   0.580
18673SOL    HW257979   8.338   0.373   0.589
18674SOL     OW57980   8.465   0.039   0.753
18674SOL    HW157981   8.393   0.044   0.684
18674SOL    HW257982   8.441  -0.030   0.822
18675SOL     OW57983   8.877   1.173   0.867
18675SOL    HW157984   8.822   1.089   0.860
18675SOL    HW257985   8.903   1.202   0.775
18676SOL     OW57986   8.914   0.590   0.992
18676SOL    HW157987   8.884   0.495   0.999
18676SOL    HW257988   8.987   0.606   1.058
18677SOL     OW57989   7.936   1.385   0.174
18677SOL    HW157990   7.849   1.370   0.221
18677SOL    HW257991   7.919   1.411   0.079
18678SOL     OW57992   0.112   1.280   0.657
18678SOL    HW157993   0.211   1.288   0.671
18678SOL    HW257994   0.067   1.364   0.688
18679SOL     OW57995   8.838   0.575   0.078
18679SOL    HW157996   8.784   0.554   0.159
18679SOL    HW257997   8.929   0.534   0.087
18680SOL     OW57998   7.975   0.256   0.328
18680SOL    HW157999   8.002   0.197   0.253
18680SOL    HW258000   7.975   0.351   0.297
18681SOL     OW58001   8.512   1.347   1.340
18681SOL    HW158002   8.432   1.324   1.395
18681SOL    HW258003   8.595   1.321   1.389
18682SOL     OW58004   0.040   1.629   1.625
18682SOL    HW158005   0.067   1.663   1.535
18682SOL    HW258006   0.119   1.591   1.671
18683SOL     OW58007   8.559   1.195   1.100
18683SOL    HW158008   8.519   1.239   1.181
18683SOL    HW258009   8.518   1.232   1.017
18684SOL     OW58010   0.086   1.099   1.079
18684SOL    HW158011   0.091   1.180   1.138
18684SOL    HW258012   0.000   1.101   1.028
18685SOL     OW58013   8.363   0.089   1.402
18685SOL    HW158014   8.388   0.069   1.307
18685SOL    HW258015   8.435   0.145   1.444
18686SOL     OW58016   8.428   1.116   1.719
18686SOL    HW158017   8.329   1.122   1.729
18686SOL    HW258018   8.451   1.036   1.663
18687SOL     OW58019   8.153   1.050   0.368
18687SOL    HW158020   8.139   1.057   0.467
18687SOL    HW258021   8.237   0.999   0.350
18688SOL     OW58022   7.858   0.813   1.251
18688SOL    HW158023   7.944   0.825   1.301
18688SOL    HW258024   7.816   0.726   1.278
18689SOL     OW58025   8.722   0.386   1.262
18689SOL    HW158026   8.743   0.460   1.326
18689SOL    HW258027   8.633   0.403   1.219
18690SOL     OW58028   7.512   1.564   1.331
18690SOL    HW158029   7.466   1.646   1.297
18690SOL    HW258030   7.610   1.583   1.340
18691SOL     OW58031   7.815   1.100   0.501
18691SOL    HW158032   7.808   1.183   0.445
18691SOL    HW258033   7.819   1.020   0.441
18692SOL     OW58034   8.014   0.537   0.865
18692SOL    HW158035   8.026   0.603   0.791
18692SOL    HW258036   8.060   0.571   0.948
18693SOL     OW58037   8.700   1.348   0.388
18693SOL    HW158038   8.750   1.425   0.428
18693SOL    HW258039   8.605   1.350   0.420
18694SOL     OW58040   8.720   1.445   1.142
18694SOL    HW158041   8.767   1.458   1.229
18694SOL    HW258042   8.654   1.371   1.151
18695SOL     OW58043   0.030   0.639   0.472
18695SOL    HW158044  -0.001   0.700   0.545
18695SOL    HW258045   0.080   0.691   0.403
18696SOL     OW58046   7.802   1.510   1.329
18696SOL    HW158047   7.781   1.466   1.242
18696SOL    HW258048   7.899   1.536   1.332
18697SOL     OW58049   7.850   0.751   1.598
18697SOL    HW158050   7.918   0.806   1.551
18697SOL    HW258051   7.890   0.663   1.625
18698SOL     OW58052   0.035   0.779   1.670
18698SOL    HW158053  -0.057   0.817   1.665
18698SOL    HW258054   0.095   0.826   1.605
18699SOL     OW58055   8.461   0.105   1.770
18699SOL    HW158056   8.467   0.190   1.718
18699SOL    HW258057   8.493   0.029   1.713
18700SOL     OW58058   7.952   0.050   1.740
18700SOL    HW158059   7.910  -0.007   1.670
18700SOL    HW258060   7.886   0.119   1.772
18701SOL     OW58061   8.021   0.870   1.029
18701SOL    HW158062   8.065   0.959   1.020
18701SOL    HW258063   7.958   0.870   1.106
18702SOL     OW58064   8.808   0.862   1.045
18702SOL    HW158065   8.733   0.862   0.979
18702SOL    HW258066   8.845   0.770   1.054
18703SOL     OW58067   8.657   0.525   0.275
18703SOL    HW158068   8.670   0.441   0.329
18703SOL    HW258069   8.628   0.599   0.335
18704SOL     OW58070   7.755   0.213   1.231
18704SOL    HW158071   7.732   0.250   1.321
18704SOL    HW258072   7.725   0.118   1.225
18705SOL     OW58073   7.485   1.310   1.282
18705SOL    HW158074   7.538   1.261   1.350
18705SOL    HW258075   7.507   1.408   1.287
18706SOL     OW58076   8.180   0.634   1.064
18706SOL    HW158077   8.239   0.608   0.988
18706SOL    HW258078   8.152   0.730   1.053
18707SOL     OW58079   0.176   0.935   1.854
18707SOL    HW158080   0.130   0.928   1.765
18707SOL    HW258081   0.114   0.979   1.920
18708SOL     OW58082   7.755   0.063   0.618
18708SOL    HW158083   7.744   0.157   0.651
18708SOL    HW258084   7.750   0.000   0.695
18709SOL     OW58085   0.070   0.367   0.374
18709SOL    HW158086   0.072   0.291   0.438
18709SOL    HW258087   0.022   0.444   0.414
18710SOL     OW58088   8.471   0.766   0.966
18710SOL    HW158089   8.486   0.787   1.062
18710SOL    HW258090   8.441   0.671   0.957
18711SOL     OW58091   8.428   1.573   1.700
18711SOL    HW158092   8.408   1.617   1.612
18711SOL    HW258093   8.467   1.482   1.684
18712SOL     OW58094   7.798   0.898   1.804
18712SOL    HW158095   7.874   0.942   1.852
18712SOL    HW258096   7.833   0.851   1.722
18713SOL     OW58097   8.988   0.274   0.125
18713SOL    HW158098   8.927   0.199   0.148
18713SOL    HW258099   9.010   0.326   0.208
18714SOL     OW58100   8.751   0.838   0.042
18714SOL    HW158101   8.785   0.745   0.057
18714SOL    HW258102   8.769   0.865  -0.053
18715SOL     OW58103   8.516   1.333   0.849
18715SOL    HW158104   8.523   1.249   0.794
18715SOL    HW258105   8.578   1.402   0.813
18716SOL     OW58106   7.767   0.810   0.949
18716SOL    HW158107   7.860   0.846   0.954
18716SOL    HW258108   7.761   0.725   1.001
18717SOL     OW58109   7.787   0.509   1.006
18717SOL    HW158110   7.735   0.426   0.989
18717SOL    HW258111   7.864   0.514   0.942
18718SOL     OW58112   8.586   0.380   1.678
18718SOL    HW158113   8.541   0.443   1.742
18718SOL    HW258114   8.679   0.411   1.661
18719SOL     OW58115   8.608   0.207   1.477
18719SOL    HW158116   8.608   0.271   1.554
18719SOL    HW258117   8.636   0.255   1.394
18720SOL     OW58118   7.456   1.326   0.200
18720SOL    HW158119   7.363   1.347   0.169
18720SOL    HW258120   7.466   1.227   0.213
18721SOL     OW58121   7.536   1.801   0.927
18721SOL    HW158122   7.494   1.715   0.900
18721SOL    HW258123   7.630   1.804   0.893
18722SOL     OW58124   7.952   1.568   0.910
18722SOL    HW158125   8.018   1.642   0.919
18722SOL    HW258126   7.996   1.489   0.868
18723SOL     OW58127   8.450   0.796   1.238
18723SOL    HW158128   8.491   0.764   1.324
18723SOL    HW258129   8.354   0.769   1.235
18724SOL     OW58130   7.488   0.544   1.114
18724SOL    HW158131   7.573   0.511   1.073
18724SOL    HW258132   7.501   0.559   1.212
18725SOL     OW58133   7.637   0.520   1.722
18725SOL    HW158134   7.696   0.480   1.652
18725SOL    HW258135   7.579   0.591   1.681
18726SOL     OW58136   8.817   0.950   1.660
18726SOL    HW158137   8.856   1.039   1.680
18726SOL    HW258138   8.827   0.930   1.563
18727SOL     OW58139   8.263   0.572   0.325
18727SOL    HW158140   8.270   0.483   0.279
18727SOL    HW258141   8.169   0.606   0.317
18728SOL     OW58142   0.105   0.604   1.206
18728SOL    HW158143   0.067   0.535   1.268
18728SOL    HW258144   0.187   0.568   1.162
18729SOL     OW58145   7.700   1.564   1.744
18729SOL    HW158146   7.670   1.621   1.820
18729SOL    HW258147   7.693   1.467   1.770
18730SOL     OW58148   8.119   0.464   1.269
18730SOL    HW158149   8.085   0.375   1.239
18730SOL    HW258150   8.145   0.518   1.189
18731SOL     OW58151   8.378   1.678   1.465
18731SOL    HW158152   8.354   1.660   1.370
18731SOL    HW258153   8.408   1.772   1.475
18732SOL     OW58154   7.921   0.500   0.191
18732SOL    HW158155   7.982   0.580   0.195
18732SOL    HW258156   7.826   0.531   0.198
18733SOL     OW58157   7.607   1.137   1.466
18733SOL    HW158158   7.629   1.076   1.542
18733SOL    HW258159   7.617   1.088   1.380
18734SOL     OW58160   8.795   1.059   1.234
18734SOL    HW158161   8.819   0.996   1.160
18734SOL    HW258162   8.705   1.099   1.216
18735SOL     OW58163   8.750   0.855   0.309
18735SOL    HW158164   8.664   0.824   0.351
18735SOL    HW258165   8.746   0.841   0.210
18736SOL     OW58166   8.700   1.731   1.128
18736SOL    HW158167   8.784   1.736   1.074
18736SOL    HW258168   8.677   1.635   1.146
18737SOL     OW58169   7.531   1.258   1.022
18737SOL    HW158170   7.526   1.257   1.122
18737SOL    HW258171   7.448   1.217   0.984
18738SOL     OW58172   8.136   1.662   1.716
18738SOL    HW158173   8.080   1.743   1.725
18738SOL    HW258174   8.188   1.666   1.630
18739SOL     OW58175   8.351   0.086   0.133
18739SOL    HW158176   8.402   0.087   0.047
18739SOL    HW258177   8.407   0.044   0.204
18740SOL     OW58178   0.174   0.135   0.523
18740SOL    HW158179   0.247   0.118   0.456
18740SOL    HW258180   0.143   0.048   0.561
18741SOL     OW58181   8.836   1.573   0.477
18741SOL    HW158182   8.903   1.585   0.403
18741SOL    HW258183   8.796   1.662   0.500
18742SOL     OW58184   7.578   1.794   1.851
18742SOL    HW158185   7.537   1.720   1.904
18742SOL    HW258186   7.642   1.845   1.909
18743SOL     OW58187   8.728   0.927   0.672
18743SOL    HW158188   8.788   0.846   0.674
18743SOL    HW258189   8.768   0.996   0.612
18744SOL     OW58190   8.278   1.273   1.422
18744SOL    HW158191   8.273   1.306   1.517
18744SOL    HW258192   8.192   1.292   1.376
18745SOL     OW58193   8.120   1.616   0.154
18745SOL    HW158194   8.129   1.626   0.055
18745SOL    HW258195   8.080   1.527   0.175
18746SOL     OW58196   0.098   1.720   1.394
18746SOL    HW158197   0.151   1.730   1.310
18746SOL    HW258198   0.071   1.810   1.428
18747SOL     OW58199   7.711   0.326   0.720
18747SOL    HW158200   7.632   0.377   0.686
18747SOL    HW258201   7.702   0.311   0.818
18748SOL     OW58202   8.642   1.612   0.031
18748SOL    HW158203   8.648   1.519   0.068
18748SOL    HW258204   8.583   1.612  -0.049
18749SOL     OW58205   8.270   1.002   1.372
18749SOL    HW158206   8.310   1.001   1.280
18749SOL    HW258207   8.280   1.094   1.412
18750SOL     OW58208   8.364   0.910   0.291
18750SOL    HW158209   8.427   0.948   0.223
18750SOL    HW258210   8.404   0.827   0.330
18751SOL     OW58211   8.952   1.607   0.044
18751SOL    HW158212   8.860   1.644   0.051
18751SOL    HW258213   8.990   1.627  -0.046
18752SOL     OW58214   7.820   1.288   1.490
18752SOL    HW158215   7.807   1.381   1.456
18752SOL    HW258216   7.736   1.236   1.477
18753SOL     OW58217   0.062   1.292   1.289
18753SOL    HW158218   0.122   1.295   1.369
18753SOL    HW258219  -0.013   1.356   1.302
18754SOL     OW58220   8.487   1.098   0.696
18754SOL    HW158221   8.417   1.051   0.750
18754SOL    HW258222   8.546   1.030   0.653
18755SOL     OW58223   8.462   0.236   0.971
18755SOL    HW158224   8.454   0.200   0.878
18755SOL    HW258225   8.460   0.160   1.036
18756SOL     OW58226   8.038   1.487   0.491
18756SOL    HW158227   8.080   1.429   0.421
18756SOL    HW258228   7.994   1.566   0.447
18757SOL     OW58229   0.157   0.385   1.381
18757SOL    HW158230   0.230   0.454   1.385
18757SOL    HW258231   0.185   0.310   1.322
18758SOL     OW58232   7.703   1.348   0.290
18758SOL    HW158233   7.607   1.349   0.263
18758SOL    HW258234   7.715   1.401   0.374
18759SOL     OW58235   7.553   1.013   1.726
18759SOL    HW158236   7.476   0.980   1.780
18759SOL    HW258237   7.638   0.983   1.768
18760SOL     OW58238   8.120   0.203   1.489
18760SOL    HW158239   8.210   0.187   1.449
18760SOL    HW258240   8.128   0.208   1.588
18761SOL     OW58241   8.888   0.856   1.398
18761SOL    HW158242   8.831   0.908   1.335
18761SOL    HW258243   8.984   0.868   1.374
18762SOL     OW58244   7.520   0.166   0.318
18762SOL    HW158245   7.503   0.249   0.264
18762SOL    HW258246   7.610   0.129   0.296
18763SOL     OW58247   8.631   1.335   0.119
18763SOL    HW158248   8.532   1.324   0.121
18763SOL    HW258249   8.665   1.350   0.212
18764SOL     OW58250   8.061   0.842   1.431
18764SOL    HW158251   8.117   0.923   1.414
18764SOL    HW258252   8.120   0.762   1.434
18765SOL     OW58253   8.941   1.767   0.959
18765SOL    HW158254   8.974   1.831   0.890
18765SOL    HW258255   9.007   1.761   1.034
18766SOL     OW58256   8.164   0.565   1.708
18766SOL    HW158257   8.183   0.630   1.782
18766SOL    HW258258   8.224   0.485   1.717
18767SOL     OW58259   8.898   1.220   1.633
18767SOL    HW158260   8.889   1.210   1.732
18767SOL    HW258261   8.994   1.213   1.607
18768SOL     OW58262   7.838   1.741   1.560
18768SOL    HW158263   7.747   1.782   1.558
18768SOL    HW258264   7.831   1.647   1.592
18769SOL     OW58265   0.122   0.883   1.254
18769SOL    HW158266   0.095   0.794   1.217
18769SOL    HW258267   0.123   0.951   1.181
18770SOL     OW58268   8.673   0.325   0.449
18770SOL    HW158269   8.738   0.251   0.438
18770SOL    HW258270   8.693   0.375   0.533
18771SOL     OW58271   8.042   0.745   0.652
18771SOL    HW158272   8.092   0.830   0.633
18771SOL    HW258273   7.954   0.747   0.604
18772SOL     OW58274   0.225   0.342   1.642
18772SOL    HW158275   0.208   0.373   1.548
18772SOL    HW258276   0.141   0.305   1.680
18773SOL     OW58277   0.178   0.934   1.517
18773SOL    HW158278   0.216   1.025   1.532
18773SOL    HW258279   0.170   0.917   1.418
18774SOL     OW58280   8.307   1.374   0.016
18774SOL    HW158281   8.261   1.389   0.104
18774SOL    HW258282   8.351   1.459  -0.014
18775SOL     OW58283   8.109   1.790   0.953
18775SOL    HW158284   8.063   1.878   0.940
18775SOL    HW258285   8.208   1.802   0.946
18776SOL     OW58286   8.307   0.956   0.861
18776SOL    HW158287   8.361   0.887   0.909
18776SOL    HW258288   8.275   1.025   0.927
18777SOL     OW58289   8.531   0.984   0.087
18777SOL    HW158290   8.508   1.037   0.005
18777SOL    HW258291   8.612   0.928   0.068
18778SOL     OW58292   7.669   1.314   1.844
18778SOL    HW158293   7.604   1.241   1.823
18778SOL    HW258294   7.673   1.328   1.942
18779SOL     OW58295   7.527   1.240   0.653
18779SOL    HW158296   7.526   1.193   0.741
18779SOL    HW258297   7.609   1.212   0.602
18780SOL     OW58298   8.120   1.391   1.624
18780SOL    HW158299   8.042   1.341   1.662
18780SOL    HW258300   8.117   1.486   1.655
18781SOL     OW58301   7.876   0.424   0.520
18781SOL    HW158302   7.906   0.352   0.458
18781SOL    HW258303   7.837   0.384   0.603
18782SOL     OW58304   0.153   1.487   1.104
18782SOL    HW158305   0.060   1.462   1.077
18782SOL    HW258306   0.179   1.437   1.186
18783SOL     OW58307   7.765   0.547   1.280
18783SOL    HW158308   7.803   0.488   1.352
18783SOL    HW258309   7.805   0.521   1.192
18784SOL     OW58310   8.260   1.586   0.687
18784SOL    HW158311   8.292   1.596   0.593
18784SOL    HW258312   8.181   1.524   0.689
18785SOL     OW58313   8.872   0.214   1.112
18785SOL    HW158314   8.924   0.149   1.167
18785SOL    HW258315   8.823   0.277   1.173
18786SOL     OW58316   8.449   0.034   1.154
18786SOL    HW158317   8.386  -0.038   1.123
18786SOL    HW258318   8.542  -0.002   1.154
18787SOL     OW58319   8.218   1.330   0.301
18787SOL    HW158320   8.172   1.243   0.318
18787SOL    HW258321   8.309   1.327   0.342
18788SOL     OW58322   8.066   1.567   1.284
18788SOL    HW158323   8.061   1.649   1.341
18788SOL    HW258324   8.155   1.564   1.239
18789SOL     OW58325   8.800   0.052   0.168
18789SOL    HW158326   8.835   0.011   0.084
18789SOL    HW258327   8.710   0.014   0.188
18790SOL     OW58328   8.748   0.453   0.691
18790SOL    HW158329   8.689   0.533   0.695
18790SOL    HW258330   8.763   0.418   0.784
18791SOL     OW58331   0.041   0.221   0.882
18791SOL    HW158332  -0.043   0.220   0.936
18791SOL    HW258333   0.043   0.304   0.826
18792SOL     OW58334   7.487   1.077   0.300
18792SOL    HW158335   7.586   1.066   0.291
18792SOL    HW258336   7.447   0.991   0.332
18793SOL     OW58337   8.323   1.646   0.337
18793SOL    HW158338   8.246   1.611   0.283
18793SOL    HW258339   8.291   1.717   0.399
18794SOL     OW58340   7.678   0.628   1.975
18794SOL    HW158341   7.585   0.626   2.012
18794SOL    HW258342   7.679   0.589   1.883
18795SOL     OW58343   7.673   0.275   2.858
18795SOL    HW158344   7.708   0.258   2.950
18795SOL    HW258345   7.585   0.230   2.846
18796SOL     OW58346   7.467   0.368   2.509
18796SOL    HW158347   7.385   0.411   2.548
18796SOL    HW258348   7.439   0.295   2.446
18797SOL     OW58349   8.017   1.275   3.027
18797SOL    HW158350   7.924   1.268   2.990
18797SOL    HW258351   8.028   1.364   3.071
18798SOL     OW58352   0.003   1.511   2.565
18798SOL    HW158353  -0.054   1.495   2.646
18798SOL    HW258354  -0.056   1.521   2.485
18799SOL     OW58355   0.191   0.618   2.718
18799SOL    HW158356   0.224   0.712   2.718
18799SOL    HW258357   0.242   0.564   2.784
18800SOL     OW58358   8.583   0.703   2.579
18800SOL    HW158359   8.640   0.781   2.554
18800SOL    HW258360   8.523   0.729   2.655
18801SOL     OW58361   0.203   0.607   2.093
18801SOL    HW158362   0.191   0.594   1.994
18801SOL    HW258363   0.173   0.526   2.142
18802SOL     OW58364   8.216   1.144   2.885
18802SOL    HW158365   8.138   1.161   2.945
18802SOL    HW258366   8.250   1.231   2.849
18803SOL     OW58367   8.298   0.798   3.685
18803SOL    HW158368   8.294   0.874   3.750
18803SOL    HW258369   8.320   0.834   3.594
18804SOL     OW58370   8.133   1.012   2.527
18804SOL    HW158371   8.202   0.996   2.597
18804SOL    HW258372   8.060   1.069   2.565
18805SOL     OW58373   8.134   1.161   3.665
18805SOL    HW158374   8.194   1.240   3.679
18805SOL    HW258375   8.048   1.192   3.624
18806SOL     OW58376   7.783   1.435   2.923
18806SOL    HW158377   7.705   1.404   2.870
18806SOL    HW258378   7.841   1.493   2.866
18807SOL     OW58379   8.908   1.505   3.201
18807SOL    HW158380   8.932   1.599   3.227
18807SOL    HW258381   8.892   1.451   3.283
18808SOL     OW58382   7.886   0.392   3.361
18808SOL    HW158383   7.968   0.336   3.370
18808SOL    HW258384   7.805   0.334   3.365
18809SOL     OW58385   7.679   1.713   2.345
18809SOL    HW158386   7.713   1.790   2.399
18809SOL    HW258387   7.723   1.713   2.255
18810SOL     OW58388   8.575   1.341   3.552
18810SOL    HW158389   8.622   1.341   3.640
18810SOL    HW258390   8.527   1.254   3.541
18811SOL     OW58391   7.678   1.434   2.400
18811SOL    HW158392   7.652   1.530   2.400
18811SOL    HW258393   7.607   1.380   2.445
18812SOL     OW58394   7.688   1.091   2.748
18812SOL    HW158395   7.702   1.007   2.800
18812SOL    HW258396   7.633   1.155   2.803
18813SOL     OW58397   8.068   1.786   3.301
18813SOL    HW158398   7.976   1.769   3.336
18813SOL    HW258399   8.096   1.878   3.327
18814SOL     OW58400   8.054   0.964   1.985
18814SOL    HW158401   8.061   1.048   1.931
18814SOL    HW258402   8.100   0.977   2.073
18815SOL     OW58403   0.042   0.114   3.342
18815SOL    HW158404   0.024   0.181   3.270
18815SOL    HW258405   0.039   0.160   3.431
18816SOL     OW58406   7.570   0.643   2.425
18816SOL    HW158407   7.525   0.555   2.442
18816SOL    HW258408   7.569   0.697   2.509
18817SOL     OW58409   7.475   1.596   1.979
18817SOL    HW158410   7.456   1.500   2.000
18817SOL    HW258411   7.442   1.654   2.054
18818SOL     OW58412   0.137   0.922   2.474
18818SOL    HW158413   0.232   0.893   2.482
18818SOL    HW258414   0.129   0.987   2.399
18819SOL     OW58415   0.089   1.108   2.294
18819SOL    HW158416   0.175   1.110   2.242
18819SOL    HW258417   0.103   1.155   2.382
18820SOL     OW58418   7.561   0.737   3.459
18820SOL    HW158419   7.649   0.724   3.504
18820SOL    HW258420   7.548   0.834   3.437
18821SOL     OW58421   8.061   1.365   2.588
18821SOL    HW158422   8.012   1.278   2.597
18821SOL    HW258423   8.038   1.408   2.501
18822SOL     OW58424   8.741   1.228   3.285
18822SOL    HW158425   8.778   1.155   3.227
18822SOL    HW258426   8.793   1.233   3.370
18823SOL     OW58427   8.257   0.004   2.364
18823SOL    HW158428   8.297   0.095   2.355
18823SOL    HW258429   8.157   0.012   2.370
18824SOL     OW58430   7.645   0.976   3.126
18824SOL    HW158431   7.734   0.931   3.112
18824SOL    HW258432   7.572   0.911   3.107
18825SOL     OW58433   8.973   0.999   2.052
18825SOL    HW158434   8.910   0.923   2.065
18825SOL    HW258435   9.021   1.017   2.138
18826SOL     OW58436   8.635   1.792   3.478
18826SOL    HW158437   8.659   1.852   3.402
18826SOL    HW258438   8.642   1.697   3.448
18827SOL     OW58439   7.765   0.251   3.663
18827SOL    HW158440   7.836   0.322   3.669
18827SOL    HW258441   7.677   0.290   3.691
18828SOL     OW58442   8.914   1.417   2.815
18828SOL    HW158443   8.855   1.423   2.895
18828SOL    HW258444   8.899   1.329   2.769
18829SOL     OW58445   0.115   1.714   2.434
18829SOL    HW158446   0.074   1.691   2.346
18829SOL    HW258447   0.097   1.640   2.499
18830SOL     OW58448   8.046   0.729   2.132
18830SOL    HW158449   8.070   0.798   2.064
18830SOL    HW258450   7.968   0.762   2.186
18831SOL     OW58451   8.729   0.345   2.806
18831SOL    HW158452   8.643   0.295   2.793
18831SOL    HW258453   8.791   0.291   2.862
18832SOL     OW58454   0.024   1.662   2.169
18832SOL    HW158455   0.113   1.708   2.172
18832SOL    HW258456   0.003   1.638   2.074
18833SOL     OW58457   8.255   0.605   3.327
18833SOL    HW158458   8.208   0.602   3.416
18833SOL    HW258459   8.204   0.550   3.261
18834SOL     OW58460   8.842   0.469   3.536
18834SOL    HW158461   8.822   0.512   3.624
18834SOL    HW258462   8.920   0.407   3.545
18835SOL     OW58463   8.421   0.890   3.434
18835SOL    HW158464   8.467   0.806   3.405
18835SOL    HW258465   8.365   0.924   3.359
18836SOL     OW58466   8.439   0.410   3.104
18836SOL    HW158467   8.362   0.444   3.158
18836SOL    HW258468   8.405   0.359   3.025
18837SOL     OW58469   8.489   0.701   2.291
18837SOL    HW158470   8.515   0.697   2.387
18837SOL    HW258471   8.404   0.650   2.277
18838SOL     OW58472   7.524   0.811   2.651
18838SOL    HW158473   7.623   0.799   2.660
18838SOL    HW258474   7.500   0.906   2.672
18839SOL     OW58475   7.578   1.821   3.433
18839SOL    HW158476   7.568   1.806   3.532
18839SOL    HW258477   7.492   1.857   3.397
18840SOL     OW58478   8.313   0.348   2.057
18840SOL    HW158479   8.372   0.411   2.008
18840SOL    HW258480   8.332   0.254   2.028
18841SOL     OW58481   0.167   0.585   3.693
18841SOL    HW158482   0.141   0.674   3.657
18841SOL    HW258483   0.165   0.517   3.620
18842SOL     OW58484   8.810   1.144   2.407
18842SOL    HW158485   8.893   1.115   2.359
18842SOL    HW258486   8.761   1.211   2.351
18843SOL     OW58487   7.998   0.196   2.747
18843SOL    HW158488   7.993   0.191   2.847
18843SOL    HW258489   8.000   0.292   2.718
18844SOL     OW58490   8.456   1.456   2.339
18844SOL    HW158491   8.410   1.528   2.287
18844SOL    HW258492   8.452   1.476   2.437
18845SOL     OW58493   7.799   1.801   2.715
18845SOL    HW158494   7.849   1.715   2.721
18845SOL    HW258495   7.864   1.878   2.712
18846SOL     OW58496   0.243   1.066   2.735
18846SOL    HW158497   0.181   1.051   2.659
18846SOL    HW258498   0.191   1.077   2.820
18847SOL     OW58499   8.675   1.550   3.368
18847SOL    HW158500   8.681   1.473   3.432
18847SOL    HW258501   8.623   1.524   3.288
18848SOL     OW58502   7.769   0.943   2.104
18848SOL    HW158503   7.851   0.982   2.062
18848SOL    HW258504   7.742   0.861   2.055
18849SOL     OW58505   8.906   0.735   2.590
18849SOL    HW158506   8.901   0.670   2.665
18849SOL    HW258507   8.986   0.794   2.603
18850SOL     OW58508   7.909   1.266   3.589
18850SOL    HW158509   7.859   1.267   3.503
18850SOL    HW258510   7.846   1.248   3.665
18851SOL     OW58511   8.559   1.776   2.099
18851SOL    HW158512   8.499   1.714   2.149
18851SOL    HW258513   8.590   1.732   2.014
18852SOL     OW58514   7.650   0.285   3.360
18852SOL    HW158515   7.570   0.345   3.347
18852SOL    HW258516   7.640   0.236   3.446
18853SOL     OW58517   0.080   1.377   1.943
18853SOL    HW158518   0.048   1.471   1.933
18853SOL    HW258519   0.004   1.314   1.931
18854SOL     OW58520   7.912   1.743   2.185
18854SOL    HW158521   7.945   1.782   2.271
18854SOL    HW258522   7.988   1.736   2.120
18855SOL     OW58523   8.848   0.107   2.288
18855SOL    HW158524   8.824   0.070   2.198
18855SOL    HW258525   8.947   0.123   2.292
18856SOL     OW58526   7.697   1.785   3.103
18856SOL    HW158527   7.754   1.720   3.153
18856SOL    HW258528   7.681   1.752   3.010
18857SOL     OW58529   8.388   1.698   2.766
18857SOL    HW158530   8.468   1.641   2.787
18857SOL    HW258531   8.339   1.658   2.689
18858SOL     OW58532   7.830   0.700   2.342
18858SOL    HW158533   7.875   0.610   2.339
18858SOL    HW258534   7.736   0.689   2.375
18859SOL     OW58535   8.995   0.222   3.591
18859SOL    HW158536   8.990   0.259   3.683
18859SOL    HW258537   8.923   0.153   3.579
18860SOL     OW58538   8.062   0.122   1.979
18860SOL    HW158539   8.160   0.100   1.986
18860SOL    HW258540   8.031   0.105   1.886
18861SOL     OW58541   8.229   0.264   3.611
18861SOL    HW158542   8.296   0.203   3.654
18861SOL    HW258543   8.156   0.283   3.676
18862SOL     OW58544   8.336   1.514   3.057
18862SOL    HW158545   8.313   1.489   2.963
18862SOL    HW258546   8.397   1.445   3.096
18863SOL     OW58547   8.799   0.590   3.295
18863SOL    HW158548   8.827   0.547   3.380
18863SOL    HW258549   8.824   0.686   3.296
18864SOL     OW58550   8.251   1.402   2.786
18864SOL    HW158551   8.341   1.416   2.744
18864SOL    HW258552   8.180   1.404   2.715
18865SOL     OW58553   8.370   0.503   2.761
18865SOL    HW158554   8.345   0.494   2.665
18865SOL    HW258555   8.418   0.421   2.792
18866SOL     OW58556   7.987   0.064   2.374
18866SOL    HW158557   7.906   0.065   2.432
18866SOL    HW258558   7.990   0.147   2.319
18867SOL     OW58559   8.882   1.188   1.903
18867SOL    HW158560   8.914   1.112   1.960
18867SOL    HW258561   8.790   1.215   1.933
18868SOL     OW58562   7.745   0.035   2.033
18868SOL    HW158563   7.794   0.119   2.012
18868SOL    HW258564   7.807  -0.030   2.078
18869SOL     OW58565   8.383   0.236   2.342
18869SOL    HW158566   8.335   0.277   2.264
18869SOL    HW258567   8.482   0.234   2.323
18870SOL     OW58568   8.524   0.683   3.326
18870SOL    HW158569   8.444   0.622   3.329
18870SOL    HW258570   8.605   0.630   3.302
18871SOL     OW58571   8.675   1.570   2.655
18871SOL    HW158572   8.696   1.644   2.590
18871SOL    HW258573   8.743   1.570   2.728
18872SOL     OW58574   7.907   1.152   2.603
18872SOL    HW158575   7.836   1.125   2.668
18872SOL    HW258576   7.881   1.124   2.510
18873SOL     OW58577   8.719   1.797   2.453
18873SOL    HW158578   8.763   1.861   2.389
18873SOL    HW258579   8.669   1.849   2.523
18874SOL     OW58580   8.480   0.549   1.878
18874SOL    HW158581   8.439   0.631   1.839
18874SOL    HW258582   8.544   0.575   1.951
18875SOL     OW58583   7.526   0.556   3.248
18875SOL    HW158584   7.618   0.555   3.207
18875SOL    HW258585   7.520   0.630   3.315
18876SOL     OW58586   8.009   0.222   3.009
18876SOL    HW158587   8.047   0.138   3.046
18876SOL    HW258588   7.921   0.241   3.053
18877SOL     OW58589   8.314   0.454   2.504
18877SOL    HW158590   8.282   0.526   2.442
18877SOL    HW258591   8.338   0.373   2.451
18878SOL     OW58592   8.465   0.039   2.615
18878SOL    HW158593   8.393   0.044   2.546
18878SOL    HW258594   8.441  -0.030   2.684
18879SOL     OW58595   8.877   1.173   2.729
18879SOL    HW158596   8.822   1.089   2.722
18879SOL    HW258597   8.903   1.202   2.637
18880SOL     OW58598   8.914   0.590   2.854
18880SOL    HW158599   8.884   0.495   2.861
18880SOL    HW258600   8.987   0.606   2.920
18881SOL     OW58601   7.936   1.385   2.036
18881SOL    HW158602   7.849   1.370   2.083
18881SOL    HW258603   7.919   1.411   1.941
18882SOL     OW58604   0.112   1.280   2.519
18882SOL    HW158605   0.211   1.288   2.533
18882SOL    HW258606   0.067   1.364   2.550
18883SOL     OW58607   8.838   0.575   1.940
18883SOL    HW158608   8.784   0.554   2.021
18883SOL    HW258609   8.929   0.534   1.949
18884SOL     OW58610   7.975   0.256   2.190
18884SOL    HW158611   8.002   0.197   2.115
18884SOL    HW258612   7.975   0.351   2.159
18885SOL     OW58613   8.512   1.347   3.202
18885SOL    HW158614   8.432   1.324   3.257
18885SOL    HW258615   8.595   1.321   3.251
18886SOL     OW58616   0.040   1.629   3.487
18886SOL    HW158617   0.067   1.663   3.397
18886SOL    HW258618   0.119   1.591   3.533
18887SOL     OW58619   8.559   1.195   2.962
18887SOL    HW158620   8.519   1.239   3.043
18887SOL    HW258621   8.518   1.232   2.879
18888SOL     OW58622   0.086   1.099   2.941
18888SOL    HW158623   0.091   1.180   3.000
18888SOL    HW258624   0.000   1.101   2.890
18889SOL     OW58625   8.363   0.089   3.264
18889SOL    HW158626   8.388   0.069   3.169
18889SOL    HW258627   8.435   0.145   3.306
18890SOL     OW58628   8.428   1.116   3.581
18890SOL    HW158629   8.329   1.122   3.591
18890SOL    HW258630   8.451   1.036   3.525
18891SOL     OW58631   8.153   1.050   2.230
18891SOL    HW158632   8.139   1.057   2.329
18891SOL    HW258633   8.237   0.999   2.212
18892SOL     OW58634   7.858   0.813   3.113
18892SOL    HW158635   7.944   0.825   3.163
18892SOL    HW258636   7.816   0.726   3.140
18893SOL     OW58637   8.722   0.386   3.124
18893SOL    HW158638   8.743   0.460   3.188
18893SOL    HW258639   8.633   0.403   3.081
18894SOL     OW58640   7.512   1.564   3.193
18894SOL    HW158641   7.466   1.646   3.159
18894SOL    HW258642   7.610   1.583   3.202
18895SOL     OW58643   7.815   1.100   2.363
18895SOL    HW158644   7.808   1.183   2.307
18895SOL    HW258645   7.819   1.020   2.303
18896SOL     OW58646   8.014   0.537   2.727
18896SOL    HW158647   8.026   0.603   2.653
18896SOL    HW258648   8.060   0.571   2.810
18897SOL     OW58649   8.700   1.348   2.250
18897SOL    HW158650   8.750   1.425   2.290
18897SOL    HW258651   8.605   1.350   2.282
18898SOL     OW58652   8.720   1.445   3.004
18898SOL    HW158653   8.767   1.458   3.091
18898SOL    HW258654   8.654   1.371   3.013
18899SOL     OW58655   0.030   0.639   2.334
18899SOL    HW158656  -0.001   0.700   2.407
18899SOL    HW258657   0.080   0.691   2.265
18900SOL     OW58658   7.802   1.510   3.191
18900SOL    HW158659   7.781   1.466   3.104
18900SOL    HW258660   7.899   1.536   3.194
18901SOL     OW58661   7.850   0.751   3.460
18901SOL    HW158662   7.918   0.806   3.413
18901SOL    HW258663   7.890   0.663   3.487
18902SOL     OW58664   0.035   0.779   3.532
18902SOL    HW158665  -0.057   0.817   3.527
18902SOL    HW258666   0.095   0.826   3.467
18903SOL     OW58667   8.461   0.105   3.632
18903SOL    HW158668   8.467   0.190   3.580
18903SOL    HW258669   8.493   0.029   3.575
18904SOL     OW58670   7.952   0.050   3.602
18904SOL    HW158671   7.910  -0.007   3.532
18904SOL    HW258672   7.886   0.119   3.634
18905SOL     OW58673   8.021   0.870   2.891
18905SOL    HW158674   8.065   0.959   2.882
18905SOL    HW258675   7.958   0.870   2.968
18906SOL     OW58676   8.808   0.862   2.907
18906SOL    HW158677   8.733   0.862   2.841
18906SOL    HW258678   8.845   0.770   2.916
18907SOL     OW58679   8.657   0.525   2.137
18907SOL    HW158680   8.670   0.441   2.191
18907SOL    HW258681   8.628   0.599   2.197
18908SOL     OW58682   7.755   0.213   3.093
18908SOL    HW158683   7.732   0.250   3.183
18908SOL    HW258684   7.725   0.118   3.087
18909SOL     OW58685   7.485   1.310   3.144
18909SOL    HW158686   7.538   1.261   3.212
18909SOL    HW258687   7.507   1.408   3.149
18910SOL     OW58688   8.180   0.634   2.926
18910SOL    HW158689   8.239   0.608   2.850
18910SOL    HW258690   8.152   0.730   2.915
18911SOL     OW58691   0.176   0.935   3.716
18911SOL    HW158692   0.130   0.928   3.627
18911SOL    HW258693   0.114   0.979   3.782
18912SOL     OW58694   7.755   0.063   2.480
18912SOL    HW158695   7.744   0.157   2.513
18912SOL    HW258696   7.750   0.000   2.557
18913SOL     OW58697   0.070   0.367   2.236
18913SOL    HW158698   0.072   0.291   2.300
18913SOL    HW258699   0.022   0.444   2.276
18914SOL     OW58700   8.471   0.766   2.828
18914SOL    HW158701   8.486   0.787   2.924
18914SOL    HW258702   8.441   0.671   2.819
18915SOL     OW58703   8.428   1.573   3.562
18915SOL    HW158704   8.408   1.617   3.474
18915SOL    HW258705   8.467   1.482   3.546
18916SOL     OW58706   7.798   0.898   3.666
18916SOL    HW158707   7.874   0.942   3.714
18916SOL    HW258708   7.833   0.851   3.584
18917SOL     OW58709   8.988   0.274   1.987
18917SOL    HW158710   8.927   0.199   2.010
18917SOL    HW258711   9.010   0.326   2.070
18918SOL     OW58712   8.751   0.838   1.904
18918SOL    HW158713   8.785   0.745   1.919
18918SOL    HW258714   8.769   0.865   1.809
18919SOL     OW58715   8.516   1.333   2.711
18919SOL    HW158716   8.523   1.249   2.656
18919SOL    HW258717   8.578   1.402   2.675
18920SOL     OW58718   7.767   0.810   2.811
18920SOL    HW158719   7.860   0.846   2.816
18920SOL    HW258720   7.761   0.725   2.863
18921SOL     OW58721   7.787   0.509   2.868
18921SOL    HW158722   7.735   0.426   2.851
18921SOL    HW258723   7.864   0.514   2.804
18922SOL     OW58724   8.586   0.380   3.540
18922SOL    HW158725   8.541   0.443   3.604
18922SOL    HW258726   8.679   0.411   3.523
18923SOL     OW58727   8.608   0.207   3.339
18923SOL    HW158728   8.608   0.271   3.416
18923SOL    HW258729   8.636   0.255   3.256
18924SOL     OW58730   7.456   1.326   2.062
18924SOL    HW158731   7.363   1.347   2.031
18924SOL    HW258732   7.466   1.227   2.075
18925SOL     OW58733   7.536   1.801   2.789
18925SOL    HW158734   7.494   1.715   2.762
18925SOL    HW258735   7.630   1.804   2.755
18926SOL     OW58736   7.952   1.568   2.772
18926SOL    HW158737   8.018   1.642   2.781
18926SOL    HW258738   7.996   1.489   2.730
18927SOL     OW58739   8.450   0.796   3.100
18927SOL    HW158740   8.491   0.764   3.186
18927SOL    HW258741   8.354   0.769   3.097
18928SOL     OW58742   7.488   0.544   2.976
18928SOL    HW158743   7.573   0.511   2.935
18928SOL    HW258744   7.501   0.559   3.074
18929SOL     OW58745   7.637   0.520   3.584
18929SOL    HW158746   7.696   0.480   3.514
18929SOL    HW258747   7.579   0.591   3.543
18930SOL     OW58748   8.817   0.950   3.522
18930SOL    HW158749   8.856   1.039   3.542
18930SOL    HW258750   8.827   0.930   3.425
18931SOL     OW58751   8.263   0.572   2.187
18931SOL    HW158752   8.270   0.483   2.141
18931SOL    HW258753   8.169   0.606   2.179
18932SOL     OW58754   0.105   0.604   3.068
18932SOL    HW158755   0.067   0.535   3.130
18932SOL    HW258756   0.187   0.568   3.024
18933SOL     OW58757   7.700   1.564   3.606
18933SOL    HW158758   7.670   1.621   3.682
18933SOL    HW258759   7.693   1.467   3.632
18934SOL     OW58760   8.119   0.464   3.131
18934SOL    HW158761   8.085   0.375   3.101
18934SOL    HW258762   8.145   0.518   3.051
18935SOL     OW58763   8.378   1.678   3.327
18935SOL    HW158764   8.354   1.660   3.232
18935SOL    HW258765   8.408   1.772   3.337
18936SOL     OW58766   7.921   0.500   2.053
18936SOL    HW158767   7.982   0.580   2.057
18936SOL    HW258768   7.826   0.531   2.060
18937SOL     OW58769   7.607   1.137   3.328
18937SOL    HW158770   7.629   1.076   3.404
18937SOL    HW258771   7.617   1.088   3.242
18938SOL     OW58772   8.795   1.059   3.096
18938SOL    HW158773   8.819   0.996   3.022
18938SOL    HW258774   8.705   1.099   3.078
18939SOL     OW58775   8.750   0.855   2.171
18939SOL    HW158776   8.664   0.824   2.213
18939SOL    HW258777   8.746   0.841   2.072
18940SOL     OW58778   8.700   1.731   2.990
18940SOL    HW158779   8.784   1.736   2.936
18940SOL    HW258780   8.677   1.635   3.008
18941SOL     OW58781   7.531   1.258   2.884
18941SOL    HW158782   7.526   1.257   2.984
18941SOL    HW258783   7.448   1.217   2.846
18942SOL     OW58784   8.136   1.662   3.578
18942SOL    HW158785   8.080   1.743   3.587
18942SOL    HW258786   8.188   1.666   3.492
18943SOL     OW58787   0.174   0.135   2.385
18943SOL    HW158788   0.247   0.118   2.318
18943SOL    HW258789   0.143   0.048   2.423
18944SOL     OW58790   8.836   1.573   2.339
18944SOL    HW158791   8.903   1.585   2.265
18944SOL    HW258792   8.796   1.662   2.362
18945SOL     OW58793   7.578   1.794   3.713
18945SOL    HW158794   7.537   1.720   3.766
18945SOL    HW258795   7.642   1.845   3.771
18946SOL     OW58796   8.728   0.927   2.534
18946SOL    HW158797   8.788   0.846   2.536
18946SOL    HW258798   8.768   0.996   2.474
18947SOL     OW58799   8.278   1.273   3.284
18947SOL    HW158800   8.273   1.306   3.379
18947SOL    HW258801   8.192   1.292   3.238
18948SOL     OW58802   8.120   1.616   2.016
18948SOL    HW158803   8.129   1.626   1.917
18948SOL    HW258804   8.080   1.527   2.037
18949SOL     OW58805   0.098   1.720   3.256
18949SOL    HW158806   0.151   1.730   3.172
18949SOL    HW258807   0.071   1.810   3.290
18950SOL     OW58808   7.711   0.326   2.582
18950SOL    HW158809   7.632   0.377   2.548
18950SOL    HW258810   7.702   0.311   2.680
18951SOL     OW58811   8.642   1.612   1.893
18951SOL    HW158812   8.648   1.519   1.930
18951SOL    HW258813   8.583   1.612   1.813
18952SOL     OW58814   8.270   1.002   3.234
18952SOL    HW158815   8.310   1.001   3.142
18952SOL    HW258816   8.280   1.094   3.274
18953SOL     OW58817   8.364   0.910   2.153
18953SOL    HW158818   8.427   0.948   2.085
18953SOL    HW258819   8.404   0.827   2.192
18954SOL     OW58820   8.952   1.607   1.906
18954SOL    HW158821   8.860   1.644   1.913
18954SOL    HW258822   8.990   1.627   1.816
18955SOL     OW58823   7.820   1.288   3.352
18955SOL    HW158824   7.807   1.381   3.318
18955SOL    HW258825   7.736   1.236   3.339
18956SOL     OW58826   0.062   1.292   3.151
18956SOL    HW158827   0.122   1.295   3.231
18956SOL    HW258828  -0.013   1.356   3.164
18957SOL     OW58829   8.487   1.098   2.558
18957SOL    HW158830   8.417   1.051   2.612
18957SOL    HW258831   8.546   1.030   2.515
18958SOL     OW58832   8.462   0.236   2.833
18958SOL    HW158833   8.454   0.200   2.740
18958SOL    HW258834   8.460   0.160   2.898
18959SOL     OW58835   8.038   1.487   2.353
18959SOL    HW158836   8.080   1.429   2.283
18959SOL    HW258837   7.994   1.566   2.309
18960SOL     OW58838   0.157   0.385   3.243
18960SOL    HW158839   0.230   0.454   3.247
18960SOL    HW258840   0.185   0.310   3.184
18961SOL     OW58841   7.703   1.348   2.152
18961SOL    HW158842   7.607   1.349   2.125
18961SOL    HW258843   7.715   1.401   2.236
18962SOL     OW58844   7.553   1.013   3.588
18962SOL    HW158845   7.476   0.980   3.642
18962SOL    HW258846   7.638   0.983   3.630
18963SOL     OW58847   8.120   0.203   3.351
18963SOL    HW158848   8.210   0.187   3.311
18963SOL    HW258849   8.128   0.208   3.450
18964SOL     OW58850   7.523   0.345   1.895
18964SOL    HW158851   7.431   0.317   1.866
18964SOL    HW258852   7.554   0.422   1.839
18965SOL     OW58853   8.888   0.856   3.260
18965SOL    HW158854   8.831   0.908   3.197
18965SOL    HW258855   8.984   0.868   3.236
18966SOL     OW58856   7.520   0.166   2.180
18966SOL    HW158857   7.503   0.249   2.126
18966SOL    HW258858   7.610   0.129   2.158
18967SOL     OW58859   8.631   1.335   1.981
18967SOL    HW158860   8.532   1.324   1.983
18967SOL    HW258861   8.665   1.350   2.074
18968SOL     OW58862   8.061   0.842   3.293
18968SOL    HW158863   8.117   0.923   3.276
18968SOL    HW258864   8.120   0.762   3.296
18969SOL     OW58865   8.941   1.767   2.821
18969SOL    HW158866   8.974   1.831   2.752
18969SOL    HW258867   9.007   1.761   2.896
18970SOL     OW58868   8.164   0.565   3.570
18970SOL    HW158869   8.183   0.630   3.644
18970SOL    HW258870   8.224   0.485   3.579
18971SOL     OW58871   8.898   1.220   3.495
18971SOL    HW158872   8.889   1.210   3.594
18971SOL    HW258873   8.994   1.213   3.469
18972SOL     OW58874   7.838   1.741   3.422
18972SOL    HW158875   7.747   1.782   3.420
18972SOL    HW258876   7.831   1.647   3.454
18973SOL     OW58877   0.122   0.883   3.116
18973SOL    HW158878   0.095   0.794   3.079
18973SOL    HW258879   0.123   0.951   3.043
18974SOL     OW58880   8.673   0.325   2.311
18974SOL    HW158881   8.738   0.251   2.300
18974SOL    HW258882   8.693   0.375   2.395
18975SOL     OW58883   8.042   0.745   2.514
18975SOL    HW158884   8.092   0.830   2.495
18975SOL    HW258885   7.954   0.747   2.466
18976SOL     OW58886   0.225   0.342   3.504
18976SOL    HW158887   0.208   0.373   3.410
18976SOL    HW258888   0.141   0.305   3.542
18977SOL     OW58889   0.178   0.934   3.379
18977SOL    HW158890   0.216   1.025   3.394
18977SOL    HW258891   0.170   0.917   3.280
18978SOL     OW58892   8.307   1.374   1.878
18978SOL    HW158893   8.261   1.389   1.966
18978SOL    HW258894   8.351   1.459   1.848
18979SOL     OW58895   8.109   1.790   2.815
18979SOL    HW158896   8.063   1.878   2.802
18979SOL    HW258897   8.208   1.802   2.808
18980SOL     OW58898   8.307   0.956   2.723
18980SOL    HW158899   8.361   0.887   2.771
18980SOL    HW258900   8.275   1.025   2.789
18981SOL     OW58901   8.531   0.984   1.949
18981SOL    HW158902   8.508   1.037   1.867
18981SOL    HW258903   8.612   0.928   1.930
18982SOL     OW58904   7.669   1.314   3.706
18982SOL    HW158905   7.604   1.241   3.685
18982SOL    HW258906   7.673   1.328   3.804
18983SOL     OW58907   7.527   1.240   2.515
18983SOL    HW158908   7.526   1.193   2.603
18983SOL    HW258909   7.609   1.212   2.464
18984SOL     OW58910   8.120   1.391   3.486
18984SOL    HW158911   8.042   1.341   3.524
18984SOL    HW258912   8.117   1.486   3.517
18985SOL     OW58913   7.876   0.424   2.382
18985SOL    HW158914   7.906   0.352   2.320
18985SOL    HW258915   7.837   0.384   2.465
18986SOL     OW58916   0.153   1.487   2.966
18986SOL    HW158917   0.060   1.462   2.939
18986SOL    HW258918   0.179   1.437   3.048
18987SOL     OW58919   7.765   0.547   3.142
18987SOL    HW158920   7.803   0.488   3.214
18987SOL    HW258921   7.805   0.521   3.054
18988SOL     OW58922   8.260   1.586   2.549
18988SOL    HW158923   8.292   1.596   2.455
18988SOL    HW258924   8.181   1.524   2.551
18989SOL     OW58925   8.872   0.214   2.974
18989SOL    HW158926   8.924   0.149   3.029
18989SOL    HW258927   8.823   0.277   3.035
18990SOL     OW58928   8.449   0.034   3.016
18990SOL    HW158929   8.386  -0.038   2.985
18990SOL    HW258930   8.542  -0.002   3.016
18991SOL     OW58931   8.218   1.330   2.163
18991SOL    HW158932   8.172   1.243   2.180
18991SOL    HW258933   8.309   1.327   2.204
18992SOL     OW58934   8.066   1.567   3.146
18992SOL    HW158935   8.061   1.649   3.203
18992SOL    HW258936   8.155   1.564   3.101
18993SOL     OW58937   8.800   0.052   2.030
18993SOL    HW158938   8.835   0.011   1.946
18993SOL    HW258939   8.710   0.014   2.050
18994SOL     OW58940   8.748   0.453   2.553
18994SOL    HW158941   8.689   0.533   2.557
18994SOL    HW258942   8.763   0.418   2.646
18995SOL     OW58943   0.041   0.221   2.744
18995SOL    HW158944  -0.043   0.220   2.798
18995SOL    HW258945   0.043   0.304   2.688
18996SOL     OW58946   7.487   1.077   2.162
18996SOL    HW158947   7.586   1.066   2.153
18996SOL    HW258948   7.447   0.991   2.194
18997SOL     OW58949   8.323   1.646   2.199
18997SOL    HW158950   8.246   1.611   2.145
18997SOL    HW258951   8.291   1.717   2.261
18998SOL     OW58952   7.678   0.628   3.837
18998SOL    HW158953   7.585   0.626   3.874
18998SOL    HW258954   7.679   0.589   3.745
18999SOL     OW58955   7.673   0.275   4.720
18999SOL    HW158956   7.708   0.258   4.812
18999SOL    HW258957   7.585   0.230   4.708
19000SOL     OW58958   7.467   0.368   4.371
19000SOL    HW158959   7.385   0.411   4.410
19000SOL    HW258960   7.439   0.295   4.308
19001SOL     OW58961   8.017   1.275   4.889
19001SOL    HW158962   7.924   1.268   4.852
19001SOL    HW258963   8.028   1.364   4.933
19002SOL     OW58964   0.003   1.511   4.427
19002SOL    HW158965  -0.054   1.495   4.508
19002SOL    HW258966  -0.056   1.521   4.347
19003SOL     OW58967   0.191   0.618   4.580
19003SOL    HW158968   0.224   0.712   4.580
19003SOL    HW258969   0.242   0.564   4.646
19004SOL     OW58970   8.583   0.703   4.441
19004SOL    HW158971   8.640   0.781   4.416
19004SOL    HW258972   8.523   0.729   4.517
19005SOL     OW58973   0.203   0.607   3.955
19005SOL    HW158974   0.191   0.594   3.856
19005SOL    HW258975   0.173   0.526   4.004
19006SOL     OW58976   8.216   1.144   4.747
19006SOL    HW158977   8.138   1.161   4.807
19006SOL    HW258978   8.250   1.231   4.711
19007SOL     OW58979   8.298   0.798   5.547
19007SOL    HW158980   8.294   0.874   5.612
19007SOL    HW258981   8.320   0.834   5.456
19008SOL     OW58982   8.133   1.012   4.389
19008SOL    HW158983   8.202   0.996   4.459
19008SOL    HW258984   8.060   1.069   4.427
19009SOL     OW58985   8.134   1.161   5.527
19009SOL    HW158986   8.194   1.240   5.541
19009SOL    HW258987   8.048   1.192   5.486
19010SOL     OW58988   7.783   1.435   4.785
19010SOL    HW158989   7.705   1.404   4.732
19010SOL    HW258990   7.841   1.493   4.728
19011SOL     OW58991   8.908   1.505   5.063
19011SOL    HW158992   8.932   1.599   5.089
19011SOL    HW258993   8.892   1.451   5.145
19012SOL     OW58994   7.886   0.392   5.223
19012SOL    HW158995   7.968   0.336   5.232
19012SOL    HW258996   7.805   0.334   5.227
19013SOL     OW58997   7.679   1.713   4.207
19013SOL    HW158998   7.713   1.790   4.261
19013SOL    HW258999   7.723   1.713   4.117
19014SOL     OW59000   8.575   1.341   5.414
19014SOL    HW159001   8.622   1.341   5.502
19014SOL    HW259002   8.527   1.254   5.403
19015SOL     OW59003   7.678   1.434   4.262
19015SOL    HW159004   7.652   1.530   4.262
19015SOL    HW259005   7.607   1.380   4.307
19016SOL     OW59006   7.688   1.091   4.610
19016SOL    HW159007   7.702   1.007   4.662
19016SOL    HW259008   7.633   1.155   4.665
19017SOL     OW59009   8.068   1.786   5.163
19017SOL    HW159010   7.976   1.769   5.198
19017SOL    HW259011   8.096   1.878   5.189
19018SOL     OW59012   8.054   0.964   3.847
19018SOL    HW159013   8.061   1.048   3.793
19018SOL    HW259014   8.100   0.977   3.935
19019SOL     OW59015   0.042   0.114   5.204
19019SOL    HW159016   0.024   0.181   5.132
19019SOL    HW259017   0.039   0.160   5.293
19020SOL     OW59018   7.570   0.643   4.287
19020SOL    HW159019   7.525   0.555   4.304
19020SOL    HW259020   7.569   0.697   4.371
19021SOL     OW59021   7.475   1.596   3.841
19021SOL    HW159022   7.456   1.500   3.862
19021SOL    HW259023   7.442   1.654   3.916
19022SOL     OW59024   0.137   0.922   4.336
19022SOL    HW159025   0.232   0.893   4.344
19022SOL    HW259026   0.129   0.987   4.261
19023SOL     OW59027   0.089   1.108   4.156
19023SOL    HW159028   0.175   1.110   4.104
19023SOL    HW259029   0.103   1.155   4.244
19024SOL     OW59030   7.561   0.737   5.321
19024SOL    HW159031   7.649   0.724   5.366
19024SOL    HW259032   7.548   0.834   5.299
19025SOL     OW59033   8.061   1.365   4.450
19025SOL    HW159034   8.012   1.278   4.459
19025SOL    HW259035   8.038   1.408   4.363
19026SOL     OW59036   8.741   1.228   5.147
19026SOL    HW159037   8.778   1.155   5.089
19026SOL    HW259038   8.793   1.233   5.232
19027SOL     OW59039   8.257   0.004   4.226
19027SOL    HW159040   8.297   0.095   4.217
19027SOL    HW259041   8.157   0.012   4.232
19028SOL     OW59042   7.645   0.976   4.988
19028SOL    HW159043   7.734   0.931   4.974
19028SOL    HW259044   7.572   0.911   4.969
19029SOL     OW59045   8.973   0.999   3.914
19029SOL    HW159046   8.910   0.923   3.927
19029SOL    HW259047   9.021   1.017   4.000
19030SOL     OW59048   8.635   1.792   5.340
19030SOL    HW159049   8.659   1.852   5.264
19030SOL    HW259050   8.642   1.697   5.310
19031SOL     OW59051   7.765   0.251   5.525
19031SOL    HW159052   7.836   0.322   5.531
19031SOL    HW259053   7.677   0.290   5.553
19032SOL     OW59054   8.914   1.417   4.677
19032SOL    HW159055   8.855   1.423   4.757
19032SOL    HW259056   8.899   1.329   4.631
19033SOL     OW59057   0.115   1.714   4.296
19033SOL    HW159058   0.074   1.691   4.208
19033SOL    HW259059   0.097   1.640   4.361
19034SOL     OW59060   8.046   0.729   3.994
19034SOL    HW159061   8.070   0.798   3.926
19034SOL    HW259062   7.968   0.762   4.048
19035SOL     OW59063   8.729   0.345   4.668
19035SOL    HW159064   8.643   0.295   4.655
19035SOL    HW259065   8.791   0.291   4.724
19036SOL     OW59066   0.024   1.662   4.031
19036SOL    HW159067   0.113   1.708   4.034
19036SOL    HW259068   0.003   1.638   3.936
19037SOL     OW59069   8.255   0.605   5.189
19037SOL    HW159070   8.208   0.602   5.278
19037SOL    HW259071   8.204   0.550   5.123
19038SOL     OW59072   8.842   0.469   5.398
19038SOL    HW159073   8.822   0.512   5.486
19038SOL    HW259074   8.920   0.407   5.407
19039SOL     OW59075   8.421   0.890   5.296
19039SOL    HW159076   8.467   0.806   5.267
19039SOL    HW259077   8.365   0.924   5.221
19040SOL     OW59078   8.439   0.410   4.966
19040SOL    HW159079   8.362   0.444   5.020
19040SOL    HW259080   8.405   0.359   4.887
19041SOL     OW59081   8.489   0.701   4.153
19041SOL    HW159082   8.515   0.697   4.249
19041SOL    HW259083   8.404   0.650   4.139
19042SOL     OW59084   7.524   0.811   4.513
19042SOL    HW159085   7.623   0.799   4.522
19042SOL    HW259086   7.500   0.906   4.534
19043SOL     OW59087   7.578   1.821   5.295
19043SOL    HW159088   7.568   1.806   5.394
19043SOL    HW259089   7.492   1.857   5.259
19044SOL     OW59090   8.313   0.348   3.919
19044SOL    HW159091   8.372   0.411   3.870
19044SOL    HW259092   8.332   0.254   3.890
19045SOL     OW59093   0.167   0.585   5.555
19045SOL    HW159094   0.141   0.674   5.519
19045SOL    HW259095   0.165   0.517   5.482
19046SOL     OW59096   8.810   1.144   4.269
19046SOL    HW159097   8.893   1.115   4.221
19046SOL    HW259098   8.761   1.211   4.213
19047SOL     OW59099   7.998   0.196   4.609
19047SOL    HW159100   7.993   0.191   4.709
19047SOL    HW259101   8.000   0.292   4.580
19048SOL     OW59102   8.456   1.456   4.201
19048SOL    HW159103   8.410   1.528   4.149
19048SOL    HW259104   8.452   1.476   4.299
19049SOL     OW59105   7.799   1.801   4.577
19049SOL    HW159106   7.849   1.715   4.583
19049SOL    HW259107   7.864   1.878   4.574
19050SOL     OW59108   0.243   1.066   4.597
19050SOL    HW159109   0.181   1.051   4.521
19050SOL    HW259110   0.191   1.077   4.682
19051SOL     OW59111   8.675   1.550   5.230
19051SOL    HW159112   8.681   1.473   5.294
19051SOL    HW259113   8.623   1.524   5.150
19052SOL     OW59114   7.769   0.943   3.966
19052SOL    HW159115   7.851   0.982   3.924
19052SOL    HW259116   7.742   0.861   3.917
19053SOL     OW59117   8.906   0.735   4.452
19053SOL    HW159118   8.901   0.670   4.527
19053SOL    HW259119   8.986   0.794   4.465
19054SOL     OW59120   7.909   1.266   5.451
19054SOL    HW159121   7.859   1.267   5.365
19054SOL    HW259122   7.846   1.248   5.527
19055SOL     OW59123   8.559   1.776   3.961
19055SOL    HW159124   8.499   1.714   4.011
19055SOL    HW259125   8.590   1.732   3.876
19056SOL     OW59126   7.650   0.285   5.222
19056SOL    HW159127   7.570   0.345   5.209
19056SOL    HW259128   7.640   0.236   5.308
19057SOL     OW59129   0.080   1.377   3.805
19057SOL    HW159130   0.048   1.471   3.795
19057SOL    HW259131   0.004   1.314   3.793
19058SOL     OW59132   7.912   1.743   4.047
19058SOL    HW159133   7.945   1.782   4.133
19058SOL    HW259134   7.988   1.736   3.982
19059SOL     OW59135   8.848   0.107   4.150
19059SOL    HW159136   8.824   0.070   4.060
19059SOL    HW259137   8.947   0.123   4.154
19060SOL     OW59138   7.697   1.785   4.965
19060SOL    HW159139   7.754   1.720   5.015
19060SOL    HW259140   7.681   1.752   4.872
19061SOL     OW59141   8.388   1.698   4.628
19061SOL    HW159142   8.468   1.641   4.649
19061SOL    HW259143   8.339   1.658   4.551
19062SOL     OW59144   7.830   0.700   4.204
19062SOL    HW159145   7.875   0.610   4.201
19062SOL    HW259146   7.736   0.689   4.237
19063SOL     OW59147   8.995   0.222   5.453
19063SOL    HW159148   8.990   0.259   5.545
19063SOL    HW259149   8.923   0.153   5.441
19064SOL     OW59150   8.062   0.122   3.841
19064SOL    HW159151   8.160   0.100   3.848
19064SOL    HW259152   8.031   0.105   3.748
19065SOL     OW59153   8.229   0.264   5.473
19065SOL    HW159154   8.296   0.203   5.516
19065SOL    HW259155   8.156   0.283   5.538
19066SOL     OW59156   8.336   1.514   4.919
19066SOL    HW159157   8.313   1.489   4.825
19066SOL    HW259158   8.397   1.445   4.958
19067SOL     OW59159   8.799   0.590   5.157
19067SOL    HW159160   8.827   0.547   5.242
19067SOL    HW259161   8.824   0.686   5.158
19068SOL     OW59162   8.251   1.402   4.648
19068SOL    HW159163   8.341   1.416   4.606
19068SOL    HW259164   8.180   1.404   4.577
19069SOL     OW59165   8.370   0.503   4.623
19069SOL    HW159166   8.345   0.494   4.527
19069SOL    HW259167   8.418   0.421   4.654
19070SOL     OW59168   7.987   0.064   4.236
19070SOL    HW159169   7.906   0.065   4.294
19070SOL    HW259170   7.990   0.147   4.181
19071SOL     OW59171   8.882   1.188   3.765
19071SOL    HW159172   8.914   1.112   3.822
19071SOL    HW259173   8.790   1.215   3.795
19072SOL     OW59174   7.745   0.035   3.895
19072SOL    HW159175   7.794   0.119   3.874
19072SOL    HW259176   7.807  -0.030   3.940
19073SOL     OW59177   8.383   0.236   4.204
19073SOL    HW159178   8.335   0.277   4.126
19073SOL    HW259179   8.482   0.234   4.185
19074SOL     OW59180   8.524   0.683   5.188
19074SOL    HW159181   8.444   0.622   5.191
19074SOL    HW259182   8.605   0.630   5.164
19075SOL     OW59183   8.675   1.570   4.517
19075SOL    HW159184   8.696   1.644   4.452
19075SOL    HW259185   8.743   1.570   4.590
19076SOL     OW59186   7.907   1.152   4.465
19076SOL    HW159187   7.836   1.125   4.530
19076SOL    HW259188   7.881   1.124   4.372
19077SOL     OW59189   8.719   1.797   4.315
19077SOL    HW159190   8.763   1.861   4.251
19077SOL    HW259191   8.669   1.849   4.385
19078SOL     OW59192   8.480   0.549   3.740
19078SOL    HW159193   8.439   0.631   3.701
19078SOL    HW259194   8.544   0.575   3.813
19079SOL     OW59195   7.526   0.556   5.110
19079SOL    HW159196   7.618   0.555   5.069
19079SOL    HW259197   7.520   0.630   5.177
19080SOL     OW59198   8.009   0.222   4.871
19080SOL    HW159199   8.047   0.138   4.908
19080SOL    HW259200   7.921   0.241   4.915
19081SOL     OW59201   8.314   0.454   4.366
19081SOL    HW159202   8.282   0.526   4.304
19081SOL    HW259203   8.338   0.373   4.313
19082SOL     OW59204   8.465   0.039   4.477
19082SOL    HW159205   8.393   0.044   4.408
19082SOL    HW259206   8.441  -0.030   4.546
19083SOL     OW59207   8.877   1.173   4.591
19083SOL    HW159208   8.822   1.089   4.584
19083SOL    HW259209   8.903   1.202   4.499
19084SOL     OW59210   8.914   0.590   4.716
19084SOL    HW159211   8.884   0.495   4.723
19084SOL    HW259212   8.987   0.606   4.782
19085SOL     OW59213   7.936   1.385   3.898
19085SOL    HW159214   7.849   1.370   3.945
19085SOL    HW259215   7.919   1.411   3.803
19086SOL     OW59216   0.112   1.280   4.381
19086SOL    HW159217   0.211   1.288   4.395
19086SOL    HW259218   0.067   1.364   4.412
19087SOL     OW59219   8.838   0.575   3.802
19087SOL    HW159220   8.784   0.554   3.883
19087SOL    HW259221   8.929   0.534   3.811
19088SOL     OW59222   7.975   0.256   4.052
19088SOL    HW159223   8.002   0.197   3.977
19088SOL    HW259224   7.975   0.351   4.021
19089SOL     OW59225   8.512   1.347   5.064
19089SOL    HW159226   8.432   1.324   5.119
19089SOL    HW259227   8.595   1.321   5.113
19090SOL     OW59228   0.040   1.629   5.349
19090SOL    HW159229   0.067   1.663   5.259
19090SOL    HW259230   0.119   1.591   5.395
19091SOL     OW59231   8.559   1.195   4.824
19091SOL    HW159232   8.519   1.239   4.905
19091SOL    HW259233   8.518   1.232   4.741
19092SOL     OW59234   0.086   1.099   4.803
19092SOL    HW159235   0.091   1.180   4.862
19092SOL    HW259236   0.000   1.101   4.752
19093SOL     OW59237   8.363   0.089   5.126
19093SOL    HW159238   8.388   0.069   5.031
19093SOL    HW259239   8.435   0.145   5.168
19094SOL     OW59240   8.428   1.116   5.443
19094SOL    HW159241   8.329   1.122   5.453
19094SOL    HW259242   8.451   1.036   5.387
19095SOL     OW59243   8.153   1.050   4.092
19095SOL    HW159244   8.139   1.057   4.191
19095SOL    HW259245   8.237   0.999   4.074
19096SOL     OW59246   7.858   0.813   4.975
19096SOL    HW159247   7.944   0.825   5.025
19096SOL    HW259248   7.816   0.726   5.002
19097SOL     OW59249   8.722   0.386   4.986
19097SOL    HW159250   8.743   0.460   5.050
19097SOL    HW259251   8.633   0.403   4.943
19098SOL     OW59252   7.512   1.564   5.055
19098SOL    HW159253   7.466   1.646   5.021
19098SOL    HW259254   7.610   1.583   5.064
19099SOL     OW59255   7.815   1.100   4.225
19099SOL    HW159256   7.808   1.183   4.169
19099SOL    HW259257   7.819   1.020   4.165
19100SOL     OW59258   8.014   0.537   4.589
19100SOL    HW159259   8.026   0.603   4.515
19100SOL    HW259260   8.060   0.571   4.672
19101SOL     OW59261   8.700   1.348   4.112
19101SOL    HW159262   8.750   1.425   4.152
19101SOL    HW259263   8.605   1.350   4.144
19102SOL     OW59264   8.720   1.445   4.866
19102SOL    HW159265   8.767   1.458   4.953
19102SOL    HW259266   8.654   1.371   4.875
19103SOL     OW59267   0.030   0.639   4.196
19103SOL    HW159268  -0.001   0.700   4.269
19103SOL    HW259269   0.080   0.691   4.127
19104SOL     OW59270   7.802   1.510   5.053
19104SOL    HW159271   7.781   1.466   4.966
19104SOL    HW259272   7.899   1.536   5.056
19105SOL     OW59273   7.850   0.751   5.322
19105SOL    HW159274   7.918   0.806   5.275
19105SOL    HW259275   7.890   0.663   5.349
19106SOL     OW59276   0.035   0.779   5.394
19106SOL    HW159277  -0.057   0.817   5.389
19106SOL    HW259278   0.095   0.826   5.329
19107SOL     OW59279   8.461   0.105   5.494
19107SOL    HW159280   8.467   0.190   5.442
19107SOL    HW259281   8.493   0.029   5.437
19108SOL     OW59282   7.952   0.050   5.464
19108SOL    HW159283   7.910  -0.007   5.394
19108SOL    HW259284   7.886   0.119   5.496
19109SOL     OW59285   8.021   0.870   4.753
19109SOL    HW159286   8.065   0.959   4.744
19109SOL    HW259287   7.958   0.870   4.830
19110SOL     OW59288   8.808   0.862   4.769
19110SOL    HW159289   8.733   0.862   4.703
19110SOL    HW259290   8.845   0.770   4.778
19111SOL     OW59291   8.657   0.525   3.999
19111SOL    HW159292   8.670   0.441   4.053
19111SOL    HW259293   8.628   0.599   4.059
19112SOL     OW59294   7.755   0.213   4.955
19112SOL    HW159295   7.732   0.250   5.045
19112SOL    HW259296   7.725   0.118   4.949
19113SOL     OW59297   7.485   1.310   5.006
19113SOL    HW159298   7.538   1.261   5.074
19113SOL    HW259299   7.507   1.408   5.011
19114SOL     OW59300   8.180   0.634   4.788
19114SOL    HW159301   8.239   0.608   4.712
19114SOL    HW259302   8.152   0.730   4.777
19115SOL     OW59303   0.176   0.935   5.578
19115SOL    HW159304   0.130   0.928   5.489
19115SOL    HW259305   0.114   0.979   5.644
19116SOL     OW59306   7.755   0.063   4.342
19116SOL    HW159307   7.744   0.157   4.375
19116SOL    HW259308   7.750   0.000   4.419
19117SOL     OW59309   0.070   0.367   4.098
19117SOL    HW159310   0.072   0.291   4.162
19117SOL    HW259311   0.022   0.444   4.138
19118SOL     OW59312   8.471   0.766   4.690
19118SOL    HW159313   8.486   0.787   4.786
19118SOL    HW259314   8.441   0.671   4.681
19119SOL     OW59315   8.428   1.573   5.424
19119SOL    HW159316   8.408   1.617   5.336
19119SOL    HW259317   8.467   1.482   5.408
19120SOL     OW59318   7.798   0.898   5.528
19120SOL    HW159319   7.874   0.942   5.576
19120SOL    HW259320   7.833   0.851   5.446
19121SOL     OW59321   8.988   0.274   3.849
19121SOL    HW159322   8.927   0.199   3.872
19121SOL    HW259323   9.010   0.326   3.932
19122SOL     OW59324   8.751   0.838   3.766
19122SOL    HW159325   8.785   0.745   3.781
19122SOL    HW259326   8.769   0.865   3.671
19123SOL     OW59327   8.516   1.333   4.573
19123SOL    HW159328   8.523   1.249   4.518
19123SOL    HW259329   8.578   1.402   4.537
19124SOL     OW59330   7.767   0.810   4.673
19124SOL    HW159331   7.860   0.846   4.678
19124SOL    HW259332   7.761   0.725   4.725
19125SOL     OW59333   7.787   0.509   4.730
19125SOL    HW159334   7.735   0.426   4.713
19125SOL    HW259335   7.864   0.514   4.666
19126SOL     OW59336   8.586   0.380   5.402
19126SOL    HW159337   8.541   0.443   5.466
19126SOL    HW259338   8.679   0.411   5.385
19127SOL     OW59339   8.608   0.207   5.201
19127SOL    HW159340   8.608   0.271   5.278
19127SOL    HW259341   8.636   0.255   5.118
19128SOL     OW59342   7.456   1.326   3.924
19128SOL    HW159343   7.363   1.347   3.893
19128SOL    HW259344   7.466   1.227   3.937
19129SOL     OW59345   7.536   1.801   4.651
19129SOL    HW159346   7.494   1.715   4.624
19129SOL    HW259347   7.630   1.804   4.617
19130SOL     OW59348   7.952   1.568   4.634
19130SOL    HW159349   8.018   1.642   4.643
19130SOL    HW259350   7.996   1.489   4.592
19131SOL     OW59351   8.450   0.796   4.962
19131SOL    HW159352   8.491   0.764   5.048
19131SOL    HW259353   8.354   0.769   4.959
19132SOL     OW59354   7.488   0.544   4.838
19132SOL    HW159355   7.573   0.511   4.797
19132SOL    HW259356   7.501   0.559   4.936
19133SOL     OW59357   7.637   0.520   5.446
19133SOL    HW159358   7.696   0.480   5.376
19133SOL    HW259359   7.579   0.591   5.405
19134SOL     OW59360   8.817   0.950   5.384
19134SOL    HW159361   8.856   1.039   5.404
19134SOL    HW259362   8.827   0.930   5.287
19135SOL     OW59363   8.263   0.572   4.049
19135SOL    HW159364   8.270   0.483   4.003
19135SOL    HW259365   8.169   0.606   4.041
19136SOL     OW59366   0.105   0.604   4.930
19136SOL    HW159367   0.067   0.535   4.992
19136SOL    HW259368   0.187   0.568   4.886
19137SOL     OW59369   7.700   1.564   5.468
19137SOL    HW159370   7.670   1.621   5.544
19137SOL    HW259371   7.693   1.467   5.494
19138SOL     OW59372   8.119   0.464   4.993
19138SOL    HW159373   8.085   0.375   4.963
19138SOL    HW259374   8.145   0.518   4.913
19139SOL     OW59375   8.378   1.678   5.189
19139SOL    HW159376   8.354   1.660   5.094
19139SOL    HW259377   8.408   1.772   5.199
19140SOL     OW59378   7.921   0.500   3.915
19140SOL    HW159379   7.982   0.580   3.919
19140SOL    HW259380   7.826   0.531   3.922
19141SOL     OW59381   7.607   1.137   5.190
19141SOL    HW159382   7.629   1.076   5.266
19141SOL    HW259383   7.617   1.088   5.104
19142SOL     OW59384   8.795   1.059   4.958
19142SOL    HW159385   8.819   0.996   4.884
19142SOL    HW259386   8.705   1.099   4.940
19143SOL     OW59387   8.750   0.855   4.033
19143SOL    HW159388   8.664   0.824   4.075
19143SOL    HW259389   8.746   0.841   3.934
19144SOL     OW59390   8.700   1.731   4.852
19144SOL    HW159391   8.784   1.736   4.798
19144SOL    HW259392   8.677   1.635   4.870
19145SOL     OW59393   7.531   1.258   4.746
19145SOL    HW159394   7.526   1.257   4.846
19145SOL    HW259395   7.448   1.217   4.708
19146SOL     OW59396   8.136   1.662   5.440
19146SOL    HW159397   8.080   1.743   5.449
19146SOL    HW259398   8.188   1.666   5.354
19147SOL     OW59399   0.174   0.135   4.247
19147SOL    HW159400   0.247   0.118   4.180
19147SOL    HW259401   0.143   0.048   4.285
19148SOL     OW59402   8.836   1.573   4.201
19148SOL    HW159403   8.903   1.585   4.127
19148SOL    HW259404   8.796   1.662   4.224
19149SOL     OW59405   7.578   1.794   5.575
19149SOL    HW159406   7.537   1.720   5.628
19149SOL    HW259407   7.642   1.845   5.633
19150SOL     OW59408   8.728   0.927   4.396
19150SOL    HW159409   8.788   0.846   4.398
19150SOL    HW259410   8.768   0.996   4.336
19151SOL     OW59411   8.278   1.273   5.146
19151SOL    HW159412   8.273   1.306   5.241
19151SOL    HW259413   8.192   1.292   5.100
19152SOL     OW59414   8.120   1.616   3.878
19152SOL    HW159415   8.129   1.626   3.779
19152SOL    HW259416   8.080   1.527   3.899
19153SOL     OW59417   0.098   1.720   5.118
19153SOL    HW159418   0.151   1.730   5.034
19153SOL    HW259419   0.071   1.810   5.152
19154SOL     OW59420   7.711   0.326   4.444
19154SOL    HW159421   7.632   0.377   4.410
19154SOL    HW259422   7.702   0.311   4.542
19155SOL     OW59423   8.642   1.612   3.755
19155SOL    HW159424   8.648   1.519   3.792
19155SOL    HW259425   8.583   1.612   3.675
19156SOL     OW59426   8.270   1.002   5.096
19156SOL    HW159427   8.310   1.001   5.004
19156SOL    HW259428   8.280   1.094   5.136
19157SOL     OW59429   8.364   0.910   4.015
19157SOL    HW159430   8.427   0.948   3.947
19157SOL    HW259431   8.404   0.827   4.054
19158SOL     OW59432   8.952   1.607   3.768
19158SOL    HW159433   8.860   1.644   3.775
19158SOL    HW259434   8.990   1.627   3.678
19159SOL     OW59435   7.820   1.288   5.214
19159SOL    HW159436   7.807   1.381   5.180
19159SOL    HW259437   7.736   1.236   5.201
19160SOL     OW59438   0.062   1.292   5.013
19160SOL    HW159439   0.122   1.295   5.093
19160SOL    HW259440  -0.013   1.356   5.026
19161SOL     OW59441   8.487   1.098   4.420
19161SOL    HW159442   8.417   1.051   4.474
19161SOL    HW259443   8.546   1.030   4.377
19162SOL     OW59444   8.462   0.236   4.695
19162SOL    HW159445   8.454   0.200   4.602
19162SOL    HW259446   8.460   0.160   4.760
19163SOL     OW59447   8.038   1.487   4.215
19163SOL    HW159448   8.080   1.429   4.145
19163SOL    HW259449   7.994   1.566   4.171
19164SOL     OW59450   0.157   0.385   5.105
19164SOL    HW159451   0.230   0.454   5.109
19164SOL    HW259452   0.185   0.310   5.046
19165SOL     OW59453   7.703   1.348   4.014
19165SOL    HW159454   7.607   1.349   3.987
19165SOL    HW259455   7.715   1.401   4.098
19166SOL     OW59456   7.553   1.013   5.450
19166SOL    HW159457   7.476   0.980   5.504
19166SOL    HW259458   7.638   0.983   5.492
19167SOL     OW59459   8.120   0.203   5.213
19167SOL    HW159460   8.210   0.187   5.173
19167SOL    HW259461   8.128   0.208   5.312
19168SOL     OW59462   7.523   0.345   3.757
19168SOL    HW159463   7.431   0.317   3.728
19168SOL    HW259464   7.554   0.422   3.701
19169SOL     OW59465   8.888   0.856   5.122
19169SOL    HW159466   8.831   0.908   5.059
19169SOL    HW259467   8.984   0.868   5.098
19170SOL     OW59468   7.520   0.166   4.042
19170SOL    HW159469   7.503   0.249   3.988
19170SOL    HW259470   7.610   0.129   4.020
19171SOL     OW59471   8.631   1.335   3.843
19171SOL    HW159472   8.532   1.324   3.845
19171SOL    HW259473   8.665   1.350   3.936
19172SOL     OW59474   8.061   0.842   5.155
19172SOL    HW159475   8.117   0.923   5.138
19172SOL    HW259476   8.120   0.762   5.158
19173SOL     OW59477   8.941   1.767   4.683
19173SOL    HW159478   8.974   1.831   4.614
19173SOL    HW259479   9.007   1.761   4.758
19174SOL     OW59480   8.164   0.565   5.432
19174SOL    HW159481   8.183   0.630   5.506
19174SOL    HW259482   8.224   0.485   5.441
19175SOL     OW59483   8.898   1.220   5.357
19175SOL    HW159484   8.889   1.210   5.456
19175SOL    HW259485   8.994   1.213   5.331
19176SOL     OW59486   7.838   1.741   5.284
19176SOL    HW159487   7.747   1.782   5.282
19176SOL    HW259488   7.831   1.647   5.316
19177SOL     OW59489   0.122   0.883   4.978
19177SOL    HW159490   0.095   0.794   4.941
19177SOL    HW259491   0.123   0.951   4.905
19178SOL     OW59492   8.673   0.325   4.173
19178SOL    HW159493   8.738   0.251   4.162
19178SOL    HW259494   8.693   0.375   4.257
19179SOL     OW59495   8.042   0.745   4.376
19179SOL    HW159496   8.092   0.830   4.357
19179SOL    HW259497   7.954   0.747   4.328
19180SOL     OW59498   0.225   0.342   5.366
19180SOL    HW159499   0.208   0.373   5.272
19180SOL    HW259500   0.141   0.305   5.404
19181SOL     OW59501   0.178   0.934   5.241
19181SOL    HW159502   0.216   1.025   5.256
19181SOL    HW259503   0.170   0.917   5.142
19182SOL     OW59504   8.307   1.374   3.740
19182SOL    HW159505   8.261   1.389   3.828
19182SOL    HW259506   8.351   1.459   3.710
19183SOL     OW59507   8.109   1.790   4.677
19183SOL    HW159508   8.063   1.878   4.664
19183SOL    HW259509   8.208   1.802   4.670
19184SOL     OW59510   8.307   0.956   4.585
19184SOL    HW159511   8.361   0.887   4.633
19184SOL    HW259512   8.275   1.025   4.651
19185SOL     OW59513   8.531   0.984   3.811
19185SOL    HW159514   8.508   1.037   3.729
19185SOL    HW259515   8.612   0.928   3.792
19186SOL     OW59516   7.669   1.314   5.568
19186SOL    HW159517   7.604   1.241   5.547
19186SOL    HW259518   7.673   1.328   5.666
19187SOL     OW59519   7.527   1.240   4.377
19187SOL    HW159520   7.526   1.193   4.465
19187SOL    HW259521   7.609   1.212   4.326
19188SOL     OW59522   8.120   1.391   5.348
19188SOL    HW159523   8.042   1.341   5.386
19188SOL    HW259524   8.117   1.486   5.379
19189SOL     OW59525   7.876   0.424   4.244
19189SOL    HW159526   7.906   0.352   4.182
19189SOL    HW259527   7.837   0.384   4.327
19190SOL     OW59528   0.153   1.487   4.828
19190SOL    HW159529   0.060   1.462   4.801
19190SOL    HW259530   0.179   1.437   4.910
19191SOL     OW59531   7.765   0.547   5.004
19191SOL    HW159532   7.803   0.488   5.076
19191SOL    HW259533   7.805   0.521   4.916
19192SOL     OW59534   8.260   1.586   4.411
19192SOL    HW159535   8.292   1.596   4.317
19192SOL    HW259536   8.181   1.524   4.413
19193SOL     OW59537   8.872   0.214   4.836
19193SOL    HW159538   8.924   0.149   4.891
19193SOL    HW259539   8.823   0.277   4.897
19194SOL     OW59540   8.449   0.034   4.878
19194SOL    HW159541   8.386  -0.038   4.847
19194SOL    HW259542   8.542  -0.002   4.878
19195SOL     OW59543   8.218   1.330   4.025
19195SOL    HW159544   8.172   1.243   4.042
19195SOL    HW259545   8.309   1.327   4.066
19196SOL     OW59546   8.066   1.567   5.008
19196SOL    HW159547   8.061   1.649   5.065
19196SOL    HW259548   8.155   1.564   4.963
19197SOL     OW59549   8.800   0.052   3.892
19197SOL    HW159550   8.835   0.011   3.808
19197SOL    HW259551   8.710   0.014   3.912
19198SOL     OW59552   8.748   0.453   4.415
19198SOL    HW159553   8.689   0.533   4.419
19198SOL    HW259554   8.763   0.418   4.508
19199SOL     OW59555   0.041   0.221   4.606
19199SOL    HW159556  -0.043   0.220   4.660
19199SOL    HW259557   0.043   0.304   4.550
19200SOL     OW59558   7.487   1.077   4.024
19200SOL    HW159559   7.586   1.066   4.015
19200SOL    HW259560   7.447   0.991   4.056
19201SOL     OW59561   8.323   1.646   4.061
19201SOL    HW159562   8.246   1.611   4.007
19201SOL    HW259563   8.291   1.717   4.123
19202SOL     OW59564   7.678   0.628   5.699
19202SOL    HW159565   7.585   0.626   5.736
19202SOL    HW259566   7.679   0.589   5.607
19203SOL     OW59567   7.673   0.275   6.582
19203SOL    HW159568   7.708   0.258   6.674
19203SOL    HW259569   7.585   0.230   6.570
19204SOL     OW59570   7.467   0.368   6.233
19204SOL    HW159571   7.385   0.411   6.272
19204SOL    HW259572   7.439   0.295   6.170
19205SOL     OW59573   8.017   1.275   6.751
19205SOL    HW159574   7.924   1.268   6.714
19205SOL    HW259575   8.028   1.364   6.795
19206SOL     OW59576   0.003   1.511   6.289
19206SOL    HW159577  -0.054   1.495   6.370
19206SOL    HW259578  -0.056   1.521   6.209
19207SOL     OW59579   0.191   0.618   6.442
19207SOL    HW159580   0.224   0.712   6.442
19207SOL    HW259581   0.242   0.564   6.508
19208SOL     OW59582   8.583   0.703   6.303
19208SOL    HW159583   8.640   0.781   6.278
19208SOL    HW259584   8.523   0.729   6.379
19209SOL     OW59585   0.203   0.607   5.817
19209SOL    HW159586   0.191   0.594   5.718
19209SOL    HW259587   0.173   0.526   5.866
19210SOL     OW59588   8.216   1.144   6.609
19210SOL    HW159589   8.138   1.161   6.669
19210SOL    HW259590   8.250   1.231   6.573
19211SOL     OW59591   8.298   0.798   7.409
19211SOL    HW159592   8.294   0.874   7.474
19211SOL    HW259593   8.320   0.834   7.318
19212SOL     OW59594   8.133   1.012   6.251
19212SOL    HW159595   8.202   0.996   6.321
19212SOL    HW259596   8.060   1.069   6.289
19213SOL     OW59597   8.134   1.161   7.389
19213SOL    HW159598   8.194   1.240   7.403
19213SOL    HW259599   8.048   1.192   7.348
19214SOL     OW59600   7.783   1.435   6.647
19214SOL    HW159601   7.705   1.404   6.594
19214SOL    HW259602   7.841   1.493   6.590
19215SOL     OW59603   8.908   1.505   6.925
19215SOL    HW159604   8.932   1.599   6.951
19215SOL    HW259605   8.892   1.451   7.007
19216SOL     OW59606   7.886   0.392   7.085
19216SOL    HW159607   7.968   0.336   7.094
19216SOL    HW259608   7.805   0.334   7.089
19217SOL     OW59609   7.679   1.713   6.069
19217SOL    HW159610   7.713   1.790   6.123
19217SOL    HW259611   7.723   1.713   5.979
19218SOL     OW59612   8.575   1.341   7.276
19218SOL    HW159613   8.622   1.341   7.364
19218SOL    HW259614   8.527   1.254   7.265
19219SOL     OW59615   7.678   1.434   6.124
19219SOL    HW159616   7.652   1.530   6.124
19219SOL    HW259617   7.607   1.380   6.169
19220SOL     OW59618   7.688   1.091   6.472
19220SOL    HW159619   7.702   1.007   6.524
19220SOL    HW259620   7.633   1.155   6.527
19221SOL     OW59621   8.068   1.786   7.025
19221SOL    HW159622   7.976   1.769   7.060
19221SOL    HW259623   8.096   1.878   7.051
19222SOL     OW59624   8.054   0.964   5.709
19222SOL    HW159625   8.061   1.048   5.655
19222SOL    HW259626   8.100   0.977   5.797
19223SOL     OW59627   0.042   0.114   7.066
19223SOL    HW159628   0.024   0.181   6.994
19223SOL    HW259629   0.039   0.160   7.155
19224SOL     OW59630   7.570   0.643   6.149
19224SOL    HW159631   7.525   0.555   6.166
19224SOL    HW259632   7.569   0.697   6.233
19225SOL     OW59633   7.475   1.596   5.703
19225SOL    HW159634   7.456   1.500   5.724
19225SOL    HW259635   7.442   1.654   5.778
19226SOL     OW59636   0.137   0.922   6.198
19226SOL    HW159637   0.232   0.893   6.206
19226SOL    HW259638   0.129   0.987   6.123
19227SOL     OW59639   0.089   1.108   6.018
19227SOL    HW159640   0.175   1.110   5.966
19227SOL    HW259641   0.103   1.155   6.106
19228SOL     OW59642   7.561   0.737   7.183
19228SOL    HW159643   7.649   0.724   7.228
19228SOL    HW259644   7.548   0.834   7.161
19229SOL     OW59645   8.061   1.365   6.312
19229SOL    HW159646   8.012   1.278   6.321
19229SOL    HW259647   8.038   1.408   6.225
19230SOL     OW59648   8.741   1.228   7.009
19230SOL    HW159649   8.778   1.155   6.951
19230SOL    HW259650   8.793   1.233   7.094
19231SOL     OW59651   8.257   0.004   6.088
19231SOL    HW159652   8.297   0.095   6.079
19231SOL    HW259653   8.157   0.012   6.094
19232SOL     OW59654   7.645   0.976   6.850
19232SOL    HW159655   7.734   0.931   6.836
19232SOL    HW259656   7.572   0.911   6.831
19233SOL     OW59657   8.973   0.999   5.776
19233SOL    HW159658   8.910   0.923   5.789
19233SOL    HW259659   9.021   1.017   5.862
19234SOL     OW59660   8.635   1.792   7.202
19234SOL    HW159661   8.659   1.852   7.126
19234SOL    HW259662   8.642   1.697   7.172
19235SOL     OW59663   7.765   0.251   7.387
19235SOL    HW159664   7.836   0.322   7.393
19235SOL    HW259665   7.677   0.290   7.415
19236SOL     OW59666   8.914   1.417   6.539
19236SOL    HW159667   8.855   1.423   6.619
19236SOL    HW259668   8.899   1.329   6.493
19237SOL     OW59669   0.115   1.714   6.158
19237SOL    HW159670   0.074   1.691   6.070
19237SOL    HW259671   0.097   1.640   6.223
19238SOL     OW59672   8.046   0.729   5.856
19238SOL    HW159673   8.070   0.798   5.788
19238SOL    HW259674   7.968   0.762   5.910
19239SOL     OW59675   8.729   0.345   6.530
19239SOL    HW159676   8.643   0.295   6.517
19239SOL    HW259677   8.791   0.291   6.586
19240SOL     OW59678   0.024   1.662   5.893
19240SOL    HW159679   0.113   1.708   5.896
19240SOL    HW259680   0.003   1.638   5.798
19241SOL     OW59681   8.255   0.605   7.051
19241SOL    HW159682   8.208   0.602   7.140
19241SOL    HW259683   8.204   0.550   6.985
19242SOL     OW59684   8.842   0.469   7.260
19242SOL    HW159685   8.822   0.512   7.348
19242SOL    HW259686   8.920   0.407   7.269
19243SOL     OW59687   8.421   0.890   7.158
19243SOL    HW159688   8.467   0.806   7.129
19243SOL    HW259689   8.365   0.924   7.083
19244SOL     OW59690   8.439   0.410   6.828
19244SOL    HW159691   8.362   0.444   6.882
19244SOL    HW259692   8.405   0.359   6.749
19245SOL     OW59693   8.489   0.701   6.015
19245SOL    HW159694   8.515   0.697   6.111
19245SOL    HW259695   8.404   0.650   6.001
19246SOL     OW59696   7.524   0.811   6.375
19246SOL    HW159697   7.623   0.799   6.384
19246SOL    HW259698   7.500   0.906   6.396
19247SOL     OW59699   7.578   1.821   7.157
19247SOL    HW159700   7.568   1.806   7.256
19247SOL    HW259701   7.492   1.857   7.121
19248SOL     OW59702   8.313   0.348   5.781
19248SOL    HW159703   8.372   0.411   5.732
19248SOL    HW259704   8.332   0.254   5.752
19249SOL     OW59705   0.167   0.585   7.417
19249SOL    HW159706   0.141   0.674   7.381
19249SOL    HW259707   0.165   0.517   7.344
19250SOL     OW59708   8.810   1.144   6.131
19250SOL    HW159709   8.893   1.115   6.083
19250SOL    HW259710   8.761   1.211   6.075
19251SOL     OW59711   7.998   0.196   6.471
19251SOL    HW159712   7.993   0.191   6.571
19251SOL    HW259713   8.000   0.292   6.442
19252SOL     OW59714   8.456   1.456   6.063
19252SOL    HW159715   8.410   1.528   6.011
19252SOL    HW259716   8.452   1.476   6.161
19253SOL     OW59717   7.799   1.801   6.439
19253SOL    HW159718   7.849   1.715   6.445
19253SOL    HW259719   7.864   1.878   6.436
19254SOL     OW59720   0.243   1.066   6.459
19254SOL    HW159721   0.181   1.051   6.383
19254SOL    HW259722   0.191   1.077   6.544
19255SOL     OW59723   8.675   1.550   7.092
19255SOL    HW159724   8.681   1.473   7.156
19255SOL    HW259725   8.623   1.524   7.012
19256SOL     OW59726   7.769   0.943   5.828
19256SOL    HW159727   7.851   0.982   5.786
19256SOL    HW259728   7.742   0.861   5.779
19257SOL     OW59729   8.906   0.735   6.314
19257SOL    HW159730   8.901   0.670   6.389
19257SOL    HW259731   8.986   0.794   6.327
19258SOL     OW59732   7.909   1.266   7.313
19258SOL    HW159733   7.859   1.267   7.227
19258SOL    HW259734   7.846   1.248   7.389
19259SOL     OW59735   8.559   1.776   5.823
19259SOL    HW159736   8.499   1.714   5.873
19259SOL    HW259737   8.590   1.732   5.738
19260SOL     OW59738   7.650   0.285   7.084
19260SOL    HW159739   7.570   0.345   7.071
19260SOL    HW259740   7.640   0.236   7.170
19261SOL     OW59741   0.080   1.377   5.667
19261SOL    HW159742   0.048   1.471   5.657
19261SOL    HW259743   0.004   1.314   5.655
19262SOL     OW59744   7.912   1.743   5.909
19262SOL    HW159745   7.945   1.782   5.995
19262SOL    HW259746   7.988   1.736   5.844
19263SOL     OW59747   8.848   0.107   6.012
19263SOL    HW159748   8.824   0.070   5.922
19263SOL    HW259749   8.947   0.123   6.016
19264SOL     OW59750   7.697   1.785   6.827
19264SOL    HW159751   7.754   1.720   6.877
19264SOL    HW259752   7.681   1.752   6.734
19265SOL     OW59753   8.388   1.698   6.490
19265SOL    HW159754   8.468   1.641   6.511
19265SOL    HW259755   8.339   1.658   6.413
19266SOL     OW59756   7.830   0.700   6.066
19266SOL    HW159757   7.875   0.610   6.063
19266SOL    HW259758   7.736   0.689   6.099
19267SOL     OW59759   8.995   0.222   7.315
19267SOL    HW159760   8.990   0.259   7.407
19267SOL    HW259761   8.923   0.153   7.303
19268SOL     OW59762   8.062   0.122   5.703
19268SOL    HW159763   8.160   0.100   5.710
19268SOL    HW259764   8.031   0.105   5.610
19269SOL     OW59765   8.229   0.264   7.335
19269SOL    HW159766   8.296   0.203   7.378
19269SOL    HW259767   8.156   0.283   7.400
19270SOL     OW59768   8.336   1.514   6.781
19270SOL    HW159769   8.313   1.489   6.687
19270SOL    HW259770   8.397   1.445   6.820
19271SOL     OW59771   8.799   0.590   7.019
19271SOL    HW159772   8.827   0.547   7.104
19271SOL    HW259773   8.824   0.686   7.020
19272SOL     OW59774   8.251   1.402   6.510
19272SOL    HW159775   8.341   1.416   6.468
19272SOL    HW259776   8.180   1.404   6.439
19273SOL     OW59777   8.370   0.503   6.485
19273SOL    HW159778   8.345   0.494   6.389
19273SOL    HW259779   8.418   0.421   6.516
19274SOL     OW59780   7.987   0.064   6.098
19274SOL    HW159781   7.906   0.065   6.156
19274SOL    HW259782   7.990   0.147   6.043
19275SOL     OW59783   8.882   1.188   5.627
19275SOL    HW159784   8.914   1.112   5.684
19275SOL    HW259785   8.790   1.215   5.657
19276SOL     OW59786   7.745   0.035   5.757
19276SOL    HW159787   7.794   0.119   5.736
19276SOL    HW259788   7.807  -0.030   5.802
19277SOL     OW59789   8.383   0.236   6.066
19277SOL    HW159790   8.335   0.277   5.988
19277SOL    HW259791   8.482   0.234   6.047
19278SOL     OW59792   8.524   0.683   7.050
19278SOL    HW159793   8.444   0.622   7.053
19278SOL    HW259794   8.605   0.630   7.026
19279SOL     OW59795   8.675   1.570   6.379
19279SOL    HW159796   8.696   1.644   6.314
19279SOL    HW259797   8.743   1.570   6.452
19280SOL     OW59798   7.907   1.152   6.327
19280SOL    HW159799   7.836   1.125   6.392
19280SOL    HW259800   7.881   1.124   6.234
19281SOL     OW59801   8.719   1.797   6.177
19281SOL    HW159802   8.763   1.861   6.113
19281SOL    HW259803   8.669   1.849   6.247
19282SOL     OW59804   8.480   0.549   5.602
19282SOL    HW159805   8.439   0.631   5.563
19282SOL    HW259806   8.544   0.575   5.675
19283SOL     OW59807   7.526   0.556   6.972
19283SOL    HW159808   7.618   0.555   6.931
19283SOL    HW259809   7.520   0.630   7.039
19284SOL     OW59810   8.009   0.222   6.733
19284SOL    HW159811   8.047   0.138   6.770
19284SOL    HW259812   7.921   0.241   6.777
19285SOL     OW59813   8.314   0.454   6.228
19285SOL    HW159814   8.282   0.526   6.166
19285SOL    HW259815   8.338   0.373   6.175
19286SOL     OW59816   8.465   0.039   6.339
19286SOL    HW159817   8.393   0.044   6.270
19286SOL    HW259818   8.441  -0.030   6.408
19287SOL     OW59819   8.877   1.173   6.453
19287SOL    HW159820   8.822   1.089   6.446
19287SOL    HW259821   8.903   1.202   6.361
19288SOL     OW59822   8.914   0.590   6.578
19288SOL    HW159823   8.884   0.495   6.585
19288SOL    HW259824   8.987   0.606   6.644
19289SOL     OW59825   7.936   1.385   5.760
19289SOL    HW159826   7.849   1.370   5.807
19289SOL    HW259827   7.919   1.411   5.665
19290SOL     OW59828   0.112   1.280   6.243
19290SOL    HW159829   0.211   1.288   6.257
19290SOL    HW259830   0.067   1.364   6.274
19291SOL     OW59831   8.838   0.575   5.664
19291SOL    HW159832   8.784   0.554   5.745
19291SOL    HW259833   8.929   0.534   5.673
19292SOL     OW59834   7.975   0.256   5.914
19292SOL    HW159835   8.002   0.197   5.839
19292SOL    HW259836   7.975   0.351   5.883
19293SOL     OW59837   8.512   1.347   6.926
19293SOL    HW159838   8.432   1.324   6.981
19293SOL    HW259839   8.595   1.321   6.975
19294SOL     OW59840   0.040   1.629   7.211
19294SOL    HW159841   0.067   1.663   7.121
19294SOL    HW259842   0.119   1.591   7.257
19295SOL     OW59843   8.559   1.195   6.686
19295SOL    HW159844   8.519   1.239   6.767
19295SOL    HW259845   8.518   1.232   6.603
19296SOL     OW59846   0.086   1.099   6.665
19296SOL    HW159847   0.091   1.180   6.724
19296SOL    HW259848   0.000   1.101   6.614
19297SOL     OW59849   8.363   0.089   6.988
19297SOL    HW159850   8.388   0.069   6.893
19297SOL    HW259851   8.435   0.145   7.030
19298SOL     OW59852   8.428   1.116   7.305
19298SOL    HW159853   8.329   1.122   7.315
19298SOL    HW259854   8.451   1.036   7.249
19299SOL     OW59855   8.153   1.050   5.954
19299SOL    HW159856   8.139   1.057   6.053
19299SOL    HW259857   8.237   0.999   5.936
19300SOL     OW59858   7.858   0.813   6.837
19300SOL    HW159859   7.944   0.825   6.887
19300SOL    HW259860   7.816   0.726   6.864
19301SOL     OW59861   8.722   0.386   6.848
19301SOL    HW159862   8.743   0.460   6.912
19301SOL    HW259863   8.633   0.403   6.805
19302SOL     OW59864   7.512   1.564   6.917
19302SOL    HW159865   7.466   1.646   6.883
19302SOL    HW259866   7.610   1.583   6.926
19303SOL     OW59867   7.815   1.100   6.087
19303SOL    HW159868   7.808   1.183   6.031
19303SOL    HW259869   7.819   1.020   6.027
19304SOL     OW59870   8.014   0.537   6.451
19304SOL    HW159871   8.026   0.603   6.377
19304SOL    HW259872   8.060   0.571   6.534
19305SOL     OW59873   8.700   1.348   5.974
19305SOL    HW159874   8.750   1.425   6.014
19305SOL    HW259875   8.605   1.350   6.006
19306SOL     OW59876   8.720   1.445   6.728
19306SOL    HW159877   8.767   1.458   6.815
19306SOL    HW259878   8.654   1.371   6.737
19307SOL     OW59879   0.030   0.639   6.058
19307SOL    HW159880  -0.001   0.700   6.131
19307SOL    HW259881   0.080   0.691   5.989
19308SOL     OW59882   7.802   1.510   6.915
19308SOL    HW159883   7.781   1.466   6.828
19308SOL    HW259884   7.899   1.536   6.918
19309SOL     OW59885   7.850   0.751   7.184
19309SOL    HW159886   7.918   0.806   7.137
19309SOL    HW259887   7.890   0.663   7.211
19310SOL     OW59888   0.035   0.779   7.256
19310SOL    HW159889  -0.057   0.817   7.251
19310SOL    HW259890   0.095   0.826   7.191
19311SOL     OW59891   8.461   0.105   7.356
19311SOL    HW159892   8.467   0.190   7.304
19311SOL    HW259893   8.493   0.029   7.299
19312SOL     OW59894   7.952   0.050   7.326
19312SOL    HW159895   7.910  -0.007   7.256
19312SOL    HW259896   7.886   0.119   7.358
19313SOL     OW59897   8.021   0.870   6.615
19313SOL    HW159898   8.065   0.959   6.606
19313SOL    HW259899   7.958   0.870   6.692
19314SOL     OW59900   8.808   0.862   6.631
19314SOL    HW159901   8.733   0.862   6.565
19314SOL    HW259902   8.845   0.770   6.640
19315SOL     OW59903   8.657   0.525   5.861
19315SOL    HW159904   8.670   0.441   5.915
19315SOL    HW259905   8.628   0.599   5.921
19316SOL     OW59906   7.755   0.213   6.817
19316SOL    HW159907   7.732   0.250   6.907
19316SOL    HW259908   7.725   0.118   6.811
19317SOL     OW59909   7.485   1.310   6.868
19317SOL    HW159910   7.538   1.261   6.936
19317SOL    HW259911   7.507   1.408   6.873
19318SOL     OW59912   8.180   0.634   6.650
19318SOL    HW159913   8.239   0.608   6.574
19318SOL    HW259914   8.152   0.730   6.639
19319SOL     OW59915   0.176   0.935   7.440
19319SOL    HW159916   0.130   0.928   7.351
19319SOL    HW259917   0.114   0.979   7.506
19320SOL     OW59918   7.755   0.063   6.204
19320SOL    HW159919   7.744   0.157   6.237
19320SOL    HW259920   7.750   0.000   6.281
19321SOL     OW59921   0.070   0.367   5.960
19321SOL    HW159922   0.072   0.291   6.024
19321SOL    HW259923   0.022   0.444   6.000
19322SOL     OW59924   8.471   0.766   6.552
19322SOL    HW159925   8.486   0.787   6.648
19322SOL    HW259926   8.441   0.671   6.543
19323SOL     OW59927   8.428   1.573   7.286
19323SOL    HW159928   8.408   1.617   7.198
19323SOL    HW259929   8.467   1.482   7.270
19324SOL     OW59930   7.798   0.898   7.390
19324SOL    HW159931   7.874   0.942   7.438
19324SOL    HW259932   7.833   0.851   7.308
19325SOL     OW59933   8.988   0.274   5.711
19325SOL    HW159934   8.927   0.199   5.734
19325SOL    HW259935   9.010   0.326   5.794
19326SOL     OW59936   8.751   0.838   5.628
19326SOL    HW159937   8.785   0.745   5.643
19326SOL    HW259938   8.769   0.865   5.533
19327SOL     OW59939   8.516   1.333   6.435
19327SOL    HW159940   8.523   1.249   6.380
19327SOL    HW259941   8.578   1.402   6.399
19328SOL     OW59942   7.767   0.810   6.535
19328SOL    HW159943   7.860   0.846   6.540
19328SOL    HW259944   7.761   0.725   6.587
19329SOL     OW59945   7.787   0.509   6.592
19329SOL    HW159946   7.735   0.426   6.575
19329SOL    HW259947   7.864   0.514   6.528
19330SOL     OW59948   8.586   0.380   7.264
19330SOL    HW159949   8.541   0.443   7.328
19330SOL    HW259950   8.679   0.411   7.247
19331SOL     OW59951   8.608   0.207   7.063
19331SOL    HW159952   8.608   0.271   7.140
19331SOL    HW259953   8.636   0.255   6.980
19332SOL     OW59954   7.456   1.326   5.786
19332SOL    HW159955   7.363   1.347   5.755
19332SOL    HW259956   7.466   1.227   5.799
19333SOL     OW59957   7.536   1.801   6.513
19333SOL    HW159958   7.494   1.715   6.486
19333SOL    HW259959   7.630   1.804   6.479
19334SOL     OW59960   7.952   1.568   6.496
19334SOL    HW159961   8.018   1.642   6.505
19334SOL    HW259962   7.996   1.489   6.454
19335SOL     OW59963   8.450   0.796   6.824
19335SOL    HW159964   8.491   0.764   6.910
19335SOL    HW259965   8.354   0.769   6.821
19336SOL     OW59966   7.488   0.544   6.700
19336SOL    HW159967   7.573   0.511   6.659
19336SOL    HW259968   7.501   0.559   6.798
19337SOL     OW59969   7.637   0.520   7.308
19337SOL    HW159970   7.696   0.480   7.238
19337SOL    HW259971   7.579   0.591   7.267
19338SOL     OW59972   8.817   0.950   7.246
19338SOL    HW159973   8.856   1.039   7.266
19338SOL    HW259974   8.827   0.930   7.149
19339SOL     OW59975   8.263   0.572   5.911
19339SOL    HW159976   8.270   0.483   5.865
19339SOL    HW259977   8.169   0.606   5.903
19340SOL     OW59978   0.105   0.604   6.792
19340SOL    HW159979   0.067   0.535   6.854
19340SOL    HW259980   0.187   0.568   6.748
19341SOL     OW59981   7.700   1.564   7.330
19341SOL    HW159982   7.670   1.621   7.406
19341SOL    HW259983   7.693   1.467   7.356
19342SOL     OW59984   8.119   0.464   6.855
19342SOL    HW159985   8.085   0.375   6.825
19342SOL    HW259986   8.145   0.518   6.775
19343SOL     OW59987   8.378   1.678   7.051
19343SOL    HW159988   8.354   1.660   6.956
19343SOL    HW259989   8.408   1.772   7.061
19344SOL     OW59990   7.921   0.500   5.777
19344SOL    HW159991   7.982   0.580   5.781
19344SOL    HW259992   7.826   0.531   5.784
19345SOL     OW59993   7.607   1.137   7.052
19345SOL    HW159994   7.629   1.076   7.128
19345SOL    HW259995   7.617   1.088   6.966
19346SOL     OW59996   8.795   1.059   6.820
19346SOL    HW159997   8.819   0.996   6.746
19346SOL    HW259998   8.705   1.099   6.802
19347SOL     OW59999   8.750   0.855   5.895
19347SOL    HW160000   8.664   0.824   5.937
19347SOL    HW260001   8.746   0.841   5.796
19348SOL     OW60002   8.700   1.731   6.714
19348SOL    HW160003   8.784   1.736   6.660
19348SOL    HW260004   8.677   1.635   6.732
19349SOL     OW60005   7.531   1.258   6.608
19349SOL    HW160006   7.526   1.257   6.708
19349SOL    HW260007   7.448   1.217   6.570
19350SOL     OW60008   8.136   1.662   7.302
19350SOL    HW160009   8.080   1.743   7.311
19350SOL    HW260010   8.188   1.666   7.216
19351SOL     OW60011   0.174   0.135   6.109
19351SOL    HW160012   0.247   0.118   6.042
19351SOL    HW260013   0.143   0.048   6.147
19352SOL     OW60014   8.836   1.573   6.063
19352SOL    HW160015   8.903   1.585   5.989
19352SOL    HW260016   8.796   1.662   6.086
19353SOL     OW60017   7.578   1.794   7.437
19353SOL    HW160018   7.537   1.720   7.490
19353SOL    HW260019   7.642   1.845   7.495
19354SOL     OW60020   8.728   0.927   6.258
19354SOL    HW160021   8.788   0.846   6.260
19354SOL    HW260022   8.768   0.996   6.198
19355SOL     OW60023   8.278   1.273   7.008
19355SOL    HW160024   8.273   1.306   7.103
19355SOL    HW260025   8.192   1.292   6.962
19356SOL     OW60026   8.120   1.616   5.740
19356SOL    HW160027   8.129   1.626   5.641
19356SOL    HW260028   8.080   1.527   5.761
19357SOL     OW60029   0.098   1.720   6.980
19357SOL    HW160030   0.151   1.730   6.896
19357SOL    HW260031   0.071   1.810   7.014
19358SOL     OW60032   7.711   0.326   6.306
19358SOL    HW160033   7.632   0.377   6.272
19358SOL    HW260034   7.702   0.311   6.404
19359SOL     OW60035   8.642   1.612   5.617
19359SOL    HW160036   8.648   1.519   5.654
19359SOL    HW260037   8.583   1.612   5.537
19360SOL     OW60038   8.270   1.002   6.958
19360SOL    HW160039   8.310   1.001   6.866
19360SOL    HW260040   8.280   1.094   6.998
19361SOL     OW60041   8.364   0.910   5.877
19361SOL    HW160042   8.427   0.948   5.809
19361SOL    HW260043   8.404   0.827   5.916
19362SOL     OW60044   8.952   1.607   5.630
19362SOL    HW160045   8.860   1.644   5.637
19362SOL    HW260046   8.990   1.627   5.540
19363SOL     OW60047   7.820   1.288   7.076
19363SOL    HW160048   7.807   1.381   7.042
19363SOL    HW260049   7.736   1.236   7.063
19364SOL     OW60050   0.062   1.292   6.875
19364SOL    HW160051   0.122   1.295   6.955
19364SOL    HW260052  -0.013   1.356   6.888
19365SOL     OW60053   8.487   1.098   6.282
19365SOL    HW160054   8.417   1.051   6.336
19365SOL    HW260055   8.546   1.030   6.239
19366SOL     OW60056   8.462   0.236   6.557
19366SOL    HW160057   8.454   0.200   6.464
19366SOL    HW260058   8.460   0.160   6.622
19367SOL     OW60059   8.038   1.487   6.077
19367SOL    HW160060   8.080   1.429   6.007
19367SOL    HW260061   7.994   1.566   6.033
19368SOL     OW60062   0.157   0.385   6.967
19368SOL    HW160063   0.230   0.454   6.971
19368SOL    HW260064   0.185   0.310   6.908
19369SOL     OW60065   7.703   1.348   5.876
19369SOL    HW160066   7.607   1.349   5.849
19369SOL    HW260067   7.715   1.401   5.960
19370SOL     OW60068   7.553   1.013   7.312
19370SOL    HW160069   7.476   0.980   7.366
19370SOL    HW260070   7.638   0.983   7.354
19371SOL     OW60071   8.120   0.203   7.075
19371SOL    HW160072   8.210   0.187   7.035
19371SOL    HW260073   8.128   0.208   7.174
19372SOL     OW60074   7.523   0.345   5.619
19372SOL    HW160075   7.431   0.317   5.590
19372SOL    HW260076   7.554   0.422   5.563
19373SOL     OW60077   8.888   0.856   6.984
19373SOL    HW160078   8.831   0.908   6.921
19373SOL    HW260079   8.984   0.868   6.960
19374SOL     OW60080   7.520   0.166   5.904
19374SOL    HW160081   7.503   0.249   5.850
19374SOL    HW260082   7.610   0.129   5.882
19375SOL     OW60083   8.631   1.335   5.705
19375SOL    HW160084   8.532   1.324   5.707
19375SOL    HW260085   8.665   1.350   5.798
19376SOL     OW60086   8.061   0.842   7.017
19376SOL    HW160087   8.117   0.923   7.000
19376SOL    HW260088   8.120   0.762   7.020
19377SOL     OW60089   8.941   1.767   6.545
19377SOL    HW160090   8.974   1.831   6.476
19377SOL    HW260091   9.007   1.761   6.620
19378SOL     OW60092   8.164   0.565   7.294
19378SOL    HW160093   8.183   0.630   7.368
19378SOL    HW260094   8.224   0.485   7.303
19379SOL     OW60095   8.898   1.220   7.219
19379SOL    HW160096   8.889   1.210   7.318
19379SOL    HW260097   8.994   1.213   7.193
19380SOL     OW60098   7.838   1.741   7.146
19380SOL    HW160099   7.747   1.782   7.144
19380SOL    HW260100   7.831   1.647   7.178
19381SOL     OW60101   0.122   0.883   6.840
19381SOL    HW160102   0.095   0.794   6.803
19381SOL    HW260103   0.123   0.951   6.767
19382SOL     OW60104   8.673   0.325   6.035
19382SOL    HW160105   8.738   0.251   6.024
19382SOL    HW260106   8.693   0.375   6.119
19383SOL     OW60107   8.042   0.745   6.238
19383SOL    HW160108   8.092   0.830   6.219
19383SOL    HW260109   7.954   0.747   6.190
19384SOL     OW60110   0.225   0.342   7.228
19384SOL    HW160111   0.208   0.373   7.134
19384SOL    HW260112   0.141   0.305   7.266
19385SOL     OW60113   0.178   0.934   7.103
19385SOL    HW160114   0.216   1.025   7.118
19385SOL    HW260115   0.170   0.917   7.004
19386SOL     OW60116   8.307   1.374   5.602
19386SOL    HW160117   8.261   1.389   5.690
19386SOL    HW260118   8.351   1.459   5.572
19387SOL     OW60119   8.109   1.790   6.539
19387SOL    HW160120   8.063   1.878   6.526
19387SOL    HW260121   8.208   1.802   6.532
19388SOL     OW60122   8.307   0.956   6.447
19388SOL    HW160123   8.361   0.887   6.495
19388SOL    HW260124   8.275   1.025   6.513
19389SOL     OW60125   8.531   0.984   5.673
19389SOL    HW160126   8.508   1.037   5.591
19389SOL    HW260127   8.612   0.928   5.654
19390SOL     OW60128   7.669   1.314   7.430
19390SOL    HW160129   7.604   1.241   7.409
19390SOL    HW260130   7.673   1.328   7.528
19391SOL     OW60131   7.527   1.240   6.239
19391SOL    HW160132   7.526   1.193   6.327
19391SOL    HW260133   7.609   1.212   6.188
19392SOL     OW60134   8.120   1.391   7.210
19392SOL    HW160135   8.042   1.341   7.248
19392SOL    HW260136   8.117   1.486   7.241
19393SOL     OW60137   7.876   0.424   6.106
19393SOL    HW160138   7.906   0.352   6.044
19393SOL    HW260139   7.837   0.384   6.189
19394SOL     OW60140   0.153   1.487   6.690
19394SOL    HW160141   0.060   1.462   6.663
19394SOL    HW260142   0.179   1.437   6.772
19395SOL     OW60143   7.765   0.547   6.866
19395SOL    HW160144   7.803   0.488   6.938
19395SOL    HW260145   7.805   0.521   6.778
19396SOL     OW60146   8.260   1.586   6.273
19396SOL    HW160147   8.292   1.596   6.179
19396SOL    HW260148   8.181   1.524   6.275
19397SOL     OW60149   8.872   0.214   6.698
19397SOL    HW160150   8.924   0.149   6.753
19397SOL    HW260151   8.823   0.277   6.759
19398SOL     OW60152   8.449   0.034   6.740
19398SOL    HW160153   8.386  -0.038   6.709
19398SOL    HW260154   8.542  -0.002   6.740
19399SOL     OW60155   8.218   1.330   5.887
19399SOL    HW160156   8.172   1.243   5.904
19399SOL    HW260157   8.309   1.327   5.928
19400SOL     OW60158   8.066   1.567   6.870
19400SOL    HW160159   8.061   1.649   6.927
19400SOL    HW260160   8.155   1.564   6.825
19401SOL     OW60161   8.800   0.052   5.754
19401SOL    HW160162   8.835   0.011   5.670
19401SOL    HW260163   8.710   0.014   5.774
19402SOL     OW60164   8.748   0.453   6.277
19402SOL    HW160165   8.689   0.533   6.281
19402SOL    HW260166   8.763   0.418   6.370
19403SOL     OW60167   0.041   0.221   6.468
19403SOL    HW160168  -0.043   0.220   6.522
19403SOL    HW260169   0.043   0.304   6.412
19404SOL     OW60170   7.487   1.077   5.886
19404SOL    HW160171   7.586   1.066   5.877
19404SOL    HW260172   7.447   0.991   5.918
19405SOL     OW60173   8.323   1.646   5.923
19405SOL    HW160174   8.246   1.611   5.869
19405SOL    HW260175   8.291   1.717   5.985
19406SOL     OW60176   7.678   0.628   7.561
19406SOL    HW160177   7.585   0.626   7.598
19406SOL    HW260178   7.679   0.589   7.469
19407SOL     OW60179   7.673   0.275   8.444
19407SOL    HW160180   7.708   0.258   8.536
19407SOL    HW260181   7.585   0.230   8.432
19408SOL     OW60182   7.467   0.368   8.095
19408SOL    HW160183   7.385   0.411   8.134
19408SOL    HW260184   7.439   0.295   8.032
19409SOL     OW60185   8.017   1.275   8.613
19409SOL    HW160186   7.924   1.268   8.576
19409SOL    HW260187   8.028   1.364   8.657
19410SOL     OW60188   0.003   1.511   8.151
19410SOL    HW160189  -0.054   1.495   8.232
19410SOL    HW260190  -0.056   1.521   8.071
19411SOL     OW60191   0.191   0.618   8.304
19411SOL    HW160192   0.224   0.712   8.304
19411SOL    HW260193   0.242   0.564   8.370
19412SOL     OW60194   8.583   0.703   8.165
19412SOL    HW160195   8.640   0.781   8.140
19412SOL    HW260196   8.523   0.729   8.241
19413SOL     OW60197   0.203   0.607   7.679
19413SOL    HW160198   0.191   0.594   7.580
19413SOL    HW260199   0.173   0.526   7.728
19414SOL     OW60200   8.216   1.144   8.471
19414SOL    HW160201   8.138   1.161   8.531
19414SOL    HW260202   8.250   1.231   8.435
19415SOL     OW60203   8.133   1.012   8.113
19415SOL    HW160204   8.202   0.996   8.183
19415SOL    HW260205   8.060   1.069   8.151
19416SOL     OW60206   7.783   1.435   8.509
19416SOL    HW160207   7.705   1.404   8.456
19416SOL    HW260208   7.841   1.493   8.452
19417SOL     OW60209   8.908   1.505   8.787
19417SOL    HW160210   8.932   1.599   8.813
19417SOL    HW260211   8.892   1.451   8.869
19418SOL     OW60212   7.886   0.392   8.947
19418SOL    HW160213   7.968   0.336   8.956
19418SOL    HW260214   7.805   0.334   8.951
19419SOL     OW60215   7.679   1.713   7.931
19419SOL    HW160216   7.713   1.790   7.985
19419SOL    HW260217   7.723   1.713   7.841
19420SOL     OW60218   7.678   1.434   7.986
19420SOL    HW160219   7.652   1.530   7.986
19420SOL    HW260220   7.607   1.380   8.031
19421SOL     OW60221   7.688   1.091   8.334
19421SOL    HW160222   7.702   1.007   8.386
19421SOL    HW260223   7.633   1.155   8.389
19422SOL     OW60224   8.068   1.786   8.887
19422SOL    HW160225   7.976   1.769   8.922
19422SOL    HW260226   8.096   1.878   8.913
19423SOL     OW60227   8.054   0.964   7.571
19423SOL    HW160228   8.061   1.048   7.517
19423SOL    HW260229   8.100   0.977   7.659
19424SOL     OW60230   0.042   0.114   8.928
19424SOL    HW160231   0.024   0.181   8.856
19424SOL    HW260232   0.039   0.160   9.017
19425SOL     OW60233   7.570   0.643   8.011
19425SOL    HW160234   7.525   0.555   8.028
19425SOL    HW260235   7.569   0.697   8.095
19426SOL     OW60236   7.475   1.596   7.565
19426SOL    HW160237   7.456   1.500   7.586
19426SOL    HW260238   7.442   1.654   7.640
19427SOL     OW60239   0.137   0.922   8.060
19427SOL    HW160240   0.232   0.893   8.068
19427SOL    HW260241   0.129   0.987   7.985
19428SOL     OW60242   0.089   1.108   7.880
19428SOL    HW160243   0.175   1.110   7.828
19428SOL    HW260244   0.103   1.155   7.968
19429SOL     OW60245   8.061   1.365   8.174
19429SOL    HW160246   8.012   1.278   8.183
19429SOL    HW260247   8.038   1.408   8.087
19430SOL     OW60248   8.257   0.004   7.950
19430SOL    HW160249   8.297   0.095   7.941
19430SOL    HW260250   8.157   0.012   7.956
19431SOL     OW60251   7.645   0.976   8.712
19431SOL    HW160252   7.734   0.931   8.698
19431SOL    HW260253   7.572   0.911   8.693
19432SOL     OW60254   8.973   0.999   7.638
19432SOL    HW160255   8.910   0.923   7.651
19432SOL    HW260256   9.021   1.017   7.724
19433SOL     OW60257   8.914   1.417   8.401
19433SOL    HW160258   8.855   1.423   8.481
19433SOL    HW260259   8.899   1.329   8.355
19434SOL     OW60260   0.115   1.714   8.020
19434SOL    HW160261   0.074   1.691   7.932
19434SOL    HW260262   0.097   1.640   8.085
19435SOL     OW60263   8.046   0.729   7.718
19435SOL    HW160264   8.070   0.798   7.650
19435SOL    HW260265   7.968   0.762   7.772
19436SOL     OW60266   8.729   0.345   8.392
19436SOL    HW160267   8.643   0.295   8.379
19436SOL    HW260268   8.791   0.291   8.448
19437SOL     OW60269   0.024   1.662   7.755
19437SOL    HW160270   0.113   1.708   7.758
19437SOL    HW260271   0.003   1.638   7.660
19438SOL     OW60272   8.255   0.605   8.913
19438SOL    HW160273   8.208   0.602   9.002
19438SOL    HW260274   8.204   0.550   8.847
19439SOL     OW60275   8.439   0.410   8.690
19439SOL    HW160276   8.362   0.444   8.744
19439SOL    HW260277   8.405   0.359   8.611
19440SOL     OW60278   8.489   0.701   7.877
19440SOL    HW160279   8.515   0.697   7.973
19440SOL    HW260280   8.404   0.650   7.863
19441SOL     OW60281   7.524   0.811   8.237
19441SOL    HW160282   7.623   0.799   8.246
19441SOL    HW260283   7.500   0.906   8.258
19442SOL     OW60284   7.578   1.821   0.019
19442SOL    HW160285   7.568   1.806   0.118
19442SOL    HW260286   7.492   1.857  -0.017
19443SOL     OW60287   8.313   0.348   7.643
19443SOL    HW160288   8.372   0.411   7.594
19443SOL    HW260289   8.332   0.254   7.614
19444SOL     OW60290   8.810   1.144   7.993
19444SOL    HW160291   8.893   1.115   7.945
19444SOL    HW260292   8.761   1.211   7.937
19445SOL     OW60293   7.998   0.196   8.333
19445SOL    HW160294   7.993   0.191   8.433
19445SOL    HW260295   8.000   0.292   8.304
19446SOL     OW60296   8.456   1.456   7.925
19446SOL    HW160297   8.410   1.528   7.873
19446SOL    HW260298   8.452   1.476   8.023
19447SOL     OW60299   7.799   1.801   8.301
19447SOL    HW160300   7.849   1.715   8.307
19447SOL    HW260301   7.864   1.878   8.298
19448SOL     OW60302   0.243   1.066   8.321
19448SOL    HW160303   0.181   1.051   8.245
19448SOL    HW260304   0.191   1.077   8.406
19449SOL     OW60305   7.769   0.943   7.690
19449SOL    HW160306   7.851   0.982   7.648
19449SOL    HW260307   7.742   0.861   7.641
19450SOL     OW60308   8.906   0.735   8.176
19450SOL    HW160309   8.901   0.670   8.251
19450SOL    HW260310   8.986   0.794   8.189
19451SOL     OW60311   8.559   1.776   7.685
19451SOL    HW160312   8.499   1.714   7.735
19451SOL    HW260313   8.590   1.732   7.600
19452SOL     OW60314   7.650   0.285   8.946
19452SOL    HW160315   7.570   0.345   8.933
19452SOL    HW260316   7.640   0.236   9.032
19453SOL     OW60317   0.080   1.377   7.529
19453SOL    HW160318   0.048   1.471   7.519
19453SOL    HW260319   0.004   1.314   7.517
19454SOL     OW60320   7.912   1.743   7.771
19454SOL    HW160321   7.945   1.782   7.857
19454SOL    HW260322   7.988   1.736   7.706
19455SOL     OW60323   8.848   0.107   7.874
19455SOL    HW160324   8.824   0.070   7.784
19455SOL    HW260325   8.947   0.123   7.878
19456SOL     OW60326   7.697   1.785   8.689
19456SOL    HW160327   7.754   1.720   8.739
19456SOL    HW260328   7.681   1.752   8.596
19457SOL     OW60329   8.388   1.698   8.352
19457SOL    HW160330   8.468   1.641   8.373
19457SOL    HW260331   8.339   1.658   8.275
19458SOL     OW60332   7.830   0.700   7.928
19458SOL    HW160333   7.875   0.610   7.925
19458SOL    HW260334   7.736   0.689   7.961
19459SOL     OW60335   8.062   0.122   7.565
19459SOL    HW160336   8.160   0.100   7.572
19459SOL    HW260337   8.031   0.105   7.472
19460SOL     OW60338   8.336   1.514   8.643
19460SOL    HW160339   8.313   1.489   8.549
19460SOL    HW260340   8.397   1.445   8.682
19461SOL     OW60341   8.251   1.402   8.372
19461SOL    HW160342   8.341   1.416   8.330
19461SOL    HW260343   8.180   1.404   8.301
19462SOL     OW60344   8.370   0.503   8.347
19462SOL    HW160345   8.345   0.494   8.251
19462SOL    HW260346   8.418   0.421   8.378
19463SOL     OW60347   7.987   0.064   7.960
19463SOL    HW160348   7.906   0.065   8.018
19463SOL    HW260349   7.990   0.147   7.905
19464SOL     OW60350   8.882   1.188   7.489
19464SOL    HW160351   8.914   1.112   7.546
19464SOL    HW260352   8.790   1.215   7.519
19465SOL     OW60353   7.745   0.035   7.619
19465SOL    HW160354   7.794   0.119   7.598
19465SOL    HW260355   7.807  -0.030   7.664
19466SOL     OW60356   8.383   0.236   7.928
19466SOL    HW160357   8.335   0.277   7.850
19466SOL    HW260358   8.482   0.234   7.909
19467SOL     OW60359   8.675   1.570   8.241
19467SOL    HW160360   8.696   1.644   8.176
19467SOL    HW260361   8.743   1.570   8.314
19468SOL     OW60362   7.907   1.152   8.189
19468SOL    HW160363   7.836   1.125   8.254
19468SOL    HW260364   7.881   1.124   8.096
19469SOL     OW60365   8.719   1.797   8.039
19469SOL    HW160366   8.763   1.861   7.975
19469SOL    HW260367   8.669   1.849   8.109
19470SOL     OW60368   8.480   0.549   7.464
19470SOL    HW160369   8.439   0.631   7.425
19470SOL    HW260370   8.544   0.575   7.537
19471SOL     OW60371   7.526   0.556   8.834
19471SOL    HW160372   7.618   0.555   8.793
19471SOL    HW260373   7.520   0.630   8.901
19472SOL     OW60374   8.009   0.222   8.595
19472SOL    HW160375   8.047   0.138   8.632
19472SOL    HW260376   7.921   0.241   8.639
19473SOL     OW60377   8.314   0.454   8.090
19473SOL    HW160378   8.282   0.526   8.028
19473SOL    HW260379   8.338   0.373   8.037
19474SOL     OW60380   8.465   0.039   8.201
19474SOL    HW160381   8.393   0.044   8.132
19474SOL    HW260382   8.441  -0.030   8.270
19475SOL     OW60383   8.877   1.173   8.315
19475SOL    HW160384   8.822   1.089   8.308
19475SOL    HW260385   8.903   1.202   8.223
19476SOL     OW60386   8.914   0.590   8.440
19476SOL    HW160387   8.884   0.495   8.447
19476SOL    HW260388   8.987   0.606   8.506
19477SOL     OW60389   7.936   1.385   7.622
19477SOL    HW160390   7.849   1.370   7.669
19477SOL    HW260391   7.919   1.411   7.527
19478SOL     OW60392   0.112   1.280   8.105
19478SOL    HW160393   0.211   1.288   8.119
19478SOL    HW260394   0.067   1.364   8.136
19479SOL     OW60395   8.838   0.575   7.526
19479SOL    HW160396   8.784   0.554   7.607
19479SOL    HW260397   8.929   0.534   7.535
19480SOL     OW60398   7.975   0.256   7.776
19480SOL    HW160399   8.002   0.197   7.701
19480SOL    HW260400   7.975   0.351   7.745
19481SOL     OW60401   8.512   1.347   8.788
19481SOL    HW160402   8.432   1.324   8.843
19481SOL    HW260403   8.595   1.321   8.837
19482SOL     OW60404   8.559   1.195   8.548
19482SOL    HW160405   8.519   1.239   8.629
19482SOL    HW260406   8.518   1.232   8.465
19483SOL     OW60407   0.086   1.099   8.527
19483SOL    HW160408   0.091   1.180   8.586
19483SOL    HW260409   0.000   1.101   8.476
19484SOL     OW60410   8.363   0.089   8.850
19484SOL    HW160411   8.388   0.069   8.755
19484SOL    HW260412   8.435   0.145   8.892
19485SOL     OW60413   8.153   1.050   7.816
19485SOL    HW160414   8.139   1.057   7.915
19485SOL    HW260415   8.237   0.999   7.798
19486SOL     OW60416   7.858   0.813   8.699
19486SOL    HW160417   7.944   0.825   8.749
19486SOL    HW260418   7.816   0.726   8.726
19487SOL     OW60419   8.722   0.386   8.710
19487SOL    HW160420   8.743   0.460   8.774
19487SOL    HW260421   8.633   0.403   8.667
19488SOL     OW60422   7.512   1.564   8.779
19488SOL    HW160423   7.466   1.646   8.745
19488SOL    HW260424   7.610   1.583   8.788
19489SOL     OW60425   7.815   1.100   7.949
19489SOL    HW160426   7.808   1.183   7.893
19489SOL    HW260427   7.819   1.020   7.889
19490SOL     OW60428   8.014   0.537   8.313
19490SOL    HW160429   8.026   0.603   8.239
19490SOL    HW260430   8.060   0.571   8.396
19491SOL     OW60431   8.700   1.348   7.836
19491SOL    HW160432   8.750   1.425   7.876
19491SOL    HW260433   8.605   1.350   7.868
19492SOL     OW60434   8.720   1.445   8.590
19492SOL    HW160435   8.767   1.458   8.677
19492SOL    HW260436   8.654   1.371   8.599
19493SOL     OW60437   0.030   0.639   7.920
19493SOL    HW160438  -0.001   0.700   7.993
19493SOL    HW260439   0.080   0.691   7.851
19494SOL     OW60440   7.802   1.510   8.777
19494SOL    HW160441   7.781   1.466   8.690
19494SOL    HW260442   7.899   1.536   8.780
19495SOL     OW60443   7.850   0.751   0.046
19495SOL    HW160444   7.918   0.806  -0.001
19495SOL    HW260445   7.890   0.663   0.073
19496SOL     OW60446   0.035   0.779   0.118
19496SOL    HW160447  -0.057   0.817   0.113
19496SOL    HW260448   0.095   0.826   0.053
19497SOL     OW60449   8.021   0.870   8.477
19497SOL    HW160450   8.065   0.959   8.468
19497SOL    HW260451   7.958   0.870   8.554
19498SOL     OW60452   8.808   0.862   8.493
19498SOL    HW160453   8.733   0.862   8.427
19498SOL    HW260454   8.845   0.770   8.502
19499SOL     OW60455   8.657   0.525   7.723
19499SOL    HW160456   8.670   0.441   7.777
19499SOL    HW260457   8.628   0.599   7.783
19500SOL     OW60458   7.755   0.213   8.679
19500SOL    HW160459   7.732   0.250   8.769
19500SOL    HW260460   7.725   0.118   8.673
19501SOL     OW60461   7.485   1.310   8.730
19501SOL    HW160462   7.538   1.261   8.798
19501SOL    HW260463   7.507   1.408   8.735
19502SOL     OW60464   8.180   0.634   8.512
19502SOL    HW160465   8.239   0.608   8.436
19502SOL    HW260466   8.152   0.730   8.501
19503SOL     OW60467   7.755   0.063   8.066
19503SOL    HW160468   7.744   0.157   8.099
19503SOL    HW260469   7.750   0.000   8.143
19504SOL     OW60470   0.070   0.367   7.822
19504SOL    HW160471   0.072   0.291   7.886
19504SOL    HW260472   0.022   0.444   7.862
19505SOL     OW60473   8.471   0.766   8.414
19505SOL    HW160474   8.486   0.787   8.510
19505SOL    HW260475   8.441   0.671   8.405
19506SOL     OW60476   8.428   1.573   0.148
19506SOL    HW160477   8.408   1.617   0.060
19506SOL    HW260478   8.467   1.482   0.132
19507SOL     OW60479   8.988   0.274   7.573
19507SOL    HW160480   8.927   0.199   7.596
19507SOL    HW260481   9.010   0.326   7.656
19508SOL     OW60482   8.751   0.838   7.490
19508SOL    HW160483   8.785   0.745   7.505
19508SOL    HW260484   8.769   0.865   7.395
19509SOL     OW60485   8.516   1.333   8.297
19509SOL    HW160486   8.523   1.249   8.242
19509SOL    HW260487   8.578   1.402   8.261
19510SOL     OW60488   7.767   0.810   8.397
19510SOL    HW160489   7.860   0.846   8.402
19510SOL    HW260490   7.761   0.725   8.449
19511SOL     OW60491   7.787   0.509   8.454
19511SOL    HW160492   7.735   0.426   8.437
19511SOL    HW260493   7.864   0.514   8.390
19512SOL     OW60494   8.586   0.380   0.126
19512SOL    HW160495   8.541   0.443   0.190
19512SOL    HW260496   8.679   0.411   0.109
19513SOL     OW60497   8.608   0.207   8.925
19513SOL    HW160498   8.608   0.271   9.002
19513SOL    HW260499   8.636   0.255   8.842
19514SOL     OW60500   7.456   1.326   7.648
19514SOL    HW160501   7.363   1.347   7.617
19514SOL    HW260502   7.466   1.227   7.661
19515SOL     OW60503   7.536   1.801   8.375
19515SOL    HW160504   7.494   1.715   8.348
19515SOL    HW260505   7.630   1.804   8.341
19516SOL     OW60506   7.952   1.568   8.358
19516SOL    HW160507   8.018   1.642   8.367
19516SOL    HW260508   7.996   1.489   8.316
19517SOL     OW60509   8.450   0.796   8.686
19517SOL    HW160510   8.491   0.764   8.772
19517SOL    HW260511   8.354   0.769   8.683
19518SOL     OW60512   7.488   0.544   8.562
19518SOL    HW160513   7.573   0.511   8.521
19518SOL    HW260514   7.501   0.559   8.660
19519SOL     OW60515   8.263   0.572   7.773
19519SOL    HW160516   8.270   0.483   7.727
19519SOL    HW260517   8.169   0.606   7.765
19520SOL     OW60518   0.105   0.604   8.654
19520SOL    HW160519   0.067   0.535   8.716
19520SOL    HW260520   0.187   0.568   8.610
19521SOL     OW60521   8.119   0.464   8.717
19521SOL    HW160522   8.085   0.375   8.687
19521SOL    HW260523   8.145   0.518   8.637
19522SOL     OW60524   8.378   1.678   8.913
19522SOL    HW160525   8.354   1.660   8.818
19522SOL    HW260526   8.408   1.772   8.923
19523SOL     OW60527   7.921   0.500   7.639
19523SOL    HW160528   7.982   0.580   7.643
19523SOL    HW260529   7.826   0.531   7.646
19524SOL     OW60530   7.607   1.137   8.914
19524SOL    HW160531   7.629   1.076   8.990
19524SOL    HW260532   7.617   1.088   8.828
19525SOL     OW60533   8.795   1.059   8.682
19525SOL    HW160534   8.819   0.996   8.608
19525SOL    HW260535   8.705   1.099   8.664
19526SOL     OW60536   8.750   0.855   7.757
19526SOL    HW160537   8.664   0.824   7.799
19526SOL    HW260538   8.746   0.841   7.658
19527SOL     OW60539   8.700   1.731   8.576
19527SOL    HW160540   8.784   1.736   8.522
19527SOL    HW260541   8.677   1.635   8.594
19528SOL     OW60542   7.531   1.258   8.470
19528SOL    HW160543   7.526   1.257   8.570
19528SOL    HW260544   7.448   1.217   8.432
19529SOL     OW60545   0.174   0.135   7.971
19529SOL    HW160546   0.247   0.118   7.904
19529SOL    HW260547   0.143   0.048   8.009
19530SOL     OW60548   8.836   1.573   7.925
19530SOL    HW160549   8.903   1.585   7.851
19530SOL    HW260550   8.796   1.662   7.948
19531SOL     OW60551   8.728   0.927   8.120
19531SOL    HW160552   8.788   0.846   8.122
19531SOL    HW260553   8.768   0.996   8.060
19532SOL     OW60554   8.120   1.616   7.602
19532SOL    HW160555   8.129   1.626   7.503
19532SOL    HW260556   8.080   1.527   7.623
19533SOL     OW60557   0.098   1.720   8.842
19533SOL    HW160558   0.151   1.730   8.758
19533SOL    HW260559   0.071   1.810   8.876
19534SOL     OW60560   7.711   0.326   8.168
19534SOL    HW160561   7.632   0.377   8.134
19534SOL    HW260562   7.702   0.311   8.266
19535SOL     OW60563   8.642   1.612   7.479
19535SOL    HW160564   8.648   1.519   7.516
19535SOL    HW260565   8.583   1.612   7.399
19536SOL     OW60566   8.270   1.002   8.820
19536SOL    HW160567   8.310   1.001   8.728
19536SOL    HW260568   8.280   1.094   8.860
19537SOL     OW60569   8.364   0.910   7.739
19537SOL    HW160570   8.427   0.948   7.671
19537SOL    HW260571   8.404   0.827   7.778
19538SOL     OW60572   8.952   1.607   7.492
19538SOL    HW160573   8.860   1.644   7.499
19538SOL    HW260574   8.990   1.627   7.402
19539SOL     OW60575   7.820   1.288   8.938
19539SOL    HW160576   7.807   1.381   8.904
19539SOL    HW260577   7.736   1.236   8.925
19540SOL     OW60578   0.062   1.292   8.737
19540SOL    HW160579   0.122   1.295   8.817
19540SOL    HW260580  -0.013   1.356   8.750
19541SOL     OW60581   8.487   1.098   8.144
19541SOL    HW160582   8.417   1.051   8.198
19541SOL    HW260583   8.546   1.030   8.101
19542SOL     OW60584   8.462   0.236   8.419
19542SOL    HW160585   8.454   0.200   8.326
19542SOL    HW260586   8.460   0.160   8.484
19543SOL     OW60587   8.038   1.487   7.939
19543SOL    HW160588   8.080   1.429   7.869
19543SOL    HW260589   7.994   1.566   7.895
19544SOL     OW60590   0.157   0.385   8.829
19544SOL    HW160591   0.230   0.454   8.833
19544SOL    HW260592   0.185   0.310   8.770
19545SOL     OW60593   7.703   1.348   7.738
19545SOL    HW160594   7.607   1.349   7.711
19545SOL    HW260595   7.715   1.401   7.822
19546SOL     OW60596   7.523   0.345   7.481
19546SOL    HW160597   7.431   0.317   7.452
19546SOL    HW260598   7.554   0.422   7.425
19547SOL     OW60599   8.888   0.856   8.846
19547SOL    HW160600   8.831   0.908   8.783
19547SOL    HW260601   8.984   0.868   8.822
19548SOL     OW60602   7.520   0.166   7.766
19548SOL    HW160603   7.503   0.249   7.712
19548SOL    HW260604   7.610   0.129   7.744
19549SOL     OW60605   8.631   1.335   7.567
19549SOL    HW160606   8.532   1.324   7.569
19549SOL    HW260607   8.665   1.350   7.660
19550SOL     OW60608   8.061   0.842   8.879
19550SOL    HW160609   8.117   0.923   8.862
19550SOL    HW260610   8.120   0.762   8.882
19551SOL     OW60611   8.941   1.767   8.407
19551SOL    HW160612   8.974   1.831   8.338
19551SOL    HW260613   9.007   1.761   8.482
19552SOL     OW60614   7.838   1.741   0.008
19552SOL    HW160615   7.747   1.782   0.006
19552SOL    HW260616   7.831   1.647   0.040
19553SOL     OW60617   0.122   0.883   8.702
19553SOL    HW160618   0.095   0.794   8.665
19553SOL    HW260619   0.123   0.951   8.629
19554SOL     OW60620   8.673   0.325   7.897
19554SOL    HW160621   8.738   0.251   7.886
19554SOL    HW260622   8.693   0.375   7.981
19555SOL     OW60623   8.042   0.745   8.100
19555SOL    HW160624   8.092   0.830   8.081
19555SOL    HW260625   7.954   0.747   8.052
19556SOL     OW60626   0.225   0.342   0.090
19556SOL    HW160627   0.208   0.373  -0.004
19556SOL    HW260628   0.141   0.305   0.128
19557SOL     OW60629   0.178   0.934   8.965
19557SOL    HW160630   0.216   1.025   8.980
19557SOL    HW260631   0.170   0.917   8.866
19558SOL     OW60632   8.307   1.374   7.464
19558SOL    HW160633   8.261   1.389   7.552
19558SOL    HW260634   8.351   1.459   7.434
19559SOL     OW60635   8.109   1.790   8.401
19559SOL    HW160636   8.063   1.878   8.388
19559SOL    HW260637   8.208   1.802   8.394
19560SOL     OW60638   8.856   1.851   0.168
19560SOL    HW160639   8.760   1.840   0.141
19560SOL    HW260640   8.912   1.784   0.120
19561SOL     OW60641   8.307   0.956   8.309
19561SOL    HW160642   8.361   0.887   8.357
19561SOL    HW260643   8.275   1.025   8.375
19562SOL     OW60644   8.531   0.984   7.535
19562SOL    HW160645   8.508   1.037   7.453
19562SOL    HW260646   8.612   0.928   7.516
19563SOL     OW60647   7.527   1.240   8.101
19563SOL    HW160648   7.526   1.193   8.189
19563SOL    HW260649   7.609   1.212   8.050
19564SOL     OW60650   7.876   0.424   7.968
19564SOL    HW160651   7.906   0.352   7.906
19564SOL    HW260652   7.837   0.384   8.051
19565SOL     OW60653   0.153   1.487   8.552
19565SOL    HW160654   0.060   1.462   8.525
19565SOL    HW260655   0.179   1.437   8.634
19566SOL     OW60656   7.765   0.547   8.728
19566SOL    HW160657   7.803   0.488   8.800
19566SOL    HW260658   7.805   0.521   8.640
19567SOL     OW60659   8.260   1.586   8.135
19567SOL    HW160660   8.292   1.596   8.041
19567SOL    HW260661   8.181   1.524   8.137
19568SOL     OW60662   8.872   0.214   8.560
19568SOL    HW160663   8.924   0.149   8.615
19568SOL    HW260664   8.823   0.277   8.621
19569SOL     OW60665   8.449   0.034   8.602
19569SOL    HW160666   8.386  -0.038   8.571
19569SOL    HW260667   8.542  -0.002   8.602
19570SOL     OW60668   8.218   1.330   7.749
19570SOL    HW160669   8.172   1.243   7.766
19570SOL    HW260670   8.309   1.327   7.790
19571SOL     OW60671   8.066   1.567   8.732
19571SOL    HW160672   8.061   1.649   8.789
19571SOL    HW260673   8.155   1.564   8.687
19572SOL     OW60674   8.800   0.052   7.616
19572SOL    HW160675   8.835   0.011   7.532
19572SOL    HW260676   8.710   0.014   7.636
19573SOL     OW60677   8.748   0.453   8.139
19573SOL    HW160678   8.689   0.533   8.143
19573SOL    HW260679   8.763   0.418   8.232
19574SOL     OW60680   0.041   0.221   8.330
19574SOL    HW160681  -0.043   0.220   8.384
19574SOL    HW260682   0.043   0.304   8.274
19575SOL     OW60683   7.487   1.077   7.748
19575SOL    HW160684   7.586   1.066   7.739
19575SOL    HW260685   7.447   0.991   7.780
19576SOL     OW60686   8.323   1.646   7.785
19576SOL    HW160687   8.246   1.611   7.731
19576SOL    HW260688   8.291   1.717   7.847
19577SOL     OW60689   7.678   2.490   0.113
19577SOL    HW160690   7.585   2.488   0.150
19577SOL    HW260691   7.679   2.451   0.021
19578SOL     OW60692   7.673   2.137   0.996
19578SOL    HW160693   7.708   2.120   1.088
19578SOL    HW260694   7.585   2.092   0.984
19579SOL     OW60695   7.467   2.230   0.647
19579SOL    HW160696   7.385   2.273   0.686
19579SOL    HW260697   7.439   2.157   0.584
19580SOL     OW60698   0.003   3.373   0.703
19580SOL    HW160699  -0.054   3.357   0.784
19580SOL    HW260700  -0.056   3.383   0.623
19581SOL     OW60701   0.191   2.480   0.856
19581SOL    HW160702   0.224   2.574   0.856
19581SOL    HW260703   0.242   2.426   0.922
19582SOL     OW60704   8.583   2.565   0.717
19582SOL    HW160705   8.640   2.643   0.692
19582SOL    HW260706   8.523   2.591   0.793
19583SOL     OW60707   0.203   2.469   0.231
19583SOL    HW160708   0.191   2.456   0.132
19583SOL    HW260709   0.173   2.388   0.280
19584SOL     OW60710   8.298   2.660   1.823
19584SOL    HW160711   8.294   2.736   1.888
19584SOL    HW260712   8.320   2.696   1.732
19585SOL     OW60713   8.133   2.874   0.665
19585SOL    HW160714   8.202   2.858   0.735
19585SOL    HW260715   8.060   2.931   0.703
19586SOL     OW60716   8.134   3.023   1.803
19586SOL    HW160717   8.194   3.102   1.817
19586SOL    HW260718   8.048   3.054   1.762
19587SOL     OW60719   8.908   3.367   1.339
19587SOL    HW160720   8.932   3.461   1.365
19587SOL    HW260721   8.892   3.313   1.421
19588SOL     OW60722   7.886   2.254   1.499
19588SOL    HW160723   7.968   2.198   1.508
19588SOL    HW260724   7.805   2.196   1.503
19589SOL     OW60725   7.679   3.575   0.483
19589SOL    HW160726   7.713   3.652   0.537
19589SOL    HW260727   7.723   3.575   0.393
19590SOL     OW60728   8.575   3.203   1.690
19590SOL    HW160729   8.622   3.203   1.778
19590SOL    HW260730   8.527   3.116   1.679
19591SOL     OW60731   7.678   3.296   0.538
19591SOL    HW160732   7.652   3.392   0.538
19591SOL    HW260733   7.607   3.242   0.583
19592SOL     OW60734   8.068   3.648   1.439
19592SOL    HW160735   7.976   3.631   1.474
19592SOL    HW260736   8.096   3.740   1.465
19593SOL     OW60737   8.054   2.826   0.123
19593SOL    HW160738   8.061   2.910   0.069
19593SOL    HW260739   8.100   2.839   0.211
19594SOL     OW60740   0.042   1.976   1.480
19594SOL    HW160741   0.024   2.043   1.408
19594SOL    HW260742   0.039   2.022   1.569
19595SOL     OW60743   7.570   2.505   0.563
19595SOL    HW160744   7.525   2.417   0.580
19595SOL    HW260745   7.569   2.559   0.647
19596SOL     OW60746   0.137   2.784   0.612
19596SOL    HW160747   0.232   2.755   0.620
19596SOL    HW260748   0.129   2.849   0.537
19597SOL     OW60749   0.089   2.970   0.432
19597SOL    HW160750   0.175   2.972   0.380
19597SOL    HW260751   0.103   3.017   0.520
19598SOL     OW60752   7.561   2.599   1.597
19598SOL    HW160753   7.649   2.586   1.642
19598SOL    HW260754   7.548   2.696   1.575
19599SOL     OW60755   8.061   3.227   0.726
19599SOL    HW160756   8.012   3.140   0.735
19599SOL    HW260757   8.038   3.270   0.639
19600SOL     OW60758   8.741   3.090   1.423
19600SOL    HW160759   8.778   3.017   1.365
19600SOL    HW260760   8.793   3.095   1.508
19601SOL     OW60761   8.257   1.866   0.502
19601SOL    HW160762   8.297   1.957   0.493
19601SOL    HW260763   8.157   1.874   0.508
19602SOL     OW60764   7.645   2.838   1.264
19602SOL    HW160765   7.734   2.793   1.250
19602SOL    HW260766   7.572   2.773   1.245
19603SOL     OW60767   8.973   2.861   0.190
19603SOL    HW160768   8.910   2.785   0.203
19603SOL    HW260769   9.021   2.879   0.276
19604SOL     OW60770   8.635   3.654   1.616
19604SOL    HW160771   8.659   3.714   1.540
19604SOL    HW260772   8.642   3.559   1.586
19605SOL     OW60773   7.765   2.113   1.801
19605SOL    HW160774   7.836   2.184   1.807
19605SOL    HW260775   7.677   2.152   1.829
19606SOL     OW60776   8.914   3.279   0.953
19606SOL    HW160777   8.855   3.285   1.033
19606SOL    HW260778   8.899   3.191   0.907
19607SOL     OW60779   0.115   3.576   0.572
19607SOL    HW160780   0.074   3.553   0.484
19607SOL    HW260781   0.097   3.502   0.637
19608SOL     OW60782   8.046   2.591   0.270
19608SOL    HW160783   8.070   2.660   0.202
19608SOL    HW260784   7.968   2.624   0.324
19609SOL     OW60785   8.729   2.207   0.944
19609SOL    HW160786   8.643   2.157   0.931
19609SOL    HW260787   8.791   2.153   1.000
19610SOL     OW60788   0.024   3.524   0.307
19610SOL    HW160789   0.113   3.570   0.310
19610SOL    HW260790   0.003   3.500   0.212
19611SOL     OW60791   8.255   2.467   1.465
19611SOL    HW160792   8.208   2.464   1.554
19611SOL    HW260793   8.204   2.412   1.399
19612SOL     OW60794   8.842   2.331   1.674
19612SOL    HW160795   8.822   2.374   1.762
19612SOL    HW260796   8.920   2.269   1.683
19613SOL     OW60797   8.421   2.752   1.572
19613SOL    HW160798   8.467   2.668   1.543
19613SOL    HW260799   8.365   2.786   1.497
19614SOL     OW60800   8.439   2.272   1.242
19614SOL    HW160801   8.362   2.306   1.296
19614SOL    HW260802   8.405   2.221   1.163
19615SOL     OW60803   8.489   2.563   0.429
19615SOL    HW160804   8.515   2.559   0.525
19615SOL    HW260805   8.404   2.512   0.415
19616SOL     OW60806   7.524   2.673   0.789
19616SOL    HW160807   7.623   2.661   0.798
19616SOL    HW260808   7.500   2.768   0.810
19617SOL     OW60809   7.578   3.683   1.571
19617SOL    HW160810   7.568   3.668   1.670
19617SOL    HW260811   7.492   3.719   1.535
19618SOL     OW60812   8.313   2.210   0.195
19618SOL    HW160813   8.372   2.273   0.146
19618SOL    HW260814   8.332   2.116   0.166
19619SOL     OW60815   0.167   2.447   1.831
19619SOL    HW160816   0.141   2.536   1.795
19619SOL    HW260817   0.165   2.379   1.758
19620SOL     OW60818   8.810   3.006   0.545
19620SOL    HW160819   8.893   2.977   0.497
19620SOL    HW260820   8.761   3.073   0.489
19621SOL     OW60821   7.998   2.058   0.885
19621SOL    HW160822   7.993   2.053   0.985
19621SOL    HW260823   8.000   2.154   0.856
19622SOL     OW60824   8.456   3.318   0.477
19622SOL    HW160825   8.410   3.390   0.425
19622SOL    HW260826   8.452   3.338   0.575
19623SOL     OW60827   0.243   2.928   0.873
19623SOL    HW160828   0.181   2.913   0.797
19623SOL    HW260829   0.191   2.939   0.958
19624SOL     OW60830   8.675   3.412   1.506
19624SOL    HW160831   8.681   3.335   1.570
19624SOL    HW260832   8.623   3.386   1.426
19625SOL     OW60833   7.769   2.805   0.242
19625SOL    HW160834   7.851   2.844   0.200
19625SOL    HW260835   7.742   2.723   0.193
19626SOL     OW60836   8.906   2.597   0.728
19626SOL    HW160837   8.901   2.532   0.803
19626SOL    HW260838   8.986   2.656   0.741
19627SOL     OW60839   8.559   3.638   0.237
19627SOL    HW160840   8.499   3.576   0.287
19627SOL    HW260841   8.590   3.594   0.152
19628SOL     OW60842   7.650   2.147   1.498
19628SOL    HW160843   7.570   2.207   1.485
19628SOL    HW260844   7.640   2.098   1.584
19629SOL     OW60845   0.080   3.239   0.081
19629SOL    HW160846   0.048   3.333   0.071
19629SOL    HW260847   0.004   3.176   0.069
19630SOL     OW60848   7.912   3.605   0.323
19630SOL    HW160849   7.945   3.644   0.409
19630SOL    HW260850   7.988   3.598   0.258
19631SOL     OW60851   8.848   1.969   0.426
19631SOL    HW160852   8.824   1.932   0.336
19631SOL    HW260853   8.947   1.985   0.430
19632SOL     OW60854   8.388   3.560   0.904
19632SOL    HW160855   8.468   3.503   0.925
19632SOL    HW260856   8.339   3.520   0.827
19633SOL     OW60857   7.830   2.562   0.480
19633SOL    HW160858   7.875   2.472   0.477
19633SOL    HW260859   7.736   2.551   0.513
19634SOL     OW60860   8.995   2.084   1.729
19634SOL    HW160861   8.990   2.121   1.821
19634SOL    HW260862   8.923   2.015   1.717
19635SOL     OW60863   8.062   1.984   0.117
19635SOL    HW160864   8.160   1.962   0.124
19635SOL    HW260865   8.031   1.967   0.024
19636SOL     OW60866   8.229   2.126   1.749
19636SOL    HW160867   8.296   2.065   1.792
19636SOL    HW260868   8.156   2.145   1.814
19637SOL     OW60869   8.799   2.452   1.433
19637SOL    HW160870   8.827   2.409   1.518
19637SOL    HW260871   8.824   2.548   1.434
19638SOL     OW60872   8.370   2.365   0.899
19638SOL    HW160873   8.345   2.356   0.803
19638SOL    HW260874   8.418   2.283   0.930
19639SOL     OW60875   7.987   1.926   0.512
19639SOL    HW160876   7.906   1.927   0.570
19639SOL    HW260877   7.990   2.009   0.457
19640SOL     OW60878   8.882   3.050   0.041
19640SOL    HW160879   8.914   2.974   0.098
19640SOL    HW260880   8.790   3.077   0.071
19641SOL     OW60881   7.745   1.897   0.171
19641SOL    HW160882   7.794   1.981   0.150
19641SOL    HW260883   7.807   1.832   0.216
19642SOL     OW60884   8.383   2.098   0.480
19642SOL    HW160885   8.335   2.139   0.402
19642SOL    HW260886   8.482   2.096   0.461
19643SOL     OW60887   8.524   2.545   1.464
19643SOL    HW160888   8.444   2.484   1.467
19643SOL    HW260889   8.605   2.492   1.440
19644SOL     OW60890   8.675   3.432   0.793
19644SOL    HW160891   8.696   3.506   0.728
19644SOL    HW260892   8.743   3.432   0.866
19645SOL     OW60893   7.907   3.014   0.741
19645SOL    HW160894   7.836   2.987   0.806
19645SOL    HW260895   7.881   2.986   0.648
19646SOL     OW60896   8.719   3.659   0.591
19646SOL    HW160897   8.763   3.723   0.527
19646SOL    HW260898   8.669   3.711   0.661
19647SOL     OW60899   8.480   2.411   0.016
19647SOL    HW160900   8.439   2.493  -0.023
19647SOL    HW260901   8.544   2.437   0.089
19648SOL     OW60902   7.526   2.418   1.386
19648SOL    HW160903   7.618   2.417   1.345
19648SOL    HW260904   7.520   2.492   1.453
19649SOL     OW60905   8.009   2.084   1.147
19649SOL    HW160906   8.047   2.000   1.184
19649SOL    HW260907   7.921   2.103   1.191
19650SOL     OW60908   8.314   2.316   0.642
19650SOL    HW160909   8.282   2.388   0.580
19650SOL    HW260910   8.338   2.235   0.589
19651SOL     OW60911   8.465   1.901   0.753
19651SOL    HW160912   8.393   1.906   0.684
19651SOL    HW260913   8.441   1.832   0.822
19652SOL     OW60914   8.914   2.452   0.992
19652SOL    HW160915   8.884   2.357   0.999
19652SOL    HW260916   8.987   2.468   1.058
19653SOL     OW60917   7.936   3.247   0.174
19653SOL    HW160918   7.849   3.232   0.221
19653SOL    HW260919   7.919   3.273   0.079
19654SOL     OW60920   0.112   3.142   0.657
19654SOL    HW160921   0.211   3.150   0.671
19654SOL    HW260922   0.067   3.226   0.688
19655SOL     OW60923   8.838   2.437   0.078
19655SOL    HW160924   8.784   2.416   0.159
19655SOL    HW260925   8.929   2.396   0.087
19656SOL     OW60926   7.975   2.118   0.328
19656SOL    HW160927   8.002   2.059   0.253
19656SOL    HW260928   7.975   2.213   0.297
19657SOL     OW60929   8.512   3.209   1.340
19657SOL    HW160930   8.432   3.186   1.395
19657SOL    HW260931   8.595   3.183   1.389
19658SOL     OW60932   0.040   3.491   1.625
19658SOL    HW160933   0.067   3.525   1.535
19658SOL    HW260934   0.119   3.453   1.671
19659SOL     OW60935   0.086   2.961   1.079
19659SOL    HW160936   0.091   3.042   1.138
19659SOL    HW260937   0.000   2.963   1.028
19660SOL     OW60938   8.363   1.951   1.402
19660SOL    HW160939   8.388   1.931   1.307
19660SOL    HW260940   8.435   2.007   1.444
19661SOL     OW60941   8.428   2.978   1.719
19661SOL    HW160942   8.329   2.984   1.729
19661SOL    HW260943   8.451   2.898   1.663
19662SOL     OW60944   8.153   2.912   0.368
19662SOL    HW160945   8.139   2.919   0.467
19662SOL    HW260946   8.237   2.861   0.350
19663SOL     OW60947   7.858   2.675   1.251
19663SOL    HW160948   7.944   2.687   1.301
19663SOL    HW260949   7.816   2.588   1.278
19664SOL     OW60950   8.722   2.248   1.262
19664SOL    HW160951   8.743   2.322   1.326
19664SOL    HW260952   8.633   2.265   1.219
19665SOL     OW60953   7.815   2.962   0.501
19665SOL    HW160954   7.808   3.045   0.445
19665SOL    HW260955   7.819   2.882   0.441
19666SOL     OW60956   8.014   2.399   0.865
19666SOL    HW160957   8.026   2.465   0.791
19666SOL    HW260958   8.060   2.433   0.948
19667SOL     OW60959   8.700   3.210   0.388
19667SOL    HW160960   8.750   3.287   0.428
19667SOL    HW260961   8.605   3.212   0.420
19668SOL     OW60962   8.720   3.307   1.142
19668SOL    HW160963   8.767   3.320   1.229
19668SOL    HW260964   8.654   3.233   1.151
19669SOL     OW60965   0.030   2.501   0.472
19669SOL    HW160966  -0.001   2.562   0.545
19669SOL    HW260967   0.080   2.553   0.403
19670SOL     OW60968   7.850   2.613   1.598
19670SOL    HW160969   7.918   2.668   1.551
19670SOL    HW260970   7.890   2.525   1.625
19671SOL     OW60971   0.035   2.641   1.670
19671SOL    HW160972  -0.057   2.679   1.665
19671SOL    HW260973   0.095   2.688   1.605
19672SOL     OW60974   8.461   1.967   1.770
19672SOL    HW160975   8.467   2.052   1.718
19672SOL    HW260976   8.493   1.891   1.713
19673SOL     OW60977   7.952   1.912   1.740
19673SOL    HW160978   7.910   1.855   1.670
19673SOL    HW260979   7.886   1.981   1.772
19674SOL     OW60980   8.808   2.724   1.045
19674SOL    HW160981   8.733   2.724   0.979
19674SOL    HW260982   8.845   2.632   1.054
19675SOL     OW60983   8.657   2.387   0.275
19675SOL    HW160984   8.670   2.303   0.329
19675SOL    HW260985   8.628   2.461   0.335
19676SOL     OW60986   7.755   2.075   1.231
19676SOL    HW160987   7.732   2.112   1.321
19676SOL    HW260988   7.725   1.980   1.225
19677SOL     OW60989   8.180   2.496   1.064
19677SOL    HW160990   8.239   2.470   0.988
19677SOL    HW260991   8.152   2.592   1.053
19678SOL     OW60992   0.176   2.797   1.854
19678SOL    HW160993   0.130   2.790   1.765
19678SOL    HW260994   0.114   2.841   1.920
19679SOL     OW60995   7.755   1.925   0.618
19679SOL    HW160996   7.744   2.019   0.651
19679SOL    HW260997   7.750   1.862   0.695
19680SOL     OW60998   0.070   2.229   0.374
19680SOL    HW160999   0.072   2.153   0.438
19680SOL    HW261000   0.022   2.306   0.414
19681SOL     OW61001   8.428   3.435   1.700
19681SOL    HW161002   8.408   3.479   1.612
19681SOL    HW261003   8.467   3.344   1.684
19682SOL     OW61004   7.798   2.760   1.804
19682SOL    HW161005   7.874   2.804   1.852
19682SOL    HW261006   7.833   2.713   1.722
19683SOL     OW61007   8.988   2.136   0.125
19683SOL    HW161008   8.927   2.061   0.148
19683SOL    HW261009   9.010   2.188   0.208
19684SOL     OW61010   8.751   2.700   0.042
19684SOL    HW161011   8.785   2.607   0.057
19684SOL    HW261012   8.769   2.727  -0.053
19685SOL     OW61013   7.767   2.672   0.949
19685SOL    HW161014   7.860   2.708   0.954
19685SOL    HW261015   7.761   2.587   1.001
19686SOL     OW61016   7.787   2.371   1.006
19686SOL    HW161017   7.735   2.288   0.989
19686SOL    HW261018   7.864   2.376   0.942
19687SOL     OW61019   7.959   2.277   1.808
19687SOL    HW161020   7.941   2.322   1.896
19687SOL    HW261021   8.001   2.342   1.745
19688SOL     OW61022   8.586   2.242   1.678
19688SOL    HW161023   8.541   2.305   1.742
19688SOL    HW261024   8.679   2.273   1.661
19689SOL     OW61025   8.608   2.069   1.477
19689SOL    HW161026   8.608   2.133   1.554
19689SOL    HW261027   8.636   2.117   1.394
19690SOL     OW61028   7.456   3.188   0.200
19690SOL    HW161029   7.363   3.209   0.169
19690SOL    HW261030   7.466   3.089   0.213
19691SOL     OW61031   8.450   2.658   1.238
19691SOL    HW161032   8.491   2.626   1.324
19691SOL    HW261033   8.354   2.631   1.235
19692SOL     OW61034   7.488   2.406   1.114
19692SOL    HW161035   7.573   2.373   1.073
19692SOL    HW261036   7.501   2.421   1.212
19693SOL     OW61037   7.637   2.382   1.722
19693SOL    HW161038   7.696   2.342   1.652
19693SOL    HW261039   7.579   2.453   1.681
19694SOL     OW61040   8.817   2.812   1.660
19694SOL    HW161041   8.856   2.901   1.680
19694SOL    HW261042   8.827   2.792   1.563
19695SOL     OW61043   8.263   2.434   0.325
19695SOL    HW161044   8.270   2.345   0.279
19695SOL    HW261045   8.169   2.468   0.317
19696SOL     OW61046   0.105   2.466   1.206
19696SOL    HW161047   0.067   2.397   1.268
19696SOL    HW261048   0.187   2.430   1.162
19697SOL     OW61049   8.119   2.326   1.269
19697SOL    HW161050   8.085   2.237   1.239
19697SOL    HW261051   8.145   2.380   1.189
19698SOL     OW61052   7.921   2.362   0.191
19698SOL    HW161053   7.982   2.442   0.195
19698SOL    HW261054   7.826   2.393   0.198
19699SOL     OW61055   7.607   2.999   1.466
19699SOL    HW161056   7.629   2.938   1.542
19699SOL    HW261057   7.617   2.950   1.380
19700SOL     OW61058   8.795   2.921   1.234
19700SOL    HW161059   8.819   2.858   1.160
19700SOL    HW261060   8.705   2.961   1.216
19701SOL     OW61061   8.750   2.717   0.309
19701SOL    HW161062   8.664   2.686   0.351
19701SOL    HW261063   8.746   2.703   0.210
19702SOL     OW61064   8.700   3.593   1.128
19702SOL    HW161065   8.784   3.598   1.074
19702SOL    HW261066   8.677   3.497   1.146
19703SOL     OW61067   7.531   3.120   1.022
19703SOL    HW161068   7.526   3.119   1.122
19703SOL    HW261069   7.448   3.079   0.984
19704SOL     OW61070   8.136   3.524   1.716
19704SOL    HW161071   8.080   3.605   1.725
19704SOL    HW261072   8.188   3.528   1.630
19705SOL     OW61073   8.351   1.948   0.133
19705SOL    HW161074   8.402   1.949   0.047
19705SOL    HW261075   8.407   1.906   0.204
19706SOL     OW61076   0.174   1.997   0.523
19706SOL    HW161077   0.247   1.980   0.456
19706SOL    HW261078   0.143   1.910   0.561
19707SOL     OW61079   8.836   3.435   0.477
19707SOL    HW161080   8.903   3.447   0.403
19707SOL    HW261081   8.796   3.524   0.500
19708SOL     OW61082   7.578   3.656   1.851
19708SOL    HW161083   7.537   3.582   1.904
19708SOL    HW261084   7.642   3.707   1.909
19709SOL     OW61085   8.728   2.789   0.672
19709SOL    HW161086   8.788   2.708   0.674
19709SOL    HW261087   8.768   2.858   0.612
19710SOL     OW61088   8.278   3.135   1.422
19710SOL    HW161089   8.273   3.168   1.517
19710SOL    HW261090   8.192   3.154   1.376
19711SOL     OW61091   8.120   3.478   0.154
19711SOL    HW161092   8.129   3.488   0.055
19711SOL    HW261093   8.080   3.389   0.175
19712SOL     OW61094   0.098   3.582   1.394
19712SOL    HW161095   0.151   3.592   1.310
19712SOL    HW261096   0.071   3.672   1.428
19713SOL     OW61097   7.711   2.188   0.720
19713SOL    HW161098   7.632   2.239   0.686
19713SOL    HW261099   7.702   2.173   0.818
19714SOL     OW61100   8.642   3.474   0.031
19714SOL    HW161101   8.648   3.381   0.068
19714SOL    HW261102   8.583   3.474  -0.049
19715SOL     OW61103   8.364   2.772   0.291
19715SOL    HW161104   8.427   2.810   0.223
19715SOL    HW261105   8.404   2.689   0.330
19716SOL     OW61106   8.952   3.469   0.044
19716SOL    HW161107   8.860   3.506   0.051
19716SOL    HW261108   8.990   3.489  -0.046
19717SOL     OW61109   0.062   3.154   1.289
19717SOL    HW161110   0.122   3.157   1.369
19717SOL    HW261111  -0.013   3.218   1.302
19718SOL     OW61112   8.487   2.960   0.696
19718SOL    HW161113   8.417   2.913   0.750
19718SOL    HW261114   8.546   2.892   0.653
19719SOL     OW61115   8.462   2.098   0.971
19719SOL    HW161116   8.454   2.062   0.878
19719SOL    HW261117   8.460   2.022   1.036
19720SOL     OW61118   8.038   3.349   0.491
19720SOL    HW161119   8.080   3.291   0.421
19720SOL    HW261120   7.994   3.428   0.447
19721SOL     OW61121   0.157   2.247   1.381
19721SOL    HW161122   0.230   2.316   1.385
19721SOL    HW261123   0.185   2.172   1.322
19722SOL     OW61124   7.703   3.210   0.290
19722SOL    HW161125   7.607   3.211   0.263
19722SOL    HW261126   7.715   3.263   0.374
19723SOL     OW61127   7.553   2.875   1.726
19723SOL    HW161128   7.476   2.842   1.780
19723SOL    HW261129   7.638   2.845   1.768
19724SOL     OW61130   8.120   2.065   1.489
19724SOL    HW161131   8.210   2.049   1.449
19724SOL    HW261132   8.128   2.070   1.588
19725SOL     OW61133   8.888   2.718   1.398
19725SOL    HW161134   8.831   2.770   1.335
19725SOL    HW261135   8.984   2.730   1.374
19726SOL     OW61136   7.520   2.028   0.318
19726SOL    HW161137   7.503   2.111   0.264
19726SOL    HW261138   7.610   1.991   0.296
19727SOL     OW61139   8.631   3.197   0.119
19727SOL    HW161140   8.532   3.186   0.121
19727SOL    HW261141   8.665   3.212   0.212
19728SOL     OW61142   8.061   2.704   1.431
19728SOL    HW161143   8.117   2.785   1.414
19728SOL    HW261144   8.120   2.624   1.434
19729SOL     OW61145   8.941   3.629   0.959
19729SOL    HW161146   8.974   3.693   0.890
19729SOL    HW261147   9.007   3.623   1.034
19730SOL     OW61148   8.164   2.427   1.708
19730SOL    HW161149   8.183   2.492   1.782
19730SOL    HW261150   8.224   2.347   1.717
19731SOL     OW61151   8.898   3.082   1.633
19731SOL    HW161152   8.889   3.072   1.732
19731SOL    HW261153   8.994   3.075   1.607
19732SOL     OW61154   7.838   3.603   1.560
19732SOL    HW161155   7.747   3.644   1.558
19732SOL    HW261156   7.831   3.509   1.592
19733SOL     OW61157   0.122   2.745   1.254
19733SOL    HW161158   0.095   2.656   1.217
19733SOL    HW261159   0.123   2.813   1.181
19734SOL     OW61160   8.673   2.187   0.449
19734SOL    HW161161   8.738   2.113   0.438
19734SOL    HW261162   8.693   2.237   0.533
19735SOL     OW61163   8.042   2.607   0.652
19735SOL    HW161164   8.092   2.692   0.633
19735SOL    HW261165   7.954   2.609   0.604
19736SOL     OW61166   0.225   2.204   1.642
19736SOL    HW161167   0.208   2.235   1.548
19736SOL    HW261168   0.141   2.167   1.680
19737SOL     OW61169   0.178   2.796   1.517
19737SOL    HW161170   0.216   2.887   1.532
19737SOL    HW261171   0.170   2.779   1.418
19738SOL     OW61172   8.307   3.236   0.016
19738SOL    HW161173   8.261   3.251   0.104
19738SOL    HW261174   8.351   3.321  -0.014
19739SOL     OW61175   8.531   2.846   0.087
19739SOL    HW161176   8.508   2.899   0.005
19739SOL    HW261177   8.612   2.790   0.068
19740SOL     OW61178   7.669   3.176   1.844
19740SOL    HW161179   7.604   3.103   1.823
19740SOL    HW261180   7.673   3.190   1.942
19741SOL     OW61181   7.527   3.102   0.653
19741SOL    HW161182   7.526   3.055   0.741
19741SOL    HW261183   7.609   3.074   0.602
19742SOL     OW61184   8.120   3.253   1.624
19742SOL    HW161185   8.042   3.203   1.662
19742SOL    HW261186   8.117   3.348   1.655
19743SOL     OW61187   7.876   2.286   0.520
19743SOL    HW161188   7.906   2.214   0.458
19743SOL    HW261189   7.837   2.246   0.603
19744SOL     OW61190   0.153   3.349   1.104
19744SOL    HW161191   0.060   3.324   1.077
19744SOL    HW261192   0.179   3.299   1.186
19745SOL     OW61193   7.765   2.409   1.280
19745SOL    HW161194   7.803   2.350   1.352
19745SOL    HW261195   7.805   2.383   1.192
19746SOL     OW61196   8.260   3.448   0.687
19746SOL    HW161197   8.292   3.458   0.593
19746SOL    HW261198   8.181   3.386   0.689
19747SOL     OW61199   8.872   2.076   1.112
19747SOL    HW161200   8.924   2.011   1.167
19747SOL    HW261201   8.823   2.139   1.173
19748SOL     OW61202   8.449   1.896   1.154
19748SOL    HW161203   8.386   1.824   1.123
19748SOL    HW261204   8.542   1.860   1.154
19749SOL     OW61205   8.218   3.192   0.301
19749SOL    HW161206   8.172   3.105   0.318
19749SOL    HW261207   8.309   3.189   0.342
19750SOL     OW61208   8.748   2.315   0.691
19750SOL    HW161209   8.689   2.395   0.695
19750SOL    HW261210   8.763   2.280   0.784
19751SOL     OW61211   0.041   2.083   0.882
19751SOL    HW161212  -0.043   2.082   0.936
19751SOL    HW261213   0.043   2.166   0.826
19752SOL     OW61214   7.487   2.939   0.300
19752SOL    HW161215   7.586   2.928   0.291
19752SOL    HW261216   7.447   2.853   0.332
19753SOL     OW61217   8.323   3.508   0.337
19753SOL    HW161218   8.246   3.473   0.283
19753SOL    HW261219   8.291   3.579   0.399
19754SOL     OW61220   7.678   2.490   1.975
19754SOL    HW161221   7.585   2.488   2.012
19754SOL    HW261222   7.679   2.451   1.883
19755SOL     OW61223   7.673   2.137   2.858
19755SOL    HW161224   7.708   2.120   2.950
19755SOL    HW261225   7.585   2.092   2.846
19756SOL     OW61226   7.467   2.230   2.509
19756SOL    HW161227   7.385   2.273   2.548
19756SOL    HW261228   7.439   2.157   2.446
19757SOL     OW61229   8.017   3.137   3.027
19757SOL    HW161230   7.924   3.130   2.990
19757SOL    HW261231   8.028   3.226   3.071
19758SOL     OW61232   0.003   3.373   2.565
19758SOL    HW161233  -0.054   3.357   2.646
19758SOL    HW261234  -0.056   3.383   2.485
19759SOL     OW61235   0.191   2.480   2.718
19759SOL    HW161236   0.224   2.574   2.718
19759SOL    HW261237   0.242   2.426   2.784
19760SOL     OW61238   8.583   2.565   2.579
19760SOL    HW161239   8.640   2.643   2.554
19760SOL    HW261240   8.523   2.591   2.655
19761SOL     OW61241   0.203   2.469   2.093
19761SOL    HW161242   0.191   2.456   1.994
19761SOL    HW261243   0.173   2.388   2.142
19762SOL     OW61244   8.216   3.006   2.885
19762SOL    HW161245   8.138   3.023   2.945
19762SOL    HW261246   8.250   3.093   2.849
19763SOL     OW61247   8.298   2.660   3.685
19763SOL    HW161248   8.294   2.736   3.750
19763SOL    HW261249   8.320   2.696   3.594
19764SOL     OW61250   8.133   2.874   2.527
19764SOL    HW161251   8.202   2.858   2.597
19764SOL    HW261252   8.060   2.931   2.565
19765SOL     OW61253   8.134   3.023   3.665
19765SOL    HW161254   8.194   3.102   3.679
19765SOL    HW261255   8.048   3.054   3.624
19766SOL     OW61256   7.783   3.297   2.923
19766SOL    HW161257   7.705   3.266   2.870
19766SOL    HW261258   7.841   3.355   2.866
19767SOL     OW61259   8.908   3.367   3.201
19767SOL    HW161260   8.932   3.461   3.227
19767SOL    HW261261   8.892   3.313   3.283
19768SOL     OW61262   7.886   2.254   3.361
19768SOL    HW161263   7.968   2.198   3.370
19768SOL    HW261264   7.805   2.196   3.365
19769SOL     OW61265   7.679   3.575   2.345
19769SOL    HW161266   7.713   3.652   2.399
19769SOL    HW261267   7.723   3.575   2.255
19770SOL     OW61268   8.575   3.203   3.552
19770SOL    HW161269   8.622   3.203   3.640
19770SOL    HW261270   8.527   3.116   3.541
19771SOL     OW61271   7.678   3.296   2.400
19771SOL    HW161272   7.652   3.392   2.400
19771SOL    HW261273   7.607   3.242   2.445
19772SOL     OW61274   7.688   2.953   2.748
19772SOL    HW161275   7.702   2.869   2.800
19772SOL    HW261276   7.633   3.017   2.803
19773SOL     OW61277   8.068   3.648   3.301
19773SOL    HW161278   7.976   3.631   3.336
19773SOL    HW261279   8.096   3.740   3.327
19774SOL     OW61280   8.054   2.826   1.985
19774SOL    HW161281   8.061   2.910   1.931
19774SOL    HW261282   8.100   2.839   2.073
19775SOL     OW61283   0.042   1.976   3.342
19775SOL    HW161284   0.024   2.043   3.270
19775SOL    HW261285   0.039   2.022   3.431
19776SOL     OW61286   7.570   2.505   2.425
19776SOL    HW161287   7.525   2.417   2.442
19776SOL    HW261288   7.569   2.559   2.509
19777SOL     OW61289   7.475   3.458   1.979
19777SOL    HW161290   7.456   3.362   2.000
19777SOL    HW261291   7.442   3.516   2.054
19778SOL     OW61292   0.137   2.784   2.474
19778SOL    HW161293   0.232   2.755   2.482
19778SOL    HW261294   0.129   2.849   2.399
19779SOL     OW61295   0.089   2.970   2.294
19779SOL    HW161296   0.175   2.972   2.242
19779SOL    HW261297   0.103   3.017   2.382
19780SOL     OW61298   7.561   2.599   3.459
19780SOL    HW161299   7.649   2.586   3.504
19780SOL    HW261300   7.548   2.696   3.437
19781SOL     OW61301   8.061   3.227   2.588
19781SOL    HW161302   8.012   3.140   2.597
19781SOL    HW261303   8.038   3.270   2.501
19782SOL     OW61304   8.741   3.090   3.285
19782SOL    HW161305   8.778   3.017   3.227
19782SOL    HW261306   8.793   3.095   3.370
19783SOL     OW61307   8.257   1.866   2.364
19783SOL    HW161308   8.297   1.957   2.355
19783SOL    HW261309   8.157   1.874   2.370
19784SOL     OW61310   7.645   2.838   3.126
19784SOL    HW161311   7.734   2.793   3.112
19784SOL    HW261312   7.572   2.773   3.107
19785SOL     OW61313   8.973   2.861   2.052
19785SOL    HW161314   8.910   2.785   2.065
19785SOL    HW261315   9.021   2.879   2.138
19786SOL     OW61316   8.635   3.654   3.478
19786SOL    HW161317   8.659   3.714   3.402
19786SOL    HW261318   8.642   3.559   3.448
19787SOL     OW61319   7.765   2.113   3.663
19787SOL    HW161320   7.836   2.184   3.669
19787SOL    HW261321   7.677   2.152   3.691
19788SOL     OW61322   8.914   3.279   2.815
19788SOL    HW161323   8.855   3.285   2.895
19788SOL    HW261324   8.899   3.191   2.769
19789SOL     OW61325   0.115   3.576   2.434
19789SOL    HW161326   0.074   3.553   2.346
19789SOL    HW261327   0.097   3.502   2.499
19790SOL     OW61328   8.046   2.591   2.132
19790SOL    HW161329   8.070   2.660   2.064
19790SOL    HW261330   7.968   2.624   2.186
19791SOL     OW61331   8.729   2.207   2.806
19791SOL    HW161332   8.643   2.157   2.793
19791SOL    HW261333   8.791   2.153   2.862
19792SOL     OW61334   0.024   3.524   2.169
19792SOL    HW161335   0.113   3.570   2.172
19792SOL    HW261336   0.003   3.500   2.074
19793SOL     OW61337   8.255   2.467   3.327
19793SOL    HW161338   8.208   2.464   3.416
19793SOL    HW261339   8.204   2.412   3.261
19794SOL     OW61340   8.842   2.331   3.536
19794SOL    HW161341   8.822   2.374   3.624
19794SOL    HW261342   8.920   2.269   3.545
19795SOL     OW61343   8.421   2.752   3.434
19795SOL    HW161344   8.467   2.668   3.405
19795SOL    HW261345   8.365   2.786   3.359
19796SOL     OW61346   8.439   2.272   3.104
19796SOL    HW161347   8.362   2.306   3.158
19796SOL    HW261348   8.405   2.221   3.025
19797SOL     OW61349   8.489   2.563   2.291
19797SOL    HW161350   8.515   2.559   2.387
19797SOL    HW261351   8.404   2.512   2.277
19798SOL     OW61352   7.524   2.673   2.651
19798SOL    HW161353   7.623   2.661   2.660
19798SOL    HW261354   7.500   2.768   2.672
19799SOL     OW61355   7.578   3.683   3.433
19799SOL    HW161356   7.568   3.668   3.532
19799SOL    HW261357   7.492   3.719   3.397
19800SOL     OW61358   8.313   2.210   2.057
19800SOL    HW161359   8.372   2.273   2.008
19800SOL    HW261360   8.332   2.116   2.028
19801SOL     OW61361   0.167   2.447   3.693
19801SOL    HW161362   0.141   2.536   3.657
19801SOL    HW261363   0.165   2.379   3.620
19802SOL     OW61364   8.810   3.006   2.407
19802SOL    HW161365   8.893   2.977   2.359
19802SOL    HW261366   8.761   3.073   2.351
19803SOL     OW61367   7.998   2.058   2.747
19803SOL    HW161368   7.993   2.053   2.847
19803SOL    HW261369   8.000   2.154   2.718
19804SOL     OW61370   8.456   3.318   2.339
19804SOL    HW161371   8.410   3.390   2.287
19804SOL    HW261372   8.452   3.338   2.437
19805SOL     OW61373   7.799   3.663   2.715
19805SOL    HW161374   7.849   3.577   2.721
19805SOL    HW261375   7.864   3.740   2.712
19806SOL     OW61376   0.243   2.928   2.735
19806SOL    HW161377   0.181   2.913   2.659
19806SOL    HW261378   0.191   2.939   2.820
19807SOL     OW61379   8.675   3.412   3.368
19807SOL    HW161380   8.681   3.335   3.432
19807SOL    HW261381   8.623   3.386   3.288
19808SOL     OW61382   7.769   2.805   2.104
19808SOL    HW161383   7.851   2.844   2.062
19808SOL    HW261384   7.742   2.723   2.055
19809SOL     OW61385   8.906   2.597   2.590
19809SOL    HW161386   8.901   2.532   2.665
19809SOL    HW261387   8.986   2.656   2.603
19810SOL     OW61388   7.909   3.128   3.589
19810SOL    HW161389   7.859   3.129   3.503
19810SOL    HW261390   7.846   3.110   3.665
19811SOL     OW61391   8.559   3.638   2.099
19811SOL    HW161392   8.499   3.576   2.149
19811SOL    HW261393   8.590   3.594   2.014
19812SOL     OW61394   7.650   2.147   3.360
19812SOL    HW161395   7.570   2.207   3.347
19812SOL    HW261396   7.640   2.098   3.446
19813SOL     OW61397   0.080   3.239   1.943
19813SOL    HW161398   0.048   3.333   1.933
19813SOL    HW261399   0.004   3.176   1.931
19814SOL     OW61400   7.912   3.605   2.185
19814SOL    HW161401   7.945   3.644   2.271
19814SOL    HW261402   7.988   3.598   2.120
19815SOL     OW61403   8.848   1.969   2.288
19815SOL    HW161404   8.824   1.932   2.198
19815SOL    HW261405   8.947   1.985   2.292
19816SOL     OW61406   7.697   3.647   3.103
19816SOL    HW161407   7.754   3.582   3.153
19816SOL    HW261408   7.681   3.614   3.010
19817SOL     OW61409   8.388   3.560   2.766
19817SOL    HW161410   8.468   3.503   2.787
19817SOL    HW261411   8.339   3.520   2.689
19818SOL     OW61412   7.830   2.562   2.342
19818SOL    HW161413   7.875   2.472   2.339
19818SOL    HW261414   7.736   2.551   2.375
19819SOL     OW61415   8.995   2.084   3.591
19819SOL    HW161416   8.990   2.121   3.683
19819SOL    HW261417   8.923   2.015   3.579
19820SOL     OW61418   8.062   1.984   1.979
19820SOL    HW161419   8.160   1.962   1.986
19820SOL    HW261420   8.031   1.967   1.886
19821SOL     OW61421   8.229   2.126   3.611
19821SOL    HW161422   8.296   2.065   3.654
19821SOL    HW261423   8.156   2.145   3.676
19822SOL     OW61424   8.336   3.376   3.057
19822SOL    HW161425   8.313   3.351   2.963
19822SOL    HW261426   8.397   3.307   3.096
19823SOL     OW61427   8.799   2.452   3.295
19823SOL    HW161428   8.827   2.409   3.380
19823SOL    HW261429   8.824   2.548   3.296
19824SOL     OW61430   8.251   3.264   2.786
19824SOL    HW161431   8.341   3.278   2.744
19824SOL    HW261432   8.180   3.266   2.715
19825SOL     OW61433   8.370   2.365   2.761
19825SOL    HW161434   8.345   2.356   2.665
19825SOL    HW261435   8.418   2.283   2.792
19826SOL     OW61436   7.987   1.926   2.374
19826SOL    HW161437   7.906   1.927   2.432
19826SOL    HW261438   7.990   2.009   2.319
19827SOL     OW61439   8.882   3.050   1.903
19827SOL    HW161440   8.914   2.974   1.960
19827SOL    HW261441   8.790   3.077   1.933
19828SOL     OW61442   7.745   1.897   2.033
19828SOL    HW161443   7.794   1.981   2.012
19828SOL    HW261444   7.807   1.832   2.078
19829SOL     OW61445   8.383   2.098   2.342
19829SOL    HW161446   8.335   2.139   2.264
19829SOL    HW261447   8.482   2.096   2.323
19830SOL     OW61448   8.524   2.545   3.326
19830SOL    HW161449   8.444   2.484   3.329
19830SOL    HW261450   8.605   2.492   3.302
19831SOL     OW61451   8.675   3.432   2.655
19831SOL    HW161452   8.696   3.506   2.590
19831SOL    HW261453   8.743   3.432   2.728
19832SOL     OW61454   7.907   3.014   2.603
19832SOL    HW161455   7.836   2.987   2.668
19832SOL    HW261456   7.881   2.986   2.510
19833SOL     OW61457   8.719   3.659   2.453
19833SOL    HW161458   8.763   3.723   2.389
19833SOL    HW261459   8.669   3.711   2.523
19834SOL     OW61460   8.480   2.411   1.878
19834SOL    HW161461   8.439   2.493   1.839
19834SOL    HW261462   8.544   2.437   1.951
19835SOL     OW61463   7.526   2.418   3.248
19835SOL    HW161464   7.618   2.417   3.207
19835SOL    HW261465   7.520   2.492   3.315
19836SOL     OW61466   8.009   2.084   3.009
19836SOL    HW161467   8.047   2.000   3.046
19836SOL    HW261468   7.921   2.103   3.053
19837SOL     OW61469   8.314   2.316   2.504
19837SOL    HW161470   8.282   2.388   2.442
19837SOL    HW261471   8.338   2.235   2.451
19838SOL     OW61472   8.465   1.901   2.615
19838SOL    HW161473   8.393   1.906   2.546
19838SOL    HW261474   8.441   1.832   2.684
19839SOL     OW61475   8.877   3.035   2.729
19839SOL    HW161476   8.822   2.951   2.722
19839SOL    HW261477   8.903   3.064   2.637
19840SOL     OW61478   8.914   2.452   2.854
19840SOL    HW161479   8.884   2.357   2.861
19840SOL    HW261480   8.987   2.468   2.920
19841SOL     OW61481   7.936   3.247   2.036
19841SOL    HW161482   7.849   3.232   2.083
19841SOL    HW261483   7.919   3.273   1.941
19842SOL     OW61484   0.112   3.142   2.519
19842SOL    HW161485   0.211   3.150   2.533
19842SOL    HW261486   0.067   3.226   2.550
19843SOL     OW61487   8.838   2.437   1.940
19843SOL    HW161488   8.784   2.416   2.021
19843SOL    HW261489   8.929   2.396   1.949
19844SOL     OW61490   7.975   2.118   2.190
19844SOL    HW161491   8.002   2.059   2.115
19844SOL    HW261492   7.975   2.213   2.159
19845SOL     OW61493   8.512   3.209   3.202
19845SOL    HW161494   8.432   3.186   3.257
19845SOL    HW261495   8.595   3.183   3.251
19846SOL     OW61496   0.040   3.491   3.487
19846SOL    HW161497   0.067   3.525   3.397
19846SOL    HW261498   0.119   3.453   3.533
19847SOL     OW61499   8.559   3.057   2.962
19847SOL    HW161500   8.519   3.101   3.043
19847SOL    HW261501   8.518   3.094   2.879
19848SOL     OW61502   0.086   2.961   2.941
19848SOL    HW161503   0.091   3.042   3.000
19848SOL    HW261504   0.000   2.963   2.890
19849SOL     OW61505   8.363   1.951   3.264
19849SOL    HW161506   8.388   1.931   3.169
19849SOL    HW261507   8.435   2.007   3.306
19850SOL     OW61508   8.428   2.978   3.581
19850SOL    HW161509   8.329   2.984   3.591
19850SOL    HW261510   8.451   2.898   3.525
19851SOL     OW61511   8.153   2.912   2.230
19851SOL    HW161512   8.139   2.919   2.329
19851SOL    HW261513   8.237   2.861   2.212
19852SOL     OW61514   7.858   2.675   3.113
19852SOL    HW161515   7.944   2.687   3.163
19852SOL    HW261516   7.816   2.588   3.140
19853SOL     OW61517   8.722   2.248   3.124
19853SOL    HW161518   8.743   2.322   3.188
19853SOL    HW261519   8.633   2.265   3.081
19854SOL     OW61520   7.512   3.426   3.193
19854SOL    HW161521   7.466   3.508   3.159
19854SOL    HW261522   7.610   3.445   3.202
19855SOL     OW61523   7.815   2.962   2.363
19855SOL    HW161524   7.808   3.045   2.307
19855SOL    HW261525   7.819   2.882   2.303
19856SOL     OW61526   8.014   2.399   2.727
19856SOL    HW161527   8.026   2.465   2.653
19856SOL    HW261528   8.060   2.433   2.810
19857SOL     OW61529   8.700   3.210   2.250
19857SOL    HW161530   8.750   3.287   2.290
19857SOL    HW261531   8.605   3.212   2.282
19858SOL     OW61532   8.720   3.307   3.004
19858SOL    HW161533   8.767   3.320   3.091
19858SOL    HW261534   8.654   3.233   3.013
19859SOL     OW61535   0.030   2.501   2.334
19859SOL    HW161536  -0.001   2.562   2.407
19859SOL    HW261537   0.080   2.553   2.265
19860SOL     OW61538   7.802   3.372   3.191
19860SOL    HW161539   7.781   3.328   3.104
19860SOL    HW261540   7.899   3.398   3.194
19861SOL     OW61541   7.850   2.613   3.460
19861SOL    HW161542   7.918   2.668   3.413
19861SOL    HW261543   7.890   2.525   3.487
19862SOL     OW61544   0.035   2.641   3.532
19862SOL    HW161545  -0.057   2.679   3.527
19862SOL    HW261546   0.095   2.688   3.467
19863SOL     OW61547   8.461   1.967   3.632
19863SOL    HW161548   8.467   2.052   3.580
19863SOL    HW261549   8.493   1.891   3.575
19864SOL     OW61550   7.952   1.912   3.602
19864SOL    HW161551   7.910   1.855   3.532
19864SOL    HW261552   7.886   1.981   3.634
19865SOL     OW61553   8.021   2.732   2.891
19865SOL    HW161554   8.065   2.821   2.882
19865SOL    HW261555   7.958   2.732   2.968
19866SOL     OW61556   8.808   2.724   2.907
19866SOL    HW161557   8.733   2.724   2.841
19866SOL    HW261558   8.845   2.632   2.916
19867SOL     OW61559   8.657   2.387   2.137
19867SOL    HW161560   8.670   2.303   2.191
19867SOL    HW261561   8.628   2.461   2.197
19868SOL     OW61562   7.755   2.075   3.093
19868SOL    HW161563   7.732   2.112   3.183
19868SOL    HW261564   7.725   1.980   3.087
19869SOL     OW61565   7.485   3.172   3.144
19869SOL    HW161566   7.538   3.123   3.212
19869SOL    HW261567   7.507   3.270   3.149
19870SOL     OW61568   8.180   2.496   2.926
19870SOL    HW161569   8.239   2.470   2.850
19870SOL    HW261570   8.152   2.592   2.915
19871SOL     OW61571   0.176   2.797   3.716
19871SOL    HW161572   0.130   2.790   3.627
19871SOL    HW261573   0.114   2.841   3.782
19872SOL     OW61574   7.755   1.925   2.480
19872SOL    HW161575   7.744   2.019   2.513
19872SOL    HW261576   7.750   1.862   2.557
19873SOL     OW61577   0.070   2.229   2.236
19873SOL    HW161578   0.072   2.153   2.300
19873SOL    HW261579   0.022   2.306   2.276
19874SOL     OW61580   8.471   2.628   2.828
19874SOL    HW161581   8.486   2.649   2.924
19874SOL    HW261582   8.441   2.533   2.819
19875SOL     OW61583   8.428   3.435   3.562
19875SOL    HW161584   8.408   3.479   3.474
19875SOL    HW261585   8.467   3.344   3.546
19876SOL     OW61586   7.798   2.760   3.666
19876SOL    HW161587   7.874   2.804   3.714
19876SOL    HW261588   7.833   2.713   3.584
19877SOL     OW61589   8.988   2.136   1.987
19877SOL    HW161590   8.927   2.061   2.010
19877SOL    HW261591   9.010   2.188   2.070
19878SOL     OW61592   8.751   2.700   1.904
19878SOL    HW161593   8.785   2.607   1.919
19878SOL    HW261594   8.769   2.727   1.809
19879SOL     OW61595   8.516   3.195   2.711
19879SOL    HW161596   8.523   3.111   2.656
19879SOL    HW261597   8.578   3.264   2.675
19880SOL     OW61598   7.767   2.672   2.811
19880SOL    HW161599   7.860   2.708   2.816
19880SOL    HW261600   7.761   2.587   2.863
19881SOL     OW61601   7.787   2.371   2.868
19881SOL    HW161602   7.735   2.288   2.851
19881SOL    HW261603   7.864   2.376   2.804
19882SOL     OW61604   7.959   2.277   3.670
19882SOL    HW161605   7.941   2.322   3.758
19882SOL    HW261606   8.001   2.342   3.607
19883SOL     OW61607   8.586   2.242   3.540
19883SOL    HW161608   8.541   2.305   3.604
19883SOL    HW261609   8.679   2.273   3.523
19884SOL     OW61610   8.608   2.069   3.339
19884SOL    HW161611   8.608   2.133   3.416
19884SOL    HW261612   8.636   2.117   3.256
19885SOL     OW61613   7.456   3.188   2.062
19885SOL    HW161614   7.363   3.209   2.031
19885SOL    HW261615   7.466   3.089   2.075
19886SOL     OW61616   7.536   3.663   2.789
19886SOL    HW161617   7.494   3.577   2.762
19886SOL    HW261618   7.630   3.666   2.755
19887SOL     OW61619   7.952   3.430   2.772
19887SOL    HW161620   8.018   3.504   2.781
19887SOL    HW261621   7.996   3.351   2.730
19888SOL     OW61622   8.450   2.658   3.100
19888SOL    HW161623   8.491   2.626   3.186
19888SOL    HW261624   8.354   2.631   3.097
19889SOL     OW61625   7.488   2.406   2.976
19889SOL    HW161626   7.573   2.373   2.935
19889SOL    HW261627   7.501   2.421   3.074
19890SOL     OW61628   7.637   2.382   3.584
19890SOL    HW161629   7.696   2.342   3.514
19890SOL    HW261630   7.579   2.453   3.543
19891SOL     OW61631   8.817   2.812   3.522
19891SOL    HW161632   8.856   2.901   3.542
19891SOL    HW261633   8.827   2.792   3.425
19892SOL     OW61634   8.263   2.434   2.187
19892SOL    HW161635   8.270   2.345   2.141
19892SOL    HW261636   8.169   2.468   2.179
19893SOL     OW61637   0.105   2.466   3.068
19893SOL    HW161638   0.067   2.397   3.130
19893SOL    HW261639   0.187   2.430   3.024
19894SOL     OW61640   7.700   3.426   3.606
19894SOL    HW161641   7.670   3.483   3.682
19894SOL    HW261642   7.693   3.329   3.632
19895SOL     OW61643   8.119   2.326   3.131
19895SOL    HW161644   8.085   2.237   3.101
19895SOL    HW261645   8.145   2.380   3.051
19896SOL     OW61646   8.378   3.540   3.327
19896SOL    HW161647   8.354   3.522   3.232
19896SOL    HW261648   8.408   3.634   3.337
19897SOL     OW61649   7.921   2.362   2.053
19897SOL    HW161650   7.982   2.442   2.057
19897SOL    HW261651   7.826   2.393   2.060
19898SOL     OW61652   7.607   2.999   3.328
19898SOL    HW161653   7.629   2.938   3.404
19898SOL    HW261654   7.617   2.950   3.242
19899SOL     OW61655   8.795   2.921   3.096
19899SOL    HW161656   8.819   2.858   3.022
19899SOL    HW261657   8.705   2.961   3.078
19900SOL     OW61658   8.750   2.717   2.171
19900SOL    HW161659   8.664   2.686   2.213
19900SOL    HW261660   8.746   2.703   2.072
19901SOL     OW61661   8.700   3.593   2.990
19901SOL    HW161662   8.784   3.598   2.936
19901SOL    HW261663   8.677   3.497   3.008
19902SOL     OW61664   7.531   3.120   2.884
19902SOL    HW161665   7.526   3.119   2.984
19902SOL    HW261666   7.448   3.079   2.846
19903SOL     OW61667   8.136   3.524   3.578
19903SOL    HW161668   8.080   3.605   3.587
19903SOL    HW261669   8.188   3.528   3.492
19904SOL     OW61670   8.351   1.948   1.995
19904SOL    HW161671   8.402   1.949   1.909
19904SOL    HW261672   8.407   1.906   2.066
19905SOL     OW61673   0.174   1.997   2.385
19905SOL    HW161674   0.247   1.980   2.318
19905SOL    HW261675   0.143   1.910   2.423
19906SOL     OW61676   8.836   3.435   2.339
19906SOL    HW161677   8.903   3.447   2.265
19906SOL    HW261678   8.796   3.524   2.362
19907SOL     OW61679   7.578   3.656   3.713
19907SOL    HW161680   7.537   3.582   3.766
19907SOL    HW261681   7.642   3.707   3.771
19908SOL     OW61682   8.728   2.789   2.534
19908SOL    HW161683   8.788   2.708   2.536
19908SOL    HW261684   8.768   2.858   2.474
19909SOL     OW61685   8.278   3.135   3.284
19909SOL    HW161686   8.273   3.168   3.379
19909SOL    HW261687   8.192   3.154   3.238
19910SOL     OW61688   8.120   3.478   2.016
19910SOL    HW161689   8.129   3.488   1.917
19910SOL    HW261690   8.080   3.389   2.037
19911SOL     OW61691   0.098   3.582   3.256
19911SOL    HW161692   0.151   3.592   3.172
19911SOL    HW261693   0.071   3.672   3.290
19912SOL     OW61694   7.711   2.188   2.582
19912SOL    HW161695   7.632   2.239   2.548
19912SOL    HW261696   7.702   2.173   2.680
19913SOL     OW61697   8.642   3.474   1.893
19913SOL    HW161698   8.648   3.381   1.930
19913SOL    HW261699   8.583   3.474   1.813
19914SOL     OW61700   8.270   2.864   3.234
19914SOL    HW161701   8.310   2.863   3.142
19914SOL    HW261702   8.280   2.956   3.274
19915SOL     OW61703   8.364   2.772   2.153
19915SOL    HW161704   8.427   2.810   2.085
19915SOL    HW261705   8.404   2.689   2.192
19916SOL     OW61706   8.952   3.469   1.906
19916SOL    HW161707   8.860   3.506   1.913
19916SOL    HW261708   8.990   3.489   1.816
19917SOL     OW61709   7.820   3.150   3.352
19917SOL    HW161710   7.807   3.243   3.318
19917SOL    HW261711   7.736   3.098   3.339
19918SOL     OW61712   0.062   3.154   3.151
19918SOL    HW161713   0.122   3.157   3.231
19918SOL    HW261714  -0.013   3.218   3.164
19919SOL     OW61715   8.487   2.960   2.558
19919SOL    HW161716   8.417   2.913   2.612
19919SOL    HW261717   8.546   2.892   2.515
19920SOL     OW61718   8.462   2.098   2.833
19920SOL    HW161719   8.454   2.062   2.740
19920SOL    HW261720   8.460   2.022   2.898
19921SOL     OW61721   8.038   3.349   2.353
19921SOL    HW161722   8.080   3.291   2.283
19921SOL    HW261723   7.994   3.428   2.309
19922SOL     OW61724   0.157   2.247   3.243
19922SOL    HW161725   0.230   2.316   3.247
19922SOL    HW261726   0.185   2.172   3.184
19923SOL     OW61727   7.703   3.210   2.152
19923SOL    HW161728   7.607   3.211   2.125
19923SOL    HW261729   7.715   3.263   2.236
19924SOL     OW61730   7.553   2.875   3.588
19924SOL    HW161731   7.476   2.842   3.642
19924SOL    HW261732   7.638   2.845   3.630
19925SOL     OW61733   8.120   2.065   3.351
19925SOL    HW161734   8.210   2.049   3.311
19925SOL    HW261735   8.128   2.070   3.450
19926SOL     OW61736   7.523   2.207   1.895
19926SOL    HW161737   7.431   2.179   1.866
19926SOL    HW261738   7.554   2.284   1.839
19927SOL     OW61739   8.888   2.718   3.260
19927SOL    HW161740   8.831   2.770   3.197
19927SOL    HW261741   8.984   2.730   3.236
19928SOL     OW61742   7.520   2.028   2.180
19928SOL    HW161743   7.503   2.111   2.126
19928SOL    HW261744   7.610   1.991   2.158
19929SOL     OW61745   8.631   3.197   1.981
19929SOL    HW161746   8.532   3.186   1.983
19929SOL    HW261747   8.665   3.212   2.074
19930SOL     OW61748   8.061   2.704   3.293
19930SOL    HW161749   8.117   2.785   3.276
19930SOL    HW261750   8.120   2.624   3.296
19931SOL     OW61751   8.941   3.629   2.821
19931SOL    HW161752   8.974   3.693   2.752
19931SOL    HW261753   9.007   3.623   2.896
19932SOL     OW61754   8.164   2.427   3.570
19932SOL    HW161755   8.183   2.492   3.644
19932SOL    HW261756   8.224   2.347   3.579
19933SOL     OW61757   8.898   3.082   3.495
19933SOL    HW161758   8.889   3.072   3.594
19933SOL    HW261759   8.994   3.075   3.469
19934SOL     OW61760   7.838   3.603   3.422
19934SOL    HW161761   7.747   3.644   3.420
19934SOL    HW261762   7.831   3.509   3.454
19935SOL     OW61763   0.122   2.745   3.116
19935SOL    HW161764   0.095   2.656   3.079
19935SOL    HW261765   0.123   2.813   3.043
19936SOL     OW61766   8.673   2.187   2.311
19936SOL    HW161767   8.738   2.113   2.300
19936SOL    HW261768   8.693   2.237   2.395
19937SOL     OW61769   8.042   2.607   2.514
19937SOL    HW161770   8.092   2.692   2.495
19937SOL    HW261771   7.954   2.609   2.466
19938SOL     OW61772   0.225   2.204   3.504
19938SOL    HW161773   0.208   2.235   3.410
19938SOL    HW261774   0.141   2.167   3.542
19939SOL     OW61775   0.178   2.796   3.379
19939SOL    HW161776   0.216   2.887   3.394
19939SOL    HW261777   0.170   2.779   3.280
19940SOL     OW61778   8.307   3.236   1.878
19940SOL    HW161779   8.261   3.251   1.966
19940SOL    HW261780   8.351   3.321   1.848
19941SOL     OW61781   8.109   3.652   2.815
19941SOL    HW161782   8.063   3.740   2.802
19941SOL    HW261783   8.208   3.664   2.808
19942SOL     OW61784   8.307   2.818   2.723
19942SOL    HW161785   8.361   2.749   2.771
19942SOL    HW261786   8.275   2.887   2.789
19943SOL     OW61787   8.531   2.846   1.949
19943SOL    HW161788   8.508   2.899   1.867
19943SOL    HW261789   8.612   2.790   1.930
19944SOL     OW61790   7.669   3.176   3.706
19944SOL    HW161791   7.604   3.103   3.685
19944SOL    HW261792   7.673   3.190   3.804
19945SOL     OW61793   7.527   3.102   2.515
19945SOL    HW161794   7.526   3.055   2.603
19945SOL    HW261795   7.609   3.074   2.464
19946SOL     OW61796   8.120   3.253   3.486
19946SOL    HW161797   8.042   3.203   3.524
19946SOL    HW261798   8.117   3.348   3.517
19947SOL     OW61799   7.876   2.286   2.382
19947SOL    HW161800   7.906   2.214   2.320
19947SOL    HW261801   7.837   2.246   2.465
19948SOL     OW61802   0.153   3.349   2.966
19948SOL    HW161803   0.060   3.324   2.939
19948SOL    HW261804   0.179   3.299   3.048
19949SOL     OW61805   7.765   2.409   3.142
19949SOL    HW161806   7.803   2.350   3.214
19949SOL    HW261807   7.805   2.383   3.054
19950SOL     OW61808   8.260   3.448   2.549
19950SOL    HW161809   8.292   3.458   2.455
19950SOL    HW261810   8.181   3.386   2.551
19951SOL     OW61811   8.872   2.076   2.974
19951SOL    HW161812   8.924   2.011   3.029
19951SOL    HW261813   8.823   2.139   3.035
19952SOL     OW61814   8.449   1.896   3.016
19952SOL    HW161815   8.386   1.824   2.985
19952SOL    HW261816   8.542   1.860   3.016
19953SOL     OW61817   8.218   3.192   2.163
19953SOL    HW161818   8.172   3.105   2.180
19953SOL    HW261819   8.309   3.189   2.204
19954SOL     OW61820   8.066   3.429   3.146
19954SOL    HW161821   8.061   3.511   3.203
19954SOL    HW261822   8.155   3.426   3.101
19955SOL     OW61823   8.800   1.914   2.030
19955SOL    HW161824   8.835   1.873   1.946
19955SOL    HW261825   8.710   1.876   2.050
19956SOL     OW61826   8.748   2.315   2.553
19956SOL    HW161827   8.689   2.395   2.557
19956SOL    HW261828   8.763   2.280   2.646
19957SOL     OW61829   0.041   2.083   2.744
19957SOL    HW161830  -0.043   2.082   2.798
19957SOL    HW261831   0.043   2.166   2.688
19958SOL     OW61832   7.487   2.939   2.162
19958SOL    HW161833   7.586   2.928   2.153
19958SOL    HW261834   7.447   2.853   2.194
19959SOL     OW61835   8.323   3.508   2.199
19959SOL    HW161836   8.246   3.473   2.145
19959SOL    HW261837   8.291   3.579   2.261
19960SOL     OW61838   7.678   2.490   3.837
19960SOL    HW161839   7.585   2.488   3.874
19960SOL    HW261840   7.679   2.451   3.745
19961SOL     OW61841   7.673   2.137   4.720
19961SOL    HW161842   7.708   2.120   4.812
19961SOL    HW261843   7.585   2.092   4.708
19962SOL     OW61844   7.467   2.230   4.371
19962SOL    HW161845   7.385   2.273   4.410
19962SOL    HW261846   7.439   2.157   4.308
19963SOL     OW61847   8.017   3.137   4.889
19963SOL    HW161848   7.924   3.130   4.852
19963SOL    HW261849   8.028   3.226   4.933
19964SOL     OW61850   0.003   3.373   4.427
19964SOL    HW161851  -0.054   3.357   4.508
19964SOL    HW261852  -0.056   3.383   4.347
19965SOL     OW61853   0.191   2.480   4.580
19965SOL    HW161854   0.224   2.574   4.580
19965SOL    HW261855   0.242   2.426   4.646
19966SOL     OW61856   8.583   2.565   4.441
19966SOL    HW161857   8.640   2.643   4.416
19966SOL    HW261858   8.523   2.591   4.517
19967SOL     OW61859   0.203   2.469   3.955
19967SOL    HW161860   0.191   2.456   3.856
19967SOL    HW261861   0.173   2.388   4.004
19968SOL     OW61862   8.216   3.006   4.747
19968SOL    HW161863   8.138   3.023   4.807
19968SOL    HW261864   8.250   3.093   4.711
19969SOL     OW61865   8.298   2.660   5.547
19969SOL    HW161866   8.294   2.736   5.612
19969SOL    HW261867   8.320   2.696   5.456
19970SOL     OW61868   8.133   2.874   4.389
19970SOL    HW161869   8.202   2.858   4.459
19970SOL    HW261870   8.060   2.931   4.427
19971SOL     OW61871   8.134   3.023   5.527
19971SOL    HW161872   8.194   3.102   5.541
19971SOL    HW261873   8.048   3.054   5.486
19972SOL     OW61874   7.783   3.297   4.785
19972SOL    HW161875   7.705   3.266   4.732
19972SOL    HW261876   7.841   3.355   4.728
19973SOL     OW61877   8.908   3.367   5.063
19973SOL    HW161878   8.932   3.461   5.089
19973SOL    HW261879   8.892   3.313   5.145
19974SOL     OW61880   7.886   2.254   5.223
19974SOL    HW161881   7.968   2.198   5.232
19974SOL    HW261882   7.805   2.196   5.227
19975SOL     OW61883   7.679   3.575   4.207
19975SOL    HW161884   7.713   3.652   4.261
19975SOL    HW261885   7.723   3.575   4.117
19976SOL     OW61886   8.575   3.203   5.414
19976SOL    HW161887   8.622   3.203   5.502
19976SOL    HW261888   8.527   3.116   5.403
19977SOL     OW61889   7.678   3.296   4.262
19977SOL    HW161890   7.652   3.392   4.262
19977SOL    HW261891   7.607   3.242   4.307
19978SOL     OW61892   7.688   2.953   4.610
19978SOL    HW161893   7.702   2.869   4.662
19978SOL    HW261894   7.633   3.017   4.665
19979SOL     OW61895   8.068   3.648   5.163
19979SOL    HW161896   7.976   3.631   5.198
19979SOL    HW261897   8.096   3.740   5.189
19980SOL     OW61898   8.054   2.826   3.847
19980SOL    HW161899   8.061   2.910   3.793
19980SOL    HW261900   8.100   2.839   3.935
19981SOL     OW61901   0.042   1.976   5.204
19981SOL    HW161902   0.024   2.043   5.132
19981SOL    HW261903   0.039   2.022   5.293
19982SOL     OW61904   7.570   2.505   4.287
19982SOL    HW161905   7.525   2.417   4.304
19982SOL    HW261906   7.569   2.559   4.371
19983SOL     OW61907   7.475   3.458   3.841
19983SOL    HW161908   7.456   3.362   3.862
19983SOL    HW261909   7.442   3.516   3.916
19984SOL     OW61910   0.137   2.784   4.336
19984SOL    HW161911   0.232   2.755   4.344
19984SOL    HW261912   0.129   2.849   4.261
19985SOL     OW61913   0.089   2.970   4.156
19985SOL    HW161914   0.175   2.972   4.104
19985SOL    HW261915   0.103   3.017   4.244
19986SOL     OW61916   7.561   2.599   5.321
19986SOL    HW161917   7.649   2.586   5.366
19986SOL    HW261918   7.548   2.696   5.299
19987SOL     OW61919   8.061   3.227   4.450
19987SOL    HW161920   8.012   3.140   4.459
19987SOL    HW261921   8.038   3.270   4.363
19988SOL     OW61922   8.741   3.090   5.147
19988SOL    HW161923   8.778   3.017   5.089
19988SOL    HW261924   8.793   3.095   5.232
19989SOL     OW61925   8.257   1.866   4.226
19989SOL    HW161926   8.297   1.957   4.217
19989SOL    HW261927   8.157   1.874   4.232
19990SOL     OW61928   7.645   2.838   4.988
19990SOL    HW161929   7.734   2.793   4.974
19990SOL    HW261930   7.572   2.773   4.969
19991SOL     OW61931   8.973   2.861   3.914
19991SOL    HW161932   8.910   2.785   3.927
19991SOL    HW261933   9.021   2.879   4.000
19992SOL     OW61934   8.635   3.654   5.340
19992SOL    HW161935   8.659   3.714   5.264
19992SOL    HW261936   8.642   3.559   5.310
19993SOL     OW61937   7.765   2.113   5.525
19993SOL    HW161938   7.836   2.184   5.531
19993SOL    HW261939   7.677   2.152   5.553
19994SOL     OW61940   8.914   3.279   4.677
19994SOL    HW161941   8.855   3.285   4.757
19994SOL    HW261942   8.899   3.191   4.631
19995SOL     OW61943   0.115   3.576   4.296
19995SOL    HW161944   0.074   3.553   4.208
19995SOL    HW261945   0.097   3.502   4.361
19996SOL     OW61946   8.046   2.591   3.994
19996SOL    HW161947   8.070   2.660   3.926
19996SOL    HW261948   7.968   2.624   4.048
19997SOL     OW61949   8.729   2.207   4.668
19997SOL    HW161950   8.643   2.157   4.655
19997SOL    HW261951   8.791   2.153   4.724
19998SOL     OW61952   0.024   3.524   4.031
19998SOL    HW161953   0.113   3.570   4.034
19998SOL    HW261954   0.003   3.500   3.936
19999SOL     OW61955   8.255   2.467   5.189
19999SOL    HW161956   8.208   2.464   5.278
19999SOL    HW261957   8.204   2.412   5.123
20000SOL     OW61958   8.842   2.331   5.398
20000SOL    HW161959   8.822   2.374   5.486
20000SOL    HW261960   8.920   2.269   5.407
20001SOL     OW61961   8.421   2.752   5.296
20001SOL    HW161962   8.467   2.668   5.267
20001SOL    HW261963   8.365   2.786   5.221
20002SOL     OW61964   8.439   2.272   4.966
20002SOL    HW161965   8.362   2.306   5.020
20002SOL    HW261966   8.405   2.221   4.887
20003SOL     OW61967   8.489   2.563   4.153
20003SOL    HW161968   8.515   2.559   4.249
20003SOL    HW261969   8.404   2.512   4.139
20004SOL     OW61970   7.524   2.673   4.513
20004SOL    HW161971   7.623   2.661   4.522
20004SOL    HW261972   7.500   2.768   4.534
20005SOL     OW61973   7.578   3.683   5.295
20005SOL    HW161974   7.568   3.668   5.394
20005SOL    HW261975   7.492   3.719   5.259
20006SOL     OW61976   8.313   2.210   3.919
20006SOL    HW161977   8.372   2.273   3.870
20006SOL    HW261978   8.332   2.116   3.890
20007SOL     OW61979   0.167   2.447   5.555
20007SOL    HW161980   0.141   2.536   5.519
20007SOL    HW261981   0.165   2.379   5.482
20008SOL     OW61982   8.810   3.006   4.269
20008SOL    HW161983   8.893   2.977   4.221
20008SOL    HW261984   8.761   3.073   4.213
20009SOL     OW61985   7.998   2.058   4.609
20009SOL    HW161986   7.993   2.053   4.709
20009SOL    HW261987   8.000   2.154   4.580
20010SOL     OW61988   8.456   3.318   4.201
20010SOL    HW161989   8.410   3.390   4.149
20010SOL    HW261990   8.452   3.338   4.299
20011SOL     OW61991   7.799   3.663   4.577
20011SOL    HW161992   7.849   3.577   4.583
20011SOL    HW261993   7.864   3.740   4.574
20012SOL     OW61994   0.243   2.928   4.597
20012SOL    HW161995   0.181   2.913   4.521
20012SOL    HW261996   0.191   2.939   4.682
20013SOL     OW61997   8.675   3.412   5.230
20013SOL    HW161998   8.681   3.335   5.294
20013SOL    HW261999   8.623   3.386   5.150
20014SOL     OW62000   7.769   2.805   3.966
20014SOL    HW162001   7.851   2.844   3.924
20014SOL    HW262002   7.742   2.723   3.917
20015SOL     OW62003   8.906   2.597   4.452
20015SOL    HW162004   8.901   2.532   4.527
20015SOL    HW262005   8.986   2.656   4.465
20016SOL     OW62006   7.909   3.128   5.451
20016SOL    HW162007   7.859   3.129   5.365
20016SOL    HW262008   7.846   3.110   5.527
20017SOL     OW62009   8.559   3.638   3.961
20017SOL    HW162010   8.499   3.576   4.011
20017SOL    HW262011   8.590   3.594   3.876
20018SOL     OW62012   7.650   2.147   5.222
20018SOL    HW162013   7.570   2.207   5.209
20018SOL    HW262014   7.640   2.098   5.308
20019SOL     OW62015   0.080   3.239   3.805
20019SOL    HW162016   0.048   3.333   3.795
20019SOL    HW262017   0.004   3.176   3.793
20020SOL     OW62018   7.912   3.605   4.047
20020SOL    HW162019   7.945   3.644   4.133
20020SOL    HW262020   7.988   3.598   3.982
20021SOL     OW62021   8.848   1.969   4.150
20021SOL    HW162022   8.824   1.932   4.060
20021SOL    HW262023   8.947   1.985   4.154
20022SOL     OW62024   7.697   3.647   4.965
20022SOL    HW162025   7.754   3.582   5.015
20022SOL    HW262026   7.681   3.614   4.872
20023SOL     OW62027   8.388   3.560   4.628
20023SOL    HW162028   8.468   3.503   4.649
20023SOL    HW262029   8.339   3.520   4.551
20024SOL     OW62030   7.830   2.562   4.204
20024SOL    HW162031   7.875   2.472   4.201
20024SOL    HW262032   7.736   2.551   4.237
20025SOL     OW62033   8.995   2.084   5.453
20025SOL    HW162034   8.990   2.121   5.545
20025SOL    HW262035   8.923   2.015   5.441
20026SOL     OW62036   8.062   1.984   3.841
20026SOL    HW162037   8.160   1.962   3.848
20026SOL    HW262038   8.031   1.967   3.748
20027SOL     OW62039   8.229   2.126   5.473
20027SOL    HW162040   8.296   2.065   5.516
20027SOL    HW262041   8.156   2.145   5.538
20028SOL     OW62042   8.336   3.376   4.919
20028SOL    HW162043   8.313   3.351   4.825
20028SOL    HW262044   8.397   3.307   4.958
20029SOL     OW62045   8.799   2.452   5.157
20029SOL    HW162046   8.827   2.409   5.242
20029SOL    HW262047   8.824   2.548   5.158
20030SOL     OW62048   8.251   3.264   4.648
20030SOL    HW162049   8.341   3.278   4.606
20030SOL    HW262050   8.180   3.266   4.577
20031SOL     OW62051   8.370   2.365   4.623
20031SOL    HW162052   8.345   2.356   4.527
20031SOL    HW262053   8.418   2.283   4.654
20032SOL     OW62054   7.987   1.926   4.236
20032SOL    HW162055   7.906   1.927   4.294
20032SOL    HW262056   7.990   2.009   4.181
20033SOL     OW62057   8.882   3.050   3.765
20033SOL    HW162058   8.914   2.974   3.822
20033SOL    HW262059   8.790   3.077   3.795
20034SOL     OW62060   7.745   1.897   3.895
20034SOL    HW162061   7.794   1.981   3.874
20034SOL    HW262062   7.807   1.832   3.940
20035SOL     OW62063   8.383   2.098   4.204
20035SOL    HW162064   8.335   2.139   4.126
20035SOL    HW262065   8.482   2.096   4.185
20036SOL     OW62066   8.524   2.545   5.188
20036SOL    HW162067   8.444   2.484   5.191
20036SOL    HW262068   8.605   2.492   5.164
20037SOL     OW62069   8.675   3.432   4.517
20037SOL    HW162070   8.696   3.506   4.452
20037SOL    HW262071   8.743   3.432   4.590
20038SOL     OW62072   7.907   3.014   4.465
20038SOL    HW162073   7.836   2.987   4.530
20038SOL    HW262074   7.881   2.986   4.372
20039SOL     OW62075   8.719   3.659   4.315
20039SOL    HW162076   8.763   3.723   4.251
20039SOL    HW262077   8.669   3.711   4.385
20040SOL     OW62078   8.480   2.411   3.740
20040SOL    HW162079   8.439   2.493   3.701
20040SOL    HW262080   8.544   2.437   3.813
20041SOL     OW62081   7.526   2.418   5.110
20041SOL    HW162082   7.618   2.417   5.069
20041SOL    HW262083   7.520   2.492   5.177
20042SOL     OW62084   8.009   2.084   4.871
20042SOL    HW162085   8.047   2.000   4.908
20042SOL    HW262086   7.921   2.103   4.915
20043SOL     OW62087   8.314   2.316   4.366
20043SOL    HW162088   8.282   2.388   4.304
20043SOL    HW262089   8.338   2.235   4.313
20044SOL     OW62090   8.465   1.901   4.477
20044SOL    HW162091   8.393   1.906   4.408
20044SOL    HW262092   8.441   1.832   4.546
20045SOL     OW62093   8.877   3.035   4.591
20045SOL    HW162094   8.822   2.951   4.584
20045SOL    HW262095   8.903   3.064   4.499
20046SOL     OW62096   8.914   2.452   4.716
20046SOL    HW162097   8.884   2.357   4.723
20046SOL    HW262098   8.987   2.468   4.782
20047SOL     OW62099   7.936   3.247   3.898
20047SOL    HW162100   7.849   3.232   3.945
20047SOL    HW262101   7.919   3.273   3.803
20048SOL     OW62102   0.112   3.142   4.381
20048SOL    HW162103   0.211   3.150   4.395
20048SOL    HW262104   0.067   3.226   4.412
20049SOL     OW62105   8.838   2.437   3.802
20049SOL    HW162106   8.784   2.416   3.883
20049SOL    HW262107   8.929   2.396   3.811
20050SOL     OW62108   7.975   2.118   4.052
20050SOL    HW162109   8.002   2.059   3.977
20050SOL    HW262110   7.975   2.213   4.021
20051SOL     OW62111   8.512   3.209   5.064
20051SOL    HW162112   8.432   3.186   5.119
20051SOL    HW262113   8.595   3.183   5.113
20052SOL     OW62114   0.040   3.491   5.349
20052SOL    HW162115   0.067   3.525   5.259
20052SOL    HW262116   0.119   3.453   5.395
20053SOL     OW62117   8.559   3.057   4.824
20053SOL    HW162118   8.519   3.101   4.905
20053SOL    HW262119   8.518   3.094   4.741
20054SOL     OW62120   0.086   2.961   4.803
20054SOL    HW162121   0.091   3.042   4.862
20054SOL    HW262122   0.000   2.963   4.752
20055SOL     OW62123   8.363   1.951   5.126
20055SOL    HW162124   8.388   1.931   5.031
20055SOL    HW262125   8.435   2.007   5.168
20056SOL     OW62126   8.428   2.978   5.443
20056SOL    HW162127   8.329   2.984   5.453
20056SOL    HW262128   8.451   2.898   5.387
20057SOL     OW62129   8.153   2.912   4.092
20057SOL    HW162130   8.139   2.919   4.191
20057SOL    HW262131   8.237   2.861   4.074
20058SOL     OW62132   7.858   2.675   4.975
20058SOL    HW162133   7.944   2.687   5.025
20058SOL    HW262134   7.816   2.588   5.002
20059SOL     OW62135   8.722   2.248   4.986
20059SOL    HW162136   8.743   2.322   5.050
20059SOL    HW262137   8.633   2.265   4.943
20060SOL     OW62138   7.512   3.426   5.055
20060SOL    HW162139   7.466   3.508   5.021
20060SOL    HW262140   7.610   3.445   5.064
20061SOL     OW62141   7.815   2.962   4.225
20061SOL    HW162142   7.808   3.045   4.169
20061SOL    HW262143   7.819   2.882   4.165
20062SOL     OW62144   8.014   2.399   4.589
20062SOL    HW162145   8.026   2.465   4.515
20062SOL    HW262146   8.060   2.433   4.672
20063SOL     OW62147   8.700   3.210   4.112
20063SOL    HW162148   8.750   3.287   4.152
20063SOL    HW262149   8.605   3.212   4.144
20064SOL     OW62150   8.720   3.307   4.866
20064SOL    HW162151   8.767   3.320   4.953
20064SOL    HW262152   8.654   3.233   4.875
20065SOL     OW62153   0.030   2.501   4.196
20065SOL    HW162154  -0.001   2.562   4.269
20065SOL    HW262155   0.080   2.553   4.127
20066SOL     OW62156   7.802   3.372   5.053
20066SOL    HW162157   7.781   3.328   4.966
20066SOL    HW262158   7.899   3.398   5.056
20067SOL     OW62159   7.850   2.613   5.322
20067SOL    HW162160   7.918   2.668   5.275
20067SOL    HW262161   7.890   2.525   5.349
20068SOL     OW62162   0.035   2.641   5.394
20068SOL    HW162163  -0.057   2.679   5.389
20068SOL    HW262164   0.095   2.688   5.329
20069SOL     OW62165   8.461   1.967   5.494
20069SOL    HW162166   8.467   2.052   5.442
20069SOL    HW262167   8.493   1.891   5.437
20070SOL     OW62168   7.952   1.912   5.464
20070SOL    HW162169   7.910   1.855   5.394
20070SOL    HW262170   7.886   1.981   5.496
20071SOL     OW62171   8.021   2.732   4.753
20071SOL    HW162172   8.065   2.821   4.744
20071SOL    HW262173   7.958   2.732   4.830
20072SOL     OW62174   8.808   2.724   4.769
20072SOL    HW162175   8.733   2.724   4.703
20072SOL    HW262176   8.845   2.632   4.778
20073SOL     OW62177   8.657   2.387   3.999
20073SOL    HW162178   8.670   2.303   4.053
20073SOL    HW262179   8.628   2.461   4.059
20074SOL     OW62180   7.755   2.075   4.955
20074SOL    HW162181   7.732   2.112   5.045
20074SOL    HW262182   7.725   1.980   4.949
20075SOL     OW62183   7.485   3.172   5.006
20075SOL    HW162184   7.538   3.123   5.074
20075SOL    HW262185   7.507   3.270   5.011
20076SOL     OW62186   8.180   2.496   4.788
20076SOL    HW162187   8.239   2.470   4.712
20076SOL    HW262188   8.152   2.592   4.777
20077SOL     OW62189   0.176   2.797   5.578
20077SOL    HW162190   0.130   2.790   5.489
20077SOL    HW262191   0.114   2.841   5.644
20078SOL     OW62192   7.755   1.925   4.342
20078SOL    HW162193   7.744   2.019   4.375
20078SOL    HW262194   7.750   1.862   4.419
20079SOL     OW62195   0.070   2.229   4.098
20079SOL    HW162196   0.072   2.153   4.162
20079SOL    HW262197   0.022   2.306   4.138
20080SOL     OW62198   8.471   2.628   4.690
20080SOL    HW162199   8.486   2.649   4.786
20080SOL    HW262200   8.441   2.533   4.681
20081SOL     OW62201   8.428   3.435   5.424
20081SOL    HW162202   8.408   3.479   5.336
20081SOL    HW262203   8.467   3.344   5.408
20082SOL     OW62204   7.798   2.760   5.528
20082SOL    HW162205   7.874   2.804   5.576
20082SOL    HW262206   7.833   2.713   5.446
20083SOL     OW62207   8.988   2.136   3.849
20083SOL    HW162208   8.927   2.061   3.872
20083SOL    HW262209   9.010   2.188   3.932
20084SOL     OW62210   8.751   2.700   3.766
20084SOL    HW162211   8.785   2.607   3.781
20084SOL    HW262212   8.769   2.727   3.671
20085SOL     OW62213   8.516   3.195   4.573
20085SOL    HW162214   8.523   3.111   4.518
20085SOL    HW262215   8.578   3.264   4.537
20086SOL     OW62216   7.767   2.672   4.673
20086SOL    HW162217   7.860   2.708   4.678
20086SOL    HW262218   7.761   2.587   4.725
20087SOL     OW62219   7.787   2.371   4.730
20087SOL    HW162220   7.735   2.288   4.713
20087SOL    HW262221   7.864   2.376   4.666
20088SOL     OW62222   7.959   2.277   5.532
20088SOL    HW162223   7.941   2.322   5.620
20088SOL    HW262224   8.001   2.342   5.469
20089SOL     OW62225   8.586   2.242   5.402
20089SOL    HW162226   8.541   2.305   5.466
20089SOL    HW262227   8.679   2.273   5.385
20090SOL     OW62228   8.608   2.069   5.201
20090SOL    HW162229   8.608   2.133   5.278
20090SOL    HW262230   8.636   2.117   5.118
20091SOL     OW62231   7.456   3.188   3.924
20091SOL    HW162232   7.363   3.209   3.893
20091SOL    HW262233   7.466   3.089   3.937
20092SOL     OW62234   7.536   3.663   4.651
20092SOL    HW162235   7.494   3.577   4.624
20092SOL    HW262236   7.630   3.666   4.617
20093SOL     OW62237   7.952   3.430   4.634
20093SOL    HW162238   8.018   3.504   4.643
20093SOL    HW262239   7.996   3.351   4.592
20094SOL     OW62240   8.450   2.658   4.962
20094SOL    HW162241   8.491   2.626   5.048
20094SOL    HW262242   8.354   2.631   4.959
20095SOL     OW62243   7.488   2.406   4.838
20095SOL    HW162244   7.573   2.373   4.797
20095SOL    HW262245   7.501   2.421   4.936
20096SOL     OW62246   7.637   2.382   5.446
20096SOL    HW162247   7.696   2.342   5.376
20096SOL    HW262248   7.579   2.453   5.405
20097SOL     OW62249   8.817   2.812   5.384
20097SOL    HW162250   8.856   2.901   5.404
20097SOL    HW262251   8.827   2.792   5.287
20098SOL     OW62252   8.263   2.434   4.049
20098SOL    HW162253   8.270   2.345   4.003
20098SOL    HW262254   8.169   2.468   4.041
20099SOL     OW62255   0.105   2.466   4.930
20099SOL    HW162256   0.067   2.397   4.992
20099SOL    HW262257   0.187   2.430   4.886
20100SOL     OW62258   7.700   3.426   5.468
20100SOL    HW162259   7.670   3.483   5.544
20100SOL    HW262260   7.693   3.329   5.494
20101SOL     OW62261   8.119   2.326   4.993
20101SOL    HW162262   8.085   2.237   4.963
20101SOL    HW262263   8.145   2.380   4.913
20102SOL     OW62264   8.378   3.540   5.189
20102SOL    HW162265   8.354   3.522   5.094
20102SOL    HW262266   8.408   3.634   5.199
20103SOL     OW62267   7.921   2.362   3.915
20103SOL    HW162268   7.982   2.442   3.919
20103SOL    HW262269   7.826   2.393   3.922
20104SOL     OW62270   7.607   2.999   5.190
20104SOL    HW162271   7.629   2.938   5.266
20104SOL    HW262272   7.617   2.950   5.104
20105SOL     OW62273   8.795   2.921   4.958
20105SOL    HW162274   8.819   2.858   4.884
20105SOL    HW262275   8.705   2.961   4.940
20106SOL     OW62276   8.750   2.717   4.033
20106SOL    HW162277   8.664   2.686   4.075
20106SOL    HW262278   8.746   2.703   3.934
20107SOL     OW62279   8.700   3.593   4.852
20107SOL    HW162280   8.784   3.598   4.798
20107SOL    HW262281   8.677   3.497   4.870
20108SOL     OW62282   7.531   3.120   4.746
20108SOL    HW162283   7.526   3.119   4.846
20108SOL    HW262284   7.448   3.079   4.708
20109SOL     OW62285   8.136   3.524   5.440
20109SOL    HW162286   8.080   3.605   5.449
20109SOL    HW262287   8.188   3.528   5.354
20110SOL     OW62288   8.351   1.948   3.857
20110SOL    HW162289   8.402   1.949   3.771
20110SOL    HW262290   8.407   1.906   3.928
20111SOL     OW62291   0.174   1.997   4.247
20111SOL    HW162292   0.247   1.980   4.180
20111SOL    HW262293   0.143   1.910   4.285
20112SOL     OW62294   8.836   3.435   4.201
20112SOL    HW162295   8.903   3.447   4.127
20112SOL    HW262296   8.796   3.524   4.224
20113SOL     OW62297   7.578   3.656   5.575
20113SOL    HW162298   7.537   3.582   5.628
20113SOL    HW262299   7.642   3.707   5.633
20114SOL     OW62300   8.728   2.789   4.396
20114SOL    HW162301   8.788   2.708   4.398
20114SOL    HW262302   8.768   2.858   4.336
20115SOL     OW62303   8.278   3.135   5.146
20115SOL    HW162304   8.273   3.168   5.241
20115SOL    HW262305   8.192   3.154   5.100
20116SOL     OW62306   8.120   3.478   3.878
20116SOL    HW162307   8.129   3.488   3.779
20116SOL    HW262308   8.080   3.389   3.899
20117SOL     OW62309   0.098   3.582   5.118
20117SOL    HW162310   0.151   3.592   5.034
20117SOL    HW262311   0.071   3.672   5.152
20118SOL     OW62312   7.711   2.188   4.444
20118SOL    HW162313   7.632   2.239   4.410
20118SOL    HW262314   7.702   2.173   4.542
20119SOL     OW62315   8.642   3.474   3.755
20119SOL    HW162316   8.648   3.381   3.792
20119SOL    HW262317   8.583   3.474   3.675
20120SOL     OW62318   8.270   2.864   5.096
20120SOL    HW162319   8.310   2.863   5.004
20120SOL    HW262320   8.280   2.956   5.136
20121SOL     OW62321   8.364   2.772   4.015
20121SOL    HW162322   8.427   2.810   3.947
20121SOL    HW262323   8.404   2.689   4.054
20122SOL     OW62324   8.952   3.469   3.768
20122SOL    HW162325   8.860   3.506   3.775
20122SOL    HW262326   8.990   3.489   3.678
20123SOL     OW62327   7.820   3.150   5.214
20123SOL    HW162328   7.807   3.243   5.180
20123SOL    HW262329   7.736   3.098   5.201
20124SOL     OW62330   0.062   3.154   5.013
20124SOL    HW162331   0.122   3.157   5.093
20124SOL    HW262332  -0.013   3.218   5.026
20125SOL     OW62333   8.487   2.960   4.420
20125SOL    HW162334   8.417   2.913   4.474
20125SOL    HW262335   8.546   2.892   4.377
20126SOL     OW62336   8.462   2.098   4.695
20126SOL    HW162337   8.454   2.062   4.602
20126SOL    HW262338   8.460   2.022   4.760
20127SOL     OW62339   8.038   3.349   4.215
20127SOL    HW162340   8.080   3.291   4.145
20127SOL    HW262341   7.994   3.428   4.171
20128SOL     OW62342   0.157   2.247   5.105
20128SOL    HW162343   0.230   2.316   5.109
20128SOL    HW262344   0.185   2.172   5.046
20129SOL     OW62345   7.703   3.210   4.014
20129SOL    HW162346   7.607   3.211   3.987
20129SOL    HW262347   7.715   3.263   4.098
20130SOL     OW62348   7.553   2.875   5.450
20130SOL    HW162349   7.476   2.842   5.504
20130SOL    HW262350   7.638   2.845   5.492
20131SOL     OW62351   8.120   2.065   5.213
20131SOL    HW162352   8.210   2.049   5.173
20131SOL    HW262353   8.128   2.070   5.312
20132SOL     OW62354   7.523   2.207   3.757
20132SOL    HW162355   7.431   2.179   3.728
20132SOL    HW262356   7.554   2.284   3.701
20133SOL     OW62357   8.888   2.718   5.122
20133SOL    HW162358   8.831   2.770   5.059
20133SOL    HW262359   8.984   2.730   5.098
20134SOL     OW62360   7.520   2.028   4.042
20134SOL    HW162361   7.503   2.111   3.988
20134SOL    HW262362   7.610   1.991   4.020
20135SOL     OW62363   8.631   3.197   3.843
20135SOL    HW162364   8.532   3.186   3.845
20135SOL    HW262365   8.665   3.212   3.936
20136SOL     OW62366   8.061   2.704   5.155
20136SOL    HW162367   8.117   2.785   5.138
20136SOL    HW262368   8.120   2.624   5.158
20137SOL     OW62369   8.941   3.629   4.683
20137SOL    HW162370   8.974   3.693   4.614
20137SOL    HW262371   9.007   3.623   4.758
20138SOL     OW62372   8.164   2.427   5.432
20138SOL    HW162373   8.183   2.492   5.506
20138SOL    HW262374   8.224   2.347   5.441
20139SOL     OW62375   8.898   3.082   5.357
20139SOL    HW162376   8.889   3.072   5.456
20139SOL    HW262377   8.994   3.075   5.331
20140SOL     OW62378   7.838   3.603   5.284
20140SOL    HW162379   7.747   3.644   5.282
20140SOL    HW262380   7.831   3.509   5.316
20141SOL     OW62381   0.122   2.745   4.978
20141SOL    HW162382   0.095   2.656   4.941
20141SOL    HW262383   0.123   2.813   4.905
20142SOL     OW62384   8.673   2.187   4.173
20142SOL    HW162385   8.738   2.113   4.162
20142SOL    HW262386   8.693   2.237   4.257
20143SOL     OW62387   8.042   2.607   4.376
20143SOL    HW162388   8.092   2.692   4.357
20143SOL    HW262389   7.954   2.609   4.328
20144SOL     OW62390   0.225   2.204   5.366
20144SOL    HW162391   0.208   2.235   5.272
20144SOL    HW262392   0.141   2.167   5.404
20145SOL     OW62393   0.178   2.796   5.241
20145SOL    HW162394   0.216   2.887   5.256
20145SOL    HW262395   0.170   2.779   5.142
20146SOL     OW62396   8.307   3.236   3.740
20146SOL    HW162397   8.261   3.251   3.828
20146SOL    HW262398   8.351   3.321   3.710
20147SOL     OW62399   8.109   3.652   4.677
20147SOL    HW162400   8.063   3.740   4.664
20147SOL    HW262401   8.208   3.664   4.670
20148SOL     OW62402   8.307   2.818   4.585
20148SOL    HW162403   8.361   2.749   4.633
20148SOL    HW262404   8.275   2.887   4.651
20149SOL     OW62405   8.531   2.846   3.811
20149SOL    HW162406   8.508   2.899   3.729
20149SOL    HW262407   8.612   2.790   3.792
20150SOL     OW62408   7.669   3.176   5.568
20150SOL    HW162409   7.604   3.103   5.547
20150SOL    HW262410   7.673   3.190   5.666
20151SOL     OW62411   7.527   3.102   4.377
20151SOL    HW162412   7.526   3.055   4.465
20151SOL    HW262413   7.609   3.074   4.326
20152SOL     OW62414   8.120   3.253   5.348
20152SOL    HW162415   8.042   3.203   5.386
20152SOL    HW262416   8.117   3.348   5.379
20153SOL     OW62417   7.876   2.286   4.244
20153SOL    HW162418   7.906   2.214   4.182
20153SOL    HW262419   7.837   2.246   4.327
20154SOL     OW62420   0.153   3.349   4.828
20154SOL    HW162421   0.060   3.324   4.801
20154SOL    HW262422   0.179   3.299   4.910
20155SOL     OW62423   7.765   2.409   5.004
20155SOL    HW162424   7.803   2.350   5.076
20155SOL    HW262425   7.805   2.383   4.916
20156SOL     OW62426   8.260   3.448   4.411
20156SOL    HW162427   8.292   3.458   4.317
20156SOL    HW262428   8.181   3.386   4.413
20157SOL     OW62429   8.872   2.076   4.836
20157SOL    HW162430   8.924   2.011   4.891
20157SOL    HW262431   8.823   2.139   4.897
20158SOL     OW62432   8.449   1.896   4.878
20158SOL    HW162433   8.386   1.824   4.847
20158SOL    HW262434   8.542   1.860   4.878
20159SOL     OW62435   8.218   3.192   4.025
20159SOL    HW162436   8.172   3.105   4.042
20159SOL    HW262437   8.309   3.189   4.066
20160SOL     OW62438   8.066   3.429   5.008
20160SOL    HW162439   8.061   3.511   5.065
20160SOL    HW262440   8.155   3.426   4.963
20161SOL     OW62441   8.800   1.914   3.892
20161SOL    HW162442   8.835   1.873   3.808
20161SOL    HW262443   8.710   1.876   3.912
20162SOL     OW62444   8.748   2.315   4.415
20162SOL    HW162445   8.689   2.395   4.419
20162SOL    HW262446   8.763   2.280   4.508
20163SOL     OW62447   0.041   2.083   4.606
20163SOL    HW162448  -0.043   2.082   4.660
20163SOL    HW262449   0.043   2.166   4.550
20164SOL     OW62450   7.487   2.939   4.024
20164SOL    HW162451   7.586   2.928   4.015
20164SOL    HW262452   7.447   2.853   4.056
20165SOL     OW62453   8.323   3.508   4.061
20165SOL    HW162454   8.246   3.473   4.007
20165SOL    HW262455   8.291   3.579   4.123
20166SOL     OW62456   7.678   2.490   5.699
20166SOL    HW162457   7.585   2.488   5.736
20166SOL    HW262458   7.679   2.451   5.607
20167SOL     OW62459   7.673   2.137   6.582
20167SOL    HW162460   7.708   2.120   6.674
20167SOL    HW262461   7.585   2.092   6.570
20168SOL     OW62462   7.467   2.230   6.233
20168SOL    HW162463   7.385   2.273   6.272
20168SOL    HW262464   7.439   2.157   6.170
20169SOL     OW62465   8.017   3.137   6.751
20169SOL    HW162466   7.924   3.130   6.714
20169SOL    HW262467   8.028   3.226   6.795
20170SOL     OW62468   0.003   3.373   6.289
20170SOL    HW162469  -0.054   3.357   6.370
20170SOL    HW262470  -0.056   3.383   6.209
20171SOL     OW62471   0.191   2.480   6.442
20171SOL    HW162472   0.224   2.574   6.442
20171SOL    HW262473   0.242   2.426   6.508
20172SOL     OW62474   8.583   2.565   6.303
20172SOL    HW162475   8.640   2.643   6.278
20172SOL    HW262476   8.523   2.591   6.379
20173SOL     OW62477   0.203   2.469   5.817
20173SOL    HW162478   0.191   2.456   5.718
20173SOL    HW262479   0.173   2.388   5.866
20174SOL     OW62480   8.216   3.006   6.609
20174SOL    HW162481   8.138   3.023   6.669
20174SOL    HW262482   8.250   3.093   6.573
20175SOL     OW62483   8.298   2.660   7.409
20175SOL    HW162484   8.294   2.736   7.474
20175SOL    HW262485   8.320   2.696   7.318
20176SOL     OW62486   8.133   2.874   6.251
20176SOL    HW162487   8.202   2.858   6.321
20176SOL    HW262488   8.060   2.931   6.289
20177SOL     OW62489   8.134   3.023   7.389
20177SOL    HW162490   8.194   3.102   7.403
20177SOL    HW262491   8.048   3.054   7.348
20178SOL     OW62492   7.783   3.297   6.647
20178SOL    HW162493   7.705   3.266   6.594
20178SOL    HW262494   7.841   3.355   6.590
20179SOL     OW62495   8.908   3.367   6.925
20179SOL    HW162496   8.932   3.461   6.951
20179SOL    HW262497   8.892   3.313   7.007
20180SOL     OW62498   7.886   2.254   7.085
20180SOL    HW162499   7.968   2.198   7.094
20180SOL    HW262500   7.805   2.196   7.089
20181SOL     OW62501   7.679   3.575   6.069
20181SOL    HW162502   7.713   3.652   6.123
20181SOL    HW262503   7.723   3.575   5.979
20182SOL     OW62504   8.575   3.203   7.276
20182SOL    HW162505   8.622   3.203   7.364
20182SOL    HW262506   8.527   3.116   7.265
20183SOL     OW62507   7.678   3.296   6.124
20183SOL    HW162508   7.652   3.392   6.124
20183SOL    HW262509   7.607   3.242   6.169
20184SOL     OW62510   7.688   2.953   6.472
20184SOL    HW162511   7.702   2.869   6.524
20184SOL    HW262512   7.633   3.017   6.527
20185SOL     OW62513   8.068   3.648   7.025
20185SOL    HW162514   7.976   3.631   7.060
20185SOL    HW262515   8.096   3.740   7.051
20186SOL     OW62516   8.054   2.826   5.709
20186SOL    HW162517   8.061   2.910   5.655
20186SOL    HW262518   8.100   2.839   5.797
20187SOL     OW62519   0.042   1.976   7.066
20187SOL    HW162520   0.024   2.043   6.994
20187SOL    HW262521   0.039   2.022   7.155
20188SOL     OW62522   7.570   2.505   6.149
20188SOL    HW162523   7.525   2.417   6.166
20188SOL    HW262524   7.569   2.559   6.233
20189SOL     OW62525   7.475   3.458   5.703
20189SOL    HW162526   7.456   3.362   5.724
20189SOL    HW262527   7.442   3.516   5.778
20190SOL     OW62528   0.137   2.784   6.198
20190SOL    HW162529   0.232   2.755   6.206
20190SOL    HW262530   0.129   2.849   6.123
20191SOL     OW62531   0.089   2.970   6.018
20191SOL    HW162532   0.175   2.972   5.966
20191SOL    HW262533   0.103   3.017   6.106
20192SOL     OW62534   7.561   2.599   7.183
20192SOL    HW162535   7.649   2.586   7.228
20192SOL    HW262536   7.548   2.696   7.161
20193SOL     OW62537   8.061   3.227   6.312
20193SOL    HW162538   8.012   3.140   6.321
20193SOL    HW262539   8.038   3.270   6.225
20194SOL     OW62540   8.741   3.090   7.009
20194SOL    HW162541   8.778   3.017   6.951
20194SOL    HW262542   8.793   3.095   7.094
20195SOL     OW62543   8.257   1.866   6.088
20195SOL    HW162544   8.297   1.957   6.079
20195SOL    HW262545   8.157   1.874   6.094
20196SOL     OW62546   7.645   2.838   6.850
20196SOL    HW162547   7.734   2.793   6.836
20196SOL    HW262548   7.572   2.773   6.831
20197SOL     OW62549   8.973   2.861   5.776
20197SOL    HW162550   8.910   2.785   5.789
20197SOL    HW262551   9.021   2.879   5.862
20198SOL     OW62552   8.635   3.654   7.202
20198SOL    HW162553   8.659   3.714   7.126
20198SOL    HW262554   8.642   3.559   7.172
20199SOL     OW62555   7.765   2.113   7.387
20199SOL    HW162556   7.836   2.184   7.393
20199SOL    HW262557   7.677   2.152   7.415
20200SOL     OW62558   8.914   3.279   6.539
20200SOL    HW162559   8.855   3.285   6.619
20200SOL    HW262560   8.899   3.191   6.493
20201SOL     OW62561   0.115   3.576   6.158
20201SOL    HW162562   0.074   3.553   6.070
20201SOL    HW262563   0.097   3.502   6.223
20202SOL     OW62564   8.046   2.591   5.856
20202SOL    HW162565   8.070   2.660   5.788
20202SOL    HW262566   7.968   2.624   5.910
20203SOL     OW62567   8.729   2.207   6.530
20203SOL    HW162568   8.643   2.157   6.517
20203SOL    HW262569   8.791   2.153   6.586
20204SOL     OW62570   0.024   3.524   5.893
20204SOL    HW162571   0.113   3.570   5.896
20204SOL    HW262572   0.003   3.500   5.798
20205SOL     OW62573   8.255   2.467   7.051
20205SOL    HW162574   8.208   2.464   7.140
20205SOL    HW262575   8.204   2.412   6.985
20206SOL     OW62576   8.842   2.331   7.260
20206SOL    HW162577   8.822   2.374   7.348
20206SOL    HW262578   8.920   2.269   7.269
20207SOL     OW62579   8.421   2.752   7.158
20207SOL    HW162580   8.467   2.668   7.129
20207SOL    HW262581   8.365   2.786   7.083
20208SOL     OW62582   8.439   2.272   6.828
20208SOL    HW162583   8.362   2.306   6.882
20208SOL    HW262584   8.405   2.221   6.749
20209SOL     OW62585   8.489   2.563   6.015
20209SOL    HW162586   8.515   2.559   6.111
20209SOL    HW262587   8.404   2.512   6.001
20210SOL     OW62588   7.524   2.673   6.375
20210SOL    HW162589   7.623   2.661   6.384
20210SOL    HW262590   7.500   2.768   6.396
20211SOL     OW62591   7.578   3.683   7.157
20211SOL    HW162592   7.568   3.668   7.256
20211SOL    HW262593   7.492   3.719   7.121
20212SOL     OW62594   8.313   2.210   5.781
20212SOL    HW162595   8.372   2.273   5.732
20212SOL    HW262596   8.332   2.116   5.752
20213SOL     OW62597   0.167   2.447   7.417
20213SOL    HW162598   0.141   2.536   7.381
20213SOL    HW262599   0.165   2.379   7.344
20214SOL     OW62600   8.810   3.006   6.131
20214SOL    HW162601   8.893   2.977   6.083
20214SOL    HW262602   8.761   3.073   6.075
20215SOL     OW62603   7.998   2.058   6.471
20215SOL    HW162604   7.993   2.053   6.571
20215SOL    HW262605   8.000   2.154   6.442
20216SOL     OW62606   8.456   3.318   6.063
20216SOL    HW162607   8.410   3.390   6.011
20216SOL    HW262608   8.452   3.338   6.161
20217SOL     OW62609   0.243   2.928   6.459
20217SOL    HW162610   0.181   2.913   6.383
20217SOL    HW262611   0.191   2.939   6.544
20218SOL     OW62612   8.675   3.412   7.092
20218SOL    HW162613   8.681   3.335   7.156
20218SOL    HW262614   8.623   3.386   7.012
20219SOL     OW62615   7.769   2.805   5.828
20219SOL    HW162616   7.851   2.844   5.786
20219SOL    HW262617   7.742   2.723   5.779
20220SOL     OW62618   8.906   2.597   6.314
20220SOL    HW162619   8.901   2.532   6.389
20220SOL    HW262620   8.986   2.656   6.327
20221SOL     OW62621   7.909   3.128   7.313
20221SOL    HW162622   7.859   3.129   7.227
20221SOL    HW262623   7.846   3.110   7.389
20222SOL     OW62624   8.559   3.638   5.823
20222SOL    HW162625   8.499   3.576   5.873
20222SOL    HW262626   8.590   3.594   5.738
20223SOL     OW62627   7.650   2.147   7.084
20223SOL    HW162628   7.570   2.207   7.071
20223SOL    HW262629   7.640   2.098   7.170
20224SOL     OW62630   0.080   3.239   5.667
20224SOL    HW162631   0.048   3.333   5.657
20224SOL    HW262632   0.004   3.176   5.655
20225SOL     OW62633   7.912   3.605   5.909
20225SOL    HW162634   7.945   3.644   5.995
20225SOL    HW262635   7.988   3.598   5.844
20226SOL     OW62636   8.848   1.969   6.012
20226SOL    HW162637   8.824   1.932   5.922
20226SOL    HW262638   8.947   1.985   6.016
20227SOL     OW62639   7.697   3.647   6.827
20227SOL    HW162640   7.754   3.582   6.877
20227SOL    HW262641   7.681   3.614   6.734
20228SOL     OW62642   8.388   3.560   6.490
20228SOL    HW162643   8.468   3.503   6.511
20228SOL    HW262644   8.339   3.520   6.413
20229SOL     OW62645   7.830   2.562   6.066
20229SOL    HW162646   7.875   2.472   6.063
20229SOL    HW262647   7.736   2.551   6.099
20230SOL     OW62648   8.995   2.084   7.315
20230SOL    HW162649   8.990   2.121   7.407
20230SOL    HW262650   8.923   2.015   7.303
20231SOL     OW62651   8.062   1.984   5.703
20231SOL    HW162652   8.160   1.962   5.710
20231SOL    HW262653   8.031   1.967   5.610
20232SOL     OW62654   8.229   2.126   7.335
20232SOL    HW162655   8.296   2.065   7.378
20232SOL    HW262656   8.156   2.145   7.400
20233SOL     OW62657   8.336   3.376   6.781
20233SOL    HW162658   8.313   3.351   6.687
20233SOL    HW262659   8.397   3.307   6.820
20234SOL     OW62660   8.799   2.452   7.019
20234SOL    HW162661   8.827   2.409   7.104
20234SOL    HW262662   8.824   2.548   7.020
20235SOL     OW62663   8.251   3.264   6.510
20235SOL    HW162664   8.341   3.278   6.468
20235SOL    HW262665   8.180   3.266   6.439
20236SOL     OW62666   8.370   2.365   6.485
20236SOL    HW162667   8.345   2.356   6.389
20236SOL    HW262668   8.418   2.283   6.516
20237SOL     OW62669   7.987   1.926   6.098
20237SOL    HW162670   7.906   1.927   6.156
20237SOL    HW262671   7.990   2.009   6.043
20238SOL     OW62672   8.882   3.050   5.627
20238SOL    HW162673   8.914   2.974   5.684
20238SOL    HW262674   8.790   3.077   5.657
20239SOL     OW62675   7.745   1.897   5.757
20239SOL    HW162676   7.794   1.981   5.736
20239SOL    HW262677   7.807   1.832   5.802
20240SOL     OW62678   8.383   2.098   6.066
20240SOL    HW162679   8.335   2.139   5.988
20240SOL    HW262680   8.482   2.096   6.047
20241SOL     OW62681   8.524   2.545   7.050
20241SOL    HW162682   8.444   2.484   7.053
20241SOL    HW262683   8.605   2.492   7.026
20242SOL     OW62684   8.675   3.432   6.379
20242SOL    HW162685   8.696   3.506   6.314
20242SOL    HW262686   8.743   3.432   6.452
20243SOL     OW62687   7.907   3.014   6.327
20243SOL    HW162688   7.836   2.987   6.392
20243SOL    HW262689   7.881   2.986   6.234
20244SOL     OW62690   8.719   3.659   6.177
20244SOL    HW162691   8.763   3.723   6.113
20244SOL    HW262692   8.669   3.711   6.247
20245SOL     OW62693   8.480   2.411   5.602
20245SOL    HW162694   8.439   2.493   5.563
20245SOL    HW262695   8.544   2.437   5.675
20246SOL     OW62696   7.526   2.418   6.972
20246SOL    HW162697   7.618   2.417   6.931
20246SOL    HW262698   7.520   2.492   7.039
20247SOL     OW62699   8.009   2.084   6.733
20247SOL    HW162700   8.047   2.000   6.770
20247SOL    HW262701   7.921   2.103   6.777
20248SOL     OW62702   8.314   2.316   6.228
20248SOL    HW162703   8.282   2.388   6.166
20248SOL    HW262704   8.338   2.235   6.175
20249SOL     OW62705   8.465   1.901   6.339
20249SOL    HW162706   8.393   1.906   6.270
20249SOL    HW262707   8.441   1.832   6.408
20250SOL     OW62708   8.877   3.035   6.453
20250SOL    HW162709   8.822   2.951   6.446
20250SOL    HW262710   8.903   3.064   6.361
20251SOL     OW62711   8.914   2.452   6.578
20251SOL    HW162712   8.884   2.357   6.585
20251SOL    HW262713   8.987   2.468   6.644
20252SOL     OW62714   7.936   3.247   5.760
20252SOL    HW162715   7.849   3.232   5.807
20252SOL    HW262716   7.919   3.273   5.665
20253SOL     OW62717   0.112   3.142   6.243
20253SOL    HW162718   0.211   3.150   6.257
20253SOL    HW262719   0.067   3.226   6.274
20254SOL     OW62720   8.838   2.437   5.664
20254SOL    HW162721   8.784   2.416   5.745
20254SOL    HW262722   8.929   2.396   5.673
20255SOL     OW62723   7.975   2.118   5.914
20255SOL    HW162724   8.002   2.059   5.839
20255SOL    HW262725   7.975   2.213   5.883
20256SOL     OW62726   8.512   3.209   6.926
20256SOL    HW162727   8.432   3.186   6.981
20256SOL    HW262728   8.595   3.183   6.975
20257SOL     OW62729   0.040   3.491   7.211
20257SOL    HW162730   0.067   3.525   7.121
20257SOL    HW262731   0.119   3.453   7.257
20258SOL     OW62732   8.559   3.057   6.686
20258SOL    HW162733   8.519   3.101   6.767
20258SOL    HW262734   8.518   3.094   6.603
20259SOL     OW62735   0.086   2.961   6.665
20259SOL    HW162736   0.091   3.042   6.724
20259SOL    HW262737   0.000   2.963   6.614
20260SOL     OW62738   8.363   1.951   6.988
20260SOL    HW162739   8.388   1.931   6.893
20260SOL    HW262740   8.435   2.007   7.030
20261SOL     OW62741   8.428   2.978   7.305
20261SOL    HW162742   8.329   2.984   7.315
20261SOL    HW262743   8.451   2.898   7.249
20262SOL     OW62744   8.153   2.912   5.954
20262SOL    HW162745   8.139   2.919   6.053
20262SOL    HW262746   8.237   2.861   5.936
20263SOL     OW62747   7.858   2.675   6.837
20263SOL    HW162748   7.944   2.687   6.887
20263SOL    HW262749   7.816   2.588   6.864
20264SOL     OW62750   8.722   2.248   6.848
20264SOL    HW162751   8.743   2.322   6.912
20264SOL    HW262752   8.633   2.265   6.805
20265SOL     OW62753   7.512   3.426   6.917
20265SOL    HW162754   7.466   3.508   6.883
20265SOL    HW262755   7.610   3.445   6.926
20266SOL     OW62756   7.815   2.962   6.087
20266SOL    HW162757   7.808   3.045   6.031
20266SOL    HW262758   7.819   2.882   6.027
20267SOL     OW62759   8.014   2.399   6.451
20267SOL    HW162760   8.026   2.465   6.377
20267SOL    HW262761   8.060   2.433   6.534
20268SOL     OW62762   8.700   3.210   5.974
20268SOL    HW162763   8.750   3.287   6.014
20268SOL    HW262764   8.605   3.212   6.006
20269SOL     OW62765   8.720   3.307   6.728
20269SOL    HW162766   8.767   3.320   6.815
20269SOL    HW262767   8.654   3.233   6.737
20270SOL     OW62768   0.030   2.501   6.058
20270SOL    HW162769  -0.001   2.562   6.131
20270SOL    HW262770   0.080   2.553   5.989
20271SOL     OW62771   7.802   3.372   6.915
20271SOL    HW162772   7.781   3.328   6.828
20271SOL    HW262773   7.899   3.398   6.918
20272SOL     OW62774   7.850   2.613   7.184
20272SOL    HW162775   7.918   2.668   7.137
20272SOL    HW262776   7.890   2.525   7.211
20273SOL     OW62777   0.035   2.641   7.256
20273SOL    HW162778  -0.057   2.679   7.251
20273SOL    HW262779   0.095   2.688   7.191
20274SOL     OW62780   8.461   1.967   7.356
20274SOL    HW162781   8.467   2.052   7.304
20274SOL    HW262782   8.493   1.891   7.299
20275SOL     OW62783   7.952   1.912   7.326
20275SOL    HW162784   7.910   1.855   7.256
20275SOL    HW262785   7.886   1.981   7.358
20276SOL     OW62786   8.021   2.732   6.615
20276SOL    HW162787   8.065   2.821   6.606
20276SOL    HW262788   7.958   2.732   6.692
20277SOL     OW62789   8.808   2.724   6.631
20277SOL    HW162790   8.733   2.724   6.565
20277SOL    HW262791   8.845   2.632   6.640
20278SOL     OW62792   8.657   2.387   5.861
20278SOL    HW162793   8.670   2.303   5.915
20278SOL    HW262794   8.628   2.461   5.921
20279SOL     OW62795   7.755   2.075   6.817
20279SOL    HW162796   7.732   2.112   6.907
20279SOL    HW262797   7.725   1.980   6.811
20280SOL     OW62798   7.485   3.172   6.868
20280SOL    HW162799   7.538   3.123   6.936
20280SOL    HW262800   7.507   3.270   6.873
20281SOL     OW62801   8.180   2.496   6.650
20281SOL    HW162802   8.239   2.470   6.574
20281SOL    HW262803   8.152   2.592   6.639
20282SOL     OW62804   0.176   2.797   7.440
20282SOL    HW162805   0.130   2.790   7.351
20282SOL    HW262806   0.114   2.841   7.506
20283SOL     OW62807   7.755   1.925   6.204
20283SOL    HW162808   7.744   2.019   6.237
20283SOL    HW262809   7.750   1.862   6.281
20284SOL     OW62810   0.070   2.229   5.960
20284SOL    HW162811   0.072   2.153   6.024
20284SOL    HW262812   0.022   2.306   6.000
20285SOL     OW62813   8.471   2.628   6.552
20285SOL    HW162814   8.486   2.649   6.648
20285SOL    HW262815   8.441   2.533   6.543
20286SOL     OW62816   8.428   3.435   7.286
20286SOL    HW162817   8.408   3.479   7.198
20286SOL    HW262818   8.467   3.344   7.270
20287SOL     OW62819   7.798   2.760   7.390
20287SOL    HW162820   7.874   2.804   7.438
20287SOL    HW262821   7.833   2.713   7.308
20288SOL     OW62822   8.988   2.136   5.711
20288SOL    HW162823   8.927   2.061   5.734
20288SOL    HW262824   9.010   2.188   5.794
20289SOL     OW62825   8.751   2.700   5.628
20289SOL    HW162826   8.785   2.607   5.643
20289SOL    HW262827   8.769   2.727   5.533
20290SOL     OW62828   8.516   3.195   6.435
20290SOL    HW162829   8.523   3.111   6.380
20290SOL    HW262830   8.578   3.264   6.399
20291SOL     OW62831   7.767   2.672   6.535
20291SOL    HW162832   7.860   2.708   6.540
20291SOL    HW262833   7.761   2.587   6.587
20292SOL     OW62834   7.787   2.371   6.592
20292SOL    HW162835   7.735   2.288   6.575
20292SOL    HW262836   7.864   2.376   6.528
20293SOL     OW62837   7.959   2.277   7.394
20293SOL    HW162838   7.941   2.322   7.482
20293SOL    HW262839   8.001   2.342   7.331
20294SOL     OW62840   8.586   2.242   7.264
20294SOL    HW162841   8.541   2.305   7.328
20294SOL    HW262842   8.679   2.273   7.247
20295SOL     OW62843   8.608   2.069   7.063
20295SOL    HW162844   8.608   2.133   7.140
20295SOL    HW262845   8.636   2.117   6.980
20296SOL     OW62846   7.456   3.188   5.786
20296SOL    HW162847   7.363   3.209   5.755
20296SOL    HW262848   7.466   3.089   5.799
20297SOL     OW62849   7.536   3.663   6.513
20297SOL    HW162850   7.494   3.577   6.486
20297SOL    HW262851   7.630   3.666   6.479
20298SOL     OW62852   7.952   3.430   6.496
20298SOL    HW162853   8.018   3.504   6.505
20298SOL    HW262854   7.996   3.351   6.454
20299SOL     OW62855   8.450   2.658   6.824
20299SOL    HW162856   8.491   2.626   6.910
20299SOL    HW262857   8.354   2.631   6.821
20300SOL     OW62858   7.488   2.406   6.700
20300SOL    HW162859   7.573   2.373   6.659
20300SOL    HW262860   7.501   2.421   6.798
20301SOL     OW62861   7.637   2.382   7.308
20301SOL    HW162862   7.696   2.342   7.238
20301SOL    HW262863   7.579   2.453   7.267
20302SOL     OW62864   8.817   2.812   7.246
20302SOL    HW162865   8.856   2.901   7.266
20302SOL    HW262866   8.827   2.792   7.149
20303SOL     OW62867   8.263   2.434   5.911
20303SOL    HW162868   8.270   2.345   5.865
20303SOL    HW262869   8.169   2.468   5.903
20304SOL     OW62870   0.105   2.466   6.792
20304SOL    HW162871   0.067   2.397   6.854
20304SOL    HW262872   0.187   2.430   6.748
20305SOL     OW62873   7.700   3.426   7.330
20305SOL    HW162874   7.670   3.483   7.406
20305SOL    HW262875   7.693   3.329   7.356
20306SOL     OW62876   8.119   2.326   6.855
20306SOL    HW162877   8.085   2.237   6.825
20306SOL    HW262878   8.145   2.380   6.775
20307SOL     OW62879   8.378   3.540   7.051
20307SOL    HW162880   8.354   3.522   6.956
20307SOL    HW262881   8.408   3.634   7.061
20308SOL     OW62882   7.921   2.362   5.777
20308SOL    HW162883   7.982   2.442   5.781
20308SOL    HW262884   7.826   2.393   5.784
20309SOL     OW62885   7.607   2.999   7.052
20309SOL    HW162886   7.629   2.938   7.128
20309SOL    HW262887   7.617   2.950   6.966
20310SOL     OW62888   8.795   2.921   6.820
20310SOL    HW162889   8.819   2.858   6.746
20310SOL    HW262890   8.705   2.961   6.802
20311SOL     OW62891   8.750   2.717   5.895
20311SOL    HW162892   8.664   2.686   5.937
20311SOL    HW262893   8.746   2.703   5.796
20312SOL     OW62894   8.700   3.593   6.714
20312SOL    HW162895   8.784   3.598   6.660
20312SOL    HW262896   8.677   3.497   6.732
20313SOL     OW62897   7.531   3.120   6.608
20313SOL    HW162898   7.526   3.119   6.708
20313SOL    HW262899   7.448   3.079   6.570
20314SOL     OW62900   8.136   3.524   7.302
20314SOL    HW162901   8.080   3.605   7.311
20314SOL    HW262902   8.188   3.528   7.216
20315SOL     OW62903   8.351   1.948   5.719
20315SOL    HW162904   8.402   1.949   5.633
20315SOL    HW262905   8.407   1.906   5.790
20316SOL     OW62906   0.174   1.997   6.109
20316SOL    HW162907   0.247   1.980   6.042
20316SOL    HW262908   0.143   1.910   6.147
20317SOL     OW62909   8.836   3.435   6.063
20317SOL    HW162910   8.903   3.447   5.989
20317SOL    HW262911   8.796   3.524   6.086
20318SOL     OW62912   7.578   3.656   7.437
20318SOL    HW162913   7.537   3.582   7.490
20318SOL    HW262914   7.642   3.707   7.495
20319SOL     OW62915   8.728   2.789   6.258
20319SOL    HW162916   8.788   2.708   6.260
20319SOL    HW262917   8.768   2.858   6.198
20320SOL     OW62918   8.278   3.135   7.008
20320SOL    HW162919   8.273   3.168   7.103
20320SOL    HW262920   8.192   3.154   6.962
20321SOL     OW62921   8.120   3.478   5.740
20321SOL    HW162922   8.129   3.488   5.641
20321SOL    HW262923   8.080   3.389   5.761
20322SOL     OW62924   0.098   3.582   6.980
20322SOL    HW162925   0.151   3.592   6.896
20322SOL    HW262926   0.071   3.672   7.014
20323SOL     OW62927   7.711   2.188   6.306
20323SOL    HW162928   7.632   2.239   6.272
20323SOL    HW262929   7.702   2.173   6.404
20324SOL     OW62930   8.642   3.474   5.617
20324SOL    HW162931   8.648   3.381   5.654
20324SOL    HW262932   8.583   3.474   5.537
20325SOL     OW62933   8.270   2.864   6.958
20325SOL    HW162934   8.310   2.863   6.866
20325SOL    HW262935   8.280   2.956   6.998
20326SOL     OW62936   8.364   2.772   5.877
20326SOL    HW162937   8.427   2.810   5.809
20326SOL    HW262938   8.404   2.689   5.916
20327SOL     OW62939   8.952   3.469   5.630
20327SOL    HW162940   8.860   3.506   5.637
20327SOL    HW262941   8.990   3.489   5.540
20328SOL     OW62942   7.820   3.150   7.076
20328SOL    HW162943   7.807   3.243   7.042
20328SOL    HW262944   7.736   3.098   7.063
20329SOL     OW62945   0.062   3.154   6.875
20329SOL    HW162946   0.122   3.157   6.955
20329SOL    HW262947  -0.013   3.218   6.888
20330SOL     OW62948   8.487   2.960   6.282
20330SOL    HW162949   8.417   2.913   6.336
20330SOL    HW262950   8.546   2.892   6.239
20331SOL     OW62951   8.462   2.098   6.557
20331SOL    HW162952   8.454   2.062   6.464
20331SOL    HW262953   8.460   2.022   6.622
20332SOL     OW62954   8.038   3.349   6.077
20332SOL    HW162955   8.080   3.291   6.007
20332SOL    HW262956   7.994   3.428   6.033
20333SOL     OW62957   0.157   2.247   6.967
20333SOL    HW162958   0.230   2.316   6.971
20333SOL    HW262959   0.185   2.172   6.908
20334SOL     OW62960   7.703   3.210   5.876
20334SOL    HW162961   7.607   3.211   5.849
20334SOL    HW262962   7.715   3.263   5.960
20335SOL     OW62963   7.553   2.875   7.312
20335SOL    HW162964   7.476   2.842   7.366
20335SOL    HW262965   7.638   2.845   7.354
20336SOL     OW62966   8.120   2.065   7.075
20336SOL    HW162967   8.210   2.049   7.035
20336SOL    HW262968   8.128   2.070   7.174
20337SOL     OW62969   7.523   2.207   5.619
20337SOL    HW162970   7.431   2.179   5.590
20337SOL    HW262971   7.554   2.284   5.563
20338SOL     OW62972   8.888   2.718   6.984
20338SOL    HW162973   8.831   2.770   6.921
20338SOL    HW262974   8.984   2.730   6.960
20339SOL     OW62975   7.520   2.028   5.904
20339SOL    HW162976   7.503   2.111   5.850
20339SOL    HW262977   7.610   1.991   5.882
20340SOL     OW62978   8.631   3.197   5.705
20340SOL    HW162979   8.532   3.186   5.707
20340SOL    HW262980   8.665   3.212   5.798
20341SOL     OW62981   8.061   2.704   7.017
20341SOL    HW162982   8.117   2.785   7.000
20341SOL    HW262983   8.120   2.624   7.020
20342SOL     OW62984   8.941   3.629   6.545
20342SOL    HW162985   8.974   3.693   6.476
20342SOL    HW262986   9.007   3.623   6.620
20343SOL     OW62987   8.164   2.427   7.294
20343SOL    HW162988   8.183   2.492   7.368
20343SOL    HW262989   8.224   2.347   7.303
20344SOL     OW62990   8.898   3.082   7.219
20344SOL    HW162991   8.889   3.072   7.318
20344SOL    HW262992   8.994   3.075   7.193
20345SOL     OW62993   7.838   3.603   7.146
20345SOL    HW162994   7.747   3.644   7.144
20345SOL    HW262995   7.831   3.509   7.178
20346SOL     OW62996   0.122   2.745   6.840
20346SOL    HW162997   0.095   2.656   6.803
20346SOL    HW262998   0.123   2.813   6.767
20347SOL     OW62999   8.673   2.187   6.035
20347SOL    HW163000   8.738   2.113   6.024
20347SOL    HW263001   8.693   2.237   6.119
20348SOL     OW63002   8.042   2.607   6.238
20348SOL    HW163003   8.092   2.692   6.219
20348SOL    HW263004   7.954   2.609   6.190
20349SOL     OW63005   0.225   2.204   7.228
20349SOL    HW163006   0.208   2.235   7.134
20349SOL    HW263007   0.141   2.167   7.266
20350SOL     OW63008   0.178   2.796   7.103
20350SOL    HW163009   0.216   2.887   7.118
20350SOL    HW263010   0.170   2.779   7.004
20351SOL     OW63011   8.307   3.236   5.602
20351SOL    HW163012   8.261   3.251   5.690
20351SOL    HW263013   8.351   3.321   5.572
20352SOL     OW63014   8.109   3.652   6.539
20352SOL    HW163015   8.063   3.740   6.526
20352SOL    HW263016   8.208   3.664   6.532
20353SOL     OW63017   8.307   2.818   6.447
20353SOL    HW163018   8.361   2.749   6.495
20353SOL    HW263019   8.275   2.887   6.513
20354SOL     OW63020   8.531   2.846   5.673
20354SOL    HW163021   8.508   2.899   5.591
20354SOL    HW263022   8.612   2.790   5.654
20355SOL     OW63023   7.669   3.176   7.430
20355SOL    HW163024   7.604   3.103   7.409
20355SOL    HW263025   7.673   3.190   7.528
20356SOL     OW63026   7.527   3.102   6.239
20356SOL    HW163027   7.526   3.055   6.327
20356SOL    HW263028   7.609   3.074   6.188
20357SOL     OW63029   8.120   3.253   7.210
20357SOL    HW163030   8.042   3.203   7.248
20357SOL    HW263031   8.117   3.348   7.241
20358SOL     OW63032   7.876   2.286   6.106
20358SOL    HW163033   7.906   2.214   6.044
20358SOL    HW263034   7.837   2.246   6.189
20359SOL     OW63035   0.153   3.349   6.690
20359SOL    HW163036   0.060   3.324   6.663
20359SOL    HW263037   0.179   3.299   6.772
20360SOL     OW63038   7.765   2.409   6.866
20360SOL    HW163039   7.803   2.350   6.938
20360SOL    HW263040   7.805   2.383   6.778
20361SOL     OW63041   8.260   3.448   6.273
20361SOL    HW163042   8.292   3.458   6.179
20361SOL    HW263043   8.181   3.386   6.275
20362SOL     OW63044   8.872   2.076   6.698
20362SOL    HW163045   8.924   2.011   6.753
20362SOL    HW263046   8.823   2.139   6.759
20363SOL     OW63047   8.449   1.896   6.740
20363SOL    HW163048   8.386   1.824   6.709
20363SOL    HW263049   8.542   1.860   6.740
20364SOL     OW63050   8.218   3.192   5.887
20364SOL    HW163051   8.172   3.105   5.904
20364SOL    HW263052   8.309   3.189   5.928
20365SOL     OW63053   8.066   3.429   6.870
20365SOL    HW163054   8.061   3.511   6.927
20365SOL    HW263055   8.155   3.426   6.825
20366SOL     OW63056   8.800   1.914   5.754
20366SOL    HW163057   8.835   1.873   5.670
20366SOL    HW263058   8.710   1.876   5.774
20367SOL     OW63059   8.748   2.315   6.277
20367SOL    HW163060   8.689   2.395   6.281
20367SOL    HW263061   8.763   2.280   6.370
20368SOL     OW63062   0.041   2.083   6.468
20368SOL    HW163063  -0.043   2.082   6.522
20368SOL    HW263064   0.043   2.166   6.412
20369SOL     OW63065   7.487   2.939   5.886
20369SOL    HW163066   7.586   2.928   5.877
20369SOL    HW263067   7.447   2.853   5.918
20370SOL     OW63068   8.323   3.508   5.923
20370SOL    HW163069   8.246   3.473   5.869
20370SOL    HW263070   8.291   3.579   5.985
20371SOL     OW63071   7.678   2.490   7.561
20371SOL    HW163072   7.585   2.488   7.598
20371SOL    HW263073   7.679   2.451   7.469
20372SOL     OW63074   7.673   2.137   8.444
20372SOL    HW163075   7.708   2.120   8.536
20372SOL    HW263076   7.585   2.092   8.432
20373SOL     OW63077   7.467   2.230   8.095
20373SOL    HW163078   7.385   2.273   8.134
20373SOL    HW263079   7.439   2.157   8.032
20374SOL     OW63080   8.017   3.137   8.613
20374SOL    HW163081   7.924   3.130   8.576
20374SOL    HW263082   8.028   3.226   8.657
20375SOL     OW63083   0.003   3.373   8.151
20375SOL    HW163084  -0.054   3.357   8.232
20375SOL    HW263085  -0.056   3.383   8.071
20376SOL     OW63086   0.191   2.480   8.304
20376SOL    HW163087   0.224   2.574   8.304
20376SOL    HW263088   0.242   2.426   8.370
20377SOL     OW63089   8.583   2.565   8.165
20377SOL    HW163090   8.640   2.643   8.140
20377SOL    HW263091   8.523   2.591   8.241
20378SOL     OW63092   0.203   2.469   7.679
20378SOL    HW163093   0.191   2.456   7.580
20378SOL    HW263094   0.173   2.388   7.728
20379SOL     OW63095   8.216   3.006   8.471
20379SOL    HW163096   8.138   3.023   8.531
20379SOL    HW263097   8.250   3.093   8.435
20380SOL     OW63098   8.133   2.874   8.113
20380SOL    HW163099   8.202   2.858   8.183
20380SOL    HW263100   8.060   2.931   8.151
20381SOL     OW63101   7.783   3.297   8.509
20381SOL    HW163102   7.705   3.266   8.456
20381SOL    HW263103   7.841   3.355   8.452
20382SOL     OW63104   8.908   3.367   8.787
20382SOL    HW163105   8.932   3.461   8.813
20382SOL    HW263106   8.892   3.313   8.869
20383SOL     OW63107   7.886   2.254   8.947
20383SOL    HW163108   7.968   2.198   8.956
20383SOL    HW263109   7.805   2.196   8.951
20384SOL     OW63110   7.679   3.575   7.931
20384SOL    HW163111   7.713   3.652   7.985
20384SOL    HW263112   7.723   3.575   7.841
20385SOL     OW63113   7.678   3.296   7.986
20385SOL    HW163114   7.652   3.392   7.986
20385SOL    HW263115   7.607   3.242   8.031
20386SOL     OW63116   7.688   2.953   8.334
20386SOL    HW163117   7.702   2.869   8.386
20386SOL    HW263118   7.633   3.017   8.389
20387SOL     OW63119   8.068   3.648   8.887
20387SOL    HW163120   7.976   3.631   8.922
20387SOL    HW263121   8.096   3.740   8.913
20388SOL     OW63122   8.054   2.826   7.571
20388SOL    HW163123   8.061   2.910   7.517
20388SOL    HW263124   8.100   2.839   7.659
20389SOL     OW63125   0.042   1.976   8.928
20389SOL    HW163126   0.024   2.043   8.856
20389SOL    HW263127   0.039   2.022   9.017
20390SOL     OW63128   7.570   2.505   8.011
20390SOL    HW163129   7.525   2.417   8.028
20390SOL    HW263130   7.569   2.559   8.095
20391SOL     OW63131   7.475   3.458   7.565
20391SOL    HW163132   7.456   3.362   7.586
20391SOL    HW263133   7.442   3.516   7.640
20392SOL     OW63134   0.137   2.784   8.060
20392SOL    HW163135   0.232   2.755   8.068
20392SOL    HW263136   0.129   2.849   7.985
20393SOL     OW63137   0.089   2.970   7.880
20393SOL    HW163138   0.175   2.972   7.828
20393SOL    HW263139   0.103   3.017   7.968
20394SOL     OW63140   8.061   3.227   8.174
20394SOL    HW163141   8.012   3.140   8.183
20394SOL    HW263142   8.038   3.270   8.087
20395SOL     OW63143   8.257   1.866   7.950
20395SOL    HW163144   8.297   1.957   7.941
20395SOL    HW263145   8.157   1.874   7.956
20396SOL     OW63146   7.645   2.838   8.712
20396SOL    HW163147   7.734   2.793   8.698
20396SOL    HW263148   7.572   2.773   8.693
20397SOL     OW63149   8.973   2.861   7.638
20397SOL    HW163150   8.910   2.785   7.651
20397SOL    HW263151   9.021   2.879   7.724
20398SOL     OW63152   8.914   3.279   8.401
20398SOL    HW163153   8.855   3.285   8.481
20398SOL    HW263154   8.899   3.191   8.355
20399SOL     OW63155   0.115   3.576   8.020
20399SOL    HW163156   0.074   3.553   7.932
20399SOL    HW263157   0.097   3.502   8.085
20400SOL     OW63158   8.046   2.591   7.718
20400SOL    HW163159   8.070   2.660   7.650
20400SOL    HW263160   7.968   2.624   7.772
20401SOL     OW63161   8.729   2.207   8.392
20401SOL    HW163162   8.643   2.157   8.379
20401SOL    HW263163   8.791   2.153   8.448
20402SOL     OW63164   0.024   3.524   7.755
20402SOL    HW163165   0.113   3.570   7.758
20402SOL    HW263166   0.003   3.500   7.660
20403SOL     OW63167   8.255   2.467   8.913
20403SOL    HW163168   8.208   2.464   9.002
20403SOL    HW263169   8.204   2.412   8.847
20404SOL     OW63170   8.439   2.272   8.690
20404SOL    HW163171   8.362   2.306   8.744
20404SOL    HW263172   8.405   2.221   8.611
20405SOL     OW63173   8.489   2.563   7.877
20405SOL    HW163174   8.515   2.559   7.973
20405SOL    HW263175   8.404   2.512   7.863
20406SOL     OW63176   7.524   2.673   8.237
20406SOL    HW163177   7.623   2.661   8.246
20406SOL    HW263178   7.500   2.768   8.258
20407SOL     OW63179   7.578   3.683   0.019
20407SOL    HW163180   7.568   3.668   0.118
20407SOL    HW263181   7.492   3.719  -0.017
20408SOL     OW63182   8.313   2.210   7.643
20408SOL    HW163183   8.372   2.273   7.594
20408SOL    HW263184   8.332   2.116   7.614
20409SOL     OW63185   8.810   3.006   7.993
20409SOL    HW163186   8.893   2.977   7.945
20409SOL    HW263187   8.761   3.073   7.937
20410SOL     OW63188   7.998   2.058   8.333
20410SOL    HW163189   7.993   2.053   8.433
20410SOL    HW263190   8.000   2.154   8.304
20411SOL     OW63191   8.456   3.318   7.925
20411SOL    HW163192   8.410   3.390   7.873
20411SOL    HW263193   8.452   3.338   8.023
20412SOL     OW63194   7.799   3.663   8.301
20412SOL    HW163195   7.849   3.577   8.307
20412SOL    HW263196   7.864   3.740   8.298
20413SOL     OW63197   0.243   2.928   8.321
20413SOL    HW163198   0.181   2.913   8.245
20413SOL    HW263199   0.191   2.939   8.406
20414SOL     OW63200   7.769   2.805   7.690
20414SOL    HW163201   7.851   2.844   7.648
20414SOL    HW263202   7.742   2.723   7.641
20415SOL     OW63203   8.906   2.597   8.176
20415SOL    HW163204   8.901   2.532   8.251
20415SOL    HW263205   8.986   2.656   8.189
20416SOL     OW63206   8.559   3.638   7.685
20416SOL    HW163207   8.499   3.576   7.735
20416SOL    HW263208   8.590   3.594   7.600
20417SOL     OW63209   7.650   2.147   8.946
20417SOL    HW163210   7.570   2.207   8.933
20417SOL    HW263211   7.640   2.098   9.032
20418SOL     OW63212   0.080   3.239   7.529
20418SOL    HW163213   0.048   3.333   7.519
20418SOL    HW263214   0.004   3.176   7.517
20419SOL     OW63215   7.912   3.605   7.771
20419SOL    HW163216   7.945   3.644   7.857
20419SOL    HW263217   7.988   3.598   7.706
20420SOL     OW63218   8.848   1.969   7.874
20420SOL    HW163219   8.824   1.932   7.784
20420SOL    HW263220   8.947   1.985   7.878
20421SOL     OW63221   7.697   3.647   8.689
20421SOL    HW163222   7.754   3.582   8.739
20421SOL    HW263223   7.681   3.614   8.596
20422SOL     OW63224   8.388   3.560   8.352
20422SOL    HW163225   8.468   3.503   8.373
20422SOL    HW263226   8.339   3.520   8.275
20423SOL     OW63227   7.830   2.562   7.928
20423SOL    HW163228   7.875   2.472   7.925
20423SOL    HW263229   7.736   2.551   7.961
20424SOL     OW63230   8.062   1.984   7.565
20424SOL    HW163231   8.160   1.962   7.572
20424SOL    HW263232   8.031   1.967   7.472
20425SOL     OW63233   8.336   3.376   8.643
20425SOL    HW163234   8.313   3.351   8.549
20425SOL    HW263235   8.397   3.307   8.682
20426SOL     OW63236   8.251   3.264   8.372
20426SOL    HW163237   8.341   3.278   8.330
20426SOL    HW263238   8.180   3.266   8.301
20427SOL     OW63239   8.370   2.365   8.347
20427SOL    HW163240   8.345   2.356   8.251
20427SOL    HW263241   8.418   2.283   8.378
20428SOL     OW63242   7.987   1.926   7.960
20428SOL    HW163243   7.906   1.927   8.018
20428SOL    HW263244   7.990   2.009   7.905
20429SOL     OW63245   8.882   3.050   7.489
20429SOL    HW163246   8.914   2.974   7.546
20429SOL    HW263247   8.790   3.077   7.519
20430SOL     OW63248   7.745   1.897   7.619
20430SOL    HW163249   7.794   1.981   7.598
20430SOL    HW263250   7.807   1.832   7.664
20431SOL     OW63251   8.383   2.098   7.928
20431SOL    HW163252   8.335   2.139   7.850
20431SOL    HW263253   8.482   2.096   7.909
20432SOL     OW63254   8.675   3.432   8.241
20432SOL    HW163255   8.696   3.506   8.176
20432SOL    HW263256   8.743   3.432   8.314
20433SOL     OW63257   7.907   3.014   8.189
20433SOL    HW163258   7.836   2.987   8.254
20433SOL    HW263259   7.881   2.986   8.096
20434SOL     OW63260   8.719   3.659   8.039
20434SOL    HW163261   8.763   3.723   7.975
20434SOL    HW263262   8.669   3.711   8.109
20435SOL     OW63263   8.480   2.411   7.464
20435SOL    HW163264   8.439   2.493   7.425
20435SOL    HW263265   8.544   2.437   7.537
20436SOL     OW63266   7.526   2.418   8.834
20436SOL    HW163267   7.618   2.417   8.793
20436SOL    HW263268   7.520   2.492   8.901
20437SOL     OW63269   8.009   2.084   8.595
20437SOL    HW163270   8.047   2.000   8.632
20437SOL    HW263271   7.921   2.103   8.639
20438SOL     OW63272   8.314   2.316   8.090
20438SOL    HW163273   8.282   2.388   8.028
20438SOL    HW263274   8.338   2.235   8.037
20439SOL     OW63275   8.465   1.901   8.201
20439SOL    HW163276   8.393   1.906   8.132
20439SOL    HW263277   8.441   1.832   8.270
20440SOL     OW63278   8.877   3.035   8.315
20440SOL    HW163279   8.822   2.951   8.308
20440SOL    HW263280   8.903   3.064   8.223
20441SOL     OW63281   8.914   2.452   8.440
20441SOL    HW163282   8.884   2.357   8.447
20441SOL    HW263283   8.987   2.468   8.506
20442SOL     OW63284   7.936   3.247   7.622
20442SOL    HW163285   7.849   3.232   7.669
20442SOL    HW263286   7.919   3.273   7.527
20443SOL     OW63287   0.112   3.142   8.105
20443SOL    HW163288   0.211   3.150   8.119
20443SOL    HW263289   0.067   3.226   8.136
20444SOL     OW63290   8.838   2.437   7.526
20444SOL    HW163291   8.784   2.416   7.607
20444SOL    HW263292   8.929   2.396   7.535
20445SOL     OW63293   7.975   2.118   7.776
20445SOL    HW163294   8.002   2.059   7.701
20445SOL    HW263295   7.975   2.213   7.745
20446SOL     OW63296   8.512   3.209   8.788
20446SOL    HW163297   8.432   3.186   8.843
20446SOL    HW263298   8.595   3.183   8.837
20447SOL     OW63299   8.559   3.057   8.548
20447SOL    HW163300   8.519   3.101   8.629
20447SOL    HW263301   8.518   3.094   8.465
20448SOL     OW63302   0.086   2.961   8.527
20448SOL    HW163303   0.091   3.042   8.586
20448SOL    HW263304   0.000   2.963   8.476
20449SOL     OW63305   8.363   1.951   8.850
20449SOL    HW163306   8.388   1.931   8.755
20449SOL    HW263307   8.435   2.007   8.892
20450SOL     OW63308   8.153   2.912   7.816
20450SOL    HW163309   8.139   2.919   7.915
20450SOL    HW263310   8.237   2.861   7.798
20451SOL     OW63311   7.858   2.675   8.699
20451SOL    HW163312   7.944   2.687   8.749
20451SOL    HW263313   7.816   2.588   8.726
20452SOL     OW63314   8.722   2.248   8.710
20452SOL    HW163315   8.743   2.322   8.774
20452SOL    HW263316   8.633   2.265   8.667
20453SOL     OW63317   7.512   3.426   8.779
20453SOL    HW163318   7.466   3.508   8.745
20453SOL    HW263319   7.610   3.445   8.788
20454SOL     OW63320   7.815   2.962   7.949
20454SOL    HW163321   7.808   3.045   7.893
20454SOL    HW263322   7.819   2.882   7.889
20455SOL     OW63323   8.014   2.399   8.313
20455SOL    HW163324   8.026   2.465   8.239
20455SOL    HW263325   8.060   2.433   8.396
20456SOL     OW63326   8.700   3.210   7.836
20456SOL    HW163327   8.750   3.287   7.876
20456SOL    HW263328   8.605   3.212   7.868
20457SOL     OW63329   8.720   3.307   8.590
20457SOL    HW163330   8.767   3.320   8.677
20457SOL    HW263331   8.654   3.233   8.599
20458SOL     OW63332   0.030   2.501   7.920
20458SOL    HW163333  -0.001   2.562   7.993
20458SOL    HW263334   0.080   2.553   7.851
20459SOL     OW63335   7.802   3.372   8.777
20459SOL    HW163336   7.781   3.328   8.690
20459SOL    HW263337   7.899   3.398   8.780
20460SOL     OW63338   7.850   2.613   0.046
20460SOL    HW163339   7.918   2.668  -0.001
20460SOL    HW263340   7.890   2.525   0.073
20461SOL     OW63341   0.035   2.641   0.118
20461SOL    HW163342  -0.057   2.679   0.113
20461SOL    HW263343   0.095   2.688   0.053
20462SOL     OW63344   8.021   2.732   8.477
20462SOL    HW163345   8.065   2.821   8.468
20462SOL    HW263346   7.958   2.732   8.554
20463SOL     OW63347   8.808   2.724   8.493
20463SOL    HW163348   8.733   2.724   8.427
20463SOL    HW263349   8.845   2.632   8.502
20464SOL     OW63350   8.657   2.387   7.723
20464SOL    HW163351   8.670   2.303   7.777
20464SOL    HW263352   8.628   2.461   7.783
20465SOL     OW63353   7.755   2.075   8.679
20465SOL    HW163354   7.732   2.112   8.769
20465SOL    HW263355   7.725   1.980   8.673
20466SOL     OW63356   7.485   3.172   8.730
20466SOL    HW163357   7.538   3.123   8.798
20466SOL    HW263358   7.507   3.270   8.735
20467SOL     OW63359   8.180   2.496   8.512
20467SOL    HW163360   8.239   2.470   8.436
20467SOL    HW263361   8.152   2.592   8.501
20468SOL     OW63362   7.755   1.925   8.066
20468SOL    HW163363   7.744   2.019   8.099
20468SOL    HW263364   7.750   1.862   8.143
20469SOL     OW63365   0.070   2.229   7.822
20469SOL    HW163366   0.072   2.153   7.886
20469SOL    HW263367   0.022   2.306   7.862
20470SOL     OW63368   8.471   2.628   8.414
20470SOL    HW163369   8.486   2.649   8.510
20470SOL    HW263370   8.441   2.533   8.405
20471SOL     OW63371   8.428   3.435   0.148
20471SOL    HW163372   8.408   3.479   0.060
20471SOL    HW263373   8.467   3.344   0.132
20472SOL     OW63374   8.988   2.136   7.573
20472SOL    HW163375   8.927   2.061   7.596
20472SOL    HW263376   9.010   2.188   7.656
20473SOL     OW63377   8.751   2.700   7.490
20473SOL    HW163378   8.785   2.607   7.505
20473SOL    HW263379   8.769   2.727   7.395
20474SOL     OW63380   8.516   3.195   8.297
20474SOL    HW163381   8.523   3.111   8.242
20474SOL    HW263382   8.578   3.264   8.261
20475SOL     OW63383   7.767   2.672   8.397
20475SOL    HW163384   7.860   2.708   8.402
20475SOL    HW263385   7.761   2.587   8.449
20476SOL     OW63386   7.787   2.371   8.454
20476SOL    HW163387   7.735   2.288   8.437
20476SOL    HW263388   7.864   2.376   8.390
20477SOL     OW63389   8.586   2.242   0.126
20477SOL    HW163390   8.541   2.305   0.190
20477SOL    HW263391   8.679   2.273   0.109
20478SOL     OW63392   8.608   2.069   8.925
20478SOL    HW163393   8.608   2.133   9.002
20478SOL    HW263394   8.636   2.117   8.842
20479SOL     OW63395   7.456   3.188   7.648
20479SOL    HW163396   7.363   3.209   7.617
20479SOL    HW263397   7.466   3.089   7.661
20480SOL     OW63398   7.536   3.663   8.375
20480SOL    HW163399   7.494   3.577   8.348
20480SOL    HW263400   7.630   3.666   8.341
20481SOL     OW63401   7.952   3.430   8.358
20481SOL    HW163402   8.018   3.504   8.367
20481SOL    HW263403   7.996   3.351   8.316
20482SOL     OW63404   8.450   2.658   8.686
20482SOL    HW163405   8.491   2.626   8.772
20482SOL    HW263406   8.354   2.631   8.683
20483SOL     OW63407   7.488   2.406   8.562
20483SOL    HW163408   7.573   2.373   8.521
20483SOL    HW263409   7.501   2.421   8.660
20484SOL     OW63410   8.263   2.434   7.773
20484SOL    HW163411   8.270   2.345   7.727
20484SOL    HW263412   8.169   2.468   7.765
20485SOL     OW63413   0.105   2.466   8.654
20485SOL    HW163414   0.067   2.397   8.716
20485SOL    HW263415   0.187   2.430   8.610
20486SOL     OW63416   8.119   2.326   8.717
20486SOL    HW163417   8.085   2.237   8.687
20486SOL    HW263418   8.145   2.380   8.637
20487SOL     OW63419   8.378   3.540   8.913
20487SOL    HW163420   8.354   3.522   8.818
20487SOL    HW263421   8.408   3.634   8.923
20488SOL     OW63422   7.921   2.362   7.639
20488SOL    HW163423   7.982   2.442   7.643
20488SOL    HW263424   7.826   2.393   7.646
20489SOL     OW63425   7.607   2.999   8.914
20489SOL    HW163426   7.629   2.938   8.990
20489SOL    HW263427   7.617   2.950   8.828
20490SOL     OW63428   8.795   2.921   8.682
20490SOL    HW163429   8.819   2.858   8.608
20490SOL    HW263430   8.705   2.961   8.664
20491SOL     OW63431   8.750   2.717   7.757
20491SOL    HW163432   8.664   2.686   7.799
20491SOL    HW263433   8.746   2.703   7.658
20492SOL     OW63434   8.700   3.593   8.576
20492SOL    HW163435   8.784   3.598   8.522
20492SOL    HW263436   8.677   3.497   8.594
20493SOL     OW63437   7.531   3.120   8.470
20493SOL    HW163438   7.526   3.119   8.570
20493SOL    HW263439   7.448   3.079   8.432
20494SOL     OW63440   8.351   1.948   7.581
20494SOL    HW163441   8.402   1.949   7.495
20494SOL    HW263442   8.407   1.906   7.652
20495SOL     OW63443   0.174   1.997   7.971
20495SOL    HW163444   0.247   1.980   7.904
20495SOL    HW263445   0.143   1.910   8.009
20496SOL     OW63446   8.836   3.435   7.925
20496SOL    HW163447   8.903   3.447   7.851
20496SOL    HW263448   8.796   3.524   7.948
20497SOL     OW63449   8.728   2.789   8.120
20497SOL    HW163450   8.788   2.708   8.122
20497SOL    HW263451   8.768   2.858   8.060
20498SOL     OW63452   8.120   3.478   7.602
20498SOL    HW163453   8.129   3.488   7.503
20498SOL    HW263454   8.080   3.389   7.623
20499SOL     OW63455   0.098   3.582   8.842
20499SOL    HW163456   0.151   3.592   8.758
20499SOL    HW263457   0.071   3.672   8.876
20500SOL     OW63458   7.711   2.188   8.168
20500SOL    HW163459   7.632   2.239   8.134
20500SOL    HW263460   7.702   2.173   8.266
20501SOL     OW63461   8.642   3.474   7.479
20501SOL    HW163462   8.648   3.381   7.516
20501SOL    HW263463   8.583   3.474   7.399
20502SOL     OW63464   8.270   2.864   8.820
20502SOL    HW163465   8.310   2.863   8.728
20502SOL    HW263466   8.280   2.956   8.860
20503SOL     OW63467   8.364   2.772   7.739
20503SOL    HW163468   8.427   2.810   7.671
20503SOL    HW263469   8.404   2.689   7.778
20504SOL     OW63470   8.952   3.469   7.492
20504SOL    HW163471   8.860   3.506   7.499
20504SOL    HW263472   8.990   3.489   7.402
20505SOL     OW63473   7.820   3.150   8.938
20505SOL    HW163474   7.807   3.243   8.904
20505SOL    HW263475   7.736   3.098   8.925
20506SOL     OW63476   0.062   3.154   8.737
20506SOL    HW163477   0.122   3.157   8.817
20506SOL    HW263478  -0.013   3.218   8.750
20507SOL     OW63479   8.487   2.960   8.144
20507SOL    HW163480   8.417   2.913   8.198
20507SOL    HW263481   8.546   2.892   8.101
20508SOL     OW63482   8.462   2.098   8.419
20508SOL    HW163483   8.454   2.062   8.326
20508SOL    HW263484   8.460   2.022   8.484
20509SOL     OW63485   8.038   3.349   7.939
20509SOL    HW163486   8.080   3.291   7.869
20509SOL    HW263487   7.994   3.428   7.895
20510SOL     OW63488   0.157   2.247   8.829
20510SOL    HW163489   0.230   2.316   8.833
20510SOL    HW263490   0.185   2.172   8.770
20511SOL     OW63491   7.703   3.210   7.738
20511SOL    HW163492   7.607   3.211   7.711
20511SOL    HW263493   7.715   3.263   7.822
20512SOL     OW63494   7.523   2.207   7.481
20512SOL    HW163495   7.431   2.179   7.452
20512SOL    HW263496   7.554   2.284   7.425
20513SOL     OW63497   8.888   2.718   8.846
20513SOL    HW163498   8.831   2.770   8.783
20513SOL    HW263499   8.984   2.730   8.822
20514SOL     OW63500   7.520   2.028   7.766
20514SOL    HW163501   7.503   2.111   7.712
20514SOL    HW263502   7.610   1.991   7.744
20515SOL     OW63503   8.631   3.197   7.567
20515SOL    HW163504   8.532   3.186   7.569
20515SOL    HW263505   8.665   3.212   7.660
20516SOL     OW63506   8.061   2.704   8.879
20516SOL    HW163507   8.117   2.785   8.862
20516SOL    HW263508   8.120   2.624   8.882
20517SOL     OW63509   8.941   3.629   8.407
20517SOL    HW163510   8.974   3.693   8.338
20517SOL    HW263511   9.007   3.623   8.482
20518SOL     OW63512   7.838   3.603   0.008
20518SOL    HW163513   7.747   3.644   0.006
20518SOL    HW263514   7.831   3.509   0.040
20519SOL     OW63515   0.122   2.745   8.702
20519SOL    HW163516   0.095   2.656   8.665
20519SOL    HW263517   0.123   2.813   8.629
20520SOL     OW63518   8.673   2.187   7.897
20520SOL    HW163519   8.738   2.113   7.886
20520SOL    HW263520   8.693   2.237   7.981
20521SOL     OW63521   8.042   2.607   8.100
20521SOL    HW163522   8.092   2.692   8.081
20521SOL    HW263523   7.954   2.609   8.052
20522SOL     OW63524   0.225   2.204   0.090
20522SOL    HW163525   0.208   2.235  -0.004
20522SOL    HW263526   0.141   2.167   0.128
20523SOL     OW63527   0.178   2.796   8.965
20523SOL    HW163528   0.216   2.887   8.980
20523SOL    HW263529   0.170   2.779   8.866
20524SOL     OW63530   8.307   3.236   7.464
20524SOL    HW163531   8.261   3.251   7.552
20524SOL    HW263532   8.351   3.321   7.434
20525SOL     OW63533   8.109   3.652   8.401
20525SOL    HW163534   8.063   3.740   8.388
20525SOL    HW263535   8.208   3.664   8.394
20526SOL     OW63536   8.856   3.713   0.168
20526SOL    HW163537   8.760   3.702   0.141
20526SOL    HW263538   8.912   3.646   0.120
20527SOL     OW63539   8.307   2.818   8.309
20527SOL    HW163540   8.361   2.749   8.357
20527SOL    HW263541   8.275   2.887   8.375
20528SOL     OW63542   8.531   2.846   7.535
20528SOL    HW163543   8.508   2.899   7.453
20528SOL    HW263544   8.612   2.790   7.516
20529SOL     OW63545   7.527   3.102   8.101
20529SOL    HW163546   7.526   3.055   8.189
20529SOL    HW263547   7.609   3.074   8.050
20530SOL     OW63548   7.876   2.286   7.968
20530SOL    HW163549   7.906   2.214   7.906
20530SOL    HW263550   7.837   2.246   8.051
20531SOL     OW63551   0.153   3.349   8.552
20531SOL    HW163552   0.060   3.324   8.525
20531SOL    HW263553   0.179   3.299   8.634
20532SOL     OW63554   7.765   2.409   8.728
20532SOL    HW163555   7.803   2.350   8.800
20532SOL    HW263556   7.805   2.383   8.640
20533SOL     OW63557   8.260   3.448   8.135
20533SOL    HW163558   8.292   3.458   8.041
20533SOL    HW263559   8.181   3.386   8.137
20534SOL     OW63560   8.872   2.076   8.560
20534SOL    HW163561   8.924   2.011   8.615
20534SOL    HW263562   8.823   2.139   8.621
20535SOL     OW63563   8.449   1.896   8.602
20535SOL    HW163564   8.386   1.824   8.571
20535SOL    HW263565   8.542   1.860   8.602
20536SOL     OW63566   8.218   3.192   7.749
20536SOL    HW163567   8.172   3.105   7.766
20536SOL    HW263568   8.309   3.189   7.790
20537SOL     OW63569   8.066   3.429   8.732
20537SOL    HW163570   8.061   3.511   8.789
20537SOL    HW263571   8.155   3.426   8.687
20538SOL     OW63572   8.800   1.914   7.616
20538SOL    HW163573   8.835   1.873   7.532
20538SOL    HW263574   8.710   1.876   7.636
20539SOL     OW63575   8.748   2.315   8.139
20539SOL    HW163576   8.689   2.395   8.143
20539SOL    HW263577   8.763   2.280   8.232
20540SOL     OW63578   0.041   2.083   8.330
20540SOL    HW163579  -0.043   2.082   8.384
20540SOL    HW263580   0.043   2.166   8.274
20541SOL     OW63581   7.487   2.939   7.748
20541SOL    HW163582   7.586   2.928   7.739
20541SOL    HW263583   7.447   2.853   7.780
20542SOL     OW63584   8.323   3.508   7.785
20542SOL    HW163585   8.246   3.473   7.731
20542SOL    HW263586   8.291   3.579   7.847
20543SOL     OW63587   7.678   4.352   0.113
20543SOL    HW163588   7.585   4.350   0.150
20543SOL    HW263589   7.679   4.313   0.021
20544SOL     OW63590   7.467   4.092   0.647
20544SOL    HW163591   7.385   4.135   0.686
20544SOL    HW263592   7.439   4.019   0.584
20545SOL     OW63593   8.017   4.999   1.165
20545SOL    HW163594   7.924   4.992   1.128
20545SOL    HW263595   8.028   5.088   1.209
20546SOL     OW63596   0.003   5.235   0.703
20546SOL    HW163597  -0.054   5.219   0.784
20546SOL    HW263598  -0.056   5.245   0.623
20547SOL     OW63599   0.191   4.342   0.856
20547SOL    HW163600   0.224   4.436   0.856
20547SOL    HW263601   0.242   4.288   0.922
20548SOL     OW63602   8.583   4.427   0.717
20548SOL    HW163603   8.640   4.505   0.692
20548SOL    HW263604   8.523   4.453   0.793
20549SOL     OW63605   0.203   4.331   0.231
20549SOL    HW163606   0.191   4.318   0.132
20549SOL    HW263607   0.173   4.250   0.280
20550SOL     OW63608   8.216   4.868   1.023
20550SOL    HW163609   8.138   4.885   1.083
20550SOL    HW263610   8.250   4.955   0.987
20551SOL     OW63611   8.298   4.522   1.823
20551SOL    HW163612   8.294   4.598   1.888
20551SOL    HW263613   8.320   4.558   1.732
20552SOL     OW63614   8.133   4.736   0.665
20552SOL    HW163615   8.202   4.720   0.735
20552SOL    HW263616   8.060   4.793   0.703
20553SOL     OW63617   8.134   4.885   1.803
20553SOL    HW163618   8.194   4.964   1.817
20553SOL    HW263619   8.048   4.916   1.762
20554SOL     OW63620   7.783   5.159   1.061
20554SOL    HW163621   7.705   5.128   1.008
20554SOL    HW263622   7.841   5.217   1.004
20555SOL     OW63623   8.908   5.229   1.339
20555SOL    HW163624   8.932   5.323   1.365
20555SOL    HW263625   8.892   5.175   1.421
20556SOL     OW63626   7.886   4.116   1.499
20556SOL    HW163627   7.968   4.060   1.508
20556SOL    HW263628   7.805   4.058   1.503
20557SOL     OW63629   7.679   5.437   0.483
20557SOL    HW163630   7.713   5.514   0.537
20557SOL    HW263631   7.723   5.437   0.393
20558SOL     OW63632   8.575   5.065   1.690
20558SOL    HW163633   8.622   5.065   1.778
20558SOL    HW263634   8.527   4.978   1.679
20559SOL     OW63635   7.678   5.158   0.538
20559SOL    HW163636   7.652   5.254   0.538
20559SOL    HW263637   7.607   5.104   0.583
20560SOL     OW63638   7.688   4.815   0.886
20560SOL    HW163639   7.702   4.731   0.938
20560SOL    HW263640   7.633   4.879   0.941
20561SOL     OW63641   8.068   5.510   1.439
20561SOL    HW163642   7.976   5.493   1.474
20561SOL    HW263643   8.096   5.602   1.465
20562SOL     OW63644   8.054   4.688   0.123
20562SOL    HW163645   8.061   4.772   0.069
20562SOL    HW263646   8.100   4.701   0.211
20563SOL     OW63647   0.042   3.838   1.480
20563SOL    HW163648   0.024   3.905   1.408
20563SOL    HW263649   0.039   3.884   1.569
20564SOL     OW63650   7.570   4.367   0.563
20564SOL    HW163651   7.525   4.279   0.580
20564SOL    HW263652   7.569   4.421   0.647
20565SOL     OW63653   0.137   4.646   0.612
20565SOL    HW163654   0.232   4.617   0.620
20565SOL    HW263655   0.129   4.711   0.537
20566SOL     OW63656   0.089   4.832   0.432
20566SOL    HW163657   0.175   4.834   0.380
20566SOL    HW263658   0.103   4.879   0.520
20567SOL     OW63659   7.561   4.461   1.597
20567SOL    HW163660   7.649   4.448   1.642
20567SOL    HW263661   7.548   4.558   1.575
20568SOL     OW63662   8.061   5.089   0.726
20568SOL    HW163663   8.012   5.002   0.735
20568SOL    HW263664   8.038   5.132   0.639
20569SOL     OW63665   8.741   4.952   1.423
20569SOL    HW163666   8.778   4.879   1.365
20569SOL    HW263667   8.793   4.957   1.508
20570SOL     OW63668   8.257   3.728   0.502
20570SOL    HW163669   8.297   3.819   0.493
20570SOL    HW263670   8.157   3.736   0.508
20571SOL     OW63671   7.645   4.700   1.264
20571SOL    HW163672   7.734   4.655   1.250
20571SOL    HW263673   7.572   4.635   1.245
20572SOL     OW63674   8.973   4.723   0.190
20572SOL    HW163675   8.910   4.647   0.203
20572SOL    HW263676   9.021   4.741   0.276
20573SOL     OW63677   8.635   5.516   1.616
20573SOL    HW163678   8.659   5.576   1.540
20573SOL    HW263679   8.642   5.421   1.586
20574SOL     OW63680   7.765   3.975   1.801
20574SOL    HW163681   7.836   4.046   1.807
20574SOL    HW263682   7.677   4.014   1.829
20575SOL     OW63683   8.914   5.141   0.953
20575SOL    HW163684   8.855   5.147   1.033
20575SOL    HW263685   8.899   5.053   0.907
20576SOL     OW63686   0.115   5.438   0.572
20576SOL    HW163687   0.074   5.415   0.484
20576SOL    HW263688   0.097   5.364   0.637
20577SOL     OW63689   8.046   4.453   0.270
20577SOL    HW163690   8.070   4.522   0.202
20577SOL    HW263691   7.968   4.486   0.324
20578SOL     OW63692   8.729   4.069   0.944
20578SOL    HW163693   8.643   4.019   0.931
20578SOL    HW263694   8.791   4.015   1.000
20579SOL     OW63695   0.024   5.386   0.307
20579SOL    HW163696   0.113   5.432   0.310
20579SOL    HW263697   0.003   5.362   0.212
20580SOL     OW63698   8.255   4.329   1.465
20580SOL    HW163699   8.208   4.326   1.554
20580SOL    HW263700   8.204   4.274   1.399
20581SOL     OW63701   8.842   4.193   1.674
20581SOL    HW163702   8.822   4.236   1.762
20581SOL    HW263703   8.920   4.131   1.683
20582SOL     OW63704   8.421   4.614   1.572
20582SOL    HW163705   8.467   4.530   1.543
20582SOL    HW263706   8.365   4.648   1.497
20583SOL     OW63707   8.439   4.134   1.242
20583SOL    HW163708   8.362   4.168   1.296
20583SOL    HW263709   8.405   4.083   1.163
20584SOL     OW63710   8.489   4.425   0.429
20584SOL    HW163711   8.515   4.421   0.525
20584SOL    HW263712   8.404   4.374   0.415
20585SOL     OW63713   7.524   4.535   0.789
20585SOL    HW163714   7.623   4.523   0.798
20585SOL    HW263715   7.500   4.630   0.810
20586SOL     OW63716   7.578   5.545   1.571
20586SOL    HW163717   7.568   5.530   1.670
20586SOL    HW263718   7.492   5.581   1.535
20587SOL     OW63719   8.313   4.072   0.195
20587SOL    HW163720   8.372   4.135   0.146
20587SOL    HW263721   8.332   3.978   0.166
20588SOL     OW63722   0.167   4.309   1.831
20588SOL    HW163723   0.141   4.398   1.795
20588SOL    HW263724   0.165   4.241   1.758
20589SOL     OW63725   8.810   4.868   0.545
20589SOL    HW163726   8.893   4.839   0.497
20589SOL    HW263727   8.761   4.935   0.489
20590SOL     OW63728   7.998   3.920   0.885
20590SOL    HW163729   7.993   3.915   0.985
20590SOL    HW263730   8.000   4.016   0.856
20591SOL     OW63731   8.456   5.180   0.477
20591SOL    HW163732   8.410   5.252   0.425
20591SOL    HW263733   8.452   5.200   0.575
20592SOL     OW63734   7.799   5.525   0.853
20592SOL    HW163735   7.849   5.439   0.859
20592SOL    HW263736   7.864   5.602   0.850
20593SOL     OW63737   0.243   4.790   0.873
20593SOL    HW163738   0.181   4.775   0.797
20593SOL    HW263739   0.191   4.801   0.958
20594SOL     OW63740   8.675   5.274   1.506
20594SOL    HW163741   8.681   5.197   1.570
20594SOL    HW263742   8.623   5.248   1.426
20595SOL     OW63743   7.769   4.667   0.242
20595SOL    HW163744   7.851   4.706   0.200
20595SOL    HW263745   7.742   4.585   0.193
20596SOL     OW63746   8.906   4.459   0.728
20596SOL    HW163747   8.901   4.394   0.803
20596SOL    HW263748   8.986   4.518   0.741
20597SOL     OW63749   7.909   4.990   1.727
20597SOL    HW163750   7.859   4.991   1.641
20597SOL    HW263751   7.846   4.972   1.803
20598SOL     OW63752   8.559   5.500   0.237
20598SOL    HW163753   8.499   5.438   0.287
20598SOL    HW263754   8.590   5.456   0.152
20599SOL     OW63755   7.650   4.009   1.498
20599SOL    HW163756   7.570   4.069   1.485
20599SOL    HW263757   7.640   3.960   1.584
20600SOL     OW63758   0.080   5.101   0.081
20600SOL    HW163759   0.048   5.195   0.071
20600SOL    HW263760   0.004   5.038   0.069
20601SOL     OW63761   7.912   5.467   0.323
20601SOL    HW163762   7.945   5.506   0.409
20601SOL    HW263763   7.988   5.460   0.258
20602SOL     OW63764   8.848   3.831   0.426
20602SOL    HW163765   8.824   3.794   0.336
20602SOL    HW263766   8.947   3.847   0.430
20603SOL     OW63767   7.697   5.509   1.241
20603SOL    HW163768   7.754   5.444   1.291
20603SOL    HW263769   7.681   5.476   1.148
20604SOL     OW63770   8.388   5.422   0.904
20604SOL    HW163771   8.468   5.365   0.925
20604SOL    HW263772   8.339   5.382   0.827
20605SOL     OW63773   7.830   4.424   0.480
20605SOL    HW163774   7.875   4.334   0.477
20605SOL    HW263775   7.736   4.413   0.513
20606SOL     OW63776   8.995   3.946   1.729
20606SOL    HW163777   8.990   3.983   1.821
20606SOL    HW263778   8.923   3.877   1.717
20607SOL     OW63779   8.062   3.846   0.117
20607SOL    HW163780   8.160   3.824   0.124
20607SOL    HW263781   8.031   3.829   0.024
20608SOL     OW63782   8.229   3.988   1.749
20608SOL    HW163783   8.296   3.927   1.792
20608SOL    HW263784   8.156   4.007   1.814
20609SOL     OW63785   8.336   5.238   1.195
20609SOL    HW163786   8.313   5.213   1.101
20609SOL    HW263787   8.397   5.169   1.234
20610SOL     OW63788   8.799   4.314   1.433
20610SOL    HW163789   8.827   4.271   1.518
20610SOL    HW263790   8.824   4.410   1.434
20611SOL     OW63791   8.251   5.126   0.924
20611SOL    HW163792   8.341   5.140   0.882
20611SOL    HW263793   8.180   5.128   0.853
20612SOL     OW63794   8.370   4.227   0.899
20612SOL    HW163795   8.345   4.218   0.803
20612SOL    HW263796   8.418   4.145   0.930
20613SOL     OW63797   7.987   3.788   0.512
20613SOL    HW163798   7.906   3.789   0.570
20613SOL    HW263799   7.990   3.871   0.457
20614SOL     OW63800   8.882   4.912   0.041
20614SOL    HW163801   8.914   4.836   0.098
20614SOL    HW263802   8.790   4.939   0.071
20615SOL     OW63803   7.745   3.759   0.171
20615SOL    HW163804   7.794   3.843   0.150
20615SOL    HW263805   7.807   3.694   0.216
20616SOL     OW63806   8.383   3.960   0.480
20616SOL    HW163807   8.335   4.001   0.402
20616SOL    HW263808   8.482   3.958   0.461
20617SOL     OW63809   8.524   4.407   1.464
20617SOL    HW163810   8.444   4.346   1.467
20617SOL    HW263811   8.605   4.354   1.440
20618SOL     OW63812   8.675   5.294   0.793
20618SOL    HW163813   8.696   5.368   0.728
20618SOL    HW263814   8.743   5.294   0.866
20619SOL     OW63815   7.907   4.876   0.741
20619SOL    HW163816   7.836   4.849   0.806
20619SOL    HW263817   7.881   4.848   0.648
20620SOL     OW63818   8.719   5.521   0.591
20620SOL    HW163819   8.763   5.585   0.527
20620SOL    HW263820   8.669   5.573   0.661
20621SOL     OW63821   8.480   4.273   0.016
20621SOL    HW163822   8.439   4.355  -0.023
20621SOL    HW263823   8.544   4.299   0.089
20622SOL     OW63824   7.526   4.280   1.386
20622SOL    HW163825   7.618   4.279   1.345
20622SOL    HW263826   7.520   4.354   1.453
20623SOL     OW63827   8.009   3.946   1.147
20623SOL    HW163828   8.047   3.862   1.184
20623SOL    HW263829   7.921   3.965   1.191
20624SOL     OW63830   8.314   4.178   0.642
20624SOL    HW163831   8.282   4.250   0.580
20624SOL    HW263832   8.338   4.097   0.589
20625SOL     OW63833   8.465   3.763   0.753
20625SOL    HW163834   8.393   3.768   0.684
20625SOL    HW263835   8.441   3.694   0.822
20626SOL     OW63836   8.877   4.897   0.867
20626SOL    HW163837   8.822   4.813   0.860
20626SOL    HW263838   8.903   4.926   0.775
20627SOL     OW63839   8.914   4.314   0.992
20627SOL    HW163840   8.884   4.219   0.999
20627SOL    HW263841   8.987   4.330   1.058
20628SOL     OW63842   7.936   5.109   0.174
20628SOL    HW163843   7.849   5.094   0.221
20628SOL    HW263844   7.919   5.135   0.079
20629SOL     OW63845   0.112   5.004   0.657
20629SOL    HW163846   0.211   5.012   0.671
20629SOL    HW263847   0.067   5.088   0.688
20630SOL     OW63848   8.838   4.299   0.078
20630SOL    HW163849   8.784   4.278   0.159
20630SOL    HW263850   8.929   4.258   0.087
20631SOL     OW63851   7.975   3.980   0.328
20631SOL    HW163852   8.002   3.921   0.253
20631SOL    HW263853   7.975   4.075   0.297
20632SOL     OW63854   8.512   5.071   1.340
20632SOL    HW163855   8.432   5.048   1.395
20632SOL    HW263856   8.595   5.045   1.389
20633SOL     OW63857   0.040   5.353   1.625
20633SOL    HW163858   0.067   5.387   1.535
20633SOL    HW263859   0.119   5.315   1.671
20634SOL     OW63860   8.559   4.919   1.100
20634SOL    HW163861   8.519   4.963   1.181
20634SOL    HW263862   8.518   4.956   1.017
20635SOL     OW63863   0.086   4.823   1.079
20635SOL    HW163864   0.091   4.904   1.138
20635SOL    HW263865   0.000   4.825   1.028
20636SOL     OW63866   8.363   3.813   1.402
20636SOL    HW163867   8.388   3.793   1.307
20636SOL    HW263868   8.435   3.869   1.444
20637SOL     OW63869   8.428   4.840   1.719
20637SOL    HW163870   8.329   4.846   1.729
20637SOL    HW263871   8.451   4.760   1.663
20638SOL     OW63872   8.153   4.774   0.368
20638SOL    HW163873   8.139   4.781   0.467
20638SOL    HW263874   8.237   4.723   0.350
20639SOL     OW63875   7.858   4.537   1.251
20639SOL    HW163876   7.944   4.549   1.301
20639SOL    HW263877   7.816   4.450   1.278
20640SOL     OW63878   8.722   4.110   1.262
20640SOL    HW163879   8.743   4.184   1.326
20640SOL    HW263880   8.633   4.127   1.219
20641SOL     OW63881   7.512   5.288   1.331
20641SOL    HW163882   7.466   5.370   1.297
20641SOL    HW263883   7.610   5.307   1.340
20642SOL     OW63884   7.815   4.824   0.501
20642SOL    HW163885   7.808   4.907   0.445
20642SOL    HW263886   7.819   4.744   0.441
20643SOL     OW63887   8.014   4.261   0.865
20643SOL    HW163888   8.026   4.327   0.791
20643SOL    HW263889   8.060   4.295   0.948
20644SOL     OW63890   8.700   5.072   0.388
20644SOL    HW163891   8.750   5.149   0.428
20644SOL    HW263892   8.605   5.074   0.420
20645SOL     OW63893   8.720   5.169   1.142
20645SOL    HW163894   8.767   5.182   1.229
20645SOL    HW263895   8.654   5.095   1.151
20646SOL     OW63896   0.030   4.363   0.472
20646SOL    HW163897  -0.001   4.424   0.545
20646SOL    HW263898   0.080   4.415   0.403
20647SOL     OW63899   7.802   5.234   1.329
20647SOL    HW163900   7.781   5.190   1.242
20647SOL    HW263901   7.899   5.260   1.332
20648SOL     OW63902   7.850   4.475   1.598
20648SOL    HW163903   7.918   4.530   1.551
20648SOL    HW263904   7.890   4.387   1.625
20649SOL     OW63905   0.035   4.503   1.670
20649SOL    HW163906  -0.057   4.541   1.665
20649SOL    HW263907   0.095   4.550   1.605
20650SOL     OW63908   8.461   3.829   1.770
20650SOL    HW163909   8.467   3.914   1.718
20650SOL    HW263910   8.493   3.753   1.713
20651SOL     OW63911   7.952   3.774   1.740
20651SOL    HW163912   7.910   3.717   1.670
20651SOL    HW263913   7.886   3.843   1.772
20652SOL     OW63914   8.021   4.594   1.029
20652SOL    HW163915   8.065   4.683   1.020
20652SOL    HW263916   7.958   4.594   1.106
20653SOL     OW63917   8.808   4.586   1.045
20653SOL    HW163918   8.733   4.586   0.979
20653SOL    HW263919   8.845   4.494   1.054
20654SOL     OW63920   8.657   4.249   0.275
20654SOL    HW163921   8.670   4.165   0.329
20654SOL    HW263922   8.628   4.323   0.335
20655SOL     OW63923   7.755   3.937   1.231
20655SOL    HW163924   7.732   3.974   1.321
20655SOL    HW263925   7.725   3.842   1.225
20656SOL     OW63926   7.485   5.034   1.282
20656SOL    HW163927   7.538   4.985   1.350
20656SOL    HW263928   7.507   5.132   1.287
20657SOL     OW63929   8.180   4.358   1.064
20657SOL    HW163930   8.239   4.332   0.988
20657SOL    HW263931   8.152   4.454   1.053
20658SOL     OW63932   0.176   4.659   1.854
20658SOL    HW163933   0.130   4.652   1.765
20658SOL    HW263934   0.114   4.703   1.920
20659SOL     OW63935   7.755   3.787   0.618
20659SOL    HW163936   7.744   3.881   0.651
20659SOL    HW263937   7.750   3.724   0.695
20660SOL     OW63938   0.070   4.091   0.374
20660SOL    HW163939   0.072   4.015   0.438
20660SOL    HW263940   0.022   4.168   0.414
20661SOL     OW63941   8.471   4.490   0.966
20661SOL    HW163942   8.486   4.511   1.062
20661SOL    HW263943   8.441   4.395   0.957
20662SOL     OW63944   8.428   5.297   1.700
20662SOL    HW163945   8.408   5.341   1.612
20662SOL    HW263946   8.467   5.206   1.684
20663SOL     OW63947   7.798   4.622   1.804
20663SOL    HW163948   7.874   4.666   1.852
20663SOL    HW263949   7.833   4.575   1.722
20664SOL     OW63950   8.988   3.998   0.125
20664SOL    HW163951   8.927   3.923   0.148
20664SOL    HW263952   9.010   4.050   0.208
20665SOL     OW63953   8.751   4.562   0.042
20665SOL    HW163954   8.785   4.469   0.057
20665SOL    HW263955   8.769   4.589  -0.053
20666SOL     OW63956   8.516   5.057   0.849
20666SOL    HW163957   8.523   4.973   0.794
20666SOL    HW263958   8.578   5.126   0.813
20667SOL     OW63959   7.767   4.534   0.949
20667SOL    HW163960   7.860   4.570   0.954
20667SOL    HW263961   7.761   4.449   1.001
20668SOL     OW63962   7.787   4.233   1.006
20668SOL    HW163963   7.735   4.150   0.989
20668SOL    HW263964   7.864   4.238   0.942
20669SOL     OW63965   7.959   4.139   1.808
20669SOL    HW163966   7.941   4.184   1.896
20669SOL    HW263967   8.001   4.204   1.745
20670SOL     OW63968   8.586   4.104   1.678
20670SOL    HW163969   8.541   4.167   1.742
20670SOL    HW263970   8.679   4.135   1.661
20671SOL     OW63971   8.608   3.931   1.477
20671SOL    HW163972   8.608   3.995   1.554
20671SOL    HW263973   8.636   3.979   1.394
20672SOL     OW63974   7.456   5.050   0.200
20672SOL    HW163975   7.363   5.071   0.169
20672SOL    HW263976   7.466   4.951   0.213
20673SOL     OW63977   7.536   5.525   0.927
20673SOL    HW163978   7.494   5.439   0.900
20673SOL    HW263979   7.630   5.528   0.893
20674SOL     OW63980   7.952   5.292   0.910
20674SOL    HW163981   8.018   5.366   0.919
20674SOL    HW263982   7.996   5.213   0.868
20675SOL     OW63983   8.450   4.520   1.238
20675SOL    HW163984   8.491   4.488   1.324
20675SOL    HW263985   8.354   4.493   1.235
20676SOL     OW63986   7.488   4.268   1.114
20676SOL    HW163987   7.573   4.235   1.073
20676SOL    HW263988   7.501   4.283   1.212
20677SOL     OW63989   7.637   4.244   1.722
20677SOL    HW163990   7.696   4.204   1.652
20677SOL    HW263991   7.579   4.315   1.681
20678SOL     OW63992   8.817   4.674   1.660
20678SOL    HW163993   8.856   4.763   1.680
20678SOL    HW263994   8.827   4.654   1.563
20679SOL     OW63995   8.263   4.296   0.325
20679SOL    HW163996   8.270   4.207   0.279
20679SOL    HW263997   8.169   4.330   0.317
20680SOL     OW63998   0.105   4.328   1.206
20680SOL    HW163999   0.067   4.259   1.268
20680SOL    HW264000   0.187   4.292   1.162
20681SOL     OW64001   7.700   5.288   1.744
20681SOL    HW164002   7.670   5.345   1.820
20681SOL    HW264003   7.693   5.191   1.770
20682SOL     OW64004   8.119   4.188   1.269
20682SOL    HW164005   8.085   4.099   1.239
20682SOL    HW264006   8.145   4.242   1.189
20683SOL     OW64007   8.378   5.402   1.465
20683SOL    HW164008   8.354   5.384   1.370
20683SOL    HW264009   8.408   5.496   1.475
20684SOL     OW64010   7.921   4.224   0.191
20684SOL    HW164011   7.982   4.304   0.195
20684SOL    HW264012   7.826   4.255   0.198
20685SOL     OW64013   7.607   4.861   1.466
20685SOL    HW164014   7.629   4.800   1.542
20685SOL    HW264015   7.617   4.812   1.380
20686SOL     OW64016   8.795   4.783   1.234
20686SOL    HW164017   8.819   4.720   1.160
20686SOL    HW264018   8.705   4.823   1.216
20687SOL     OW64019   8.750   4.579   0.309
20687SOL    HW164020   8.664   4.548   0.351
20687SOL    HW264021   8.746   4.565   0.210
20688SOL     OW64022   8.700   5.455   1.128
20688SOL    HW164023   8.784   5.460   1.074
20688SOL    HW264024   8.677   5.359   1.146
20689SOL     OW64025   7.531   4.982   1.022
20689SOL    HW164026   7.526   4.981   1.122
20689SOL    HW264027   7.448   4.941   0.984
20690SOL     OW64028   8.136   5.386   1.716
20690SOL    HW164029   8.080   5.467   1.725
20690SOL    HW264030   8.188   5.390   1.630
20691SOL     OW64031   8.351   3.810   0.133
20691SOL    HW164032   8.402   3.811   0.047
20691SOL    HW264033   8.407   3.768   0.204
20692SOL     OW64034   0.174   3.859   0.523
20692SOL    HW164035   0.247   3.842   0.456
20692SOL    HW264036   0.143   3.772   0.561
20693SOL     OW64037   8.836   5.297   0.477
20693SOL    HW164038   8.903   5.309   0.403
20693SOL    HW264039   8.796   5.386   0.500
20694SOL     OW64040   8.728   4.651   0.672
20694SOL    HW164041   8.788   4.570   0.674
20694SOL    HW264042   8.768   4.720   0.612
20695SOL     OW64043   8.278   4.997   1.422
20695SOL    HW164044   8.273   5.030   1.517
20695SOL    HW264045   8.192   5.016   1.376
20696SOL     OW64046   8.120   5.340   0.154
20696SOL    HW164047   8.129   5.350   0.055
20696SOL    HW264048   8.080   5.251   0.175
20697SOL     OW64049   0.098   5.444   1.394
20697SOL    HW164050   0.151   5.454   1.310
20697SOL    HW264051   0.071   5.534   1.428
20698SOL     OW64052   7.711   4.050   0.720
20698SOL    HW164053   7.632   4.101   0.686
20698SOL    HW264054   7.702   4.035   0.818
20699SOL     OW64055   8.642   5.336   0.031
20699SOL    HW164056   8.648   5.243   0.068
20699SOL    HW264057   8.583   5.336  -0.049
20700SOL     OW64058   8.270   4.726   1.372
20700SOL    HW164059   8.310   4.725   1.280
20700SOL    HW264060   8.280   4.818   1.412
20701SOL     OW64061   8.364   4.634   0.291
20701SOL    HW164062   8.427   4.672   0.223
20701SOL    HW264063   8.404   4.551   0.330
20702SOL     OW64064   8.952   5.331   0.044
20702SOL    HW164065   8.860   5.368   0.051
20702SOL    HW264066   8.990   5.351  -0.046
20703SOL     OW64067   7.820   5.012   1.490
20703SOL    HW164068   7.807   5.105   1.456
20703SOL    HW264069   7.736   4.960   1.477
20704SOL     OW64070   0.062   5.016   1.289
20704SOL    HW164071   0.122   5.019   1.369
20704SOL    HW264072  -0.013   5.080   1.302
20705SOL     OW64073   8.487   4.822   0.696
20705SOL    HW164074   8.417   4.775   0.750
20705SOL    HW264075   8.546   4.754   0.653
20706SOL     OW64076   8.462   3.960   0.971
20706SOL    HW164077   8.454   3.924   0.878
20706SOL    HW264078   8.460   3.884   1.036
20707SOL     OW64079   8.038   5.211   0.491
20707SOL    HW164080   8.080   5.153   0.421
20707SOL    HW264081   7.994   5.290   0.447
20708SOL     OW64082   0.157   4.109   1.381
20708SOL    HW164083   0.230   4.178   1.385
20708SOL    HW264084   0.185   4.034   1.322
20709SOL     OW64085   7.703   5.072   0.290
20709SOL    HW164086   7.607   5.073   0.263
20709SOL    HW264087   7.715   5.125   0.374
20710SOL     OW64088   7.553   4.737   1.726
20710SOL    HW164089   7.476   4.704   1.780
20710SOL    HW264090   7.638   4.707   1.768
20711SOL     OW64091   8.120   3.927   1.489
20711SOL    HW164092   8.210   3.911   1.449
20711SOL    HW264093   8.128   3.932   1.588
20712SOL     OW64094   8.888   4.580   1.398
20712SOL    HW164095   8.831   4.632   1.335
20712SOL    HW264096   8.984   4.592   1.374
20713SOL     OW64097   7.520   3.890   0.318
20713SOL    HW164098   7.503   3.973   0.264
20713SOL    HW264099   7.610   3.853   0.296
20714SOL     OW64100   8.631   5.059   0.119
20714SOL    HW164101   8.532   5.048   0.121
20714SOL    HW264102   8.665   5.074   0.212
20715SOL     OW64103   8.061   4.566   1.431
20715SOL    HW164104   8.117   4.647   1.414
20715SOL    HW264105   8.120   4.486   1.434
20716SOL     OW64106   8.941   5.491   0.959
20716SOL    HW164107   8.974   5.555   0.890
20716SOL    HW264108   9.007   5.485   1.034
20717SOL     OW64109   8.164   4.289   1.708
20717SOL    HW164110   8.183   4.354   1.782
20717SOL    HW264111   8.224   4.209   1.717
20718SOL     OW64112   8.898   4.944   1.633
20718SOL    HW164113   8.889   4.934   1.732
20718SOL    HW264114   8.994   4.937   1.607
20719SOL     OW64115   7.838   5.465   1.560
20719SOL    HW164116   7.747   5.506   1.558
20719SOL    HW264117   7.831   5.371   1.592
20720SOL     OW64118   0.122   4.607   1.254
20720SOL    HW164119   0.095   4.518   1.217
20720SOL    HW264120   0.123   4.675   1.181
20721SOL     OW64121   8.673   4.049   0.449
20721SOL    HW164122   8.738   3.975   0.438
20721SOL    HW264123   8.693   4.099   0.533
20722SOL     OW64124   8.042   4.469   0.652
20722SOL    HW164125   8.092   4.554   0.633
20722SOL    HW264126   7.954   4.471   0.604
20723SOL     OW64127   0.225   4.066   1.642
20723SOL    HW164128   0.208   4.097   1.548
20723SOL    HW264129   0.141   4.029   1.680
20724SOL     OW64130   0.178   4.658   1.517
20724SOL    HW164131   0.216   4.749   1.532
20724SOL    HW264132   0.170   4.641   1.418
20725SOL     OW64133   8.307   5.098   0.016
20725SOL    HW164134   8.261   5.113   0.104
20725SOL    HW264135   8.351   5.183  -0.014
20726SOL     OW64136   8.109   5.514   0.953
20726SOL    HW164137   8.063   5.602   0.940
20726SOL    HW264138   8.208   5.526   0.946
20727SOL     OW64139   8.307   4.680   0.861
20727SOL    HW164140   8.361   4.611   0.909
20727SOL    HW264141   8.275   4.749   0.927
20728SOL     OW64142   8.531   4.708   0.087
20728SOL    HW164143   8.508   4.761   0.005
20728SOL    HW264144   8.612   4.652   0.068
20729SOL     OW64145   7.669   5.038   1.844
20729SOL    HW164146   7.604   4.965   1.823
20729SOL    HW264147   7.673   5.052   1.942
20730SOL     OW64148   7.527   4.964   0.653
20730SOL    HW164149   7.526   4.917   0.741
20730SOL    HW264150   7.609   4.936   0.602
20731SOL     OW64151   8.120   5.115   1.624
20731SOL    HW164152   8.042   5.065   1.662
20731SOL    HW264153   8.117   5.210   1.655
20732SOL     OW64154   7.876   4.148   0.520
20732SOL    HW164155   7.906   4.076   0.458
20732SOL    HW264156   7.837   4.108   0.603
20733SOL     OW64157   0.153   5.211   1.104
20733SOL    HW164158   0.060   5.186   1.077
20733SOL    HW264159   0.179   5.161   1.186
20734SOL     OW64160   7.765   4.271   1.280
20734SOL    HW164161   7.803   4.212   1.352
20734SOL    HW264162   7.805   4.245   1.192
20735SOL     OW64163   8.260   5.310   0.687
20735SOL    HW164164   8.292   5.320   0.593
20735SOL    HW264165   8.181   5.248   0.689
20736SOL     OW64166   8.872   3.938   1.112
20736SOL    HW164167   8.924   3.873   1.167
20736SOL    HW264168   8.823   4.001   1.173
20737SOL     OW64169   8.218   5.054   0.301
20737SOL    HW164170   8.172   4.967   0.318
20737SOL    HW264171   8.309   5.051   0.342
20738SOL     OW64172   8.066   5.291   1.284
20738SOL    HW164173   8.061   5.373   1.341
20738SOL    HW264174   8.155   5.288   1.239
20739SOL     OW64175   8.748   4.177   0.691
20739SOL    HW164176   8.689   4.257   0.695
20739SOL    HW264177   8.763   4.142   0.784
20740SOL     OW64178   0.041   3.945   0.882
20740SOL    HW164179  -0.043   3.944   0.936
20740SOL    HW264180   0.043   4.028   0.826
20741SOL     OW64181   7.487   4.801   0.300
20741SOL    HW164182   7.586   4.790   0.291
20741SOL    HW264183   7.447   4.715   0.332
20742SOL     OW64184   8.323   5.370   0.337
20742SOL    HW164185   8.246   5.335   0.283
20742SOL    HW264186   8.291   5.441   0.399
20743SOL     OW64187   7.678   4.352   1.975
20743SOL    HW164188   7.585   4.350   2.012
20743SOL    HW264189   7.679   4.313   1.883
20744SOL     OW64190   7.673   3.999   2.858
20744SOL    HW164191   7.708   3.982   2.950
20744SOL    HW264192   7.585   3.954   2.846
20745SOL     OW64193   7.467   4.092   2.509
20745SOL    HW164194   7.385   4.135   2.548
20745SOL    HW264195   7.439   4.019   2.446
20746SOL     OW64196   8.017   4.999   3.027
20746SOL    HW164197   7.924   4.992   2.990
20746SOL    HW264198   8.028   5.088   3.071
20747SOL     OW64199   0.003   5.235   2.565
20747SOL    HW164200  -0.054   5.219   2.646
20747SOL    HW264201  -0.056   5.245   2.485
20748SOL     OW64202   0.191   4.342   2.718
20748SOL    HW164203   0.224   4.436   2.718
20748SOL    HW264204   0.242   4.288   2.784
20749SOL     OW64205   8.583   4.427   2.579
20749SOL    HW164206   8.640   4.505   2.554
20749SOL    HW264207   8.523   4.453   2.655
20750SOL     OW64208   0.203   4.331   2.093
20750SOL    HW164209   0.191   4.318   1.994
20750SOL    HW264210   0.173   4.250   2.142
20751SOL     OW64211   8.216   4.868   2.885
20751SOL    HW164212   8.138   4.885   2.945
20751SOL    HW264213   8.250   4.955   2.849
20752SOL     OW64214   8.133   4.736   2.527
20752SOL    HW164215   8.202   4.720   2.597
20752SOL    HW264216   8.060   4.793   2.565
20753SOL     OW64217   8.908   5.229   3.201
20753SOL    HW164218   8.932   5.323   3.227
20753SOL    HW264219   8.892   5.175   3.283
20754SOL     OW64220   7.886   4.116   3.361
20754SOL    HW164221   7.968   4.060   3.370
20754SOL    HW264222   7.805   4.058   3.365
20755SOL     OW64223   7.679   5.437   2.345
20755SOL    HW164224   7.713   5.514   2.399
20755SOL    HW264225   7.723   5.437   2.255
20756SOL     OW64226   7.678   5.158   2.400
20756SOL    HW164227   7.652   5.254   2.400
20756SOL    HW264228   7.607   5.104   2.445
20757SOL     OW64229   7.688   4.815   2.748
20757SOL    HW164230   7.702   4.731   2.800
20757SOL    HW264231   7.633   4.879   2.803
20758SOL     OW64232   8.068   5.510   3.301
20758SOL    HW164233   7.976   5.493   3.336
20758SOL    HW264234   8.096   5.602   3.327
20759SOL     OW64235   8.054   4.688   1.985
20759SOL    HW164236   8.061   4.772   1.931
20759SOL    HW264237   8.100   4.701   2.073
20760SOL     OW64238   0.042   3.838   3.342
20760SOL    HW164239   0.024   3.905   3.270
20760SOL    HW264240   0.039   3.884   3.431
20761SOL     OW64241   7.570   4.367   2.425
20761SOL    HW164242   7.525   4.279   2.442
20761SOL    HW264243   7.569   4.421   2.509
20762SOL     OW64244   0.137   4.646   2.474
20762SOL    HW164245   0.232   4.617   2.482
20762SOL    HW264246   0.129   4.711   2.399
20763SOL     OW64247   0.089   4.832   2.294
20763SOL    HW164248   0.175   4.834   2.242
20763SOL    HW264249   0.103   4.879   2.382
20764SOL     OW64250   8.061   5.089   2.588
20764SOL    HW164251   8.012   5.002   2.597
20764SOL    HW264252   8.038   5.132   2.501
20765SOL     OW64253   8.257   3.728   2.364
20765SOL    HW164254   8.297   3.819   2.355
20765SOL    HW264255   8.157   3.736   2.370
20766SOL     OW64256   7.645   4.700   3.126
20766SOL    HW164257   7.734   4.655   3.112
20766SOL    HW264258   7.572   4.635   3.107
20767SOL     OW64259   8.973   4.723   2.052
20767SOL    HW164260   8.910   4.647   2.065
20767SOL    HW264261   9.021   4.741   2.138
20768SOL     OW64262   8.635   5.516   3.478
20768SOL    HW164263   8.659   5.576   3.402
20768SOL    HW264264   8.642   5.421   3.448
20769SOL     OW64265   7.765   3.975   3.663
20769SOL    HW164266   7.836   4.046   3.669
20769SOL    HW264267   7.677   4.014   3.691
20770SOL     OW64268   8.914   5.141   2.815
20770SOL    HW164269   8.855   5.147   2.895
20770SOL    HW264270   8.899   5.053   2.769
20771SOL     OW64271   0.115   5.438   2.434
20771SOL    HW164272   0.074   5.415   2.346
20771SOL    HW264273   0.097   5.364   2.499
20772SOL     OW64274   8.046   4.453   2.132
20772SOL    HW164275   8.070   4.522   2.064
20772SOL    HW264276   7.968   4.486   2.186
20773SOL     OW64277   8.729   4.069   2.806
20773SOL    HW164278   8.643   4.019   2.793
20773SOL    HW264279   8.791   4.015   2.862
20774SOL     OW64280   0.024   5.386   2.169
20774SOL    HW164281   0.113   5.432   2.172
20774SOL    HW264282   0.003   5.362   2.074
20775SOL     OW64283   8.842   4.193   3.536
20775SOL    HW164284   8.822   4.236   3.624
20775SOL    HW264285   8.920   4.131   3.545
20776SOL     OW64286   8.489   4.425   2.291
20776SOL    HW164287   8.515   4.421   2.387
20776SOL    HW264288   8.404   4.374   2.277
20777SOL     OW64289   7.524   4.535   2.651
20777SOL    HW164290   7.623   4.523   2.660
20777SOL    HW264291   7.500   4.630   2.672
20778SOL     OW64292   7.578   5.545   3.433
20778SOL    HW164293   7.568   5.530   3.532
20778SOL    HW264294   7.492   5.581   3.397
20779SOL     OW64295   8.313   4.072   2.057
20779SOL    HW164296   8.372   4.135   2.008
20779SOL    HW264297   8.332   3.978   2.028
20780SOL     OW64298   0.167   4.309   3.693
20780SOL    HW164299   0.141   4.398   3.657
20780SOL    HW264300   0.165   4.241   3.620
20781SOL     OW64301   8.810   4.868   2.407
20781SOL    HW164302   8.893   4.839   2.359
20781SOL    HW264303   8.761   4.935   2.351
20782SOL     OW64304   7.998   3.920   2.747
20782SOL    HW164305   7.993   3.915   2.847
20782SOL    HW264306   8.000   4.016   2.718
20783SOL     OW64307   8.456   5.180   2.339
20783SOL    HW164308   8.410   5.252   2.287
20783SOL    HW264309   8.452   5.200   2.437
20784SOL     OW64310   7.799   5.525   2.715
20784SOL    HW164311   7.849   5.439   2.721
20784SOL    HW264312   7.864   5.602   2.712
20785SOL     OW64313   0.243   4.790   2.735
20785SOL    HW164314   0.181   4.775   2.659
20785SOL    HW264315   0.191   4.801   2.820
20786SOL     OW64316   8.675   5.274   3.368
20786SOL    HW164317   8.681   5.197   3.432
20786SOL    HW264318   8.623   5.248   3.288
20787SOL     OW64319   7.769   4.667   2.104
20787SOL    HW164320   7.851   4.706   2.062
20787SOL    HW264321   7.742   4.585   2.055
20788SOL     OW64322   7.909   4.990   3.589
20788SOL    HW164323   7.859   4.991   3.503
20788SOL    HW264324   7.846   4.972   3.665
20789SOL     OW64325   8.559   5.500   2.099
20789SOL    HW164326   8.499   5.438   2.149
20789SOL    HW264327   8.590   5.456   2.014
20790SOL     OW64328   7.650   4.009   3.360
20790SOL    HW164329   7.570   4.069   3.347
20790SOL    HW264330   7.640   3.960   3.446
20791SOL     OW64331   0.080   5.101   1.943
20791SOL    HW164332   0.048   5.195   1.933
20791SOL    HW264333   0.004   5.038   1.931
20792SOL     OW64334   7.912   5.467   2.185
20792SOL    HW164335   7.945   5.506   2.271
20792SOL    HW264336   7.988   5.460   2.120
20793SOL     OW64337   8.848   3.831   2.288
20793SOL    HW164338   8.824   3.794   2.198
20793SOL    HW264339   8.947   3.847   2.292
20794SOL     OW64340   8.388   5.422   2.766
20794SOL    HW164341   8.468   5.365   2.787
20794SOL    HW264342   8.339   5.382   2.689
20795SOL     OW64343   7.830   4.424   2.342
20795SOL    HW164344   7.875   4.334   2.339
20795SOL    HW264345   7.736   4.413   2.375
20796SOL     OW64346   8.995   3.946   3.591
20796SOL    HW164347   8.990   3.983   3.683
20796SOL    HW264348   8.923   3.877   3.579
20797SOL     OW64349   8.062   3.846   1.979
20797SOL    HW164350   8.160   3.824   1.986
20797SOL    HW264351   8.031   3.829   1.886
20798SOL     OW64352   8.336   5.238   3.057
20798SOL    HW164353   8.313   5.213   2.963
20798SOL    HW264354   8.397   5.169   3.096
20799SOL     OW64355   8.251   5.126   2.786
20799SOL    HW164356   8.341   5.140   2.744
20799SOL    HW264357   8.180   5.128   2.715
20800SOL     OW64358   8.370   4.227   2.761
20800SOL    HW164359   8.345   4.218   2.665
20800SOL    HW264360   8.418   4.145   2.792
20801SOL     OW64361   7.987   3.788   2.374
20801SOL    HW164362   7.906   3.789   2.432
20801SOL    HW264363   7.990   3.871   2.319
20802SOL     OW64364   8.882   4.912   1.903
20802SOL    HW164365   8.914   4.836   1.960
20802SOL    HW264366   8.790   4.939   1.933
20803SOL     OW64367   7.745   3.759   2.033
20803SOL    HW164368   7.794   3.843   2.012
20803SOL    HW264369   7.807   3.694   2.078
20804SOL     OW64370   8.383   3.960   2.342
20804SOL    HW164371   8.335   4.001   2.264
20804SOL    HW264372   8.482   3.958   2.323
20805SOL     OW64373   8.675   5.294   2.655
20805SOL    HW164374   8.696   5.368   2.590
20805SOL    HW264375   8.743   5.294   2.728
20806SOL     OW64376   7.907   4.876   2.603
20806SOL    HW164377   7.836   4.849   2.668
20806SOL    HW264378   7.881   4.848   2.510
20807SOL     OW64379   8.719   5.521   2.453
20807SOL    HW164380   8.763   5.585   2.389
20807SOL    HW264381   8.669   5.573   2.523
20808SOL     OW64382   8.480   4.273   1.878
20808SOL    HW164383   8.439   4.355   1.839
20808SOL    HW264384   8.544   4.299   1.951
20809SOL     OW64385   7.526   4.280   3.248
20809SOL    HW164386   7.618   4.279   3.207
20809SOL    HW264387   7.520   4.354   3.315
20810SOL     OW64388   8.009   3.946   3.009
20810SOL    HW164389   8.047   3.862   3.046
20810SOL    HW264390   7.921   3.965   3.053
20811SOL     OW64391   8.314   4.178   2.504
20811SOL    HW164392   8.282   4.250   2.442
20811SOL    HW264393   8.338   4.097   2.451
20812SOL     OW64394   8.465   3.763   2.615
20812SOL    HW164395   8.393   3.768   2.546
20812SOL    HW264396   8.441   3.694   2.684
20813SOL     OW64397   8.877   4.897   2.729
20813SOL    HW164398   8.822   4.813   2.722
20813SOL    HW264399   8.903   4.926   2.637
20814SOL     OW64400   7.936   5.109   2.036
20814SOL    HW164401   7.849   5.094   2.083
20814SOL    HW264402   7.919   5.135   1.941
20815SOL     OW64403   0.112   5.004   2.519
20815SOL    HW164404   0.211   5.012   2.533
20815SOL    HW264405   0.067   5.088   2.550
20816SOL     OW64406   8.838   4.299   1.940
20816SOL    HW164407   8.784   4.278   2.021
20816SOL    HW264408   8.929   4.258   1.949
20817SOL     OW64409   7.975   3.980   2.190
20817SOL    HW164410   8.002   3.921   2.115
20817SOL    HW264411   7.975   4.075   2.159
20818SOL     OW64412   8.512   5.071   3.202
20818SOL    HW164413   8.432   5.048   3.257
20818SOL    HW264414   8.595   5.045   3.251
20819SOL     OW64415   0.040   5.353   3.487
20819SOL    HW164416   0.067   5.387   3.397
20819SOL    HW264417   0.119   5.315   3.533
20820SOL     OW64418   8.559   4.919   2.962
20820SOL    HW164419   8.519   4.963   3.043
20820SOL    HW264420   8.518   4.956   2.879
20821SOL     OW64421   0.086   4.823   2.941
20821SOL    HW164422   0.091   4.904   3.000
20821SOL    HW264423   0.000   4.825   2.890
20822SOL     OW64424   8.363   3.813   3.264
20822SOL    HW164425   8.388   3.793   3.169
20822SOL    HW264426   8.435   3.869   3.306
20823SOL     OW64427   8.153   4.774   2.230
20823SOL    HW164428   8.139   4.781   2.329
20823SOL    HW264429   8.237   4.723   2.212
20824SOL     OW64430   7.858   4.537   3.113
20824SOL    HW164431   7.944   4.549   3.163
20824SOL    HW264432   7.816   4.450   3.140
20825SOL     OW64433   7.512   5.288   3.193
20825SOL    HW164434   7.466   5.370   3.159
20825SOL    HW264435   7.610   5.307   3.202
20826SOL     OW64436   7.815   4.824   2.363
20826SOL    HW164437   7.808   4.907   2.307
20826SOL    HW264438   7.819   4.744   2.303
20827SOL     OW64439   8.014   4.261   2.727
20827SOL    HW164440   8.026   4.327   2.653
20827SOL    HW264441   8.060   4.295   2.810
20828SOL     OW64442   8.700   5.072   2.250
20828SOL    HW164443   8.750   5.149   2.290
20828SOL    HW264444   8.605   5.074   2.282
20829SOL     OW64445   8.720   5.169   3.004
20829SOL    HW164446   8.767   5.182   3.091
20829SOL    HW264447   8.654   5.095   3.013
20830SOL     OW64448   0.030   4.363   2.334
20830SOL    HW164449  -0.001   4.424   2.407
20830SOL    HW264450   0.080   4.415   2.265
20831SOL     OW64451   7.802   5.234   3.191
20831SOL    HW164452   7.781   5.190   3.104
20831SOL    HW264453   7.899   5.260   3.194
20832SOL     OW64454   0.035   4.503   3.532
20832SOL    HW164455  -0.057   4.541   3.527
20832SOL    HW264456   0.095   4.550   3.467
20833SOL     OW64457   8.461   3.829   3.632
20833SOL    HW164458   8.467   3.914   3.580
20833SOL    HW264459   8.493   3.753   3.575
20834SOL     OW64460   7.952   3.774   3.602
20834SOL    HW164461   7.910   3.717   3.532
20834SOL    HW264462   7.886   3.843   3.634
20835SOL     OW64463   8.021   4.594   2.891
20835SOL    HW164464   8.065   4.683   2.882
20835SOL    HW264465   7.958   4.594   2.968
20836SOL     OW64466   8.657   4.249   2.137
20836SOL    HW164467   8.670   4.165   2.191
20836SOL    HW264468   8.628   4.323   2.197
20837SOL     OW64469   7.755   3.937   3.093
20837SOL    HW164470   7.732   3.974   3.183
20837SOL    HW264471   7.725   3.842   3.087
20838SOL     OW64472   7.485   5.034   3.144
20838SOL    HW164473   7.538   4.985   3.212
20838SOL    HW264474   7.507   5.132   3.149
20839SOL     OW64475   8.180   4.358   2.926
20839SOL    HW164476   8.239   4.332   2.850
20839SOL    HW264477   8.152   4.454   2.915
20840SOL     OW64478   0.176   4.659   3.716
20840SOL    HW164479   0.130   4.652   3.627
20840SOL    HW264480   0.114   4.703   3.782
20841SOL     OW64481   7.755   3.787   2.480
20841SOL    HW164482   7.744   3.881   2.513
20841SOL    HW264483   7.750   3.724   2.557
20842SOL     OW64484   0.070   4.091   2.236
20842SOL    HW164485   0.072   4.015   2.300
20842SOL    HW264486   0.022   4.168   2.276
20843SOL     OW64487   8.471   4.490   2.828
20843SOL    HW164488   8.486   4.511   2.924
20843SOL    HW264489   8.441   4.395   2.819
20844SOL     OW64490   8.428   5.297   3.562
20844SOL    HW164491   8.408   5.341   3.474
20844SOL    HW264492   8.467   5.206   3.546
20845SOL     OW64493   7.798   4.622   3.666
20845SOL    HW164494   7.874   4.666   3.714
20845SOL    HW264495   7.833   4.575   3.584
20846SOL     OW64496   8.988   3.998   1.987
20846SOL    HW164497   8.927   3.923   2.010
20846SOL    HW264498   9.010   4.050   2.070
20847SOL     OW64499   8.751   4.562   1.904
20847SOL    HW164500   8.785   4.469   1.919
20847SOL    HW264501   8.769   4.589   1.809
20848SOL     OW64502   8.516   5.057   2.711
20848SOL    HW164503   8.523   4.973   2.656
20848SOL    HW264504   8.578   5.126   2.675
20849SOL     OW64505   7.767   4.534   2.811
20849SOL    HW164506   7.860   4.570   2.816
20849SOL    HW264507   7.761   4.449   2.863
20850SOL     OW64508   7.787   4.233   2.868
20850SOL    HW164509   7.735   4.150   2.851
20850SOL    HW264510   7.864   4.238   2.804
20851SOL     OW64511   7.959   4.139   3.670
20851SOL    HW164512   7.941   4.184   3.758
20851SOL    HW264513   8.001   4.204   3.607
20852SOL     OW64514   8.608   3.931   3.339
20852SOL    HW164515   8.608   3.995   3.416
20852SOL    HW264516   8.636   3.979   3.256
20853SOL     OW64517   7.456   5.050   2.062
20853SOL    HW164518   7.363   5.071   2.031
20853SOL    HW264519   7.466   4.951   2.075
20854SOL     OW64520   7.952   5.292   2.772
20854SOL    HW164521   8.018   5.366   2.781
20854SOL    HW264522   7.996   5.213   2.730
20855SOL     OW64523   7.488   4.268   2.976
20855SOL    HW164524   7.573   4.235   2.935
20855SOL    HW264525   7.501   4.283   3.074
20856SOL     OW64526   7.637   4.244   3.584
20856SOL    HW164527   7.696   4.204   3.514
20856SOL    HW264528   7.579   4.315   3.543
20857SOL     OW64529   8.263   4.296   2.187
20857SOL    HW164530   8.270   4.207   2.141
20857SOL    HW264531   8.169   4.330   2.179
20858SOL     OW64532   0.105   4.328   3.068
20858SOL    HW164533   0.067   4.259   3.130
20858SOL    HW264534   0.187   4.292   3.024
20859SOL     OW64535   7.700   5.288   3.606
20859SOL    HW164536   7.670   5.345   3.682
20859SOL    HW264537   7.693   5.191   3.632
20860SOL     OW64538   8.119   4.188   3.131
20860SOL    HW164539   8.085   4.099   3.101
20860SOL    HW264540   8.145   4.242   3.051
20861SOL     OW64541   8.378   5.402   3.327
20861SOL    HW164542   8.354   5.384   3.232
20861SOL    HW264543   8.408   5.496   3.337
20862SOL     OW64544   7.921   4.224   2.053
20862SOL    HW164545   7.982   4.304   2.057
20862SOL    HW264546   7.826   4.255   2.060
20863SOL     OW64547   7.607   4.861   3.328
20863SOL    HW164548   7.629   4.800   3.404
20863SOL    HW264549   7.617   4.812   3.242
20864SOL     OW64550   8.795   4.783   3.096
20864SOL    HW164551   8.819   4.720   3.022
20864SOL    HW264552   8.705   4.823   3.078
20865SOL     OW64553   8.750   4.579   2.171
20865SOL    HW164554   8.664   4.548   2.213
20865SOL    HW264555   8.746   4.565   2.072
20866SOL     OW64556   8.700   5.455   2.990
20866SOL    HW164557   8.784   5.460   2.936
20866SOL    HW264558   8.677   5.359   3.008
20867SOL     OW64559   7.531   4.982   2.884
20867SOL    HW164560   7.526   4.981   2.984
20867SOL    HW264561   7.448   4.941   2.846
20868SOL     OW64562   8.136   5.386   3.578
20868SOL    HW164563   8.080   5.467   3.587
20868SOL    HW264564   8.188   5.390   3.492
20869SOL     OW64565   8.351   3.810   1.995
20869SOL    HW164566   8.402   3.811   1.909
20869SOL    HW264567   8.407   3.768   2.066
20870SOL     OW64568   0.174   3.859   2.385
20870SOL    HW164569   0.247   3.842   2.318
20870SOL    HW264570   0.143   3.772   2.423
20871SOL     OW64571   8.836   5.297   2.339
20871SOL    HW164572   8.903   5.309   2.265
20871SOL    HW264573   8.796   5.386   2.362
20872SOL     OW64574   7.578   5.518   3.713
20872SOL    HW164575   7.537   5.444   3.766
20872SOL    HW264576   7.642   5.569   3.771
20873SOL     OW64577   8.728   4.651   2.534
20873SOL    HW164578   8.788   4.570   2.536
20873SOL    HW264579   8.768   4.720   2.474
20874SOL     OW64580   8.278   4.997   3.284
20874SOL    HW164581   8.273   5.030   3.379
20874SOL    HW264582   8.192   5.016   3.238
20875SOL     OW64583   8.120   5.340   2.016
20875SOL    HW164584   8.129   5.350   1.917
20875SOL    HW264585   8.080   5.251   2.037
20876SOL     OW64586   0.098   5.444   3.256
20876SOL    HW164587   0.151   5.454   3.172
20876SOL    HW264588   0.071   5.534   3.290
20877SOL     OW64589   7.711   4.050   2.582
20877SOL    HW164590   7.632   4.101   2.548
20877SOL    HW264591   7.702   4.035   2.680
20878SOL     OW64592   8.642   5.336   1.893
20878SOL    HW164593   8.648   5.243   1.930
20878SOL    HW264594   8.583   5.336   1.813
20879SOL     OW64595   8.270   4.726   3.234
20879SOL    HW164596   8.310   4.725   3.142
20879SOL    HW264597   8.280   4.818   3.274
20880SOL     OW64598   8.364   4.634   2.153
20880SOL    HW164599   8.427   4.672   2.085
20880SOL    HW264600   8.404   4.551   2.192
20881SOL     OW64601   8.952   5.331   1.906
20881SOL    HW164602   8.860   5.368   1.913
20881SOL    HW264603   8.990   5.351   1.816
20882SOL     OW64604   7.820   5.012   3.352
20882SOL    HW164605   7.807   5.105   3.318
20882SOL    HW264606   7.736   4.960   3.339
20883SOL     OW64607   0.062   5.016   3.151
20883SOL    HW164608   0.122   5.019   3.231
20883SOL    HW264609  -0.013   5.080   3.164
20884SOL     OW64610   8.487   4.822   2.558
20884SOL    HW164611   8.417   4.775   2.612
20884SOL    HW264612   8.546   4.754   2.515
20885SOL     OW64613   8.462   3.960   2.833
20885SOL    HW164614   8.454   3.924   2.740
20885SOL    HW264615   8.460   3.884   2.898
20886SOL     OW64616   8.038   5.211   2.353
20886SOL    HW164617   8.080   5.153   2.283
20886SOL    HW264618   7.994   5.290   2.309
20887SOL     OW64619   0.157   4.109   3.243
20887SOL    HW164620   0.230   4.178   3.247
20887SOL    HW264621   0.185   4.034   3.184
20888SOL     OW64622   7.703   5.072   2.152
20888SOL    HW164623   7.607   5.073   2.125
20888SOL    HW264624   7.715   5.125   2.236
20889SOL     OW64625   7.523   4.069   1.895
20889SOL    HW164626   7.431   4.041   1.866
20889SOL    HW264627   7.554   4.146   1.839
20890SOL     OW64628   7.520   3.890   2.180
20890SOL    HW164629   7.503   3.973   2.126
20890SOL    HW264630   7.610   3.853   2.158
20891SOL     OW64631   8.631   5.059   1.981
20891SOL    HW164632   8.532   5.048   1.983
20891SOL    HW264633   8.665   5.074   2.074
20892SOL     OW64634   8.941   5.491   2.821
20892SOL    HW164635   8.974   5.555   2.752
20892SOL    HW264636   9.007   5.485   2.896
20893SOL     OW64637   8.164   4.289   3.570
20893SOL    HW164638   8.183   4.354   3.644
20893SOL    HW264639   8.224   4.209   3.579
20894SOL     OW64640   0.122   4.607   3.116
20894SOL    HW164641   0.095   4.518   3.079
20894SOL    HW264642   0.123   4.675   3.043
20895SOL     OW64643   8.673   4.049   2.311
20895SOL    HW164644   8.738   3.975   2.300
20895SOL    HW264645   8.693   4.099   2.395
20896SOL     OW64646   8.042   4.469   2.514
20896SOL    HW164647   8.092   4.554   2.495
20896SOL    HW264648   7.954   4.471   2.466
20897SOL     OW64649   0.225   4.066   3.504
20897SOL    HW164650   0.208   4.097   3.410
20897SOL    HW264651   0.141   4.029   3.542
20898SOL     OW64652   0.178   4.658   3.379
20898SOL    HW164653   0.216   4.749   3.394
20898SOL    HW264654   0.170   4.641   3.280
20899SOL     OW64655   8.307   5.098   1.878
20899SOL    HW164656   8.261   5.113   1.966
20899SOL    HW264657   8.351   5.183   1.848
20900SOL     OW64658   8.109   5.514   2.815
20900SOL    HW164659   8.063   5.602   2.802
20900SOL    HW264660   8.208   5.526   2.808
20901SOL     OW64661   8.307   4.680   2.723
20901SOL    HW164662   8.361   4.611   2.771
20901SOL    HW264663   8.275   4.749   2.789
20902SOL     OW64664   8.531   4.708   1.949
20902SOL    HW164665   8.508   4.761   1.867
20902SOL    HW264666   8.612   4.652   1.930
20903SOL     OW64667   7.669   5.038   3.706
20903SOL    HW164668   7.604   4.965   3.685
20903SOL    HW264669   7.673   5.052   3.804
20904SOL     OW64670   7.527   4.964   2.515
20904SOL    HW164671   7.526   4.917   2.603
20904SOL    HW264672   7.609   4.936   2.464
20905SOL     OW64673   7.876   4.148   2.382
20905SOL    HW164674   7.906   4.076   2.320
20905SOL    HW264675   7.837   4.108   2.465
20906SOL     OW64676   0.153   5.211   2.966
20906SOL    HW164677   0.060   5.186   2.939
20906SOL    HW264678   0.179   5.161   3.048
20907SOL     OW64679   7.765   4.271   3.142
20907SOL    HW164680   7.803   4.212   3.214
20907SOL    HW264681   7.805   4.245   3.054
20908SOL     OW64682   8.260   5.310   2.549
20908SOL    HW164683   8.292   5.320   2.455
20908SOL    HW264684   8.181   5.248   2.551
20909SOL     OW64685   8.872   3.938   2.974
20909SOL    HW164686   8.924   3.873   3.029
20909SOL    HW264687   8.823   4.001   3.035
20910SOL     OW64688   8.449   3.758   3.016
20910SOL    HW164689   8.386   3.686   2.985
20910SOL    HW264690   8.542   3.722   3.016
20911SOL     OW64691   8.218   5.054   2.163
20911SOL    HW164692   8.172   4.967   2.180
20911SOL    HW264693   8.309   5.051   2.204
20912SOL     OW64694   8.066   5.291   3.146
20912SOL    HW164695   8.061   5.373   3.203
20912SOL    HW264696   8.155   5.288   3.101
20913SOL     OW64697   8.800   3.776   2.030
20913SOL    HW164698   8.835   3.735   1.946
20913SOL    HW264699   8.710   3.738   2.050
20914SOL     OW64700   8.748   4.177   2.553
20914SOL    HW164701   8.689   4.257   2.557
20914SOL    HW264702   8.763   4.142   2.646
20915SOL     OW64703   0.041   3.945   2.744
20915SOL    HW164704  -0.043   3.944   2.798
20915SOL    HW264705   0.043   4.028   2.688
20916SOL     OW64706   7.487   4.801   2.162
20916SOL    HW164707   7.586   4.790   2.153
20916SOL    HW264708   7.447   4.715   2.194
20917SOL     OW64709   8.323   5.370   2.199
20917SOL    HW164710   8.246   5.335   2.145
20917SOL    HW264711   8.291   5.441   2.261
20918SOL     OW64712   7.467   4.092   4.371
20918SOL    HW164713   7.385   4.135   4.410
20918SOL    HW264714   7.439   4.019   4.308
20919SOL     OW64715   8.017   4.999   4.889
20919SOL    HW164716   7.924   4.992   4.852
20919SOL    HW264717   8.028   5.088   4.933
20920SOL     OW64718   0.003   5.235   4.427
20920SOL    HW164719  -0.054   5.219   4.508
20920SOL    HW264720  -0.056   5.245   4.347
20921SOL     OW64721   0.191   4.342   4.580
20921SOL    HW164722   0.224   4.436   4.580
20921SOL    HW264723   0.242   4.288   4.646
20922SOL     OW64724   8.583   4.427   4.441
20922SOL    HW164725   8.640   4.505   4.416
20922SOL    HW264726   8.523   4.453   4.517
20923SOL     OW64727   0.203   4.331   3.955
20923SOL    HW164728   0.191   4.318   3.856
20923SOL    HW264729   0.173   4.250   4.004
20924SOL     OW64730   8.216   4.868   4.747
20924SOL    HW164731   8.138   4.885   4.807
20924SOL    HW264732   8.250   4.955   4.711
20925SOL     OW64733   8.298   4.522   5.547
20925SOL    HW164734   8.294   4.598   5.612
20925SOL    HW264735   8.320   4.558   5.456
20926SOL     OW64736   8.134   4.885   5.527
20926SOL    HW164737   8.194   4.964   5.541
20926SOL    HW264738   8.048   4.916   5.486
20927SOL     OW64739   7.783   5.159   4.785
20927SOL    HW164740   7.705   5.128   4.732
20927SOL    HW264741   7.841   5.217   4.728
20928SOL     OW64742   8.908   5.229   5.063
20928SOL    HW164743   8.932   5.323   5.089
20928SOL    HW264744   8.892   5.175   5.145
20929SOL     OW64745   7.886   4.116   5.223
20929SOL    HW164746   7.968   4.060   5.232
20929SOL    HW264747   7.805   4.058   5.227
20930SOL     OW64748   7.679   5.437   4.207
20930SOL    HW164749   7.713   5.514   4.261
20930SOL    HW264750   7.723   5.437   4.117
20931SOL     OW64751   8.575   5.065   5.414
20931SOL    HW164752   8.622   5.065   5.502
20931SOL    HW264753   8.527   4.978   5.403
20932SOL     OW64754   7.678   5.158   4.262
20932SOL    HW164755   7.652   5.254   4.262
20932SOL    HW264756   7.607   5.104   4.307
20933SOL     OW64757   7.688   4.815   4.610
20933SOL    HW164758   7.702   4.731   4.662
20933SOL    HW264759   7.633   4.879   4.665
20934SOL     OW64760   8.068   5.510   5.163
20934SOL    HW164761   7.976   5.493   5.198
20934SOL    HW264762   8.096   5.602   5.189
20935SOL     OW64763   0.042   3.838   5.204
20935SOL    HW164764   0.024   3.905   5.132
20935SOL    HW264765   0.039   3.884   5.293
20936SOL     OW64766   7.475   5.320   3.841
20936SOL    HW164767   7.456   5.224   3.862
20936SOL    HW264768   7.442   5.378   3.916
20937SOL     OW64769   0.137   4.646   4.336
20937SOL    HW164770   0.232   4.617   4.344
20937SOL    HW264771   0.129   4.711   4.261
20938SOL     OW64772   0.089   4.832   4.156
20938SOL    HW164773   0.175   4.834   4.104
20938SOL    HW264774   0.103   4.879   4.244
20939SOL     OW64775   8.061   5.089   4.450
20939SOL    HW164776   8.012   5.002   4.459
20939SOL    HW264777   8.038   5.132   4.363
20940SOL     OW64778   8.741   4.952   5.147
20940SOL    HW164779   8.778   4.879   5.089
20940SOL    HW264780   8.793   4.957   5.232
20941SOL     OW64781   8.257   3.728   4.226
20941SOL    HW164782   8.297   3.819   4.217
20941SOL    HW264783   8.157   3.736   4.232
20942SOL     OW64784   7.645   4.700   4.988
20942SOL    HW164785   7.734   4.655   4.974
20942SOL    HW264786   7.572   4.635   4.969
20943SOL     OW64787   8.973   4.723   3.914
20943SOL    HW164788   8.910   4.647   3.927
20943SOL    HW264789   9.021   4.741   4.000
20944SOL     OW64790   8.635   5.516   5.340
20944SOL    HW164791   8.659   5.576   5.264
20944SOL    HW264792   8.642   5.421   5.310
20945SOL     OW64793   7.765   3.975   5.525
20945SOL    HW164794   7.836   4.046   5.531
20945SOL    HW264795   7.677   4.014   5.553
20946SOL     OW64796   8.914   5.141   4.677
20946SOL    HW164797   8.855   5.147   4.757
20946SOL    HW264798   8.899   5.053   4.631
20947SOL     OW64799   0.115   5.438   4.296
20947SOL    HW164800   0.074   5.415   4.208
20947SOL    HW264801   0.097   5.364   4.361
20948SOL     OW64802   8.729   4.069   4.668
20948SOL    HW164803   8.643   4.019   4.655
20948SOL    HW264804   8.791   4.015   4.724
20949SOL     OW64805   0.024   5.386   4.031
20949SOL    HW164806   0.113   5.432   4.034
20949SOL    HW264807   0.003   5.362   3.936
20950SOL     OW64808   8.255   4.329   5.189
20950SOL    HW164809   8.208   4.326   5.278
20950SOL    HW264810   8.204   4.274   5.123
20951SOL     OW64811   8.842   4.193   5.398
20951SOL    HW164812   8.822   4.236   5.486
20951SOL    HW264813   8.920   4.131   5.407
20952SOL     OW64814   8.421   4.614   5.296
20952SOL    HW164815   8.467   4.530   5.267
20952SOL    HW264816   8.365   4.648   5.221
20953SOL     OW64817   8.439   4.134   4.966
20953SOL    HW164818   8.362   4.168   5.020
20953SOL    HW264819   8.405   4.083   4.887
20954SOL     OW64820   8.489   4.425   4.153
20954SOL    HW164821   8.515   4.421   4.249
20954SOL    HW264822   8.404   4.374   4.139
20955SOL     OW64823   7.578   5.545   5.295
20955SOL    HW164824   7.568   5.530   5.394
20955SOL    HW264825   7.492   5.581   5.259
20956SOL     OW64826   0.167   4.309   5.555
20956SOL    HW164827   0.141   4.398   5.519
20956SOL    HW264828   0.165   4.241   5.482
20957SOL     OW64829   8.810   4.868   4.269
20957SOL    HW164830   8.893   4.839   4.221
20957SOL    HW264831   8.761   4.935   4.213
20958SOL     OW64832   7.998   3.920   4.609
20958SOL    HW164833   7.993   3.915   4.709
20958SOL    HW264834   8.000   4.016   4.580
20959SOL     OW64835   8.456   5.180   4.201
20959SOL    HW164836   8.410   5.252   4.149
20959SOL    HW264837   8.452   5.200   4.299
20960SOL     OW64838   7.799   5.525   4.577
20960SOL    HW164839   7.849   5.439   4.583
20960SOL    HW264840   7.864   5.602   4.574
20961SOL     OW64841   0.243   4.790   4.597
20961SOL    HW164842   0.181   4.775   4.521
20961SOL    HW264843   0.191   4.801   4.682
20962SOL     OW64844   8.675   5.274   5.230
20962SOL    HW164845   8.681   5.197   5.294
20962SOL    HW264846   8.623   5.248   5.150
20963SOL     OW64847   8.906   4.459   4.452
20963SOL    HW164848   8.901   4.394   4.527
20963SOL    HW264849   8.986   4.518   4.465
20964SOL     OW64850   7.909   4.990   5.451
20964SOL    HW164851   7.859   4.991   5.365
20964SOL    HW264852   7.846   4.972   5.527
20965SOL     OW64853   8.559   5.500   3.961
20965SOL    HW164854   8.499   5.438   4.011
20965SOL    HW264855   8.590   5.456   3.876
20966SOL     OW64856   0.080   5.101   3.805
20966SOL    HW164857   0.048   5.195   3.795
20966SOL    HW264858   0.004   5.038   3.793
20967SOL     OW64859   7.912   5.467   4.047
20967SOL    HW164860   7.945   5.506   4.133
20967SOL    HW264861   7.988   5.460   3.982
20968SOL     OW64862   8.848   3.831   4.150
20968SOL    HW164863   8.824   3.794   4.060
20968SOL    HW264864   8.947   3.847   4.154
20969SOL     OW64865   7.697   5.509   4.965
20969SOL    HW164866   7.754   5.444   5.015
20969SOL    HW264867   7.681   5.476   4.872
20970SOL     OW64868   8.388   5.422   4.628
20970SOL    HW164869   8.468   5.365   4.649
20970SOL    HW264870   8.339   5.382   4.551
20971SOL     OW64871   8.995   3.946   5.453
20971SOL    HW164872   8.990   3.983   5.545
20971SOL    HW264873   8.923   3.877   5.441
20972SOL     OW64874   8.062   3.846   3.841
20972SOL    HW164875   8.160   3.824   3.848
20972SOL    HW264876   8.031   3.829   3.748
20973SOL     OW64877   8.229   3.988   5.473
20973SOL    HW164878   8.296   3.927   5.516
20973SOL    HW264879   8.156   4.007   5.538
20974SOL     OW64880   8.336   5.238   4.919
20974SOL    HW164881   8.313   5.213   4.825
20974SOL    HW264882   8.397   5.169   4.958
20975SOL     OW64883   8.799   4.314   5.157
20975SOL    HW164884   8.827   4.271   5.242
20975SOL    HW264885   8.824   4.410   5.158
20976SOL     OW64886   8.251   5.126   4.648
20976SOL    HW164887   8.341   5.140   4.606
20976SOL    HW264888   8.180   5.128   4.577
20977SOL     OW64889   8.370   4.227   4.623
20977SOL    HW164890   8.345   4.218   4.527
20977SOL    HW264891   8.418   4.145   4.654
20978SOL     OW64892   7.987   3.788   4.236
20978SOL    HW164893   7.906   3.789   4.294
20978SOL    HW264894   7.990   3.871   4.181
20979SOL     OW64895   8.882   4.912   3.765
20979SOL    HW164896   8.914   4.836   3.822
20979SOL    HW264897   8.790   4.939   3.795
20980SOL     OW64898   7.745   3.759   3.895
20980SOL    HW164899   7.794   3.843   3.874
20980SOL    HW264900   7.807   3.694   3.940
20981SOL     OW64901   8.383   3.960   4.204
20981SOL    HW164902   8.335   4.001   4.126
20981SOL    HW264903   8.482   3.958   4.185
20982SOL     OW64904   8.524   4.407   5.188
20982SOL    HW164905   8.444   4.346   5.191
20982SOL    HW264906   8.605   4.354   5.164
20983SOL     OW64907   8.675   5.294   4.517
20983SOL    HW164908   8.696   5.368   4.452
20983SOL    HW264909   8.743   5.294   4.590
20984SOL     OW64910   8.719   5.521   4.315
20984SOL    HW164911   8.763   5.585   4.251
20984SOL    HW264912   8.669   5.573   4.385
20985SOL     OW64913   8.009   3.946   4.871
20985SOL    HW164914   8.047   3.862   4.908
20985SOL    HW264915   7.921   3.965   4.915
20986SOL     OW64916   8.314   4.178   4.366
20986SOL    HW164917   8.282   4.250   4.304
20986SOL    HW264918   8.338   4.097   4.313
20987SOL     OW64919   8.465   3.763   4.477
20987SOL    HW164920   8.393   3.768   4.408
20987SOL    HW264921   8.441   3.694   4.546
20988SOL     OW64922   8.877   4.897   4.591
20988SOL    HW164923   8.822   4.813   4.584
20988SOL    HW264924   8.903   4.926   4.499
20989SOL     OW64925   8.914   4.314   4.716
20989SOL    HW164926   8.884   4.219   4.723
20989SOL    HW264927   8.987   4.330   4.782
20990SOL     OW64928   7.936   5.109   3.898
20990SOL    HW164929   7.849   5.094   3.945
20990SOL    HW264930   7.919   5.135   3.803
20991SOL     OW64931   0.112   5.004   4.381
20991SOL    HW164932   0.211   5.012   4.395
20991SOL    HW264933   0.067   5.088   4.412
20992SOL     OW64934   8.838   4.299   3.802
20992SOL    HW164935   8.784   4.278   3.883
20992SOL    HW264936   8.929   4.258   3.811
20993SOL     OW64937   8.512   5.071   5.064
20993SOL    HW164938   8.432   5.048   5.119
20993SOL    HW264939   8.595   5.045   5.113
20994SOL     OW64940   0.040   5.353   5.349
20994SOL    HW164941   0.067   5.387   5.259
20994SOL    HW264942   0.119   5.315   5.395
20995SOL     OW64943   8.559   4.919   4.824
20995SOL    HW164944   8.519   4.963   4.905
20995SOL    HW264945   8.518   4.956   4.741
20996SOL     OW64946   0.086   4.823   4.803
20996SOL    HW164947   0.091   4.904   4.862
20996SOL    HW264948   0.000   4.825   4.752
20997SOL     OW64949   8.363   3.813   5.126
20997SOL    HW164950   8.388   3.793   5.031
20997SOL    HW264951   8.435   3.869   5.168
20998SOL     OW64952   8.428   4.840   5.443
20998SOL    HW164953   8.329   4.846   5.453
20998SOL    HW264954   8.451   4.760   5.387
20999SOL     OW64955   8.153   4.774   4.092
20999SOL    HW164956   8.139   4.781   4.191
20999SOL    HW264957   8.237   4.723   4.074
21000SOL     OW64958   8.722   4.110   4.986
21000SOL    HW164959   8.743   4.184   5.050
21000SOL    HW264960   8.633   4.127   4.943
21001SOL     OW64961   7.512   5.288   5.055
21001SOL    HW164962   7.466   5.370   5.021
21001SOL    HW264963   7.610   5.307   5.064
21002SOL     OW64964   8.700   5.072   4.112
21002SOL    HW164965   8.750   5.149   4.152
21002SOL    HW264966   8.605   5.074   4.144
21003SOL     OW64967   8.720   5.169   4.866
21003SOL    HW164968   8.767   5.182   4.953
21003SOL    HW264969   8.654   5.095   4.875
21004SOL     OW64970   0.030   4.363   4.196
21004SOL    HW164971  -0.001   4.424   4.269
21004SOL    HW264972   0.080   4.415   4.127
21005SOL     OW64973   7.802   5.234   5.053
21005SOL    HW164974   7.781   5.190   4.966
21005SOL    HW264975   7.899   5.260   5.056
21006SOL     OW64976   7.850   4.475   5.322
21006SOL    HW164977   7.918   4.530   5.275
21006SOL    HW264978   7.890   4.387   5.349
21007SOL     OW64979   0.035   4.503   5.394
21007SOL    HW164980  -0.057   4.541   5.389
21007SOL    HW264981   0.095   4.550   5.329
21008SOL     OW64982   8.461   3.829   5.494
21008SOL    HW164983   8.467   3.914   5.442
21008SOL    HW264984   8.493   3.753   5.437
21009SOL     OW64985   7.952   3.774   5.464
21009SOL    HW164986   7.910   3.717   5.394
21009SOL    HW264987   7.886   3.843   5.496
21010SOL     OW64988   8.021   4.594   4.753
21010SOL    HW164989   8.065   4.683   4.744
21010SOL    HW264990   7.958   4.594   4.830
21011SOL     OW64991   8.808   4.586   4.769
21011SOL    HW164992   8.733   4.586   4.703
21011SOL    HW264993   8.845   4.494   4.778
21012SOL     OW64994   8.657   4.249   3.999
21012SOL    HW164995   8.670   4.165   4.053
21012SOL    HW264996   8.628   4.323   4.059
21013SOL     OW64997   7.755   3.937   4.955
21013SOL    HW164998   7.732   3.974   5.045
21013SOL    HW264999   7.725   3.842   4.949
21014SOL     OW65000   7.485   5.034   5.006
21014SOL    HW165001   7.538   4.985   5.074
21014SOL    HW265002   7.507   5.132   5.011
21015SOL     OW65003   0.176   4.659   5.578
21015SOL    HW165004   0.130   4.652   5.489
21015SOL    HW265005   0.114   4.703   5.644
21016SOL     OW65006   7.755   3.787   4.342
21016SOL    HW165007   7.744   3.881   4.375
21016SOL    HW265008   7.750   3.724   4.419
21017SOL     OW65009   0.070   4.091   4.098
21017SOL    HW165010   0.072   4.015   4.162
21017SOL    HW265011   0.022   4.168   4.138
21018SOL     OW65012   8.471   4.490   4.690
21018SOL    HW165013   8.486   4.511   4.786
21018SOL    HW265014   8.441   4.395   4.681
21019SOL     OW65015   8.428   5.297   5.424
21019SOL    HW165016   8.408   5.341   5.336
21019SOL    HW265017   8.467   5.206   5.408
21020SOL     OW65018   7.798   4.622   5.528
21020SOL    HW165019   7.874   4.666   5.576
21020SOL    HW265020   7.833   4.575   5.446
21021SOL     OW65021   8.988   3.998   3.849
21021SOL    HW165022   8.927   3.923   3.872
21021SOL    HW265023   9.010   4.050   3.932
21022SOL     OW65024   8.751   4.562   3.766
21022SOL    HW165025   8.785   4.469   3.781
21022SOL    HW265026   8.769   4.589   3.671
21023SOL     OW65027   8.516   5.057   4.573
21023SOL    HW165028   8.523   4.973   4.518
21023SOL    HW265029   8.578   5.126   4.537
21024SOL     OW65030   7.767   4.534   4.673
21024SOL    HW165031   7.860   4.570   4.678
21024SOL    HW265032   7.761   4.449   4.725
21025SOL     OW65033   7.959   4.139   5.532
21025SOL    HW165034   7.941   4.184   5.620
21025SOL    HW265035   8.001   4.204   5.469
21026SOL     OW65036   8.586   4.104   5.402
21026SOL    HW165037   8.541   4.167   5.466
21026SOL    HW265038   8.679   4.135   5.385
21027SOL     OW65039   8.608   3.931   5.201
21027SOL    HW165040   8.608   3.995   5.278
21027SOL    HW265041   8.636   3.979   5.118
21028SOL     OW65042   7.456   5.050   3.924
21028SOL    HW165043   7.363   5.071   3.893
21028SOL    HW265044   7.466   4.951   3.937
21029SOL     OW65045   7.536   5.525   4.651
21029SOL    HW165046   7.494   5.439   4.624
21029SOL    HW265047   7.630   5.528   4.617
21030SOL     OW65048   7.952   5.292   4.634
21030SOL    HW165049   8.018   5.366   4.643
21030SOL    HW265050   7.996   5.213   4.592
21031SOL     OW65051   8.450   4.520   4.962
21031SOL    HW165052   8.491   4.488   5.048
21031SOL    HW265053   8.354   4.493   4.959
21032SOL     OW65054   7.637   4.244   5.446
21032SOL    HW165055   7.696   4.204   5.376
21032SOL    HW265056   7.579   4.315   5.405
21033SOL     OW65057   8.817   4.674   5.384
21033SOL    HW165058   8.856   4.763   5.404
21033SOL    HW265059   8.827   4.654   5.287
21034SOL     OW65060   0.105   4.328   4.930
21034SOL    HW165061   0.067   4.259   4.992
21034SOL    HW265062   0.187   4.292   4.886
21035SOL     OW65063   7.700   5.288   5.468
21035SOL    HW165064   7.670   5.345   5.544
21035SOL    HW265065   7.693   5.191   5.494
21036SOL     OW65066   8.378   5.402   5.189
21036SOL    HW165067   8.354   5.384   5.094
21036SOL    HW265068   8.408   5.496   5.199
21037SOL     OW65069   7.607   4.861   5.190
21037SOL    HW165070   7.629   4.800   5.266
21037SOL    HW265071   7.617   4.812   5.104
21038SOL     OW65072   8.795   4.783   4.958
21038SOL    HW165073   8.819   4.720   4.884
21038SOL    HW265074   8.705   4.823   4.940
21039SOL     OW65075   8.750   4.579   4.033
21039SOL    HW165076   8.664   4.548   4.075
21039SOL    HW265077   8.746   4.565   3.934
21040SOL     OW65078   8.700   5.455   4.852
21040SOL    HW165079   8.784   5.460   4.798
21040SOL    HW265080   8.677   5.359   4.870
21041SOL     OW65081   7.531   4.982   4.746
21041SOL    HW165082   7.526   4.981   4.846
21041SOL    HW265083   7.448   4.941   4.708
21042SOL     OW65084   8.136   5.386   5.440
21042SOL    HW165085   8.080   5.467   5.449
21042SOL    HW265086   8.188   5.390   5.354
21043SOL     OW65087   8.351   3.810   3.857
21043SOL    HW165088   8.402   3.811   3.771
21043SOL    HW265089   8.407   3.768   3.928
21044SOL     OW65090   0.174   3.859   4.247
21044SOL    HW165091   0.247   3.842   4.180
21044SOL    HW265092   0.143   3.772   4.285
21045SOL     OW65093   8.836   5.297   4.201
21045SOL    HW165094   8.903   5.309   4.127
21045SOL    HW265095   8.796   5.386   4.224
21046SOL     OW65096   7.578   5.518   5.575
21046SOL    HW165097   7.537   5.444   5.628
21046SOL    HW265098   7.642   5.569   5.633
21047SOL     OW65099   8.728   4.651   4.396
21047SOL    HW165100   8.788   4.570   4.398
21047SOL    HW265101   8.768   4.720   4.336
21048SOL     OW65102   8.278   4.997   5.146
21048SOL    HW165103   8.273   5.030   5.241
21048SOL    HW265104   8.192   5.016   5.100
21049SOL     OW65105   0.098   5.444   5.118
21049SOL    HW165106   0.151   5.454   5.034
21049SOL    HW265107   0.071   5.534   5.152
21050SOL     OW65108   8.642   5.336   3.755
21050SOL    HW165109   8.648   5.243   3.792
21050SOL    HW265110   8.583   5.336   3.675
21051SOL     OW65111   8.270   4.726   5.096
21051SOL    HW165112   8.310   4.725   5.004
21051SOL    HW265113   8.280   4.818   5.136
21052SOL     OW65114   8.364   4.634   4.015
21052SOL    HW165115   8.427   4.672   3.947
21052SOL    HW265116   8.404   4.551   4.054
21053SOL     OW65117   8.952   5.331   3.768
21053SOL    HW165118   8.860   5.368   3.775
21053SOL    HW265119   8.990   5.351   3.678
21054SOL     OW65120   7.820   5.012   5.214
21054SOL    HW165121   7.807   5.105   5.180
21054SOL    HW265122   7.736   4.960   5.201
21055SOL     OW65123   0.062   5.016   5.013
21055SOL    HW165124   0.122   5.019   5.093
21055SOL    HW265125  -0.013   5.080   5.026
21056SOL     OW65126   8.487   4.822   4.420
21056SOL    HW165127   8.417   4.775   4.474
21056SOL    HW265128   8.546   4.754   4.377
21057SOL     OW65129   8.462   3.960   4.695
21057SOL    HW165130   8.454   3.924   4.602
21057SOL    HW265131   8.460   3.884   4.760
21058SOL     OW65132   8.038   5.211   4.215
21058SOL    HW165133   8.080   5.153   4.145
21058SOL    HW265134   7.994   5.290   4.171
21059SOL     OW65135   0.157   4.109   5.105
21059SOL    HW165136   0.230   4.178   5.109
21059SOL    HW265137   0.185   4.034   5.046
21060SOL     OW65138   7.703   5.072   4.014
21060SOL    HW165139   7.607   5.073   3.987
21060SOL    HW265140   7.715   5.125   4.098
21061SOL     OW65141   7.553   4.737   5.450
21061SOL    HW165142   7.476   4.704   5.504
21061SOL    HW265143   7.638   4.707   5.492
21062SOL     OW65144   8.120   3.927   5.213
21062SOL    HW165145   8.210   3.911   5.173
21062SOL    HW265146   8.128   3.932   5.312
21063SOL     OW65147   7.523   4.069   3.757
21063SOL    HW165148   7.431   4.041   3.728
21063SOL    HW265149   7.554   4.146   3.701
21064SOL     OW65150   8.888   4.580   5.122
21064SOL    HW165151   8.831   4.632   5.059
21064SOL    HW265152   8.984   4.592   5.098
21065SOL     OW65153   8.631   5.059   3.843
21065SOL    HW165154   8.532   5.048   3.845
21065SOL    HW265155   8.665   5.074   3.936
21066SOL     OW65156   8.061   4.566   5.155
21066SOL    HW165157   8.117   4.647   5.138
21066SOL    HW265158   8.120   4.486   5.158
21067SOL     OW65159   8.941   5.491   4.683
21067SOL    HW165160   8.974   5.555   4.614
21067SOL    HW265161   9.007   5.485   4.758
21068SOL     OW65162   8.164   4.289   5.432
21068SOL    HW165163   8.183   4.354   5.506
21068SOL    HW265164   8.224   4.209   5.441
21069SOL     OW65165   8.898   4.944   5.357
21069SOL    HW165166   8.889   4.934   5.456
21069SOL    HW265167   8.994   4.937   5.331
21070SOL     OW65168   7.838   5.465   5.284
21070SOL    HW165169   7.747   5.506   5.282
21070SOL    HW265170   7.831   5.371   5.316
21071SOL     OW65171   0.122   4.607   4.978
21071SOL    HW165172   0.095   4.518   4.941
21071SOL    HW265173   0.123   4.675   4.905
21072SOL     OW65174   8.673   4.049   4.173
21072SOL    HW165175   8.738   3.975   4.162
21072SOL    HW265176   8.693   4.099   4.257
21073SOL     OW65177   8.042   4.469   4.376
21073SOL    HW165178   8.092   4.554   4.357
21073SOL    HW265179   7.954   4.471   4.328
21074SOL     OW65180   0.225   4.066   5.366
21074SOL    HW165181   0.208   4.097   5.272
21074SOL    HW265182   0.141   4.029   5.404
21075SOL     OW65183   0.178   4.658   5.241
21075SOL    HW165184   0.216   4.749   5.256
21075SOL    HW265185   0.170   4.641   5.142
21076SOL     OW65186   8.109   5.514   4.677
21076SOL    HW165187   8.063   5.602   4.664
21076SOL    HW265188   8.208   5.526   4.670
21077SOL     OW65189   8.307   4.680   4.585
21077SOL    HW165190   8.361   4.611   4.633
21077SOL    HW265191   8.275   4.749   4.651
21078SOL     OW65192   7.669   5.038   5.568
21078SOL    HW165193   7.604   4.965   5.547
21078SOL    HW265194   7.673   5.052   5.666
21079SOL     OW65195   7.527   4.964   4.377
21079SOL    HW165196   7.526   4.917   4.465
21079SOL    HW265197   7.609   4.936   4.326
21080SOL     OW65198   8.120   5.115   5.348
21080SOL    HW165199   8.042   5.065   5.386
21080SOL    HW265200   8.117   5.210   5.379
21081SOL     OW65201   0.153   5.211   4.828
21081SOL    HW165202   0.060   5.186   4.801
21081SOL    HW265203   0.179   5.161   4.910
21082SOL     OW65204   8.260   5.310   4.411
21082SOL    HW165205   8.292   5.320   4.317
21082SOL    HW265206   8.181   5.248   4.413
21083SOL     OW65207   8.872   3.938   4.836
21083SOL    HW165208   8.924   3.873   4.891
21083SOL    HW265209   8.823   4.001   4.897
21084SOL     OW65210   8.449   3.758   4.878
21084SOL    HW165211   8.386   3.686   4.847
21084SOL    HW265212   8.542   3.722   4.878
21085SOL     OW65213   8.218   5.054   4.025
21085SOL    HW165214   8.172   4.967   4.042
21085SOL    HW265215   8.309   5.051   4.066
21086SOL     OW65216   8.066   5.291   5.008
21086SOL    HW165217   8.061   5.373   5.065
21086SOL    HW265218   8.155   5.288   4.963
21087SOL     OW65219   8.800   3.776   3.892
21087SOL    HW165220   8.835   3.735   3.808
21087SOL    HW265221   8.710   3.738   3.912
21088SOL     OW65222   8.748   4.177   4.415
21088SOL    HW165223   8.689   4.257   4.419
21088SOL    HW265224   8.763   4.142   4.508
21089SOL     OW65225   0.041   3.945   4.606
21089SOL    HW165226  -0.043   3.944   4.660
21089SOL    HW265227   0.043   4.028   4.550
21090SOL     OW65228   8.323   5.370   4.061
21090SOL    HW165229   8.246   5.335   4.007
21090SOL    HW265230   8.291   5.441   4.123
21091SOL     OW65231   7.678   4.352   5.699
21091SOL    HW165232   7.585   4.350   5.736
21091SOL    HW265233   7.679   4.313   5.607
21092SOL     OW65234   7.673   3.999   6.582
21092SOL    HW165235   7.708   3.982   6.674
21092SOL    HW265236   7.585   3.954   6.570
21093SOL     OW65237   7.467   4.092   6.233
21093SOL    HW165238   7.385   4.135   6.272
21093SOL    HW265239   7.439   4.019   6.170
21094SOL     OW65240   8.017   4.999   6.751
21094SOL    HW165241   7.924   4.992   6.714
21094SOL    HW265242   8.028   5.088   6.795
21095SOL     OW65243   0.003   5.235   6.289
21095SOL    HW165244  -0.054   5.219   6.370
21095SOL    HW265245  -0.056   5.245   6.209
21096SOL     OW65246   0.191   4.342   6.442
21096SOL    HW165247   0.224   4.436   6.442
21096SOL    HW265248   0.242   4.288   6.508
21097SOL     OW65249   8.583   4.427   6.303
21097SOL    HW165250   8.640   4.505   6.278
21097SOL    HW265251   8.523   4.453   6.379
21098SOL     OW65252   0.203   4.331   5.817
21098SOL    HW165253   0.191   4.318   5.718
21098SOL    HW265254   0.173   4.250   5.866
21099SOL     OW65255   8.216   4.868   6.609
21099SOL    HW165256   8.138   4.885   6.669
21099SOL    HW265257   8.250   4.955   6.573
21100SOL     OW65258   8.298   4.522   7.409
21100SOL    HW165259   8.294   4.598   7.474
21100SOL    HW265260   8.320   4.558   7.318
21101SOL     OW65261   8.133   4.736   6.251
21101SOL    HW165262   8.202   4.720   6.321
21101SOL    HW265263   8.060   4.793   6.289
21102SOL     OW65264   8.134   4.885   7.389
21102SOL    HW165265   8.194   4.964   7.403
21102SOL    HW265266   8.048   4.916   7.348
21103SOL     OW65267   7.783   5.159   6.647
21103SOL    HW165268   7.705   5.128   6.594
21103SOL    HW265269   7.841   5.217   6.590
21104SOL     OW65270   8.908   5.229   6.925
21104SOL    HW165271   8.932   5.323   6.951
21104SOL    HW265272   8.892   5.175   7.007
21105SOL     OW65273   7.886   4.116   7.085
21105SOL    HW165274   7.968   4.060   7.094
21105SOL    HW265275   7.805   4.058   7.089
21106SOL     OW65276   7.679   5.437   6.069
21106SOL    HW165277   7.713   5.514   6.123
21106SOL    HW265278   7.723   5.437   5.979
21107SOL     OW65279   8.575   5.065   7.276
21107SOL    HW165280   8.622   5.065   7.364
21107SOL    HW265281   8.527   4.978   7.265
21108SOL     OW65282   7.678   5.158   6.124
21108SOL    HW165283   7.652   5.254   6.124
21108SOL    HW265284   7.607   5.104   6.169
21109SOL     OW65285   7.688   4.815   6.472
21109SOL    HW165286   7.702   4.731   6.524
21109SOL    HW265287   7.633   4.879   6.527
21110SOL     OW65288   8.068   5.510   7.025
21110SOL    HW165289   7.976   5.493   7.060
21110SOL    HW265290   8.096   5.602   7.051
21111SOL     OW65291   8.054   4.688   5.709
21111SOL    HW165292   8.061   4.772   5.655
21111SOL    HW265293   8.100   4.701   5.797
21112SOL     OW65294   0.042   3.838   7.066
21112SOL    HW165295   0.024   3.905   6.994
21112SOL    HW265296   0.039   3.884   7.155
21113SOL     OW65297   7.570   4.367   6.149
21113SOL    HW165298   7.525   4.279   6.166
21113SOL    HW265299   7.569   4.421   6.233
21114SOL     OW65300   7.475   5.320   5.703
21114SOL    HW165301   7.456   5.224   5.724
21114SOL    HW265302   7.442   5.378   5.778
21115SOL     OW65303   0.137   4.646   6.198
21115SOL    HW165304   0.232   4.617   6.206
21115SOL    HW265305   0.129   4.711   6.123
21116SOL     OW65306   0.089   4.832   6.018
21116SOL    HW165307   0.175   4.834   5.966
21116SOL    HW265308   0.103   4.879   6.106
21117SOL     OW65309   7.561   4.461   7.183
21117SOL    HW165310   7.649   4.448   7.228
21117SOL    HW265311   7.548   4.558   7.161
21118SOL     OW65312   8.061   5.089   6.312
21118SOL    HW165313   8.012   5.002   6.321
21118SOL    HW265314   8.038   5.132   6.225
21119SOL     OW65315   8.741   4.952   7.009
21119SOL    HW165316   8.778   4.879   6.951
21119SOL    HW265317   8.793   4.957   7.094
21120SOL     OW65318   7.645   4.700   6.850
21120SOL    HW165319   7.734   4.655   6.836
21120SOL    HW265320   7.572   4.635   6.831
21121SOL     OW65321   8.973   4.723   5.776
21121SOL    HW165322   8.910   4.647   5.789
21121SOL    HW265323   9.021   4.741   5.862
21122SOL     OW65324   8.635   5.516   7.202
21122SOL    HW165325   8.659   5.576   7.126
21122SOL    HW265326   8.642   5.421   7.172
21123SOL     OW65327   7.765   3.975   7.387
21123SOL    HW165328   7.836   4.046   7.393
21123SOL    HW265329   7.677   4.014   7.415
21124SOL     OW65330   8.914   5.141   6.539
21124SOL    HW165331   8.855   5.147   6.619
21124SOL    HW265332   8.899   5.053   6.493
21125SOL     OW65333   0.115   5.438   6.158
21125SOL    HW165334   0.074   5.415   6.070
21125SOL    HW265335   0.097   5.364   6.223
21126SOL     OW65336   8.046   4.453   5.856
21126SOL    HW165337   8.070   4.522   5.788
21126SOL    HW265338   7.968   4.486   5.910
21127SOL     OW65339   8.729   4.069   6.530
21127SOL    HW165340   8.643   4.019   6.517
21127SOL    HW265341   8.791   4.015   6.586
21128SOL     OW65342   0.024   5.386   5.893
21128SOL    HW165343   0.113   5.432   5.896
21128SOL    HW265344   0.003   5.362   5.798
21129SOL     OW65345   8.255   4.329   7.051
21129SOL    HW165346   8.208   4.326   7.140
21129SOL    HW265347   8.204   4.274   6.985
21130SOL     OW65348   8.842   4.193   7.260
21130SOL    HW165349   8.822   4.236   7.348
21130SOL    HW265350   8.920   4.131   7.269
21131SOL     OW65351   8.421   4.614   7.158
21131SOL    HW165352   8.467   4.530   7.129
21131SOL    HW265353   8.365   4.648   7.083
21132SOL     OW65354   8.439   4.134   6.828
21132SOL    HW165355   8.362   4.168   6.882
21132SOL    HW265356   8.405   4.083   6.749
21133SOL     OW65357   8.489   4.425   6.015
21133SOL    HW165358   8.515   4.421   6.111
21133SOL    HW265359   8.404   4.374   6.001
21134SOL     OW65360   7.524   4.535   6.375
21134SOL    HW165361   7.623   4.523   6.384
21134SOL    HW265362   7.500   4.630   6.396
21135SOL     OW65363   7.578   5.545   7.157
21135SOL    HW165364   7.568   5.530   7.256
21135SOL    HW265365   7.492   5.581   7.121
21136SOL     OW65366   8.313   4.072   5.781
21136SOL    HW165367   8.372   4.135   5.732
21136SOL    HW265368   8.332   3.978   5.752
21137SOL     OW65369   0.167   4.309   7.417
21137SOL    HW165370   0.141   4.398   7.381
21137SOL    HW265371   0.165   4.241   7.344
21138SOL     OW65372   8.810   4.868   6.131
21138SOL    HW165373   8.893   4.839   6.083
21138SOL    HW265374   8.761   4.935   6.075
21139SOL     OW65375   7.998   3.920   6.471
21139SOL    HW165376   7.993   3.915   6.571
21139SOL    HW265377   8.000   4.016   6.442
21140SOL     OW65378   8.456   5.180   6.063
21140SOL    HW165379   8.410   5.252   6.011
21140SOL    HW265380   8.452   5.200   6.161
21141SOL     OW65381   7.799   5.525   6.439
21141SOL    HW165382   7.849   5.439   6.445
21141SOL    HW265383   7.864   5.602   6.436
21142SOL     OW65384   0.243   4.790   6.459
21142SOL    HW165385   0.181   4.775   6.383
21142SOL    HW265386   0.191   4.801   6.544
21143SOL     OW65387   8.675   5.274   7.092
21143SOL    HW165388   8.681   5.197   7.156
21143SOL    HW265389   8.623   5.248   7.012
21144SOL     OW65390   7.769   4.667   5.828
21144SOL    HW165391   7.851   4.706   5.786
21144SOL    HW265392   7.742   4.585   5.779
21145SOL     OW65393   8.906   4.459   6.314
21145SOL    HW165394   8.901   4.394   6.389
21145SOL    HW265395   8.986   4.518   6.327
21146SOL     OW65396   7.909   4.990   7.313
21146SOL    HW165397   7.859   4.991   7.227
21146SOL    HW265398   7.846   4.972   7.389
21147SOL     OW65399   8.559   5.500   5.823
21147SOL    HW165400   8.499   5.438   5.873
21147SOL    HW265401   8.590   5.456   5.738
21148SOL     OW65402   7.650   4.009   7.084
21148SOL    HW165403   7.570   4.069   7.071
21148SOL    HW265404   7.640   3.960   7.170
21149SOL     OW65405   0.080   5.101   5.667
21149SOL    HW165406   0.048   5.195   5.657
21149SOL    HW265407   0.004   5.038   5.655
21150SOL     OW65408   7.912   5.467   5.909
21150SOL    HW165409   7.945   5.506   5.995
21150SOL    HW265410   7.988   5.460   5.844
21151SOL     OW65411   8.848   3.831   6.012
21151SOL    HW165412   8.824   3.794   5.922
21151SOL    HW265413   8.947   3.847   6.016
21152SOL     OW65414   7.697   5.509   6.827
21152SOL    HW165415   7.754   5.444   6.877
21152SOL    HW265416   7.681   5.476   6.734
21153SOL     OW65417   8.388   5.422   6.490
21153SOL    HW165418   8.468   5.365   6.511
21153SOL    HW265419   8.339   5.382   6.413
21154SOL     OW65420   7.830   4.424   6.066
21154SOL    HW165421   7.875   4.334   6.063
21154SOL    HW265422   7.736   4.413   6.099
21155SOL     OW65423   8.995   3.946   7.315
21155SOL    HW165424   8.990   3.983   7.407
21155SOL    HW265425   8.923   3.877   7.303
21156SOL     OW65426   8.062   3.846   5.703
21156SOL    HW165427   8.160   3.824   5.710
21156SOL    HW265428   8.031   3.829   5.610
21157SOL     OW65429   8.229   3.988   7.335
21157SOL    HW165430   8.296   3.927   7.378
21157SOL    HW265431   8.156   4.007   7.400
21158SOL     OW65432   8.336   5.238   6.781
21158SOL    HW165433   8.313   5.213   6.687
21158SOL    HW265434   8.397   5.169   6.820
21159SOL     OW65435   8.799   4.314   7.019
21159SOL    HW165436   8.827   4.271   7.104
21159SOL    HW265437   8.824   4.410   7.020
21160SOL     OW65438   8.251   5.126   6.510
21160SOL    HW165439   8.341   5.140   6.468
21160SOL    HW265440   8.180   5.128   6.439
21161SOL     OW65441   8.370   4.227   6.485
21161SOL    HW165442   8.345   4.218   6.389
21161SOL    HW265443   8.418   4.145   6.516
21162SOL     OW65444   8.882   4.912   5.627
21162SOL    HW165445   8.914   4.836   5.684
21162SOL    HW265446   8.790   4.939   5.657
21163SOL     OW65447   7.745   3.759   5.757
21163SOL    HW165448   7.794   3.843   5.736
21163SOL    HW265449   7.807   3.694   5.802
21164SOL     OW65450   8.383   3.960   6.066
21164SOL    HW165451   8.335   4.001   5.988
21164SOL    HW265452   8.482   3.958   6.047
21165SOL     OW65453   8.524   4.407   7.050
21165SOL    HW165454   8.444   4.346   7.053
21165SOL    HW265455   8.605   4.354   7.026
21166SOL     OW65456   8.675   5.294   6.379
21166SOL    HW165457   8.696   5.368   6.314
21166SOL    HW265458   8.743   5.294   6.452
21167SOL     OW65459   7.907   4.876   6.327
21167SOL    HW165460   7.836   4.849   6.392
21167SOL    HW265461   7.881   4.848   6.234
21168SOL     OW65462   8.719   5.521   6.177
21168SOL    HW165463   8.763   5.585   6.113
21168SOL    HW265464   8.669   5.573   6.247
21169SOL     OW65465   8.480   4.273   5.602
21169SOL    HW165466   8.439   4.355   5.563
21169SOL    HW265467   8.544   4.299   5.675
21170SOL     OW65468   7.526   4.280   6.972
21170SOL    HW165469   7.618   4.279   6.931
21170SOL    HW265470   7.520   4.354   7.039
21171SOL     OW65471   8.009   3.946   6.733
21171SOL    HW165472   8.047   3.862   6.770
21171SOL    HW265473   7.921   3.965   6.777
21172SOL     OW65474   8.314   4.178   6.228
21172SOL    HW165475   8.282   4.250   6.166
21172SOL    HW265476   8.338   4.097   6.175
21173SOL     OW65477   8.465   3.763   6.339
21173SOL    HW165478   8.393   3.768   6.270
21173SOL    HW265479   8.441   3.694   6.408
21174SOL     OW65480   8.877   4.897   6.453
21174SOL    HW165481   8.822   4.813   6.446
21174SOL    HW265482   8.903   4.926   6.361
21175SOL     OW65483   8.914   4.314   6.578
21175SOL    HW165484   8.884   4.219   6.585
21175SOL    HW265485   8.987   4.330   6.644
21176SOL     OW65486   7.936   5.109   5.760
21176SOL    HW165487   7.849   5.094   5.807
21176SOL    HW265488   7.919   5.135   5.665
21177SOL     OW65489   0.112   5.004   6.243
21177SOL    HW165490   0.211   5.012   6.257
21177SOL    HW265491   0.067   5.088   6.274
21178SOL     OW65492   8.838   4.299   5.664
21178SOL    HW165493   8.784   4.278   5.745
21178SOL    HW265494   8.929   4.258   5.673
21179SOL     OW65495   8.512   5.071   6.926
21179SOL    HW165496   8.432   5.048   6.981
21179SOL    HW265497   8.595   5.045   6.975
21180SOL     OW65498   0.040   5.353   7.211
21180SOL    HW165499   0.067   5.387   7.121
21180SOL    HW265500   0.119   5.315   7.257
21181SOL     OW65501   8.559   4.919   6.686
21181SOL    HW165502   8.519   4.963   6.767
21181SOL    HW265503   8.518   4.956   6.603
21182SOL     OW65504   0.086   4.823   6.665
21182SOL    HW165505   0.091   4.904   6.724
21182SOL    HW265506   0.000   4.825   6.614
21183SOL     OW65507   8.363   3.813   6.988
21183SOL    HW165508   8.388   3.793   6.893
21183SOL    HW265509   8.435   3.869   7.030
21184SOL     OW65510   8.428   4.840   7.305
21184SOL    HW165511   8.329   4.846   7.315
21184SOL    HW265512   8.451   4.760   7.249
21185SOL     OW65513   8.153   4.774   5.954
21185SOL    HW165514   8.139   4.781   6.053
21185SOL    HW265515   8.237   4.723   5.936
21186SOL     OW65516   7.858   4.537   6.837
21186SOL    HW165517   7.944   4.549   6.887
21186SOL    HW265518   7.816   4.450   6.864
21187SOL     OW65519   8.722   4.110   6.848
21187SOL    HW165520   8.743   4.184   6.912
21187SOL    HW265521   8.633   4.127   6.805
21188SOL     OW65522   7.512   5.288   6.917
21188SOL    HW165523   7.466   5.370   6.883
21188SOL    HW265524   7.610   5.307   6.926
21189SOL     OW65525   7.815   4.824   6.087
21189SOL    HW165526   7.808   4.907   6.031
21189SOL    HW265527   7.819   4.744   6.027
21190SOL     OW65528   8.014   4.261   6.451
21190SOL    HW165529   8.026   4.327   6.377
21190SOL    HW265530   8.060   4.295   6.534
21191SOL     OW65531   8.700   5.072   5.974
21191SOL    HW165532   8.750   5.149   6.014
21191SOL    HW265533   8.605   5.074   6.006
21192SOL     OW65534   8.720   5.169   6.728
21192SOL    HW165535   8.767   5.182   6.815
21192SOL    HW265536   8.654   5.095   6.737
21193SOL     OW65537   0.030   4.363   6.058
21193SOL    HW165538  -0.001   4.424   6.131
21193SOL    HW265539   0.080   4.415   5.989
21194SOL     OW65540   7.802   5.234   6.915
21194SOL    HW165541   7.781   5.190   6.828
21194SOL    HW265542   7.899   5.260   6.918
21195SOL     OW65543   7.850   4.475   7.184
21195SOL    HW165544   7.918   4.530   7.137
21195SOL    HW265545   7.890   4.387   7.211
21196SOL     OW65546   0.035   4.503   7.256
21196SOL    HW165547  -0.057   4.541   7.251
21196SOL    HW265548   0.095   4.550   7.191
21197SOL     OW65549   8.461   3.829   7.356
21197SOL    HW165550   8.467   3.914   7.304
21197SOL    HW265551   8.493   3.753   7.299
21198SOL     OW65552   7.952   3.774   7.326
21198SOL    HW165553   7.910   3.717   7.256
21198SOL    HW265554   7.886   3.843   7.358
21199SOL     OW65555   8.021   4.594   6.615
21199SOL    HW165556   8.065   4.683   6.606
21199SOL    HW265557   7.958   4.594   6.692
21200SOL     OW65558   8.808   4.586   6.631
21200SOL    HW165559   8.733   4.586   6.565
21200SOL    HW265560   8.845   4.494   6.640
21201SOL     OW65561   8.657   4.249   5.861
21201SOL    HW165562   8.670   4.165   5.915
21201SOL    HW265563   8.628   4.323   5.921
21202SOL     OW65564   7.755   3.937   6.817
21202SOL    HW165565   7.732   3.974   6.907
21202SOL    HW265566   7.725   3.842   6.811
21203SOL     OW65567   7.485   5.034   6.868
21203SOL    HW165568   7.538   4.985   6.936
21203SOL    HW265569   7.507   5.132   6.873
21204SOL     OW65570   8.180   4.358   6.650
21204SOL    HW165571   8.239   4.332   6.574
21204SOL    HW265572   8.152   4.454   6.639
21205SOL     OW65573   0.176   4.659   7.440
21205SOL    HW165574   0.130   4.652   7.351
21205SOL    HW265575   0.114   4.703   7.506
21206SOL     OW65576   0.070   4.091   5.960
21206SOL    HW165577   0.072   4.015   6.024
21206SOL    HW265578   0.022   4.168   6.000
21207SOL     OW65579   8.471   4.490   6.552
21207SOL    HW165580   8.486   4.511   6.648
21207SOL    HW265581   8.441   4.395   6.543
21208SOL     OW65582   8.428   5.297   7.286
21208SOL    HW165583   8.408   5.341   7.198
21208SOL    HW265584   8.467   5.206   7.270
21209SOL     OW65585   7.798   4.622   7.390
21209SOL    HW165586   7.874   4.666   7.438
21209SOL    HW265587   7.833   4.575   7.308
21210SOL     OW65588   8.988   3.998   5.711
21210SOL    HW165589   8.927   3.923   5.734
21210SOL    HW265590   9.010   4.050   5.794
21211SOL     OW65591   8.751   4.562   5.628
21211SOL    HW165592   8.785   4.469   5.643
21211SOL    HW265593   8.769   4.589   5.533
21212SOL     OW65594   8.516   5.057   6.435
21212SOL    HW165595   8.523   4.973   6.380
21212SOL    HW265596   8.578   5.126   6.399
21213SOL     OW65597   7.767   4.534   6.535
21213SOL    HW165598   7.860   4.570   6.540
21213SOL    HW265599   7.761   4.449   6.587
21214SOL     OW65600   7.787   4.233   6.592
21214SOL    HW165601   7.735   4.150   6.575
21214SOL    HW265602   7.864   4.238   6.528
21215SOL     OW65603   7.959   4.139   7.394
21215SOL    HW165604   7.941   4.184   7.482
21215SOL    HW265605   8.001   4.204   7.331
21216SOL     OW65606   8.586   4.104   7.264
21216SOL    HW165607   8.541   4.167   7.328
21216SOL    HW265608   8.679   4.135   7.247
21217SOL     OW65609   8.608   3.931   7.063
21217SOL    HW165610   8.608   3.995   7.140
21217SOL    HW265611   8.636   3.979   6.980
21218SOL     OW65612   7.456   5.050   5.786
21218SOL    HW165613   7.363   5.071   5.755
21218SOL    HW265614   7.466   4.951   5.799
21219SOL     OW65615   7.536   5.525   6.513
21219SOL    HW165616   7.494   5.439   6.486
21219SOL    HW265617   7.630   5.528   6.479
21220SOL     OW65618   7.952   5.292   6.496
21220SOL    HW165619   8.018   5.366   6.505
21220SOL    HW265620   7.996   5.213   6.454
21221SOL     OW65621   8.450   4.520   6.824
21221SOL    HW165622   8.491   4.488   6.910
21221SOL    HW265623   8.354   4.493   6.821
21222SOL     OW65624   7.488   4.268   6.700
21222SOL    HW165625   7.573   4.235   6.659
21222SOL    HW265626   7.501   4.283   6.798
21223SOL     OW65627   7.637   4.244   7.308
21223SOL    HW165628   7.696   4.204   7.238
21223SOL    HW265629   7.579   4.315   7.267
21224SOL     OW65630   8.817   4.674   7.246
21224SOL    HW165631   8.856   4.763   7.266
21224SOL    HW265632   8.827   4.654   7.149
21225SOL     OW65633   8.263   4.296   5.911
21225SOL    HW165634   8.270   4.207   5.865
21225SOL    HW265635   8.169   4.330   5.903
21226SOL     OW65636   0.105   4.328   6.792
21226SOL    HW165637   0.067   4.259   6.854
21226SOL    HW265638   0.187   4.292   6.748
21227SOL     OW65639   7.700   5.288   7.330
21227SOL    HW165640   7.670   5.345   7.406
21227SOL    HW265641   7.693   5.191   7.356
21228SOL     OW65642   8.119   4.188   6.855
21228SOL    HW165643   8.085   4.099   6.825
21228SOL    HW265644   8.145   4.242   6.775
21229SOL     OW65645   8.378   5.402   7.051
21229SOL    HW165646   8.354   5.384   6.956
21229SOL    HW265647   8.408   5.496   7.061
21230SOL     OW65648   7.921   4.224   5.777
21230SOL    HW165649   7.982   4.304   5.781
21230SOL    HW265650   7.826   4.255   5.784
21231SOL     OW65651   7.607   4.861   7.052
21231SOL    HW165652   7.629   4.800   7.128
21231SOL    HW265653   7.617   4.812   6.966
21232SOL     OW65654   8.795   4.783   6.820
21232SOL    HW165655   8.819   4.720   6.746
21232SOL    HW265656   8.705   4.823   6.802
21233SOL     OW65657   8.750   4.579   5.895
21233SOL    HW165658   8.664   4.548   5.937
21233SOL    HW265659   8.746   4.565   5.796
21234SOL     OW65660   8.700   5.455   6.714
21234SOL    HW165661   8.784   5.460   6.660
21234SOL    HW265662   8.677   5.359   6.732
21235SOL     OW65663   7.531   4.982   6.608
21235SOL    HW165664   7.526   4.981   6.708
21235SOL    HW265665   7.448   4.941   6.570
21236SOL     OW65666   8.136   5.386   7.302
21236SOL    HW165667   8.080   5.467   7.311
21236SOL    HW265668   8.188   5.390   7.216
21237SOL     OW65669   8.351   3.810   5.719
21237SOL    HW165670   8.402   3.811   5.633
21237SOL    HW265671   8.407   3.768   5.790
21238SOL     OW65672   0.174   3.859   6.109
21238SOL    HW165673   0.247   3.842   6.042
21238SOL    HW265674   0.143   3.772   6.147
21239SOL     OW65675   8.836   5.297   6.063
21239SOL    HW165676   8.903   5.309   5.989
21239SOL    HW265677   8.796   5.386   6.086
21240SOL     OW65678   7.578   5.518   7.437
21240SOL    HW165679   7.537   5.444   7.490
21240SOL    HW265680   7.642   5.569   7.495
21241SOL     OW65681   8.728   4.651   6.258
21241SOL    HW165682   8.788   4.570   6.260
21241SOL    HW265683   8.768   4.720   6.198
21242SOL     OW65684   8.278   4.997   7.008
21242SOL    HW165685   8.273   5.030   7.103
21242SOL    HW265686   8.192   5.016   6.962
21243SOL     OW65687   8.120   5.340   5.740
21243SOL    HW165688   8.129   5.350   5.641
21243SOL    HW265689   8.080   5.251   5.761
21244SOL     OW65690   0.098   5.444   6.980
21244SOL    HW165691   0.151   5.454   6.896
21244SOL    HW265692   0.071   5.534   7.014
21245SOL     OW65693   8.642   5.336   5.617
21245SOL    HW165694   8.648   5.243   5.654
21245SOL    HW265695   8.583   5.336   5.537
21246SOL     OW65696   8.270   4.726   6.958
21246SOL    HW165697   8.310   4.725   6.866
21246SOL    HW265698   8.280   4.818   6.998
21247SOL     OW65699   8.364   4.634   5.877
21247SOL    HW165700   8.427   4.672   5.809
21247SOL    HW265701   8.404   4.551   5.916
21248SOL     OW65702   8.952   5.331   5.630
21248SOL    HW165703   8.860   5.368   5.637
21248SOL    HW265704   8.990   5.351   5.540
21249SOL     OW65705   7.820   5.012   7.076
21249SOL    HW165706   7.807   5.105   7.042
21249SOL    HW265707   7.736   4.960   7.063
21250SOL     OW65708   0.062   5.016   6.875
21250SOL    HW165709   0.122   5.019   6.955
21250SOL    HW265710  -0.013   5.080   6.888
21251SOL     OW65711   8.487   4.822   6.282
21251SOL    HW165712   8.417   4.775   6.336
21251SOL    HW265713   8.546   4.754   6.239
21252SOL     OW65714   8.462   3.960   6.557
21252SOL    HW165715   8.454   3.924   6.464
21252SOL    HW265716   8.460   3.884   6.622
21253SOL     OW65717   8.038   5.211   6.077
21253SOL    HW165718   8.080   5.153   6.007
21253SOL    HW265719   7.994   5.290   6.033
21254SOL     OW65720   0.157   4.109   6.967
21254SOL    HW165721   0.230   4.178   6.971
21254SOL    HW265722   0.185   4.034   6.908
21255SOL     OW65723   7.703   5.072   5.876
21255SOL    HW165724   7.607   5.073   5.849
21255SOL    HW265725   7.715   5.125   5.960
21256SOL     OW65726   7.553   4.737   7.312
21256SOL    HW165727   7.476   4.704   7.366
21256SOL    HW265728   7.638   4.707   7.354
21257SOL     OW65729   8.120   3.927   7.075
21257SOL    HW165730   8.210   3.911   7.035
21257SOL    HW265731   8.128   3.932   7.174
21258SOL     OW65732   8.888   4.580   6.984
21258SOL    HW165733   8.831   4.632   6.921
21258SOL    HW265734   8.984   4.592   6.960
21259SOL     OW65735   7.520   3.890   5.904
21259SOL    HW165736   7.503   3.973   5.850
21259SOL    HW265737   7.610   3.853   5.882
21260SOL     OW65738   8.631   5.059   5.705
21260SOL    HW165739   8.532   5.048   5.707
21260SOL    HW265740   8.665   5.074   5.798
21261SOL     OW65741   8.061   4.566   7.017
21261SOL    HW165742   8.117   4.647   7.000
21261SOL    HW265743   8.120   4.486   7.020
21262SOL     OW65744   8.941   5.491   6.545
21262SOL    HW165745   8.974   5.555   6.476
21262SOL    HW265746   9.007   5.485   6.620
21263SOL     OW65747   8.164   4.289   7.294
21263SOL    HW165748   8.183   4.354   7.368
21263SOL    HW265749   8.224   4.209   7.303
21264SOL     OW65750   8.898   4.944   7.219
21264SOL    HW165751   8.889   4.934   7.318
21264SOL    HW265752   8.994   4.937   7.193
21265SOL     OW65753   7.838   5.465   7.146
21265SOL    HW165754   7.747   5.506   7.144
21265SOL    HW265755   7.831   5.371   7.178
21266SOL     OW65756   0.122   4.607   6.840
21266SOL    HW165757   0.095   4.518   6.803
21266SOL    HW265758   0.123   4.675   6.767
21267SOL     OW65759   8.673   4.049   6.035
21267SOL    HW165760   8.738   3.975   6.024
21267SOL    HW265761   8.693   4.099   6.119
21268SOL     OW65762   8.042   4.469   6.238
21268SOL    HW165763   8.092   4.554   6.219
21268SOL    HW265764   7.954   4.471   6.190
21269SOL     OW65765   0.225   4.066   7.228
21269SOL    HW165766   0.208   4.097   7.134
21269SOL    HW265767   0.141   4.029   7.266
21270SOL     OW65768   0.178   4.658   7.103
21270SOL    HW165769   0.216   4.749   7.118
21270SOL    HW265770   0.170   4.641   7.004
21271SOL     OW65771   8.307   5.098   5.602
21271SOL    HW165772   8.261   5.113   5.690
21271SOL    HW265773   8.351   5.183   5.572
21272SOL     OW65774   8.109   5.514   6.539
21272SOL    HW165775   8.063   5.602   6.526
21272SOL    HW265776   8.208   5.526   6.532
21273SOL     OW65777   8.307   4.680   6.447
21273SOL    HW165778   8.361   4.611   6.495
21273SOL    HW265779   8.275   4.749   6.513
21274SOL     OW65780   8.531   4.708   5.673
21274SOL    HW165781   8.508   4.761   5.591
21274SOL    HW265782   8.612   4.652   5.654
21275SOL     OW65783   7.669   5.038   7.430
21275SOL    HW165784   7.604   4.965   7.409
21275SOL    HW265785   7.673   5.052   7.528
21276SOL     OW65786   7.527   4.964   6.239
21276SOL    HW165787   7.526   4.917   6.327
21276SOL    HW265788   7.609   4.936   6.188
21277SOL     OW65789   8.120   5.115   7.210
21277SOL    HW165790   8.042   5.065   7.248
21277SOL    HW265791   8.117   5.210   7.241
21278SOL     OW65792   0.153   5.211   6.690
21278SOL    HW165793   0.060   5.186   6.663
21278SOL    HW265794   0.179   5.161   6.772
21279SOL     OW65795   7.765   4.271   6.866
21279SOL    HW165796   7.803   4.212   6.938
21279SOL    HW265797   7.805   4.245   6.778
21280SOL     OW65798   8.260   5.310   6.273
21280SOL    HW165799   8.292   5.320   6.179
21280SOL    HW265800   8.181   5.248   6.275
21281SOL     OW65801   8.872   3.938   6.698
21281SOL    HW165802   8.924   3.873   6.753
21281SOL    HW265803   8.823   4.001   6.759
21282SOL     OW65804   8.449   3.758   6.740
21282SOL    HW165805   8.386   3.686   6.709
21282SOL    HW265806   8.542   3.722   6.740
21283SOL     OW65807   8.218   5.054   5.887
21283SOL    HW165808   8.172   4.967   5.904
21283SOL    HW265809   8.309   5.051   5.928
21284SOL     OW65810   8.066   5.291   6.870
21284SOL    HW165811   8.061   5.373   6.927
21284SOL    HW265812   8.155   5.288   6.825
21285SOL     OW65813   8.800   3.776   5.754
21285SOL    HW165814   8.835   3.735   5.670
21285SOL    HW265815   8.710   3.738   5.774
21286SOL     OW65816   8.748   4.177   6.277
21286SOL    HW165817   8.689   4.257   6.281
21286SOL    HW265818   8.763   4.142   6.370
21287SOL     OW65819   0.041   3.945   6.468
21287SOL    HW165820  -0.043   3.944   6.522
21287SOL    HW265821   0.043   4.028   6.412
21288SOL     OW65822   7.487   4.801   5.886
21288SOL    HW165823   7.586   4.790   5.877
21288SOL    HW265824   7.447   4.715   5.918
21289SOL     OW65825   8.323   5.370   5.923
21289SOL    HW165826   8.246   5.335   5.869
21289SOL    HW265827   8.291   5.441   5.985
21290SOL     OW65828   7.678   4.352   7.561
21290SOL    HW165829   7.585   4.350   7.598
21290SOL    HW265830   7.679   4.313   7.469
21291SOL     OW65831   7.673   3.999   8.444
21291SOL    HW165832   7.708   3.982   8.536
21291SOL    HW265833   7.585   3.954   8.432
21292SOL     OW65834   7.467   4.092   8.095
21292SOL    HW165835   7.385   4.135   8.134
21292SOL    HW265836   7.439   4.019   8.032
21293SOL     OW65837   8.017   4.999   8.613
21293SOL    HW165838   7.924   4.992   8.576
21293SOL    HW265839   8.028   5.088   8.657
21294SOL     OW65840   0.003   5.235   8.151
21294SOL    HW165841  -0.054   5.219   8.232
21294SOL    HW265842  -0.056   5.245   8.071
21295SOL     OW65843   0.191   4.342   8.304
21295SOL    HW165844   0.224   4.436   8.304
21295SOL    HW265845   0.242   4.288   8.370
21296SOL     OW65846   8.583   4.427   8.165
21296SOL    HW165847   8.640   4.505   8.140
21296SOL    HW265848   8.523   4.453   8.241
21297SOL     OW65849   0.203   4.331   7.679
21297SOL    HW165850   0.191   4.318   7.580
21297SOL    HW265851   0.173   4.250   7.728
21298SOL     OW65852   8.216   4.868   8.471
21298SOL    HW165853   8.138   4.885   8.531
21298SOL    HW265854   8.250   4.955   8.435
21299SOL     OW65855   8.133   4.736   8.113
21299SOL    HW165856   8.202   4.720   8.183
21299SOL    HW265857   8.060   4.793   8.151
21300SOL     OW65858   7.783   5.159   8.509
21300SOL    HW165859   7.705   5.128   8.456
21300SOL    HW265860   7.841   5.217   8.452
21301SOL     OW65861   8.908   5.229   8.787
21301SOL    HW165862   8.932   5.323   8.813
21301SOL    HW265863   8.892   5.175   8.869
21302SOL     OW65864   7.886   4.116   8.947
21302SOL    HW165865   7.968   4.060   8.956
21302SOL    HW265866   7.805   4.058   8.951
21303SOL     OW65867   7.679   5.437   7.931
21303SOL    HW165868   7.713   5.514   7.985
21303SOL    HW265869   7.723   5.437   7.841
21304SOL     OW65870   7.678   5.158   7.986
21304SOL    HW165871   7.652   5.254   7.986
21304SOL    HW265872   7.607   5.104   8.031
21305SOL     OW65873   7.688   4.815   8.334
21305SOL    HW165874   7.702   4.731   8.386
21305SOL    HW265875   7.633   4.879   8.389
21306SOL     OW65876   8.068   5.510   8.887
21306SOL    HW165877   7.976   5.493   8.922
21306SOL    HW265878   8.096   5.602   8.913
21307SOL     OW65879   8.054   4.688   7.571
21307SOL    HW165880   8.061   4.772   7.517
21307SOL    HW265881   8.100   4.701   7.659
21308SOL     OW65882   0.042   3.838   8.928
21308SOL    HW165883   0.024   3.905   8.856
21308SOL    HW265884   0.039   3.884   9.017
21309SOL     OW65885   7.570   4.367   8.011
21309SOL    HW165886   7.525   4.279   8.028
21309SOL    HW265887   7.569   4.421   8.095
21310SOL     OW65888   7.475   5.320   7.565
21310SOL    HW165889   7.456   5.224   7.586
21310SOL    HW265890   7.442   5.378   7.640
21311SOL     OW65891   0.137   4.646   8.060
21311SOL    HW165892   0.232   4.617   8.068
21311SOL    HW265893   0.129   4.711   7.985
21312SOL     OW65894   0.089   4.832   7.880
21312SOL    HW165895   0.175   4.834   7.828
21312SOL    HW265896   0.103   4.879   7.968
21313SOL     OW65897   8.061   5.089   8.174
21313SOL    HW165898   8.012   5.002   8.183
21313SOL    HW265899   8.038   5.132   8.087
21314SOL     OW65900   8.257   3.728   7.950
21314SOL    HW165901   8.297   3.819   7.941
21314SOL    HW265902   8.157   3.736   7.956
21315SOL     OW65903   7.645   4.700   8.712
21315SOL    HW165904   7.734   4.655   8.698
21315SOL    HW265905   7.572   4.635   8.693
21316SOL     OW65906   8.973   4.723   7.638
21316SOL    HW165907   8.910   4.647   7.651
21316SOL    HW265908   9.021   4.741   7.724
21317SOL     OW65909   8.914   5.141   8.401
21317SOL    HW165910   8.855   5.147   8.481
21317SOL    HW265911   8.899   5.053   8.355
21318SOL     OW65912   0.115   5.438   8.020
21318SOL    HW165913   0.074   5.415   7.932
21318SOL    HW265914   0.097   5.364   8.085
21319SOL     OW65915   8.046   4.453   7.718
21319SOL    HW165916   8.070   4.522   7.650
21319SOL    HW265917   7.968   4.486   7.772
21320SOL     OW65918   8.729   4.069   8.392
21320SOL    HW165919   8.643   4.019   8.379
21320SOL    HW265920   8.791   4.015   8.448
21321SOL     OW65921   0.024   5.386   7.755
21321SOL    HW165922   0.113   5.432   7.758
21321SOL    HW265923   0.003   5.362   7.660
21322SOL     OW65924   8.255   4.329   8.913
21322SOL    HW165925   8.208   4.326   9.002
21322SOL    HW265926   8.204   4.274   8.847
21323SOL     OW65927   8.439   4.134   8.690
21323SOL    HW165928   8.362   4.168   8.744
21323SOL    HW265929   8.405   4.083   8.611
21324SOL     OW65930   8.489   4.425   7.877
21324SOL    HW165931   8.515   4.421   7.973
21324SOL    HW265932   8.404   4.374   7.863
21325SOL     OW65933   7.524   4.535   8.237
21325SOL    HW165934   7.623   4.523   8.246
21325SOL    HW265935   7.500   4.630   8.258
21326SOL     OW65936   7.578   5.545   0.019
21326SOL    HW165937   7.568   5.530   0.118
21326SOL    HW265938   7.492   5.581  -0.017
21327SOL     OW65939   8.313   4.072   7.643
21327SOL    HW165940   8.372   4.135   7.594
21327SOL    HW265941   8.332   3.978   7.614
21328SOL     OW65942   8.810   4.868   7.993
21328SOL    HW165943   8.893   4.839   7.945
21328SOL    HW265944   8.761   4.935   7.937
21329SOL     OW65945   7.998   3.920   8.333
21329SOL    HW165946   7.993   3.915   8.433
21329SOL    HW265947   8.000   4.016   8.304
21330SOL     OW65948   8.456   5.180   7.925
21330SOL    HW165949   8.410   5.252   7.873
21330SOL    HW265950   8.452   5.200   8.023
21331SOL     OW65951   7.799   5.525   8.301
21331SOL    HW165952   7.849   5.439   8.307
21331SOL    HW265953   7.864   5.602   8.298
21332SOL     OW65954   0.243   4.790   8.321
21332SOL    HW165955   0.181   4.775   8.245
21332SOL    HW265956   0.191   4.801   8.406
21333SOL     OW65957   7.769   4.667   7.690
21333SOL    HW165958   7.851   4.706   7.648
21333SOL    HW265959   7.742   4.585   7.641
21334SOL     OW65960   8.906   4.459   8.176
21334SOL    HW165961   8.901   4.394   8.251
21334SOL    HW265962   8.986   4.518   8.189
21335SOL     OW65963   8.559   5.500   7.685
21335SOL    HW165964   8.499   5.438   7.735
21335SOL    HW265965   8.590   5.456   7.600
21336SOL     OW65966   7.650   4.009   8.946
21336SOL    HW165967   7.570   4.069   8.933
21336SOL    HW265968   7.640   3.960   9.032
21337SOL     OW65969   0.080   5.101   7.529
21337SOL    HW165970   0.048   5.195   7.519
21337SOL    HW265971   0.004   5.038   7.517
21338SOL     OW65972   7.912   5.467   7.771
21338SOL    HW165973   7.945   5.506   7.857
21338SOL    HW265974   7.988   5.460   7.706
21339SOL     OW65975   8.848   3.831   7.874
21339SOL    HW165976   8.824   3.794   7.784
21339SOL    HW265977   8.947   3.847   7.878
21340SOL     OW65978   7.697   5.509   8.689
21340SOL    HW165979   7.754   5.444   8.739
21340SOL    HW265980   7.681   5.476   8.596
21341SOL     OW65981   8.388   5.422   8.352
21341SOL    HW165982   8.468   5.365   8.373
21341SOL    HW265983   8.339   5.382   8.275
21342SOL     OW65984   7.830   4.424   7.928
21342SOL    HW165985   7.875   4.334   7.925
21342SOL    HW265986   7.736   4.413   7.961
21343SOL     OW65987   8.062   3.846   7.565
21343SOL    HW165988   8.160   3.824   7.572
21343SOL    HW265989   8.031   3.829   7.472
21344SOL     OW65990   8.336   5.238   8.643
21344SOL    HW165991   8.313   5.213   8.549
21344SOL    HW265992   8.397   5.169   8.682
21345SOL     OW65993   8.251   5.126   8.372
21345SOL    HW165994   8.341   5.140   8.330
21345SOL    HW265995   8.180   5.128   8.301
21346SOL     OW65996   8.370   4.227   8.347
21346SOL    HW165997   8.345   4.218   8.251
21346SOL    HW265998   8.418   4.145   8.378
21347SOL     OW65999   7.987   3.788   7.960
21347SOL    HW166000   7.906   3.789   8.018
21347SOL    HW266001   7.990   3.871   7.905
21348SOL     OW66002   8.882   4.912   7.489
21348SOL    HW166003   8.914   4.836   7.546
21348SOL    HW266004   8.790   4.939   7.519
21349SOL     OW66005   7.745   3.759   7.619
21349SOL    HW166006   7.794   3.843   7.598
21349SOL    HW266007   7.807   3.694   7.664
21350SOL     OW66008   8.383   3.960   7.928
21350SOL    HW166009   8.335   4.001   7.850
21350SOL    HW266010   8.482   3.958   7.909
21351SOL     OW66011   8.675   5.294   8.241
21351SOL    HW166012   8.696   5.368   8.176
21351SOL    HW266013   8.743   5.294   8.314
21352SOL     OW66014   7.907   4.876   8.189
21352SOL    HW166015   7.836   4.849   8.254
21352SOL    HW266016   7.881   4.848   8.096
21353SOL     OW66017   8.719   5.521   8.039
21353SOL    HW166018   8.763   5.585   7.975
21353SOL    HW266019   8.669   5.573   8.109
21354SOL     OW66020   8.480   4.273   7.464
21354SOL    HW166021   8.439   4.355   7.425
21354SOL    HW266022   8.544   4.299   7.537
21355SOL     OW66023   7.526   4.280   8.834
21355SOL    HW166024   7.618   4.279   8.793
21355SOL    HW266025   7.520   4.354   8.901
21356SOL     OW66026   8.009   3.946   8.595
21356SOL    HW166027   8.047   3.862   8.632
21356SOL    HW266028   7.921   3.965   8.639
21357SOL     OW66029   8.314   4.178   8.090
21357SOL    HW166030   8.282   4.250   8.028
21357SOL    HW266031   8.338   4.097   8.037
21358SOL     OW66032   8.465   3.763   8.201
21358SOL    HW166033   8.393   3.768   8.132
21358SOL    HW266034   8.441   3.694   8.270
21359SOL     OW66035   8.877   4.897   8.315
21359SOL    HW166036   8.822   4.813   8.308
21359SOL    HW266037   8.903   4.926   8.223
21360SOL     OW66038   8.914   4.314   8.440
21360SOL    HW166039   8.884   4.219   8.447
21360SOL    HW266040   8.987   4.330   8.506
21361SOL     OW66041   7.936   5.109   7.622
21361SOL    HW166042   7.849   5.094   7.669
21361SOL    HW266043   7.919   5.135   7.527
21362SOL     OW66044   0.112   5.004   8.105
21362SOL    HW166045   0.211   5.012   8.119
21362SOL    HW266046   0.067   5.088   8.136
21363SOL     OW66047   8.838   4.299   7.526
21363SOL    HW166048   8.784   4.278   7.607
21363SOL    HW266049   8.929   4.258   7.535
21364SOL     OW66050   7.975   3.980   7.776
21364SOL    HW166051   8.002   3.921   7.701
21364SOL    HW266052   7.975   4.075   7.745
21365SOL     OW66053   8.512   5.071   8.788
21365SOL    HW166054   8.432   5.048   8.843
21365SOL    HW266055   8.595   5.045   8.837
21366SOL     OW66056   8.559   4.919   8.548
21366SOL    HW166057   8.519   4.963   8.629
21366SOL    HW266058   8.518   4.956   8.465
21367SOL     OW66059   0.086   4.823   8.527
21367SOL    HW166060   0.091   4.904   8.586
21367SOL    HW266061   0.000   4.825   8.476
21368SOL     OW66062   8.363   3.813   8.850
21368SOL    HW166063   8.388   3.793   8.755
21368SOL    HW266064   8.435   3.869   8.892
21369SOL     OW66065   8.153   4.774   7.816
21369SOL    HW166066   8.139   4.781   7.915
21369SOL    HW266067   8.237   4.723   7.798
21370SOL     OW66068   7.858   4.537   8.699
21370SOL    HW166069   7.944   4.549   8.749
21370SOL    HW266070   7.816   4.450   8.726
21371SOL     OW66071   8.722   4.110   8.710
21371SOL    HW166072   8.743   4.184   8.774
21371SOL    HW266073   8.633   4.127   8.667
21372SOL     OW66074   7.512   5.288   8.779
21372SOL    HW166075   7.466   5.370   8.745
21372SOL    HW266076   7.610   5.307   8.788
21373SOL     OW66077   7.815   4.824   7.949
21373SOL    HW166078   7.808   4.907   7.893
21373SOL    HW266079   7.819   4.744   7.889
21374SOL     OW66080   8.014   4.261   8.313
21374SOL    HW166081   8.026   4.327   8.239
21374SOL    HW266082   8.060   4.295   8.396
21375SOL     OW66083   8.700   5.072   7.836
21375SOL    HW166084   8.750   5.149   7.876
21375SOL    HW266085   8.605   5.074   7.868
21376SOL     OW66086   8.720   5.169   8.590
21376SOL    HW166087   8.767   5.182   8.677
21376SOL    HW266088   8.654   5.095   8.599
21377SOL     OW66089   0.030   4.363   7.920
21377SOL    HW166090  -0.001   4.424   7.993
21377SOL    HW266091   0.080   4.415   7.851
21378SOL     OW66092   7.802   5.234   8.777
21378SOL    HW166093   7.781   5.190   8.690
21378SOL    HW266094   7.899   5.260   8.780
21379SOL     OW66095   7.850   4.475   0.046
21379SOL    HW166096   7.918   4.530  -0.001
21379SOL    HW266097   7.890   4.387   0.073
21380SOL     OW66098   0.035   4.503   0.118
21380SOL    HW166099  -0.057   4.541   0.113
21380SOL    HW266100   0.095   4.550   0.053
21381SOL     OW66101   8.021   4.594   8.477
21381SOL    HW166102   8.065   4.683   8.468
21381SOL    HW266103   7.958   4.594   8.554
21382SOL     OW66104   8.808   4.586   8.493
21382SOL    HW166105   8.733   4.586   8.427
21382SOL    HW266106   8.845   4.494   8.502
21383SOL     OW66107   8.657   4.249   7.723
21383SOL    HW166108   8.670   4.165   7.777
21383SOL    HW266109   8.628   4.323   7.783
21384SOL     OW66110   7.755   3.937   8.679
21384SOL    HW166111   7.732   3.974   8.769
21384SOL    HW266112   7.725   3.842   8.673
21385SOL     OW66113   7.485   5.034   8.730
21385SOL    HW166114   7.538   4.985   8.798
21385SOL    HW266115   7.507   5.132   8.735
21386SOL     OW66116   8.180   4.358   8.512
21386SOL    HW166117   8.239   4.332   8.436
21386SOL    HW266118   8.152   4.454   8.501
21387SOL     OW66119   7.755   3.787   8.066
21387SOL    HW166120   7.744   3.881   8.099
21387SOL    HW266121   7.750   3.724   8.143
21388SOL     OW66122   0.070   4.091   7.822
21388SOL    HW166123   0.072   4.015   7.886
21388SOL    HW266124   0.022   4.168   7.862
21389SOL     OW66125   8.471   4.490   8.414
21389SOL    HW166126   8.486   4.511   8.510
21389SOL    HW266127   8.441   4.395   8.405
21390SOL     OW66128   8.428   5.297   0.148
21390SOL    HW166129   8.408   5.341   0.060
21390SOL    HW266130   8.467   5.206   0.132
21391SOL     OW66131   8.988   3.998   7.573
21391SOL    HW166132   8.927   3.923   7.596
21391SOL    HW266133   9.010   4.050   7.656
21392SOL     OW66134   8.751   4.562   7.490
21392SOL    HW166135   8.785   4.469   7.505
21392SOL    HW266136   8.769   4.589   7.395
21393SOL     OW66137   8.516   5.057   8.297
21393SOL    HW166138   8.523   4.973   8.242
21393SOL    HW266139   8.578   5.126   8.261
21394SOL     OW66140   7.767   4.534   8.397
21394SOL    HW166141   7.860   4.570   8.402
21394SOL    HW266142   7.761   4.449   8.449
21395SOL     OW66143   7.787   4.233   8.454
21395SOL    HW166144   7.735   4.150   8.437
21395SOL    HW266145   7.864   4.238   8.390
21396SOL     OW66146   8.586   4.104   0.126
21396SOL    HW166147   8.541   4.167   0.190
21396SOL    HW266148   8.679   4.135   0.109
21397SOL     OW66149   8.608   3.931   8.925
21397SOL    HW166150   8.608   3.995   9.002
21397SOL    HW266151   8.636   3.979   8.842
21398SOL     OW66152   7.456   5.050   7.648
21398SOL    HW166153   7.363   5.071   7.617
21398SOL    HW266154   7.466   4.951   7.661
21399SOL     OW66155   7.536   5.525   8.375
21399SOL    HW166156   7.494   5.439   8.348
21399SOL    HW266157   7.630   5.528   8.341
21400SOL     OW66158   7.952   5.292   8.358
21400SOL    HW166159   8.018   5.366   8.367
21400SOL    HW266160   7.996   5.213   8.316
21401SOL     OW66161   8.450   4.520   8.686
21401SOL    HW166162   8.491   4.488   8.772
21401SOL    HW266163   8.354   4.493   8.683
21402SOL     OW66164   7.488   4.268   8.562
21402SOL    HW166165   7.573   4.235   8.521
21402SOL    HW266166   7.501   4.283   8.660
21403SOL     OW66167   8.263   4.296   7.773
21403SOL    HW166168   8.270   4.207   7.727
21403SOL    HW266169   8.169   4.330   7.765
21404SOL     OW66170   0.105   4.328   8.654
21404SOL    HW166171   0.067   4.259   8.716
21404SOL    HW266172   0.187   4.292   8.610
21405SOL     OW66173   8.119   4.188   8.717
21405SOL    HW166174   8.085   4.099   8.687
21405SOL    HW266175   8.145   4.242   8.637
21406SOL     OW66176   8.378   5.402   8.913
21406SOL    HW166177   8.354   5.384   8.818
21406SOL    HW266178   8.408   5.496   8.923
21407SOL     OW66179   7.921   4.224   7.639
21407SOL    HW166180   7.982   4.304   7.643
21407SOL    HW266181   7.826   4.255   7.646
21408SOL     OW66182   7.607   4.861   8.914
21408SOL    HW166183   7.629   4.800   8.990
21408SOL    HW266184   7.617   4.812   8.828
21409SOL     OW66185   8.795   4.783   8.682
21409SOL    HW166186   8.819   4.720   8.608
21409SOL    HW266187   8.705   4.823   8.664
21410SOL     OW66188   8.750   4.579   7.757
21410SOL    HW166189   8.664   4.548   7.799
21410SOL    HW266190   8.746   4.565   7.658
21411SOL     OW66191   8.700   5.455   8.576
21411SOL    HW166192   8.784   5.460   8.522
21411SOL    HW266193   8.677   5.359   8.594
21412SOL     OW66194   7.531   4.982   8.470
21412SOL    HW166195   7.526   4.981   8.570
21412SOL    HW266196   7.448   4.941   8.432
21413SOL     OW66197   8.351   3.810   7.581
21413SOL    HW166198   8.402   3.811   7.495
21413SOL    HW266199   8.407   3.768   7.652
21414SOL     OW66200   0.174   3.859   7.971
21414SOL    HW166201   0.247   3.842   7.904
21414SOL    HW266202   0.143   3.772   8.009
21415SOL     OW66203   8.836   5.297   7.925
21415SOL    HW166204   8.903   5.309   7.851
21415SOL    HW266205   8.796   5.386   7.948
21416SOL     OW66206   8.728   4.651   8.120
21416SOL    HW166207   8.788   4.570   8.122
21416SOL    HW266208   8.768   4.720   8.060
21417SOL     OW66209   8.120   5.340   7.602
21417SOL    HW166210   8.129   5.350   7.503
21417SOL    HW266211   8.080   5.251   7.623
21418SOL     OW66212   0.098   5.444   8.842
21418SOL    HW166213   0.151   5.454   8.758
21418SOL    HW266214   0.071   5.534   8.876
21419SOL     OW66215   7.711   4.050   8.168
21419SOL    HW166216   7.632   4.101   8.134
21419SOL    HW266217   7.702   4.035   8.266
21420SOL     OW66218   8.642   5.336   7.479
21420SOL    HW166219   8.648   5.243   7.516
21420SOL    HW266220   8.583   5.336   7.399
21421SOL     OW66221   8.270   4.726   8.820
21421SOL    HW166222   8.310   4.725   8.728
21421SOL    HW266223   8.280   4.818   8.860
21422SOL     OW66224   8.364   4.634   7.739
21422SOL    HW166225   8.427   4.672   7.671
21422SOL    HW266226   8.404   4.551   7.778
21423SOL     OW66227   8.952   5.331   7.492
21423SOL    HW166228   8.860   5.368   7.499
21423SOL    HW266229   8.990   5.351   7.402
21424SOL     OW66230   7.820   5.012   8.938
21424SOL    HW166231   7.807   5.105   8.904
21424SOL    HW266232   7.736   4.960   8.925
21425SOL     OW66233   0.062   5.016   8.737
21425SOL    HW166234   0.122   5.019   8.817
21425SOL    HW266235  -0.013   5.080   8.750
21426SOL     OW66236   8.487   4.822   8.144
21426SOL    HW166237   8.417   4.775   8.198
21426SOL    HW266238   8.546   4.754   8.101
21427SOL     OW66239   8.462   3.960   8.419
21427SOL    HW166240   8.454   3.924   8.326
21427SOL    HW266241   8.460   3.884   8.484
21428SOL     OW66242   8.038   5.211   7.939
21428SOL    HW166243   8.080   5.153   7.869
21428SOL    HW266244   7.994   5.290   7.895
21429SOL     OW66245   0.157   4.109   8.829
21429SOL    HW166246   0.230   4.178   8.833
21429SOL    HW266247   0.185   4.034   8.770
21430SOL     OW66248   7.703   5.072   7.738
21430SOL    HW166249   7.607   5.073   7.711
21430SOL    HW266250   7.715   5.125   7.822
21431SOL     OW66251   7.523   4.069   7.481
21431SOL    HW166252   7.431   4.041   7.452
21431SOL    HW266253   7.554   4.146   7.425
21432SOL     OW66254   8.888   4.580   8.846
21432SOL    HW166255   8.831   4.632   8.783
21432SOL    HW266256   8.984   4.592   8.822
21433SOL     OW66257   7.520   3.890   7.766
21433SOL    HW166258   7.503   3.973   7.712
21433SOL    HW266259   7.610   3.853   7.744
21434SOL     OW66260   8.631   5.059   7.567
21434SOL    HW166261   8.532   5.048   7.569
21434SOL    HW266262   8.665   5.074   7.660
21435SOL     OW66263   8.061   4.566   8.879
21435SOL    HW166264   8.117   4.647   8.862
21435SOL    HW266265   8.120   4.486   8.882
21436SOL     OW66266   8.941   5.491   8.407
21436SOL    HW166267   8.974   5.555   8.338
21436SOL    HW266268   9.007   5.485   8.482
21437SOL     OW66269   7.838   5.465   0.008
21437SOL    HW166270   7.747   5.506   0.006
21437SOL    HW266271   7.831   5.371   0.040
21438SOL     OW66272   0.122   4.607   8.702
21438SOL    HW166273   0.095   4.518   8.665
21438SOL    HW266274   0.123   4.675   8.629
21439SOL     OW66275   8.673   4.049   7.897
21439SOL    HW166276   8.738   3.975   7.886
21439SOL    HW266277   8.693   4.099   7.981
21440SOL     OW66278   8.042   4.469   8.100
21440SOL    HW166279   8.092   4.554   8.081
21440SOL    HW266280   7.954   4.471   8.052
21441SOL     OW66281   0.225   4.066   0.090
21441SOL    HW166282   0.208   4.097  -0.004
21441SOL    HW266283   0.141   4.029   0.128
21442SOL     OW66284   0.178   4.658   8.965
21442SOL    HW166285   0.216   4.749   8.980
21442SOL    HW266286   0.170   4.641   8.866
21443SOL     OW66287   8.307   5.098   7.464
21443SOL    HW166288   8.261   5.113   7.552
21443SOL    HW266289   8.351   5.183   7.434
21444SOL     OW66290   8.109   5.514   8.401
21444SOL    HW166291   8.063   5.602   8.388
21444SOL    HW266292   8.208   5.526   8.394
21445SOL     OW66293   8.856   5.575   0.168
21445SOL    HW166294   8.760   5.564   0.141
21445SOL    HW266295   8.912   5.508   0.120
21446SOL     OW66296   8.307   4.680   8.309
21446SOL    HW166297   8.361   4.611   8.357
21446SOL    HW266298   8.275   4.749   8.375
21447SOL     OW66299   8.531   4.708   7.535
21447SOL    HW166300   8.508   4.761   7.453
21447SOL    HW266301   8.612   4.652   7.516
21448SOL     OW66302   7.527   4.964   8.101
21448SOL    HW166303   7.526   4.917   8.189
21448SOL    HW266304   7.609   4.936   8.050
21449SOL     OW66305   7.876   4.148   7.968
21449SOL    HW166306   7.906   4.076   7.906
21449SOL    HW266307   7.837   4.108   8.051
21450SOL     OW66308   0.153   5.211   8.552
21450SOL    HW166309   0.060   5.186   8.525
21450SOL    HW266310   0.179   5.161   8.634
21451SOL     OW66311   7.765   4.271   8.728
21451SOL    HW166312   7.803   4.212   8.800
21451SOL    HW266313   7.805   4.245   8.640
21452SOL     OW66314   8.260   5.310   8.135
21452SOL    HW166315   8.292   5.320   8.041
21452SOL    HW266316   8.181   5.248   8.137
21453SOL     OW66317   8.872   3.938   8.560
21453SOL    HW166318   8.924   3.873   8.615
21453SOL    HW266319   8.823   4.001   8.621
21454SOL     OW66320   8.449   3.758   8.602
21454SOL    HW166321   8.386   3.686   8.571
21454SOL    HW266322   8.542   3.722   8.602
21455SOL     OW66323   8.218   5.054   7.749
21455SOL    HW166324   8.172   4.967   7.766
21455SOL    HW266325   8.309   5.051   7.790
21456SOL     OW66326   8.066   5.291   8.732
21456SOL    HW166327   8.061   5.373   8.789
21456SOL    HW266328   8.155   5.288   8.687
21457SOL     OW66329   8.800   3.776   7.616
21457SOL    HW166330   8.835   3.735   7.532
21457SOL    HW266331   8.710   3.738   7.636
21458SOL     OW66332   8.748   4.177   8.139
21458SOL    HW166333   8.689   4.257   8.143
21458SOL    HW266334   8.763   4.142   8.232
21459SOL     OW66335   0.041   3.945   8.330
21459SOL    HW166336  -0.043   3.944   8.384
21459SOL    HW266337   0.043   4.028   8.274
21460SOL     OW66338   7.487   4.801   7.748
21460SOL    HW166339   7.586   4.790   7.739
21460SOL    HW266340   7.447   4.715   7.780
21461SOL     OW66341   8.323   5.370   7.785
21461SOL    HW166342   8.246   5.335   7.731
21461SOL    HW266343   8.291   5.441   7.847
21462SOL     OW66344   7.678   6.214   0.113
21462SOL    HW166345   7.585   6.212   0.150
21462SOL    HW266346   7.679   6.175   0.021
21463SOL     OW66347   7.673   5.861   0.996
21463SOL    HW166348   7.708   5.844   1.088
21463SOL    HW266349   7.585   5.816   0.984
21464SOL     OW66350   7.467   5.954   0.647
21464SOL    HW166351   7.385   5.997   0.686
21464SOL    HW266352   7.439   5.881   0.584
21465SOL     OW66353   8.017   6.861   1.165
21465SOL    HW166354   7.924   6.854   1.128
21465SOL    HW266355   8.028   6.950   1.209
21466SOL     OW66356   0.003   7.097   0.703
21466SOL    HW166357  -0.054   7.081   0.784
21466SOL    HW266358  -0.056   7.107   0.623
21467SOL     OW66359   0.191   6.204   0.856
21467SOL    HW166360   0.224   6.298   0.856
21467SOL    HW266361   0.242   6.150   0.922
21468SOL     OW66362   8.583   6.289   0.717
21468SOL    HW166363   8.640   6.367   0.692
21468SOL    HW266364   8.523   6.315   0.793
21469SOL     OW66365   0.203   6.193   0.231
21469SOL    HW166366   0.191   6.180   0.132
21469SOL    HW266367   0.173   6.112   0.280
21470SOL     OW66368   8.216   6.730   1.023
21470SOL    HW166369   8.138   6.747   1.083
21470SOL    HW266370   8.250   6.817   0.987
21471SOL     OW66371   8.298   6.384   1.823
21471SOL    HW166372   8.294   6.460   1.888
21471SOL    HW266373   8.320   6.420   1.732
21472SOL     OW66374   8.133   6.598   0.665
21472SOL    HW166375   8.202   6.582   0.735
21472SOL    HW266376   8.060   6.655   0.703
21473SOL     OW66377   8.134   6.747   1.803
21473SOL    HW166378   8.194   6.826   1.817
21473SOL    HW266379   8.048   6.778   1.762
21474SOL     OW66380   7.783   7.021   1.061
21474SOL    HW166381   7.705   6.990   1.008
21474SOL    HW266382   7.841   7.079   1.004
21475SOL     OW66383   8.908   7.091   1.339
21475SOL    HW166384   8.932   7.185   1.365
21475SOL    HW266385   8.892   7.037   1.421
21476SOL     OW66386   7.886   5.978   1.499
21476SOL    HW166387   7.968   5.922   1.508
21476SOL    HW266388   7.805   5.920   1.503
21477SOL     OW66389   7.679   7.299   0.483
21477SOL    HW166390   7.713   7.376   0.537
21477SOL    HW266391   7.723   7.299   0.393
21478SOL     OW66392   8.575   6.927   1.690
21478SOL    HW166393   8.622   6.927   1.778
21478SOL    HW266394   8.527   6.840   1.679
21479SOL     OW66395   7.678   7.020   0.538
21479SOL    HW166396   7.652   7.116   0.538
21479SOL    HW266397   7.607   6.966   0.583
21480SOL     OW66398   7.688   6.677   0.886
21480SOL    HW166399   7.702   6.593   0.938
21480SOL    HW266400   7.633   6.741   0.941
21481SOL     OW66401   8.068   7.372   1.439
21481SOL    HW166402   7.976   7.355   1.474
21481SOL    HW266403   8.096   7.464   1.465
21482SOL     OW66404   8.054   6.550   0.123
21482SOL    HW166405   8.061   6.634   0.069
21482SOL    HW266406   8.100   6.563   0.211
21483SOL     OW66407   0.042   5.700   1.480
21483SOL    HW166408   0.024   5.767   1.408
21483SOL    HW266409   0.039   5.746   1.569
21484SOL     OW66410   7.570   6.229   0.563
21484SOL    HW166411   7.525   6.141   0.580
21484SOL    HW266412   7.569   6.283   0.647
21485SOL     OW66413   0.137   6.508   0.612
21485SOL    HW166414   0.232   6.479   0.620
21485SOL    HW266415   0.129   6.573   0.537
21486SOL     OW66416   0.089   6.694   0.432
21486SOL    HW166417   0.175   6.696   0.380
21486SOL    HW266418   0.103   6.741   0.520
21487SOL     OW66419   7.561   6.323   1.597
21487SOL    HW166420   7.649   6.310   1.642
21487SOL    HW266421   7.548   6.420   1.575
21488SOL     OW66422   8.061   6.951   0.726
21488SOL    HW166423   8.012   6.864   0.735
21488SOL    HW266424   8.038   6.994   0.639
21489SOL     OW66425   8.741   6.814   1.423
21489SOL    HW166426   8.778   6.741   1.365
21489SOL    HW266427   8.793   6.819   1.508
21490SOL     OW66428   8.257   5.590   0.502
21490SOL    HW166429   8.297   5.681   0.493
21490SOL    HW266430   8.157   5.598   0.508
21491SOL     OW66431   7.645   6.562   1.264
21491SOL    HW166432   7.734   6.517   1.250
21491SOL    HW266433   7.572   6.497   1.245
21492SOL     OW66434   8.973   6.585   0.190
21492SOL    HW166435   8.910   6.509   0.203
21492SOL    HW266436   9.021   6.603   0.276
21493SOL     OW66437   8.635   7.378   1.616
21493SOL    HW166438   8.659   7.438   1.540
21493SOL    HW266439   8.642   7.283   1.586
21494SOL     OW66440   7.765   5.837   1.801
21494SOL    HW166441   7.836   5.908   1.807
21494SOL    HW266442   7.677   5.876   1.829
21495SOL     OW66443   8.914   7.003   0.953
21495SOL    HW166444   8.855   7.009   1.033
21495SOL    HW266445   8.899   6.915   0.907
21496SOL     OW66446   0.115   7.300   0.572
21496SOL    HW166447   0.074   7.277   0.484
21496SOL    HW266448   0.097   7.226   0.637
21497SOL     OW66449   8.046   6.315   0.270
21497SOL    HW166450   8.070   6.384   0.202
21497SOL    HW266451   7.968   6.348   0.324
21498SOL     OW66452   8.729   5.931   0.944
21498SOL    HW166453   8.643   5.881   0.931
21498SOL    HW266454   8.791   5.877   1.000
21499SOL     OW66455   0.024   7.248   0.307
21499SOL    HW166456   0.113   7.294   0.310
21499SOL    HW266457   0.003   7.224   0.212
21500SOL     OW66458   8.255   6.191   1.465
21500SOL    HW166459   8.208   6.188   1.554
21500SOL    HW266460   8.204   6.136   1.399
21501SOL     OW66461   8.842   6.055   1.674
21501SOL    HW166462   8.822   6.098   1.762
21501SOL    HW266463   8.920   5.993   1.683
21502SOL     OW66464   8.421   6.476   1.572
21502SOL    HW166465   8.467   6.392   1.543
21502SOL    HW266466   8.365   6.510   1.497
21503SOL     OW66467   8.439   5.996   1.242
21503SOL    HW166468   8.362   6.030   1.296
21503SOL    HW266469   8.405   5.945   1.163
21504SOL     OW66470   8.489   6.287   0.429
21504SOL    HW166471   8.515   6.283   0.525
21504SOL    HW266472   8.404   6.236   0.415
21505SOL     OW66473   7.524   6.397   0.789
21505SOL    HW166474   7.623   6.385   0.798
21505SOL    HW266475   7.500   6.492   0.810
21506SOL     OW66476   7.578   7.407   1.571
21506SOL    HW166477   7.568   7.392   1.670
21506SOL    HW266478   7.492   7.443   1.535
21507SOL     OW66479   8.313   5.934   0.195
21507SOL    HW166480   8.372   5.997   0.146
21507SOL    HW266481   8.332   5.840   0.166
21508SOL     OW66482   0.167   6.171   1.831
21508SOL    HW166483   0.141   6.260   1.795
21508SOL    HW266484   0.165   6.103   1.758
21509SOL     OW66485   8.810   6.730   0.545
21509SOL    HW166486   8.893   6.701   0.497
21509SOL    HW266487   8.761   6.797   0.489
21510SOL     OW66488   7.998   5.782   0.885
21510SOL    HW166489   7.993   5.777   0.985
21510SOL    HW266490   8.000   5.878   0.856
21511SOL     OW66491   8.456   7.042   0.477
21511SOL    HW166492   8.410   7.114   0.425
21511SOL    HW266493   8.452   7.062   0.575
21512SOL     OW66494   7.799   7.387   0.853
21512SOL    HW166495   7.849   7.301   0.859
21512SOL    HW266496   7.864   7.464   0.850
21513SOL     OW66497   0.243   6.652   0.873
21513SOL    HW166498   0.181   6.637   0.797
21513SOL    HW266499   0.191   6.663   0.958
21514SOL     OW66500   8.675   7.136   1.506
21514SOL    HW166501   8.681   7.059   1.570
21514SOL    HW266502   8.623   7.110   1.426
21515SOL     OW66503   7.769   6.529   0.242
21515SOL    HW166504   7.851   6.568   0.200
21515SOL    HW266505   7.742   6.447   0.193
21516SOL     OW66506   8.906   6.321   0.728
21516SOL    HW166507   8.901   6.256   0.803
21516SOL    HW266508   8.986   6.380   0.741
21517SOL     OW66509   7.909   6.852   1.727
21517SOL    HW166510   7.859   6.853   1.641
21517SOL    HW266511   7.846   6.834   1.803
21518SOL     OW66512   8.559   7.362   0.237
21518SOL    HW166513   8.499   7.300   0.287
21518SOL    HW266514   8.590   7.318   0.152
21519SOL     OW66515   7.650   5.871   1.498
21519SOL    HW166516   7.570   5.931   1.485
21519SOL    HW266517   7.640   5.822   1.584
21520SOL     OW66518   0.080   6.963   0.081
21520SOL    HW166519   0.048   7.057   0.071
21520SOL    HW266520   0.004   6.900   0.069
21521SOL     OW66521   7.912   7.329   0.323
21521SOL    HW166522   7.945   7.368   0.409
21521SOL    HW266523   7.988   7.322   0.258
21522SOL     OW66524   8.848   5.693   0.426
21522SOL    HW166525   8.824   5.656   0.336
21522SOL    HW266526   8.947   5.709   0.430
21523SOL     OW66527   7.697   7.371   1.241
21523SOL    HW166528   7.754   7.306   1.291
21523SOL    HW266529   7.681   7.338   1.148
21524SOL     OW66530   8.388   7.284   0.904
21524SOL    HW166531   8.468   7.227   0.925
21524SOL    HW266532   8.339   7.244   0.827
21525SOL     OW66533   7.830   6.286   0.480
21525SOL    HW166534   7.875   6.196   0.477
21525SOL    HW266535   7.736   6.275   0.513
21526SOL     OW66536   8.995   5.808   1.729
21526SOL    HW166537   8.990   5.845   1.821
21526SOL    HW266538   8.923   5.739   1.717
21527SOL     OW66539   8.062   5.708   0.117
21527SOL    HW166540   8.160   5.686   0.124
21527SOL    HW266541   8.031   5.691   0.024
21528SOL     OW66542   8.229   5.850   1.749
21528SOL    HW166543   8.296   5.789   1.792
21528SOL    HW266544   8.156   5.869   1.814
21529SOL     OW66545   8.336   7.100   1.195
21529SOL    HW166546   8.313   7.075   1.101
21529SOL    HW266547   8.397   7.031   1.234
21530SOL     OW66548   8.799   6.176   1.433
21530SOL    HW166549   8.827   6.133   1.518
21530SOL    HW266550   8.824   6.272   1.434
21531SOL     OW66551   8.251   6.988   0.924
21531SOL    HW166552   8.341   7.002   0.882
21531SOL    HW266553   8.180   6.990   0.853
21532SOL     OW66554   8.370   6.089   0.899
21532SOL    HW166555   8.345   6.080   0.803
21532SOL    HW266556   8.418   6.007   0.930
21533SOL     OW66557   7.987   5.650   0.512
21533SOL    HW166558   7.906   5.651   0.570
21533SOL    HW266559   7.990   5.733   0.457
21534SOL     OW66560   8.882   6.774   0.041
21534SOL    HW166561   8.914   6.698   0.098
21534SOL    HW266562   8.790   6.801   0.071
21535SOL     OW66563   7.745   5.621   0.171
21535SOL    HW166564   7.794   5.705   0.150
21535SOL    HW266565   7.807   5.556   0.216
21536SOL     OW66566   8.383   5.822   0.480
21536SOL    HW166567   8.335   5.863   0.402
21536SOL    HW266568   8.482   5.820   0.461
21537SOL     OW66569   8.524   6.269   1.464
21537SOL    HW166570   8.444   6.208   1.467
21537SOL    HW266571   8.605   6.216   1.440
21538SOL     OW66572   8.675   7.156   0.793
21538SOL    HW166573   8.696   7.230   0.728
21538SOL    HW266574   8.743   7.156   0.866
21539SOL     OW66575   7.907   6.738   0.741
21539SOL    HW166576   7.836   6.711   0.806
21539SOL    HW266577   7.881   6.710   0.648
21540SOL     OW66578   8.719   7.383   0.591
21540SOL    HW166579   8.763   7.447   0.527
21540SOL    HW266580   8.669   7.435   0.661
21541SOL     OW66581   8.480   6.135   0.016
21541SOL    HW166582   8.439   6.217  -0.023
21541SOL    HW266583   8.544   6.161   0.089
21542SOL     OW66584   7.526   6.142   1.386
21542SOL    HW166585   7.618   6.141   1.345
21542SOL    HW266586   7.520   6.216   1.453
21543SOL     OW66587   8.009   5.808   1.147
21543SOL    HW166588   8.047   5.724   1.184
21543SOL    HW266589   7.921   5.827   1.191
21544SOL     OW66590   8.314   6.040   0.642
21544SOL    HW166591   8.282   6.112   0.580
21544SOL    HW266592   8.338   5.959   0.589
21545SOL     OW66593   8.465   5.625   0.753
21545SOL    HW166594   8.393   5.630   0.684
21545SOL    HW266595   8.441   5.556   0.822
21546SOL     OW66596   8.877   6.759   0.867
21546SOL    HW166597   8.822   6.675   0.860
21546SOL    HW266598   8.903   6.788   0.775
21547SOL     OW66599   8.914   6.176   0.992
21547SOL    HW166600   8.884   6.081   0.999
21547SOL    HW266601   8.987   6.192   1.058
21548SOL     OW66602   7.936   6.971   0.174
21548SOL    HW166603   7.849   6.956   0.221
21548SOL    HW266604   7.919   6.997   0.079
21549SOL     OW66605   0.112   6.866   0.657
21549SOL    HW166606   0.211   6.874   0.671
21549SOL    HW266607   0.067   6.950   0.688
21550SOL     OW66608   8.838   6.161   0.078
21550SOL    HW166609   8.784   6.140   0.159
21550SOL    HW266610   8.929   6.120   0.087
21551SOL     OW66611   7.975   5.842   0.328
21551SOL    HW166612   8.002   5.783   0.253
21551SOL    HW266613   7.975   5.937   0.297
21552SOL     OW66614   8.512   6.933   1.340
21552SOL    HW166615   8.432   6.910   1.395
21552SOL    HW266616   8.595   6.907   1.389
21553SOL     OW66617   0.040   7.215   1.625
21553SOL    HW166618   0.067   7.249   1.535
21553SOL    HW266619   0.119   7.177   1.671
21554SOL     OW66620   8.559   6.781   1.100
21554SOL    HW166621   8.519   6.825   1.181
21554SOL    HW266622   8.518   6.818   1.017
21555SOL     OW66623   0.086   6.685   1.079
21555SOL    HW166624   0.091   6.766   1.138
21555SOL    HW266625   0.000   6.687   1.028
21556SOL     OW66626   8.363   5.675   1.402
21556SOL    HW166627   8.388   5.655   1.307
21556SOL    HW266628   8.435   5.731   1.444
21557SOL     OW66629   8.428   6.702   1.719
21557SOL    HW166630   8.329   6.708   1.729
21557SOL    HW266631   8.451   6.622   1.663
21558SOL     OW66632   8.153   6.636   0.368
21558SOL    HW166633   8.139   6.643   0.467
21558SOL    HW266634   8.237   6.585   0.350
21559SOL     OW66635   7.858   6.399   1.251
21559SOL    HW166636   7.944   6.411   1.301
21559SOL    HW266637   7.816   6.312   1.278
21560SOL     OW66638   8.722   5.972   1.262
21560SOL    HW166639   8.743   6.046   1.326
21560SOL    HW266640   8.633   5.989   1.219
21561SOL     OW66641   7.512   7.150   1.331
21561SOL    HW166642   7.466   7.232   1.297
21561SOL    HW266643   7.610   7.169   1.340
21562SOL     OW66644   7.815   6.686   0.501
21562SOL    HW166645   7.808   6.769   0.445
21562SOL    HW266646   7.819   6.606   0.441
21563SOL     OW66647   8.014   6.123   0.865
21563SOL    HW166648   8.026   6.189   0.791
21563SOL    HW266649   8.060   6.157   0.948
21564SOL     OW66650   8.700   6.934   0.388
21564SOL    HW166651   8.750   7.011   0.428
21564SOL    HW266652   8.605   6.936   0.420
21565SOL     OW66653   8.720   7.031   1.142
21565SOL    HW166654   8.767   7.044   1.229
21565SOL    HW266655   8.654   6.957   1.151
21566SOL     OW66656   0.030   6.225   0.472
21566SOL    HW166657  -0.001   6.286   0.545
21566SOL    HW266658   0.080   6.277   0.403
21567SOL     OW66659   7.802   7.096   1.329
21567SOL    HW166660   7.781   7.052   1.242
21567SOL    HW266661   7.899   7.122   1.332
21568SOL     OW66662   7.850   6.337   1.598
21568SOL    HW166663   7.918   6.392   1.551
21568SOL    HW266664   7.890   6.249   1.625
21569SOL     OW66665   0.035   6.365   1.670
21569SOL    HW166666  -0.057   6.403   1.665
21569SOL    HW266667   0.095   6.412   1.605
21570SOL     OW66668   8.461   5.691   1.770
21570SOL    HW166669   8.467   5.776   1.718
21570SOL    HW266670   8.493   5.615   1.713
21571SOL     OW66671   7.952   5.636   1.740
21571SOL    HW166672   7.910   5.579   1.670
21571SOL    HW266673   7.886   5.705   1.772
21572SOL     OW66674   8.021   6.456   1.029
21572SOL    HW166675   8.065   6.545   1.020
21572SOL    HW266676   7.958   6.456   1.106
21573SOL     OW66677   8.808   6.448   1.045
21573SOL    HW166678   8.733   6.448   0.979
21573SOL    HW266679   8.845   6.356   1.054
21574SOL     OW66680   8.657   6.111   0.275
21574SOL    HW166681   8.670   6.027   0.329
21574SOL    HW266682   8.628   6.185   0.335
21575SOL     OW66683   7.755   5.799   1.231
21575SOL    HW166684   7.732   5.836   1.321
21575SOL    HW266685   7.725   5.704   1.225
21576SOL     OW66686   7.485   6.896   1.282
21576SOL    HW166687   7.538   6.847   1.350
21576SOL    HW266688   7.507   6.994   1.287
21577SOL     OW66689   8.180   6.220   1.064
21577SOL    HW166690   8.239   6.194   0.988
21577SOL    HW266691   8.152   6.316   1.053
21578SOL     OW66692   0.176   6.521   1.854
21578SOL    HW166693   0.130   6.514   1.765
21578SOL    HW266694   0.114   6.565   1.920
21579SOL     OW66695   7.755   5.649   0.618
21579SOL    HW166696   7.744   5.743   0.651
21579SOL    HW266697   7.750   5.586   0.695
21580SOL     OW66698   0.070   5.953   0.374
21580SOL    HW166699   0.072   5.877   0.438
21580SOL    HW266700   0.022   6.030   0.414
21581SOL     OW66701   8.471   6.352   0.966
21581SOL    HW166702   8.486   6.373   1.062
21581SOL    HW266703   8.441   6.257   0.957
21582SOL     OW66704   8.428   7.159   1.700
21582SOL    HW166705   8.408   7.203   1.612
21582SOL    HW266706   8.467   7.068   1.684
21583SOL     OW66707   7.798   6.484   1.804
21583SOL    HW166708   7.874   6.528   1.852
21583SOL    HW266709   7.833   6.437   1.722
21584SOL     OW66710   8.988   5.860   0.125
21584SOL    HW166711   8.927   5.785   0.148
21584SOL    HW266712   9.010   5.912   0.208
21585SOL     OW66713   8.751   6.424   0.042
21585SOL    HW166714   8.785   6.331   0.057
21585SOL    HW266715   8.769   6.451  -0.053
21586SOL     OW66716   8.516   6.919   0.849
21586SOL    HW166717   8.523   6.835   0.794
21586SOL    HW266718   8.578   6.988   0.813
21587SOL     OW66719   7.767   6.396   0.949
21587SOL    HW166720   7.860   6.432   0.954
21587SOL    HW266721   7.761   6.311   1.001
21588SOL     OW66722   7.787   6.095   1.006
21588SOL    HW166723   7.735   6.012   0.989
21588SOL    HW266724   7.864   6.100   0.942
21589SOL     OW66725   7.959   6.001   1.808
21589SOL    HW166726   7.941   6.046   1.896
21589SOL    HW266727   8.001   6.066   1.745
21590SOL     OW66728   8.586   5.966   1.678
21590SOL    HW166729   8.541   6.029   1.742
21590SOL    HW266730   8.679   5.997   1.661
21591SOL     OW66731   8.608   5.793   1.477
21591SOL    HW166732   8.608   5.857   1.554
21591SOL    HW266733   8.636   5.841   1.394
21592SOL     OW66734   7.456   6.912   0.200
21592SOL    HW166735   7.363   6.933   0.169
21592SOL    HW266736   7.466   6.813   0.213
21593SOL     OW66737   7.536   7.387   0.927
21593SOL    HW166738   7.494   7.301   0.900
21593SOL    HW266739   7.630   7.390   0.893
21594SOL     OW66740   7.952   7.154   0.910
21594SOL    HW166741   8.018   7.228   0.919
21594SOL    HW266742   7.996   7.075   0.868
21595SOL     OW66743   8.450   6.382   1.238
21595SOL    HW166744   8.491   6.350   1.324
21595SOL    HW266745   8.354   6.355   1.235
21596SOL     OW66746   7.488   6.130   1.114
21596SOL    HW166747   7.573   6.097   1.073
21596SOL    HW266748   7.501   6.145   1.212
21597SOL     OW66749   7.637   6.106   1.722
21597SOL    HW166750   7.696   6.066   1.652
21597SOL    HW266751   7.579   6.177   1.681
21598SOL     OW66752   8.817   6.536   1.660
21598SOL    HW166753   8.856   6.625   1.680
21598SOL    HW266754   8.827   6.516   1.563
21599SOL     OW66755   8.263   6.158   0.325
21599SOL    HW166756   8.270   6.069   0.279
21599SOL    HW266757   8.169   6.192   0.317
21600SOL     OW66758   0.105   6.190   1.206
21600SOL    HW166759   0.067   6.121   1.268
21600SOL    HW266760   0.187   6.154   1.162
21601SOL     OW66761   7.700   7.150   1.744
21601SOL    HW166762   7.670   7.207   1.820
21601SOL    HW266763   7.693   7.053   1.770
21602SOL     OW66764   8.119   6.050   1.269
21602SOL    HW166765   8.085   5.961   1.239
21602SOL    HW266766   8.145   6.104   1.189
21603SOL     OW66767   8.378   7.264   1.465
21603SOL    HW166768   8.354   7.246   1.370
21603SOL    HW266769   8.408   7.358   1.475
21604SOL     OW66770   7.921   6.086   0.191
21604SOL    HW166771   7.982   6.166   0.195
21604SOL    HW266772   7.826   6.117   0.198
21605SOL     OW66773   7.607   6.723   1.466
21605SOL    HW166774   7.629   6.662   1.542
21605SOL    HW266775   7.617   6.674   1.380
21606SOL     OW66776   8.795   6.645   1.234
21606SOL    HW166777   8.819   6.582   1.160
21606SOL    HW266778   8.705   6.685   1.216
21607SOL     OW66779   8.750   6.441   0.309
21607SOL    HW166780   8.664   6.410   0.351
21607SOL    HW266781   8.746   6.427   0.210
21608SOL     OW66782   8.700   7.317   1.128
21608SOL    HW166783   8.784   7.322   1.074
21608SOL    HW266784   8.677   7.221   1.146
21609SOL     OW66785   7.531   6.844   1.022
21609SOL    HW166786   7.526   6.843   1.122
21609SOL    HW266787   7.448   6.803   0.984
21610SOL     OW66788   8.136   7.248   1.716
21610SOL    HW166789   8.080   7.329   1.725
21610SOL    HW266790   8.188   7.252   1.630
21611SOL     OW66791   8.351   5.672   0.133
21611SOL    HW166792   8.402   5.673   0.047
21611SOL    HW266793   8.407   5.630   0.204
21612SOL     OW66794   0.174   5.721   0.523
21612SOL    HW166795   0.247   5.704   0.456
21612SOL    HW266796   0.143   5.634   0.561
21613SOL     OW66797   8.836   7.159   0.477
21613SOL    HW166798   8.903   7.171   0.403
21613SOL    HW266799   8.796   7.248   0.500
21614SOL     OW66800   7.578   7.380   1.851
21614SOL    HW166801   7.537   7.306   1.904
21614SOL    HW266802   7.642   7.431   1.909
21615SOL     OW66803   8.728   6.513   0.672
21615SOL    HW166804   8.788   6.432   0.674
21615SOL    HW266805   8.768   6.582   0.612
21616SOL     OW66806   8.278   6.859   1.422
21616SOL    HW166807   8.273   6.892   1.517
21616SOL    HW266808   8.192   6.878   1.376
21617SOL     OW66809   8.120   7.202   0.154
21617SOL    HW166810   8.129   7.212   0.055
21617SOL    HW266811   8.080   7.113   0.175
21618SOL     OW66812   0.098   7.306   1.394
21618SOL    HW166813   0.151   7.316   1.310
21618SOL    HW266814   0.071   7.396   1.428
21619SOL     OW66815   7.711   5.912   0.720
21619SOL    HW166816   7.632   5.963   0.686
21619SOL    HW266817   7.702   5.897   0.818
21620SOL     OW66818   8.642   7.198   0.031
21620SOL    HW166819   8.648   7.105   0.068
21620SOL    HW266820   8.583   7.198  -0.049
21621SOL     OW66821   8.270   6.588   1.372
21621SOL    HW166822   8.310   6.587   1.280
21621SOL    HW266823   8.280   6.680   1.412
21622SOL     OW66824   8.364   6.496   0.291
21622SOL    HW166825   8.427   6.534   0.223
21622SOL    HW266826   8.404   6.413   0.330
21623SOL     OW66827   8.952   7.193   0.044
21623SOL    HW166828   8.860   7.230   0.051
21623SOL    HW266829   8.990   7.213  -0.046
21624SOL     OW66830   7.820   6.874   1.490
21624SOL    HW166831   7.807   6.967   1.456
21624SOL    HW266832   7.736   6.822   1.477
21625SOL     OW66833   0.062   6.878   1.289
21625SOL    HW166834   0.122   6.881   1.369
21625SOL    HW266835  -0.013   6.942   1.302
21626SOL     OW66836   8.487   6.684   0.696
21626SOL    HW166837   8.417   6.637   0.750
21626SOL    HW266838   8.546   6.616   0.653
21627SOL     OW66839   8.462   5.822   0.971
21627SOL    HW166840   8.454   5.786   0.878
21627SOL    HW266841   8.460   5.746   1.036
21628SOL     OW66842   8.038   7.073   0.491
21628SOL    HW166843   8.080   7.015   0.421
21628SOL    HW266844   7.994   7.152   0.447
21629SOL     OW66845   0.157   5.971   1.381
21629SOL    HW166846   0.230   6.040   1.385
21629SOL    HW266847   0.185   5.896   1.322
21630SOL     OW66848   7.703   6.934   0.290
21630SOL    HW166849   7.607   6.935   0.263
21630SOL    HW266850   7.715   6.987   0.374
21631SOL     OW66851   7.553   6.599   1.726
21631SOL    HW166852   7.476   6.566   1.780
21631SOL    HW266853   7.638   6.569   1.768
21632SOL     OW66854   8.120   5.789   1.489
21632SOL    HW166855   8.210   5.773   1.449
21632SOL    HW266856   8.128   5.794   1.588
21633SOL     OW66857   8.888   6.442   1.398
21633SOL    HW166858   8.831   6.494   1.335
21633SOL    HW266859   8.984   6.454   1.374
21634SOL     OW66860   7.520   5.752   0.318
21634SOL    HW166861   7.503   5.835   0.264
21634SOL    HW266862   7.610   5.715   0.296
21635SOL     OW66863   8.631   6.921   0.119
21635SOL    HW166864   8.532   6.910   0.121
21635SOL    HW266865   8.665   6.936   0.212
21636SOL     OW66866   8.061   6.428   1.431
21636SOL    HW166867   8.117   6.509   1.414
21636SOL    HW266868   8.120   6.348   1.434
21637SOL     OW66869   8.941   7.353   0.959
21637SOL    HW166870   8.974   7.417   0.890
21637SOL    HW266871   9.007   7.347   1.034
21638SOL     OW66872   8.164   6.151   1.708
21638SOL    HW166873   8.183   6.216   1.782
21638SOL    HW266874   8.224   6.071   1.717
21639SOL     OW66875   8.898   6.806   1.633
21639SOL    HW166876   8.889   6.796   1.732
21639SOL    HW266877   8.994   6.799   1.607
21640SOL     OW66878   7.838   7.327   1.560
21640SOL    HW166879   7.747   7.368   1.558
21640SOL    HW266880   7.831   7.233   1.592
21641SOL     OW66881   0.122   6.469   1.254
21641SOL    HW166882   0.095   6.380   1.217
21641SOL    HW266883   0.123   6.537   1.181
21642SOL     OW66884   8.673   5.911   0.449
21642SOL    HW166885   8.738   5.837   0.438
21642SOL    HW266886   8.693   5.961   0.533
21643SOL     OW66887   8.042   6.331   0.652
21643SOL    HW166888   8.092   6.416   0.633
21643SOL    HW266889   7.954   6.333   0.604
21644SOL     OW66890   0.225   5.928   1.642
21644SOL    HW166891   0.208   5.959   1.548
21644SOL    HW266892   0.141   5.891   1.680
21645SOL     OW66893   0.178   6.520   1.517
21645SOL    HW166894   0.216   6.611   1.532
21645SOL    HW266895   0.170   6.503   1.418
21646SOL     OW66896   8.307   6.960   0.016
21646SOL    HW166897   8.261   6.975   0.104
21646SOL    HW266898   8.351   7.045  -0.014
21647SOL     OW66899   8.109   7.376   0.953
21647SOL    HW166900   8.063   7.464   0.940
21647SOL    HW266901   8.208   7.388   0.946
21648SOL     OW66902   8.307   6.542   0.861
21648SOL    HW166903   8.361   6.473   0.909
21648SOL    HW266904   8.275   6.611   0.927
21649SOL     OW66905   8.531   6.570   0.087
21649SOL    HW166906   8.508   6.623   0.005
21649SOL    HW266907   8.612   6.514   0.068
21650SOL     OW66908   7.669   6.900   1.844
21650SOL    HW166909   7.604   6.827   1.823
21650SOL    HW266910   7.673   6.914   1.942
21651SOL     OW66911   7.527   6.826   0.653
21651SOL    HW166912   7.526   6.779   0.741
21651SOL    HW266913   7.609   6.798   0.602
21652SOL     OW66914   8.120   6.977   1.624
21652SOL    HW166915   8.042   6.927   1.662
21652SOL    HW266916   8.117   7.072   1.655
21653SOL     OW66917   7.876   6.010   0.520
21653SOL    HW166918   7.906   5.938   0.458
21653SOL    HW266919   7.837   5.970   0.603
21654SOL     OW66920   0.153   7.073   1.104
21654SOL    HW166921   0.060   7.048   1.077
21654SOL    HW266922   0.179   7.023   1.186
21655SOL     OW66923   7.765   6.133   1.280
21655SOL    HW166924   7.803   6.074   1.352
21655SOL    HW266925   7.805   6.107   1.192
21656SOL     OW66926   8.260   7.172   0.687
21656SOL    HW166927   8.292   7.182   0.593
21656SOL    HW266928   8.181   7.110   0.689
21657SOL     OW66929   8.872   5.800   1.112
21657SOL    HW166930   8.924   5.735   1.167
21657SOL    HW266931   8.823   5.863   1.173
21658SOL     OW66932   8.449   5.620   1.154
21658SOL    HW166933   8.386   5.548   1.123
21658SOL    HW266934   8.542   5.584   1.154
21659SOL     OW66935   8.218   6.916   0.301
21659SOL    HW166936   8.172   6.829   0.318
21659SOL    HW266937   8.309   6.913   0.342
21660SOL     OW66938   8.066   7.153   1.284
21660SOL    HW166939   8.061   7.235   1.341
21660SOL    HW266940   8.155   7.150   1.239
21661SOL     OW66941   8.748   6.039   0.691
21661SOL    HW166942   8.689   6.119   0.695
21661SOL    HW266943   8.763   6.004   0.784
21662SOL     OW66944   0.041   5.807   0.882
21662SOL    HW166945  -0.043   5.806   0.936
21662SOL    HW266946   0.043   5.890   0.826
21663SOL     OW66947   7.487   6.663   0.300
21663SOL    HW166948   7.586   6.652   0.291
21663SOL    HW266949   7.447   6.577   0.332
21664SOL     OW66950   8.323   7.232   0.337
21664SOL    HW166951   8.246   7.197   0.283
21664SOL    HW266952   8.291   7.303   0.399
21665SOL     OW66953   7.678   6.214   1.975
21665SOL    HW166954   7.585   6.212   2.012
21665SOL    HW266955   7.679   6.175   1.883
21666SOL     OW66956   8.017   6.861   3.027
21666SOL    HW166957   7.924   6.854   2.990
21666SOL    HW266958   8.028   6.950   3.071
21667SOL     OW66959   0.003   7.097   2.565
21667SOL    HW166960  -0.054   7.081   2.646
21667SOL    HW266961  -0.056   7.107   2.485
21668SOL     OW66962   0.191   6.204   2.718
21668SOL    HW166963   0.224   6.298   2.718
21668SOL    HW266964   0.242   6.150   2.784
21669SOL     OW66965   8.583   6.289   2.579
21669SOL    HW166966   8.640   6.367   2.554
21669SOL    HW266967   8.523   6.315   2.655
21670SOL     OW66968   0.203   6.193   2.093
21670SOL    HW166969   0.191   6.180   1.994
21670SOL    HW266970   0.173   6.112   2.142
21671SOL     OW66971   8.216   6.730   2.885
21671SOL    HW166972   8.138   6.747   2.945
21671SOL    HW266973   8.250   6.817   2.849
21672SOL     OW66974   8.298   6.384   3.685
21672SOL    HW166975   8.294   6.460   3.750
21672SOL    HW266976   8.320   6.420   3.594
21673SOL     OW66977   8.133   6.598   2.527
21673SOL    HW166978   8.202   6.582   2.597
21673SOL    HW266979   8.060   6.655   2.565
21674SOL     OW66980   8.134   6.747   3.665
21674SOL    HW166981   8.194   6.826   3.679
21674SOL    HW266982   8.048   6.778   3.624
21675SOL     OW66983   7.783   7.021   2.923
21675SOL    HW166984   7.705   6.990   2.870
21675SOL    HW266985   7.841   7.079   2.866
21676SOL     OW66986   8.908   7.091   3.201
21676SOL    HW166987   8.932   7.185   3.227
21676SOL    HW266988   8.892   7.037   3.283
21677SOL     OW66989   7.679   7.299   2.345
21677SOL    HW166990   7.713   7.376   2.399
21677SOL    HW266991   7.723   7.299   2.255
21678SOL     OW66992   8.575   6.927   3.552
21678SOL    HW166993   8.622   6.927   3.640
21678SOL    HW266994   8.527   6.840   3.541
21679SOL     OW66995   7.678   7.020   2.400
21679SOL    HW166996   7.652   7.116   2.400
21679SOL    HW266997   7.607   6.966   2.445
21680SOL     OW66998   7.688   6.677   2.748
21680SOL    HW166999   7.702   6.593   2.800
21680SOL    HW267000   7.633   6.741   2.803
21681SOL     OW67001   8.068   7.372   3.301
21681SOL    HW167002   7.976   7.355   3.336
21681SOL    HW267003   8.096   7.464   3.327
21682SOL     OW67004   8.054   6.550   1.985
21682SOL    HW167005   8.061   6.634   1.931
21682SOL    HW267006   8.100   6.563   2.073
21683SOL     OW67007   0.042   5.700   3.342
21683SOL    HW167008   0.024   5.767   3.270
21683SOL    HW267009   0.039   5.746   3.431
21684SOL     OW67010   7.475   7.182   1.979
21684SOL    HW167011   7.456   7.086   2.000
21684SOL    HW267012   7.442   7.240   2.054
21685SOL     OW67013   0.137   6.508   2.474
21685SOL    HW167014   0.232   6.479   2.482
21685SOL    HW267015   0.129   6.573   2.399
21686SOL     OW67016   0.089   6.694   2.294
21686SOL    HW167017   0.175   6.696   2.242
21686SOL    HW267018   0.103   6.741   2.382
21687SOL     OW67019   7.561   6.323   3.459
21687SOL    HW167020   7.649   6.310   3.504
21687SOL    HW267021   7.548   6.420   3.437
21688SOL     OW67022   8.061   6.951   2.588
21688SOL    HW167023   8.012   6.864   2.597
21688SOL    HW267024   8.038   6.994   2.501
21689SOL     OW67025   8.741   6.814   3.285
21689SOL    HW167026   8.778   6.741   3.227
21689SOL    HW267027   8.793   6.819   3.370
21690SOL     OW67028   8.257   5.590   2.364
21690SOL    HW167029   8.297   5.681   2.355
21690SOL    HW267030   8.157   5.598   2.370
21691SOL     OW67031   7.645   6.562   3.126
21691SOL    HW167032   7.734   6.517   3.112
21691SOL    HW267033   7.572   6.497   3.107
21692SOL     OW67034   8.973   6.585   2.052
21692SOL    HW167035   8.910   6.509   2.065
21692SOL    HW267036   9.021   6.603   2.138
21693SOL     OW67037   8.635   7.378   3.478
21693SOL    HW167038   8.659   7.438   3.402
21693SOL    HW267039   8.642   7.283   3.448
21694SOL     OW67040   7.765   5.837   3.663
21694SOL    HW167041   7.836   5.908   3.669
21694SOL    HW267042   7.677   5.876   3.691
21695SOL     OW67043   8.914   7.003   2.815
21695SOL    HW167044   8.855   7.009   2.895
21695SOL    HW267045   8.899   6.915   2.769
21696SOL     OW67046   0.115   7.300   2.434
21696SOL    HW167047   0.074   7.277   2.346
21696SOL    HW267048   0.097   7.226   2.499
21697SOL     OW67049   8.046   6.315   2.132
21697SOL    HW167050   8.070   6.384   2.064
21697SOL    HW267051   7.968   6.348   2.186
21698SOL     OW67052   8.729   5.931   2.806
21698SOL    HW167053   8.643   5.881   2.793
21698SOL    HW267054   8.791   5.877   2.862
21699SOL     OW67055   0.024   7.248   2.169
21699SOL    HW167056   0.113   7.294   2.172
21699SOL    HW267057   0.003   7.224   2.074
21700SOL     OW67058   8.255   6.191   3.327
21700SOL    HW167059   8.208   6.188   3.416
21700SOL    HW267060   8.204   6.136   3.261
21701SOL     OW67061   8.842   6.055   3.536
21701SOL    HW167062   8.822   6.098   3.624
21701SOL    HW267063   8.920   5.993   3.545
21702SOL     OW67064   8.439   5.996   3.104
21702SOL    HW167065   8.362   6.030   3.158
21702SOL    HW267066   8.405   5.945   3.025
21703SOL     OW67067   8.489   6.287   2.291
21703SOL    HW167068   8.515   6.283   2.387
21703SOL    HW267069   8.404   6.236   2.277
21704SOL     OW67070   7.524   6.397   2.651
21704SOL    HW167071   7.623   6.385   2.660
21704SOL    HW267072   7.500   6.492   2.672
21705SOL     OW67073   7.578   7.407   3.433
21705SOL    HW167074   7.568   7.392   3.532
21705SOL    HW267075   7.492   7.443   3.397
21706SOL     OW67076   8.313   5.934   2.057
21706SOL    HW167077   8.372   5.997   2.008
21706SOL    HW267078   8.332   5.840   2.028
21707SOL     OW67079   0.167   6.171   3.693
21707SOL    HW167080   0.141   6.260   3.657
21707SOL    HW267081   0.165   6.103   3.620
21708SOL     OW67082   8.810   6.730   2.407
21708SOL    HW167083   8.893   6.701   2.359
21708SOL    HW267084   8.761   6.797   2.351
21709SOL     OW67085   7.998   5.782   2.747
21709SOL    HW167086   7.993   5.777   2.847
21709SOL    HW267087   8.000   5.878   2.718
21710SOL     OW67088   8.456   7.042   2.339
21710SOL    HW167089   8.410   7.114   2.287
21710SOL    HW267090   8.452   7.062   2.437
21711SOL     OW67091   7.799   7.387   2.715
21711SOL    HW167092   7.849   7.301   2.721
21711SOL    HW267093   7.864   7.464   2.712
21712SOL     OW67094   0.243   6.652   2.735
21712SOL    HW167095   0.181   6.637   2.659
21712SOL    HW267096   0.191   6.663   2.820
21713SOL     OW67097   8.675   7.136   3.368
21713SOL    HW167098   8.681   7.059   3.432
21713SOL    HW267099   8.623   7.110   3.288
21714SOL     OW67100   7.769   6.529   2.104
21714SOL    HW167101   7.851   6.568   2.062
21714SOL    HW267102   7.742   6.447   2.055
21715SOL     OW67103   8.906   6.321   2.590
21715SOL    HW167104   8.901   6.256   2.665
21715SOL    HW267105   8.986   6.380   2.603
21716SOL     OW67106   7.909   6.852   3.589
21716SOL    HW167107   7.859   6.853   3.503
21716SOL    HW267108   7.846   6.834   3.665
21717SOL     OW67109   8.559   7.362   2.099
21717SOL    HW167110   8.499   7.300   2.149
21717SOL    HW267111   8.590   7.318   2.014
21718SOL     OW67112   7.650   5.871   3.360
21718SOL    HW167113   7.570   5.931   3.347
21718SOL    HW267114   7.640   5.822   3.446
21719SOL     OW67115   0.080   6.963   1.943
21719SOL    HW167116   0.048   7.057   1.933
21719SOL    HW267117   0.004   6.900   1.931
21720SOL     OW67118   7.912   7.329   2.185
21720SOL    HW167119   7.945   7.368   2.271
21720SOL    HW267120   7.988   7.322   2.120
21721SOL     OW67121   8.848   5.693   2.288
21721SOL    HW167122   8.824   5.656   2.198
21721SOL    HW267123   8.947   5.709   2.292
21722SOL     OW67124   7.697   7.371   3.103
21722SOL    HW167125   7.754   7.306   3.153
21722SOL    HW267126   7.681   7.338   3.010
21723SOL     OW67127   8.388   7.284   2.766
21723SOL    HW167128   8.468   7.227   2.787
21723SOL    HW267129   8.339   7.244   2.689
21724SOL     OW67130   7.830   6.286   2.342
21724SOL    HW167131   7.875   6.196   2.339
21724SOL    HW267132   7.736   6.275   2.375
21725SOL     OW67133   8.995   5.808   3.591
21725SOL    HW167134   8.990   5.845   3.683
21725SOL    HW267135   8.923   5.739   3.579
21726SOL     OW67136   8.062   5.708   1.979
21726SOL    HW167137   8.160   5.686   1.986
21726SOL    HW267138   8.031   5.691   1.886
21727SOL     OW67139   8.229   5.850   3.611
21727SOL    HW167140   8.296   5.789   3.654
21727SOL    HW267141   8.156   5.869   3.676
21728SOL     OW67142   8.336   7.100   3.057
21728SOL    HW167143   8.313   7.075   2.963
21728SOL    HW267144   8.397   7.031   3.096
21729SOL     OW67145   8.799   6.176   3.295
21729SOL    HW167146   8.827   6.133   3.380
21729SOL    HW267147   8.824   6.272   3.296
21730SOL     OW67148   8.251   6.988   2.786
21730SOL    HW167149   8.341   7.002   2.744
21730SOL    HW267150   8.180   6.990   2.715
21731SOL     OW67151   8.370   6.089   2.761
21731SOL    HW167152   8.345   6.080   2.665
21731SOL    HW267153   8.418   6.007   2.792
21732SOL     OW67154   7.987   5.650   2.374
21732SOL    HW167155   7.906   5.651   2.432
21732SOL    HW267156   7.990   5.733   2.319
21733SOL     OW67157   8.882   6.774   1.903
21733SOL    HW167158   8.914   6.698   1.960
21733SOL    HW267159   8.790   6.801   1.933
21734SOL     OW67160   8.383   5.822   2.342
21734SOL    HW167161   8.335   5.863   2.264
21734SOL    HW267162   8.482   5.820   2.323
21735SOL     OW67163   8.524   6.269   3.326
21735SOL    HW167164   8.444   6.208   3.329
21735SOL    HW267165   8.605   6.216   3.302
21736SOL     OW67166   8.675   7.156   2.655
21736SOL    HW167167   8.696   7.230   2.590
21736SOL    HW267168   8.743   7.156   2.728
21737SOL     OW67169   7.907   6.738   2.603
21737SOL    HW167170   7.836   6.711   2.668
21737SOL    HW267171   7.881   6.710   2.510
21738SOL     OW67172   8.719   7.383   2.453
21738SOL    HW167173   8.763   7.447   2.389
21738SOL    HW267174   8.669   7.435   2.523
21739SOL     OW67175   8.480   6.135   1.878
21739SOL    HW167176   8.439   6.217   1.839
21739SOL    HW267177   8.544   6.161   1.951
21740SOL     OW67178   7.526   6.142   3.248
21740SOL    HW167179   7.618   6.141   3.207
21740SOL    HW267180   7.520   6.216   3.315
21741SOL     OW67181   8.314   6.040   2.504
21741SOL    HW167182   8.282   6.112   2.442
21741SOL    HW267183   8.338   5.959   2.451
21742SOL     OW67184   8.465   5.625   2.615
21742SOL    HW167185   8.393   5.630   2.546
21742SOL    HW267186   8.441   5.556   2.684
21743SOL     OW67187   8.877   6.759   2.729
21743SOL    HW167188   8.822   6.675   2.722
21743SOL    HW267189   8.903   6.788   2.637
21744SOL     OW67190   8.914   6.176   2.854
21744SOL    HW167191   8.884   6.081   2.861
21744SOL    HW267192   8.987   6.192   2.920
21745SOL     OW67193   7.936   6.971   2.036
21745SOL    HW167194   7.849   6.956   2.083
21745SOL    HW267195   7.919   6.997   1.941
21746SOL     OW67196   0.112   6.866   2.519
21746SOL    HW167197   0.211   6.874   2.533
21746SOL    HW267198   0.067   6.950   2.550
21747SOL     OW67199   8.838   6.161   1.940
21747SOL    HW167200   8.784   6.140   2.021
21747SOL    HW267201   8.929   6.120   1.949
21748SOL     OW67202   7.975   5.842   2.190
21748SOL    HW167203   8.002   5.783   2.115
21748SOL    HW267204   7.975   5.937   2.159
21749SOL     OW67205   8.512   6.933   3.202
21749SOL    HW167206   8.432   6.910   3.257
21749SOL    HW267207   8.595   6.907   3.251
21750SOL     OW67208   0.040   7.215   3.487
21750SOL    HW167209   0.067   7.249   3.397
21750SOL    HW267210   0.119   7.177   3.533
21751SOL     OW67211   8.559   6.781   2.962
21751SOL    HW167212   8.519   6.825   3.043
21751SOL    HW267213   8.518   6.818   2.879
21752SOL     OW67214   0.086   6.685   2.941
21752SOL    HW167215   0.091   6.766   3.000
21752SOL    HW267216   0.000   6.687   2.890
21753SOL     OW67217   8.363   5.675   3.264
21753SOL    HW167218   8.388   5.655   3.169
21753SOL    HW267219   8.435   5.731   3.306
21754SOL     OW67220   8.428   6.702   3.581
21754SOL    HW167221   8.329   6.708   3.591
21754SOL    HW267222   8.451   6.622   3.525
21755SOL     OW67223   8.153   6.636   2.230
21755SOL    HW167224   8.139   6.643   2.329
21755SOL    HW267225   8.237   6.585   2.212
21756SOL     OW67226   7.858   6.399   3.113
21756SOL    HW167227   7.944   6.411   3.163
21756SOL    HW267228   7.816   6.312   3.140
21757SOL     OW67229   8.722   5.972   3.124
21757SOL    HW167230   8.743   6.046   3.188
21757SOL    HW267231   8.633   5.989   3.081
21758SOL     OW67232   7.512   7.150   3.193
21758SOL    HW167233   7.466   7.232   3.159
21758SOL    HW267234   7.610   7.169   3.202
21759SOL     OW67235   7.815   6.686   2.363
21759SOL    HW167236   7.808   6.769   2.307
21759SOL    HW267237   7.819   6.606   2.303
21760SOL     OW67238   8.014   6.123   2.727
21760SOL    HW167239   8.026   6.189   2.653
21760SOL    HW267240   8.060   6.157   2.810
21761SOL     OW67241   8.700   6.934   2.250
21761SOL    HW167242   8.750   7.011   2.290
21761SOL    HW267243   8.605   6.936   2.282
21762SOL     OW67244   8.720   7.031   3.004
21762SOL    HW167245   8.767   7.044   3.091
21762SOL    HW267246   8.654   6.957   3.013
21763SOL     OW67247   0.030   6.225   2.334
21763SOL    HW167248  -0.001   6.286   2.407
21763SOL    HW267249   0.080   6.277   2.265
21764SOL     OW67250   7.802   7.096   3.191
21764SOL    HW167251   7.781   7.052   3.104
21764SOL    HW267252   7.899   7.122   3.194
21765SOL     OW67253   7.850   6.337   3.460
21765SOL    HW167254   7.918   6.392   3.413
21765SOL    HW267255   7.890   6.249   3.487
21766SOL     OW67256   0.035   6.365   3.532
21766SOL    HW167257  -0.057   6.403   3.527
21766SOL    HW267258   0.095   6.412   3.467
21767SOL     OW67259   8.461   5.691   3.632
21767SOL    HW167260   8.467   5.776   3.580
21767SOL    HW267261   8.493   5.615   3.575
21768SOL     OW67262   7.952   5.636   3.602
21768SOL    HW167263   7.910   5.579   3.532
21768SOL    HW267264   7.886   5.705   3.634
21769SOL     OW67265   8.021   6.456   2.891
21769SOL    HW167266   8.065   6.545   2.882
21769SOL    HW267267   7.958   6.456   2.968
21770SOL     OW67268   8.657   6.111   2.137
21770SOL    HW167269   8.670   6.027   2.191
21770SOL    HW267270   8.628   6.185   2.197
21771SOL     OW67271   7.485   6.896   3.144
21771SOL    HW167272   7.538   6.847   3.212
21771SOL    HW267273   7.507   6.994   3.149
21772SOL     OW67274   8.180   6.220   2.926
21772SOL    HW167275   8.239   6.194   2.850
21772SOL    HW267276   8.152   6.316   2.915
21773SOL     OW67277   0.176   6.521   3.716
21773SOL    HW167278   0.130   6.514   3.627
21773SOL    HW267279   0.114   6.565   3.782
21774SOL     OW67280   0.070   5.953   2.236
21774SOL    HW167281   0.072   5.877   2.300
21774SOL    HW267282   0.022   6.030   2.276
21775SOL     OW67283   8.471   6.352   2.828
21775SOL    HW167284   8.486   6.373   2.924
21775SOL    HW267285   8.441   6.257   2.819
21776SOL     OW67286   8.428   7.159   3.562
21776SOL    HW167287   8.408   7.203   3.474
21776SOL    HW267288   8.467   7.068   3.546
21777SOL     OW67289   7.798   6.484   3.666
21777SOL    HW167290   7.874   6.528   3.714
21777SOL    HW267291   7.833   6.437   3.584
21778SOL     OW67292   8.988   5.860   1.987
21778SOL    HW167293   8.927   5.785   2.010
21778SOL    HW267294   9.010   5.912   2.070
21779SOL     OW67295   8.751   6.424   1.904
21779SOL    HW167296   8.785   6.331   1.919
21779SOL    HW267297   8.769   6.451   1.809
21780SOL     OW67298   8.516   6.919   2.711
21780SOL    HW167299   8.523   6.835   2.656
21780SOL    HW267300   8.578   6.988   2.675
21781SOL     OW67301   7.767   6.396   2.811
21781SOL    HW167302   7.860   6.432   2.816
21781SOL    HW267303   7.761   6.311   2.863
21782SOL     OW67304   7.959   6.001   3.670
21782SOL    HW167305   7.941   6.046   3.758
21782SOL    HW267306   8.001   6.066   3.607
21783SOL     OW67307   8.586   5.966   3.540
21783SOL    HW167308   8.541   6.029   3.604
21783SOL    HW267309   8.679   5.997   3.523
21784SOL     OW67310   8.608   5.793   3.339
21784SOL    HW167311   8.608   5.857   3.416
21784SOL    HW267312   8.636   5.841   3.256
21785SOL     OW67313   7.456   6.912   2.062
21785SOL    HW167314   7.363   6.933   2.031
21785SOL    HW267315   7.466   6.813   2.075
21786SOL     OW67316   7.536   7.387   2.789
21786SOL    HW167317   7.494   7.301   2.762
21786SOL    HW267318   7.630   7.390   2.755
21787SOL     OW67319   7.952   7.154   2.772
21787SOL    HW167320   8.018   7.228   2.781
21787SOL    HW267321   7.996   7.075   2.730
21788SOL     OW67322   7.488   6.130   2.976
21788SOL    HW167323   7.573   6.097   2.935
21788SOL    HW267324   7.501   6.145   3.074
21789SOL     OW67325   7.637   6.106   3.584
21789SOL    HW167326   7.696   6.066   3.514
21789SOL    HW267327   7.579   6.177   3.543
21790SOL     OW67328   8.817   6.536   3.522
21790SOL    HW167329   8.856   6.625   3.542
21790SOL    HW267330   8.827   6.516   3.425
21791SOL     OW67331   8.263   6.158   2.187
21791SOL    HW167332   8.270   6.069   2.141
21791SOL    HW267333   8.169   6.192   2.179
21792SOL     OW67334   0.105   6.190   3.068
21792SOL    HW167335   0.067   6.121   3.130
21792SOL    HW267336   0.187   6.154   3.024
21793SOL     OW67337   7.700   7.150   3.606
21793SOL    HW167338   7.670   7.207   3.682
21793SOL    HW267339   7.693   7.053   3.632
21794SOL     OW67340   8.378   7.264   3.327
21794SOL    HW167341   8.354   7.246   3.232
21794SOL    HW267342   8.408   7.358   3.337
21795SOL     OW67343   7.921   6.086   2.053
21795SOL    HW167344   7.982   6.166   2.057
21795SOL    HW267345   7.826   6.117   2.060
21796SOL     OW67346   7.607   6.723   3.328
21796SOL    HW167347   7.629   6.662   3.404
21796SOL    HW267348   7.617   6.674   3.242
21797SOL     OW67349   8.750   6.441   2.171
21797SOL    HW167350   8.664   6.410   2.213
21797SOL    HW267351   8.746   6.427   2.072
21798SOL     OW67352   8.700   7.317   2.990
21798SOL    HW167353   8.784   7.322   2.936
21798SOL    HW267354   8.677   7.221   3.008
21799SOL     OW67355   7.531   6.844   2.884
21799SOL    HW167356   7.526   6.843   2.984
21799SOL    HW267357   7.448   6.803   2.846
21800SOL     OW67358   8.136   7.248   3.578
21800SOL    HW167359   8.080   7.329   3.587
21800SOL    HW267360   8.188   7.252   3.492
21801SOL     OW67361   8.351   5.672   1.995
21801SOL    HW167362   8.402   5.673   1.909
21801SOL    HW267363   8.407   5.630   2.066
21802SOL     OW67364   0.174   5.721   2.385
21802SOL    HW167365   0.247   5.704   2.318
21802SOL    HW267366   0.143   5.634   2.423
21803SOL     OW67367   8.836   7.159   2.339
21803SOL    HW167368   8.903   7.171   2.265
21803SOL    HW267369   8.796   7.248   2.362
21804SOL     OW67370   7.578   7.380   3.713
21804SOL    HW167371   7.537   7.306   3.766
21804SOL    HW267372   7.642   7.431   3.771
21805SOL     OW67373   8.728   6.513   2.534
21805SOL    HW167374   8.788   6.432   2.536
21805SOL    HW267375   8.768   6.582   2.474
21806SOL     OW67376   8.278   6.859   3.284
21806SOL    HW167377   8.273   6.892   3.379
21806SOL    HW267378   8.192   6.878   3.238
21807SOL     OW67379   8.120   7.202   2.016
21807SOL    HW167380   8.129   7.212   1.917
21807SOL    HW267381   8.080   7.113   2.037
21808SOL     OW67382   0.098   7.306   3.256
21808SOL    HW167383   0.151   7.316   3.172
21808SOL    HW267384   0.071   7.396   3.290
21809SOL     OW67385   8.642   7.198   1.893
21809SOL    HW167386   8.648   7.105   1.930
21809SOL    HW267387   8.583   7.198   1.813
21810SOL     OW67388   8.364   6.496   2.153
21810SOL    HW167389   8.427   6.534   2.085
21810SOL    HW267390   8.404   6.413   2.192
21811SOL     OW67391   8.952   7.193   1.906
21811SOL    HW167392   8.860   7.230   1.913
21811SOL    HW267393   8.990   7.213   1.816
21812SOL     OW67394   7.820   6.874   3.352
21812SOL    HW167395   7.807   6.967   3.318
21812SOL    HW267396   7.736   6.822   3.339
21813SOL     OW67397   0.062   6.878   3.151
21813SOL    HW167398   0.122   6.881   3.231
21813SOL    HW267399  -0.013   6.942   3.164
21814SOL     OW67400   8.487   6.684   2.558
21814SOL    HW167401   8.417   6.637   2.612
21814SOL    HW267402   8.546   6.616   2.515
21815SOL     OW67403   8.462   5.822   2.833
21815SOL    HW167404   8.454   5.786   2.740
21815SOL    HW267405   8.460   5.746   2.898
21816SOL     OW67406   8.038   7.073   2.353
21816SOL    HW167407   8.080   7.015   2.283
21816SOL    HW267408   7.994   7.152   2.309
21817SOL     OW67409   0.157   5.971   3.243
21817SOL    HW167410   0.230   6.040   3.247
21817SOL    HW267411   0.185   5.896   3.184
21818SOL     OW67412   7.703   6.934   2.152
21818SOL    HW167413   7.607   6.935   2.125
21818SOL    HW267414   7.715   6.987   2.236
21819SOL     OW67415   7.553   6.599   3.588
21819SOL    HW167416   7.476   6.566   3.642
21819SOL    HW267417   7.638   6.569   3.630
21820SOL     OW67418   8.120   5.789   3.351
21820SOL    HW167419   8.210   5.773   3.311
21820SOL    HW267420   8.128   5.794   3.450
21821SOL     OW67421   8.888   6.442   3.260
21821SOL    HW167422   8.831   6.494   3.197
21821SOL    HW267423   8.984   6.454   3.236
21822SOL     OW67424   7.520   5.752   2.180
21822SOL    HW167425   7.503   5.835   2.126
21822SOL    HW267426   7.610   5.715   2.158
21823SOL     OW67427   8.631   6.921   1.981
21823SOL    HW167428   8.532   6.910   1.983
21823SOL    HW267429   8.665   6.936   2.074
21824SOL     OW67430   8.061   6.428   3.293
21824SOL    HW167431   8.117   6.509   3.276
21824SOL    HW267432   8.120   6.348   3.296
21825SOL     OW67433   8.941   7.353   2.821
21825SOL    HW167434   8.974   7.417   2.752
21825SOL    HW267435   9.007   7.347   2.896
21826SOL     OW67436   8.164   6.151   3.570
21826SOL    HW167437   8.183   6.216   3.644
21826SOL    HW267438   8.224   6.071   3.579
21827SOL     OW67439   8.898   6.806   3.495
21827SOL    HW167440   8.889   6.796   3.594
21827SOL    HW267441   8.994   6.799   3.469
21828SOL     OW67442   7.838   7.327   3.422
21828SOL    HW167443   7.747   7.368   3.420
21828SOL    HW267444   7.831   7.233   3.454
21829SOL     OW67445   0.122   6.469   3.116
21829SOL    HW167446   0.095   6.380   3.079
21829SOL    HW267447   0.123   6.537   3.043
21830SOL     OW67448   8.673   5.911   2.311
21830SOL    HW167449   8.738   5.837   2.300
21830SOL    HW267450   8.693   5.961   2.395
21831SOL     OW67451   8.042   6.331   2.514
21831SOL    HW167452   8.092   6.416   2.495
21831SOL    HW267453   7.954   6.333   2.466
21832SOL     OW67454   0.225   5.928   3.504
21832SOL    HW167455   0.208   5.959   3.410
21832SOL    HW267456   0.141   5.891   3.542
21833SOL     OW67457   0.178   6.520   3.379
21833SOL    HW167458   0.216   6.611   3.394
21833SOL    HW267459   0.170   6.503   3.280
21834SOL     OW67460   8.307   6.960   1.878
21834SOL    HW167461   8.261   6.975   1.966
21834SOL    HW267462   8.351   7.045   1.848
21835SOL     OW67463   8.109   7.376   2.815
21835SOL    HW167464   8.063   7.464   2.802
21835SOL    HW267465   8.208   7.388   2.808
21836SOL     OW67466   8.531   6.570   1.949
21836SOL    HW167467   8.508   6.623   1.867
21836SOL    HW267468   8.612   6.514   1.930
21837SOL     OW67469   7.669   6.900   3.706
21837SOL    HW167470   7.604   6.827   3.685
21837SOL    HW267471   7.673   6.914   3.804
21838SOL     OW67472   7.527   6.826   2.515
21838SOL    HW167473   7.526   6.779   2.603
21838SOL    HW267474   7.609   6.798   2.464
21839SOL     OW67475   8.120   6.977   3.486
21839SOL    HW167476   8.042   6.927   3.524
21839SOL    HW267477   8.117   7.072   3.517
21840SOL     OW67478   7.876   6.010   2.382
21840SOL    HW167479   7.906   5.938   2.320
21840SOL    HW267480   7.837   5.970   2.465
21841SOL     OW67481   0.153   7.073   2.966
21841SOL    HW167482   0.060   7.048   2.939
21841SOL    HW267483   0.179   7.023   3.048
21842SOL     OW67484   8.260   7.172   2.549
21842SOL    HW167485   8.292   7.182   2.455
21842SOL    HW267486   8.181   7.110   2.551
21843SOL     OW67487   8.872   5.800   2.974
21843SOL    HW167488   8.924   5.735   3.029
21843SOL    HW267489   8.823   5.863   3.035
21844SOL     OW67490   8.449   5.620   3.016
21844SOL    HW167491   8.386   5.548   2.985
21844SOL    HW267492   8.542   5.584   3.016
21845SOL     OW67493   8.218   6.916   2.163
21845SOL    HW167494   8.172   6.829   2.180
21845SOL    HW267495   8.309   6.913   2.204
21846SOL     OW67496   8.066   7.153   3.146
21846SOL    HW167497   8.061   7.235   3.203
21846SOL    HW267498   8.155   7.150   3.101
21847SOL     OW67499   8.800   5.638   2.030
21847SOL    HW167500   8.835   5.597   1.946
21847SOL    HW267501   8.710   5.600   2.050
21848SOL     OW67502   8.748   6.039   2.553
21848SOL    HW167503   8.689   6.119   2.557
21848SOL    HW267504   8.763   6.004   2.646
21849SOL     OW67505   0.041   5.807   2.744
21849SOL    HW167506  -0.043   5.806   2.798
21849SOL    HW267507   0.043   5.890   2.688
21850SOL     OW67508   7.487   6.663   2.162
21850SOL    HW167509   7.586   6.652   2.153
21850SOL    HW267510   7.447   6.577   2.194
21851SOL     OW67511   8.323   7.232   2.199
21851SOL    HW167512   8.246   7.197   2.145
21851SOL    HW267513   8.291   7.303   2.261
21852SOL     OW67514   7.678   6.214   3.837
21852SOL    HW167515   7.585   6.212   3.874
21852SOL    HW267516   7.679   6.175   3.745
21853SOL     OW67517   7.673   5.861   4.720
21853SOL    HW167518   7.708   5.844   4.812
21853SOL    HW267519   7.585   5.816   4.708
21854SOL     OW67520   7.467   5.954   4.371
21854SOL    HW167521   7.385   5.997   4.410
21854SOL    HW267522   7.439   5.881   4.308
21855SOL     OW67523   8.017   6.861   4.889
21855SOL    HW167524   7.924   6.854   4.852
21855SOL    HW267525   8.028   6.950   4.933
21856SOL     OW67526   0.003   7.097   4.427
21856SOL    HW167527  -0.054   7.081   4.508
21856SOL    HW267528  -0.056   7.107   4.347
21857SOL     OW67529   0.191   6.204   4.580
21857SOL    HW167530   0.224   6.298   4.580
21857SOL    HW267531   0.242   6.150   4.646
21858SOL     OW67532   8.583   6.289   4.441
21858SOL    HW167533   8.640   6.367   4.416
21858SOL    HW267534   8.523   6.315   4.517
21859SOL     OW67535   0.203   6.193   3.955
21859SOL    HW167536   0.191   6.180   3.856
21859SOL    HW267537   0.173   6.112   4.004
21860SOL     OW67538   8.216   6.730   4.747
21860SOL    HW167539   8.138   6.747   4.807
21860SOL    HW267540   8.250   6.817   4.711
21861SOL     OW67541   8.298   6.384   5.547
21861SOL    HW167542   8.294   6.460   5.612
21861SOL    HW267543   8.320   6.420   5.456
21862SOL     OW67544   8.133   6.598   4.389
21862SOL    HW167545   8.202   6.582   4.459
21862SOL    HW267546   8.060   6.655   4.427
21863SOL     OW67547   8.134   6.747   5.527
21863SOL    HW167548   8.194   6.826   5.541
21863SOL    HW267549   8.048   6.778   5.486
21864SOL     OW67550   7.783   7.021   4.785
21864SOL    HW167551   7.705   6.990   4.732
21864SOL    HW267552   7.841   7.079   4.728
21865SOL     OW67553   8.908   7.091   5.063
21865SOL    HW167554   8.932   7.185   5.089
21865SOL    HW267555   8.892   7.037   5.145
21866SOL     OW67556   7.886   5.978   5.223
21866SOL    HW167557   7.968   5.922   5.232
21866SOL    HW267558   7.805   5.920   5.227
21867SOL     OW67559   7.679   7.299   4.207
21867SOL    HW167560   7.713   7.376   4.261
21867SOL    HW267561   7.723   7.299   4.117
21868SOL     OW67562   8.575   6.927   5.414
21868SOL    HW167563   8.622   6.927   5.502
21868SOL    HW267564   8.527   6.840   5.403
21869SOL     OW67565   7.678   7.020   4.262
21869SOL    HW167566   7.652   7.116   4.262
21869SOL    HW267567   7.607   6.966   4.307
21870SOL     OW67568   7.688   6.677   4.610
21870SOL    HW167569   7.702   6.593   4.662
21870SOL    HW267570   7.633   6.741   4.665
21871SOL     OW67571   8.068   7.372   5.163
21871SOL    HW167572   7.976   7.355   5.198
21871SOL    HW267573   8.096   7.464   5.189
21872SOL     OW67574   8.054   6.550   3.847
21872SOL    HW167575   8.061   6.634   3.793
21872SOL    HW267576   8.100   6.563   3.935
21873SOL     OW67577   0.042   5.700   5.204
21873SOL    HW167578   0.024   5.767   5.132
21873SOL    HW267579   0.039   5.746   5.293
21874SOL     OW67580   7.570   6.229   4.287
21874SOL    HW167581   7.525   6.141   4.304
21874SOL    HW267582   7.569   6.283   4.371
21875SOL     OW67583   7.475   7.182   3.841
21875SOL    HW167584   7.456   7.086   3.862
21875SOL    HW267585   7.442   7.240   3.916
21876SOL     OW67586   0.137   6.508   4.336
21876SOL    HW167587   0.232   6.479   4.344
21876SOL    HW267588   0.129   6.573   4.261
21877SOL     OW67589   0.089   6.694   4.156
21877SOL    HW167590   0.175   6.696   4.104
21877SOL    HW267591   0.103   6.741   4.244
21878SOL     OW67592   7.561   6.323   5.321
21878SOL    HW167593   7.649   6.310   5.366
21878SOL    HW267594   7.548   6.420   5.299
21879SOL     OW67595   8.061   6.951   4.450
21879SOL    HW167596   8.012   6.864   4.459
21879SOL    HW267597   8.038   6.994   4.363
21880SOL     OW67598   8.741   6.814   5.147
21880SOL    HW167599   8.778   6.741   5.089
21880SOL    HW267600   8.793   6.819   5.232
21881SOL     OW67601   8.257   5.590   4.226
21881SOL    HW167602   8.297   5.681   4.217
21881SOL    HW267603   8.157   5.598   4.232
21882SOL     OW67604   7.645   6.562   4.988
21882SOL    HW167605   7.734   6.517   4.974
21882SOL    HW267606   7.572   6.497   4.969
21883SOL     OW67607   8.973   6.585   3.914
21883SOL    HW167608   8.910   6.509   3.927
21883SOL    HW267609   9.021   6.603   4.000
21884SOL     OW67610   8.635   7.378   5.340
21884SOL    HW167611   8.659   7.438   5.264
21884SOL    HW267612   8.642   7.283   5.310
21885SOL     OW67613   7.765   5.837   5.525
21885SOL    HW167614   7.836   5.908   5.531
21885SOL    HW267615   7.677   5.876   5.553
21886SOL     OW67616   8.914   7.003   4.677
21886SOL    HW167617   8.855   7.009   4.757
21886SOL    HW267618   8.899   6.915   4.631
21887SOL     OW67619   0.115   7.300   4.296
21887SOL    HW167620   0.074   7.277   4.208
21887SOL    HW267621   0.097   7.226   4.361
21888SOL     OW67622   8.046   6.315   3.994
21888SOL    HW167623   8.070   6.384   3.926
21888SOL    HW267624   7.968   6.348   4.048
21889SOL     OW67625   8.729   5.931   4.668
21889SOL    HW167626   8.643   5.881   4.655
21889SOL    HW267627   8.791   5.877   4.724
21890SOL     OW67628   0.024   7.248   4.031
21890SOL    HW167629   0.113   7.294   4.034
21890SOL    HW267630   0.003   7.224   3.936
21891SOL     OW67631   8.255   6.191   5.189
21891SOL    HW167632   8.208   6.188   5.278
21891SOL    HW267633   8.204   6.136   5.123
21892SOL     OW67634   8.842   6.055   5.398
21892SOL    HW167635   8.822   6.098   5.486
21892SOL    HW267636   8.920   5.993   5.407
21893SOL     OW67637   8.421   6.476   5.296
21893SOL    HW167638   8.467   6.392   5.267
21893SOL    HW267639   8.365   6.510   5.221
21894SOL     OW67640   8.439   5.996   4.966
21894SOL    HW167641   8.362   6.030   5.020
21894SOL    HW267642   8.405   5.945   4.887
21895SOL     OW67643   8.489   6.287   4.153
21895SOL    HW167644   8.515   6.283   4.249
21895SOL    HW267645   8.404   6.236   4.139
21896SOL     OW67646   7.524   6.397   4.513
21896SOL    HW167647   7.623   6.385   4.522
21896SOL    HW267648   7.500   6.492   4.534
21897SOL     OW67649   7.578   7.407   5.295
21897SOL    HW167650   7.568   7.392   5.394
21897SOL    HW267651   7.492   7.443   5.259
21898SOL     OW67652   8.313   5.934   3.919
21898SOL    HW167653   8.372   5.997   3.870
21898SOL    HW267654   8.332   5.840   3.890
21899SOL     OW67655   0.167   6.171   5.555
21899SOL    HW167656   0.141   6.260   5.519
21899SOL    HW267657   0.165   6.103   5.482
21900SOL     OW67658   8.810   6.730   4.269
21900SOL    HW167659   8.893   6.701   4.221
21900SOL    HW267660   8.761   6.797   4.213
21901SOL     OW67661   7.998   5.782   4.609
21901SOL    HW167662   7.993   5.777   4.709
21901SOL    HW267663   8.000   5.878   4.580
21902SOL     OW67664   8.456   7.042   4.201
21902SOL    HW167665   8.410   7.114   4.149
21902SOL    HW267666   8.452   7.062   4.299
21903SOL     OW67667   7.799   7.387   4.577
21903SOL    HW167668   7.849   7.301   4.583
21903SOL    HW267669   7.864   7.464   4.574
21904SOL     OW67670   0.243   6.652   4.597
21904SOL    HW167671   0.181   6.637   4.521
21904SOL    HW267672   0.191   6.663   4.682
21905SOL     OW67673   8.675   7.136   5.230
21905SOL    HW167674   8.681   7.059   5.294
21905SOL    HW267675   8.623   7.110   5.150
21906SOL     OW67676   7.769   6.529   3.966
21906SOL    HW167677   7.851   6.568   3.924
21906SOL    HW267678   7.742   6.447   3.917
21907SOL     OW67679   8.906   6.321   4.452
21907SOL    HW167680   8.901   6.256   4.527
21907SOL    HW267681   8.986   6.380   4.465
21908SOL     OW67682   7.909   6.852   5.451
21908SOL    HW167683   7.859   6.853   5.365
21908SOL    HW267684   7.846   6.834   5.527
21909SOL     OW67685   8.559   7.362   3.961
21909SOL    HW167686   8.499   7.300   4.011
21909SOL    HW267687   8.590   7.318   3.876
21910SOL     OW67688   7.650   5.871   5.222
21910SOL    HW167689   7.570   5.931   5.209
21910SOL    HW267690   7.640   5.822   5.308
21911SOL     OW67691   0.080   6.963   3.805
21911SOL    HW167692   0.048   7.057   3.795
21911SOL    HW267693   0.004   6.900   3.793
21912SOL     OW67694   7.912   7.329   4.047
21912SOL    HW167695   7.945   7.368   4.133
21912SOL    HW267696   7.988   7.322   3.982
21913SOL     OW67697   8.848   5.693   4.150
21913SOL    HW167698   8.824   5.656   4.060
21913SOL    HW267699   8.947   5.709   4.154
21914SOL     OW67700   7.697   7.371   4.965
21914SOL    HW167701   7.754   7.306   5.015
21914SOL    HW267702   7.681   7.338   4.872
21915SOL     OW67703   8.388   7.284   4.628
21915SOL    HW167704   8.468   7.227   4.649
21915SOL    HW267705   8.339   7.244   4.551
21916SOL     OW67706   7.830   6.286   4.204
21916SOL    HW167707   7.875   6.196   4.201
21916SOL    HW267708   7.736   6.275   4.237
21917SOL     OW67709   8.995   5.808   5.453
21917SOL    HW167710   8.990   5.845   5.545
21917SOL    HW267711   8.923   5.739   5.441
21918SOL     OW67712   8.062   5.708   3.841
21918SOL    HW167713   8.160   5.686   3.848
21918SOL    HW267714   8.031   5.691   3.748
21919SOL     OW67715   8.229   5.850   5.473
21919SOL    HW167716   8.296   5.789   5.516
21919SOL    HW267717   8.156   5.869   5.538
21920SOL     OW67718   8.336   7.100   4.919
21920SOL    HW167719   8.313   7.075   4.825
21920SOL    HW267720   8.397   7.031   4.958
21921SOL     OW67721   8.799   6.176   5.157
21921SOL    HW167722   8.827   6.133   5.242
21921SOL    HW267723   8.824   6.272   5.158
21922SOL     OW67724   8.251   6.988   4.648
21922SOL    HW167725   8.341   7.002   4.606
21922SOL    HW267726   8.180   6.990   4.577
21923SOL     OW67727   8.370   6.089   4.623
21923SOL    HW167728   8.345   6.080   4.527
21923SOL    HW267729   8.418   6.007   4.654
21924SOL     OW67730   7.987   5.650   4.236
21924SOL    HW167731   7.906   5.651   4.294
21924SOL    HW267732   7.990   5.733   4.181
21925SOL     OW67733   8.882   6.774   3.765
21925SOL    HW167734   8.914   6.698   3.822
21925SOL    HW267735   8.790   6.801   3.795
21926SOL     OW67736   7.745   5.621   3.895
21926SOL    HW167737   7.794   5.705   3.874
21926SOL    HW267738   7.807   5.556   3.940
21927SOL     OW67739   8.383   5.822   4.204
21927SOL    HW167740   8.335   5.863   4.126
21927SOL    HW267741   8.482   5.820   4.185
21928SOL     OW67742   8.524   6.269   5.188
21928SOL    HW167743   8.444   6.208   5.191
21928SOL    HW267744   8.605   6.216   5.164
21929SOL     OW67745   8.675   7.156   4.517
21929SOL    HW167746   8.696   7.230   4.452
21929SOL    HW267747   8.743   7.156   4.590
21930SOL     OW67748   7.907   6.738   4.465
21930SOL    HW167749   7.836   6.711   4.530
21930SOL    HW267750   7.881   6.710   4.372
21931SOL     OW67751   8.719   7.383   4.315
21931SOL    HW167752   8.763   7.447   4.251
21931SOL    HW267753   8.669   7.435   4.385
21932SOL     OW67754   8.480   6.135   3.740
21932SOL    HW167755   8.439   6.217   3.701
21932SOL    HW267756   8.544   6.161   3.813
21933SOL     OW67757   7.526   6.142   5.110
21933SOL    HW167758   7.618   6.141   5.069
21933SOL    HW267759   7.520   6.216   5.177
21934SOL     OW67760   8.009   5.808   4.871
21934SOL    HW167761   8.047   5.724   4.908
21934SOL    HW267762   7.921   5.827   4.915
21935SOL     OW67763   8.314   6.040   4.366
21935SOL    HW167764   8.282   6.112   4.304
21935SOL    HW267765   8.338   5.959   4.313
21936SOL     OW67766   8.465   5.625   4.477
21936SOL    HW167767   8.393   5.630   4.408
21936SOL    HW267768   8.441   5.556   4.546
21937SOL     OW67769   8.877   6.759   4.591
21937SOL    HW167770   8.822   6.675   4.584
21937SOL    HW267771   8.903   6.788   4.499
21938SOL     OW67772   8.914   6.176   4.716
21938SOL    HW167773   8.884   6.081   4.723
21938SOL    HW267774   8.987   6.192   4.782
21939SOL     OW67775   7.936   6.971   3.898
21939SOL    HW167776   7.849   6.956   3.945
21939SOL    HW267777   7.919   6.997   3.803
21940SOL     OW67778   0.112   6.866   4.381
21940SOL    HW167779   0.211   6.874   4.395
21940SOL    HW267780   0.067   6.950   4.412
21941SOL     OW67781   8.838   6.161   3.802
21941SOL    HW167782   8.784   6.140   3.883
21941SOL    HW267783   8.929   6.120   3.811
21942SOL     OW67784   7.975   5.842   4.052
21942SOL    HW167785   8.002   5.783   3.977
21942SOL    HW267786   7.975   5.937   4.021
21943SOL     OW67787   8.512   6.933   5.064
21943SOL    HW167788   8.432   6.910   5.119
21943SOL    HW267789   8.595   6.907   5.113
21944SOL     OW67790   0.040   7.215   5.349
21944SOL    HW167791   0.067   7.249   5.259
21944SOL    HW267792   0.119   7.177   5.395
21945SOL     OW67793   8.559   6.781   4.824
21945SOL    HW167794   8.519   6.825   4.905
21945SOL    HW267795   8.518   6.818   4.741
21946SOL     OW67796   0.086   6.685   4.803
21946SOL    HW167797   0.091   6.766   4.862
21946SOL    HW267798   0.000   6.687   4.752
21947SOL     OW67799   8.363   5.675   5.126
21947SOL    HW167800   8.388   5.655   5.031
21947SOL    HW267801   8.435   5.731   5.168
21948SOL     OW67802   8.428   6.702   5.443
21948SOL    HW167803   8.329   6.708   5.453
21948SOL    HW267804   8.451   6.622   5.387
21949SOL     OW67805   8.153   6.636   4.092
21949SOL    HW167806   8.139   6.643   4.191
21949SOL    HW267807   8.237   6.585   4.074
21950SOL     OW67808   7.858   6.399   4.975
21950SOL    HW167809   7.944   6.411   5.025
21950SOL    HW267810   7.816   6.312   5.002
21951SOL     OW67811   8.722   5.972   4.986
21951SOL    HW167812   8.743   6.046   5.050
21951SOL    HW267813   8.633   5.989   4.943
21952SOL     OW67814   7.512   7.150   5.055
21952SOL    HW167815   7.466   7.232   5.021
21952SOL    HW267816   7.610   7.169   5.064
21953SOL     OW67817   7.815   6.686   4.225
21953SOL    HW167818   7.808   6.769   4.169
21953SOL    HW267819   7.819   6.606   4.165
21954SOL     OW67820   8.014   6.123   4.589
21954SOL    HW167821   8.026   6.189   4.515
21954SOL    HW267822   8.060   6.157   4.672
21955SOL     OW67823   8.700   6.934   4.112
21955SOL    HW167824   8.750   7.011   4.152
21955SOL    HW267825   8.605   6.936   4.144
21956SOL     OW67826   8.720   7.031   4.866
21956SOL    HW167827   8.767   7.044   4.953
21956SOL    HW267828   8.654   6.957   4.875
21957SOL     OW67829   0.030   6.225   4.196
21957SOL    HW167830  -0.001   6.286   4.269
21957SOL    HW267831   0.080   6.277   4.127
21958SOL     OW67832   7.802   7.096   5.053
21958SOL    HW167833   7.781   7.052   4.966
21958SOL    HW267834   7.899   7.122   5.056
21959SOL     OW67835   7.850   6.337   5.322
21959SOL    HW167836   7.918   6.392   5.275
21959SOL    HW267837   7.890   6.249   5.349
21960SOL     OW67838   0.035   6.365   5.394
21960SOL    HW167839  -0.057   6.403   5.389
21960SOL    HW267840   0.095   6.412   5.329
21961SOL     OW67841   8.461   5.691   5.494
21961SOL    HW167842   8.467   5.776   5.442
21961SOL    HW267843   8.493   5.615   5.437
21962SOL     OW67844   7.952   5.636   5.464
21962SOL    HW167845   7.910   5.579   5.394
21962SOL    HW267846   7.886   5.705   5.496
21963SOL     OW67847   8.021   6.456   4.753
21963SOL    HW167848   8.065   6.545   4.744
21963SOL    HW267849   7.958   6.456   4.830
21964SOL     OW67850   8.808   6.448   4.769
21964SOL    HW167851   8.733   6.448   4.703
21964SOL    HW267852   8.845   6.356   4.778
21965SOL     OW67853   8.657   6.111   3.999
21965SOL    HW167854   8.670   6.027   4.053
21965SOL    HW267855   8.628   6.185   4.059
21966SOL     OW67856   7.755   5.799   4.955
21966SOL    HW167857   7.732   5.836   5.045
21966SOL    HW267858   7.725   5.704   4.949
21967SOL     OW67859   7.485   6.896   5.006
21967SOL    HW167860   7.538   6.847   5.074
21967SOL    HW267861   7.507   6.994   5.011
21968SOL     OW67862   8.180   6.220   4.788
21968SOL    HW167863   8.239   6.194   4.712
21968SOL    HW267864   8.152   6.316   4.777
21969SOL     OW67865   0.176   6.521   5.578
21969SOL    HW167866   0.130   6.514   5.489
21969SOL    HW267867   0.114   6.565   5.644
21970SOL     OW67868   7.755   5.649   4.342
21970SOL    HW167869   7.744   5.743   4.375
21970SOL    HW267870   7.750   5.586   4.419
21971SOL     OW67871   0.070   5.953   4.098
21971SOL    HW167872   0.072   5.877   4.162
21971SOL    HW267873   0.022   6.030   4.138
21972SOL     OW67874   8.471   6.352   4.690
21972SOL    HW167875   8.486   6.373   4.786
21972SOL    HW267876   8.441   6.257   4.681
21973SOL     OW67877   8.428   7.159   5.424
21973SOL    HW167878   8.408   7.203   5.336
21973SOL    HW267879   8.467   7.068   5.408
21974SOL     OW67880   7.798   6.484   5.528
21974SOL    HW167881   7.874   6.528   5.576
21974SOL    HW267882   7.833   6.437   5.446
21975SOL     OW67883   8.988   5.860   3.849
21975SOL    HW167884   8.927   5.785   3.872
21975SOL    HW267885   9.010   5.912   3.932
21976SOL     OW67886   8.751   6.424   3.766
21976SOL    HW167887   8.785   6.331   3.781
21976SOL    HW267888   8.769   6.451   3.671
21977SOL     OW67889   8.516   6.919   4.573
21977SOL    HW167890   8.523   6.835   4.518
21977SOL    HW267891   8.578   6.988   4.537
21978SOL     OW67892   7.767   6.396   4.673
21978SOL    HW167893   7.860   6.432   4.678
21978SOL    HW267894   7.761   6.311   4.725
21979SOL     OW67895   7.787   6.095   4.730
21979SOL    HW167896   7.735   6.012   4.713
21979SOL    HW267897   7.864   6.100   4.666
21980SOL     OW67898   7.959   6.001   5.532
21980SOL    HW167899   7.941   6.046   5.620
21980SOL    HW267900   8.001   6.066   5.469
21981SOL     OW67901   8.586   5.966   5.402
21981SOL    HW167902   8.541   6.029   5.466
21981SOL    HW267903   8.679   5.997   5.385
21982SOL     OW67904   8.608   5.793   5.201
21982SOL    HW167905   8.608   5.857   5.278
21982SOL    HW267906   8.636   5.841   5.118
21983SOL     OW67907   7.456   6.912   3.924
21983SOL    HW167908   7.363   6.933   3.893
21983SOL    HW267909   7.466   6.813   3.937
21984SOL     OW67910   7.536   7.387   4.651
21984SOL    HW167911   7.494   7.301   4.624
21984SOL    HW267912   7.630   7.390   4.617
21985SOL     OW67913   7.952   7.154   4.634
21985SOL    HW167914   8.018   7.228   4.643
21985SOL    HW267915   7.996   7.075   4.592
21986SOL     OW67916   8.450   6.382   4.962
21986SOL    HW167917   8.491   6.350   5.048
21986SOL    HW267918   8.354   6.355   4.959
21987SOL     OW67919   7.488   6.130   4.838
21987SOL    HW167920   7.573   6.097   4.797
21987SOL    HW267921   7.501   6.145   4.936
21988SOL     OW67922   7.637   6.106   5.446
21988SOL    HW167923   7.696   6.066   5.376
21988SOL    HW267924   7.579   6.177   5.405
21989SOL     OW67925   8.817   6.536   5.384
21989SOL    HW167926   8.856   6.625   5.404
21989SOL    HW267927   8.827   6.516   5.287
21990SOL     OW67928   8.263   6.158   4.049
21990SOL    HW167929   8.270   6.069   4.003
21990SOL    HW267930   8.169   6.192   4.041
21991SOL     OW67931   0.105   6.190   4.930
21991SOL    HW167932   0.067   6.121   4.992
21991SOL    HW267933   0.187   6.154   4.886
21992SOL     OW67934   7.700   7.150   5.468
21992SOL    HW167935   7.670   7.207   5.544
21992SOL    HW267936   7.693   7.053   5.494
21993SOL     OW67937   8.119   6.050   4.993
21993SOL    HW167938   8.085   5.961   4.963
21993SOL    HW267939   8.145   6.104   4.913
21994SOL     OW67940   8.378   7.264   5.189
21994SOL    HW167941   8.354   7.246   5.094
21994SOL    HW267942   8.408   7.358   5.199
21995SOL     OW67943   7.921   6.086   3.915
21995SOL    HW167944   7.982   6.166   3.919
21995SOL    HW267945   7.826   6.117   3.922
21996SOL     OW67946   7.607   6.723   5.190
21996SOL    HW167947   7.629   6.662   5.266
21996SOL    HW267948   7.617   6.674   5.104
21997SOL     OW67949   8.795   6.645   4.958
21997SOL    HW167950   8.819   6.582   4.884
21997SOL    HW267951   8.705   6.685   4.940
21998SOL     OW67952   8.750   6.441   4.033
21998SOL    HW167953   8.664   6.410   4.075
21998SOL    HW267954   8.746   6.427   3.934
21999SOL     OW67955   8.700   7.317   4.852
21999SOL    HW167956   8.784   7.322   4.798
21999SOL    HW267957   8.677   7.221   4.870
22000SOL     OW67958   7.531   6.844   4.746
22000SOL    HW167959   7.526   6.843   4.846
22000SOL    HW267960   7.448   6.803   4.708
22001SOL     OW67961   8.136   7.248   5.440
22001SOL    HW167962   8.080   7.329   5.449
22001SOL    HW267963   8.188   7.252   5.354
22002SOL     OW67964   8.351   5.672   3.857
22002SOL    HW167965   8.402   5.673   3.771
22002SOL    HW267966   8.407   5.630   3.928
22003SOL     OW67967   0.174   5.721   4.247
22003SOL    HW167968   0.247   5.704   4.180
22003SOL    HW267969   0.143   5.634   4.285
22004SOL     OW67970   8.836   7.159   4.201
22004SOL    HW167971   8.903   7.171   4.127
22004SOL    HW267972   8.796   7.248   4.224
22005SOL     OW67973   7.578   7.380   5.575
22005SOL    HW167974   7.537   7.306   5.628
22005SOL    HW267975   7.642   7.431   5.633
22006SOL     OW67976   8.728   6.513   4.396
22006SOL    HW167977   8.788   6.432   4.398
22006SOL    HW267978   8.768   6.582   4.336
22007SOL     OW67979   8.278   6.859   5.146
22007SOL    HW167980   8.273   6.892   5.241
22007SOL    HW267981   8.192   6.878   5.100
22008SOL     OW67982   8.120   7.202   3.878
22008SOL    HW167983   8.129   7.212   3.779
22008SOL    HW267984   8.080   7.113   3.899
22009SOL     OW67985   0.098   7.306   5.118
22009SOL    HW167986   0.151   7.316   5.034
22009SOL    HW267987   0.071   7.396   5.152
22010SOL     OW67988   7.711   5.912   4.444
22010SOL    HW167989   7.632   5.963   4.410
22010SOL    HW267990   7.702   5.897   4.542
22011SOL     OW67991   8.642   7.198   3.755
22011SOL    HW167992   8.648   7.105   3.792
22011SOL    HW267993   8.583   7.198   3.675
22012SOL     OW67994   8.270   6.588   5.096
22012SOL    HW167995   8.310   6.587   5.004
22012SOL    HW267996   8.280   6.680   5.136
22013SOL     OW67997   8.364   6.496   4.015
22013SOL    HW167998   8.427   6.534   3.947
22013SOL    HW267999   8.404   6.413   4.054
22014SOL     OW68000   8.952   7.193   3.768
22014SOL    HW168001   8.860   7.230   3.775
22014SOL    HW268002   8.990   7.213   3.678
22015SOL     OW68003   7.820   6.874   5.214
22015SOL    HW168004   7.807   6.967   5.180
22015SOL    HW268005   7.736   6.822   5.201
22016SOL     OW68006   0.062   6.878   5.013
22016SOL    HW168007   0.122   6.881   5.093
22016SOL    HW268008  -0.013   6.942   5.026
22017SOL     OW68009   8.487   6.684   4.420
22017SOL    HW168010   8.417   6.637   4.474
22017SOL    HW268011   8.546   6.616   4.377
22018SOL     OW68012   8.462   5.822   4.695
22018SOL    HW168013   8.454   5.786   4.602
22018SOL    HW268014   8.460   5.746   4.760
22019SOL     OW68015   8.038   7.073   4.215
22019SOL    HW168016   8.080   7.015   4.145
22019SOL    HW268017   7.994   7.152   4.171
22020SOL     OW68018   0.157   5.971   5.105
22020SOL    HW168019   0.230   6.040   5.109
22020SOL    HW268020   0.185   5.896   5.046
22021SOL     OW68021   7.703   6.934   4.014
22021SOL    HW168022   7.607   6.935   3.987
22021SOL    HW268023   7.715   6.987   4.098
22022SOL     OW68024   7.553   6.599   5.450
22022SOL    HW168025   7.476   6.566   5.504
22022SOL    HW268026   7.638   6.569   5.492
22023SOL     OW68027   8.120   5.789   5.213
22023SOL    HW168028   8.210   5.773   5.173
22023SOL    HW268029   8.128   5.794   5.312
22024SOL     OW68030   7.523   5.931   3.757
22024SOL    HW168031   7.431   5.903   3.728
22024SOL    HW268032   7.554   6.008   3.701
22025SOL     OW68033   8.888   6.442   5.122
22025SOL    HW168034   8.831   6.494   5.059
22025SOL    HW268035   8.984   6.454   5.098
22026SOL     OW68036   7.520   5.752   4.042
22026SOL    HW168037   7.503   5.835   3.988
22026SOL    HW268038   7.610   5.715   4.020
22027SOL     OW68039   8.631   6.921   3.843
22027SOL    HW168040   8.532   6.910   3.845
22027SOL    HW268041   8.665   6.936   3.936
22028SOL     OW68042   8.061   6.428   5.155
22028SOL    HW168043   8.117   6.509   5.138
22028SOL    HW268044   8.120   6.348   5.158
22029SOL     OW68045   8.941   7.353   4.683
22029SOL    HW168046   8.974   7.417   4.614
22029SOL    HW268047   9.007   7.347   4.758
22030SOL     OW68048   8.164   6.151   5.432
22030SOL    HW168049   8.183   6.216   5.506
22030SOL    HW268050   8.224   6.071   5.441
22031SOL     OW68051   8.898   6.806   5.357
22031SOL    HW168052   8.889   6.796   5.456
22031SOL    HW268053   8.994   6.799   5.331
22032SOL     OW68054   7.838   7.327   5.284
22032SOL    HW168055   7.747   7.368   5.282
22032SOL    HW268056   7.831   7.233   5.316
22033SOL     OW68057   0.122   6.469   4.978
22033SOL    HW168058   0.095   6.380   4.941
22033SOL    HW268059   0.123   6.537   4.905
22034SOL     OW68060   8.673   5.911   4.173
22034SOL    HW168061   8.738   5.837   4.162
22034SOL    HW268062   8.693   5.961   4.257
22035SOL     OW68063   8.042   6.331   4.376
22035SOL    HW168064   8.092   6.416   4.357
22035SOL    HW268065   7.954   6.333   4.328
22036SOL     OW68066   0.225   5.928   5.366
22036SOL    HW168067   0.208   5.959   5.272
22036SOL    HW268068   0.141   5.891   5.404
22037SOL     OW68069   0.178   6.520   5.241
22037SOL    HW168070   0.216   6.611   5.256
22037SOL    HW268071   0.170   6.503   5.142
22038SOL     OW68072   8.307   6.960   3.740
22038SOL    HW168073   8.261   6.975   3.828
22038SOL    HW268074   8.351   7.045   3.710
22039SOL     OW68075   8.109   7.376   4.677
22039SOL    HW168076   8.063   7.464   4.664
22039SOL    HW268077   8.208   7.388   4.670
22040SOL     OW68078   8.307   6.542   4.585
22040SOL    HW168079   8.361   6.473   4.633
22040SOL    HW268080   8.275   6.611   4.651
22041SOL     OW68081   8.531   6.570   3.811
22041SOL    HW168082   8.508   6.623   3.729
22041SOL    HW268083   8.612   6.514   3.792
22042SOL     OW68084   7.669   6.900   5.568
22042SOL    HW168085   7.604   6.827   5.547
22042SOL    HW268086   7.673   6.914   5.666
22043SOL     OW68087   7.527   6.826   4.377
22043SOL    HW168088   7.526   6.779   4.465
22043SOL    HW268089   7.609   6.798   4.326
22044SOL     OW68090   8.120   6.977   5.348
22044SOL    HW168091   8.042   6.927   5.386
22044SOL    HW268092   8.117   7.072   5.379
22045SOL     OW68093   7.876   6.010   4.244
22045SOL    HW168094   7.906   5.938   4.182
22045SOL    HW268095   7.837   5.970   4.327
22046SOL     OW68096   0.153   7.073   4.828
22046SOL    HW168097   0.060   7.048   4.801
22046SOL    HW268098   0.179   7.023   4.910
22047SOL     OW68099   7.765   6.133   5.004
22047SOL    HW168100   7.803   6.074   5.076
22047SOL    HW268101   7.805   6.107   4.916
22048SOL     OW68102   8.260   7.172   4.411
22048SOL    HW168103   8.292   7.182   4.317
22048SOL    HW268104   8.181   7.110   4.413
22049SOL     OW68105   8.872   5.800   4.836
22049SOL    HW168106   8.924   5.735   4.891
22049SOL    HW268107   8.823   5.863   4.897
22050SOL     OW68108   8.449   5.620   4.878
22050SOL    HW168109   8.386   5.548   4.847
22050SOL    HW268110   8.542   5.584   4.878
22051SOL     OW68111   8.218   6.916   4.025
22051SOL    HW168112   8.172   6.829   4.042
22051SOL    HW268113   8.309   6.913   4.066
22052SOL     OW68114   8.066   7.153   5.008
22052SOL    HW168115   8.061   7.235   5.065
22052SOL    HW268116   8.155   7.150   4.963
22053SOL     OW68117   8.800   5.638   3.892
22053SOL    HW168118   8.835   5.597   3.808
22053SOL    HW268119   8.710   5.600   3.912
22054SOL     OW68120   8.748   6.039   4.415
22054SOL    HW168121   8.689   6.119   4.419
22054SOL    HW268122   8.763   6.004   4.508
22055SOL     OW68123   0.041   5.807   4.606
22055SOL    HW168124  -0.043   5.806   4.660
22055SOL    HW268125   0.043   5.890   4.550
22056SOL     OW68126   7.487   6.663   4.024
22056SOL    HW168127   7.586   6.652   4.015
22056SOL    HW268128   7.447   6.577   4.056
22057SOL     OW68129   8.323   7.232   4.061
22057SOL    HW168130   8.246   7.197   4.007
22057SOL    HW268131   8.291   7.303   4.123
22058SOL     OW68132   7.678   6.214   5.699
22058SOL    HW168133   7.585   6.212   5.736
22058SOL    HW268134   7.679   6.175   5.607
22059SOL     OW68135   7.673   5.861   6.582
22059SOL    HW168136   7.708   5.844   6.674
22059SOL    HW268137   7.585   5.816   6.570
22060SOL     OW68138   7.467   5.954   6.233
22060SOL    HW168139   7.385   5.997   6.272
22060SOL    HW268140   7.439   5.881   6.170
22061SOL     OW68141   8.017   6.861   6.751
22061SOL    HW168142   7.924   6.854   6.714
22061SOL    HW268143   8.028   6.950   6.795
22062SOL     OW68144   0.003   7.097   6.289
22062SOL    HW168145  -0.054   7.081   6.370
22062SOL    HW268146  -0.056   7.107   6.209
22063SOL     OW68147   0.191   6.204   6.442
22063SOL    HW168148   0.224   6.298   6.442
22063SOL    HW268149   0.242   6.150   6.508
22064SOL     OW68150   8.583   6.289   6.303
22064SOL    HW168151   8.640   6.367   6.278
22064SOL    HW268152   8.523   6.315   6.379
22065SOL     OW68153   0.203   6.193   5.817
22065SOL    HW168154   0.191   6.180   5.718
22065SOL    HW268155   0.173   6.112   5.866
22066SOL     OW68156   8.216   6.730   6.609
22066SOL    HW168157   8.138   6.747   6.669
22066SOL    HW268158   8.250   6.817   6.573
22067SOL     OW68159   8.298   6.384   7.409
22067SOL    HW168160   8.294   6.460   7.474
22067SOL    HW268161   8.320   6.420   7.318
22068SOL     OW68162   8.133   6.598   6.251
22068SOL    HW168163   8.202   6.582   6.321
22068SOL    HW268164   8.060   6.655   6.289
22069SOL     OW68165   8.134   6.747   7.389
22069SOL    HW168166   8.194   6.826   7.403
22069SOL    HW268167   8.048   6.778   7.348
22070SOL     OW68168   7.783   7.021   6.647
22070SOL    HW168169   7.705   6.990   6.594
22070SOL    HW268170   7.841   7.079   6.590
22071SOL     OW68171   8.908   7.091   6.925
22071SOL    HW168172   8.932   7.185   6.951
22071SOL    HW268173   8.892   7.037   7.007
22072SOL     OW68174   7.886   5.978   7.085
22072SOL    HW168175   7.968   5.922   7.094
22072SOL    HW268176   7.805   5.920   7.089
22073SOL     OW68177   7.679   7.299   6.069
22073SOL    HW168178   7.713   7.376   6.123
22073SOL    HW268179   7.723   7.299   5.979
22074SOL     OW68180   8.575   6.927   7.276
22074SOL    HW168181   8.622   6.927   7.364
22074SOL    HW268182   8.527   6.840   7.265
22075SOL     OW68183   7.678   7.020   6.124
22075SOL    HW168184   7.652   7.116   6.124
22075SOL    HW268185   7.607   6.966   6.169
22076SOL     OW68186   7.688   6.677   6.472
22076SOL    HW168187   7.702   6.593   6.524
22076SOL    HW268188   7.633   6.741   6.527
22077SOL     OW68189   8.068   7.372   7.025
22077SOL    HW168190   7.976   7.355   7.060
22077SOL    HW268191   8.096   7.464   7.051
22078SOL     OW68192   8.054   6.550   5.709
22078SOL    HW168193   8.061   6.634   5.655
22078SOL    HW268194   8.100   6.563   5.797
22079SOL     OW68195   0.042   5.700   7.066
22079SOL    HW168196   0.024   5.767   6.994
22079SOL    HW268197   0.039   5.746   7.155
22080SOL     OW68198   7.570   6.229   6.149
22080SOL    HW168199   7.525   6.141   6.166
22080SOL    HW268200   7.569   6.283   6.233
22081SOL     OW68201   7.475   7.182   5.703
22081SOL    HW168202   7.456   7.086   5.724
22081SOL    HW268203   7.442   7.240   5.778
22082SOL     OW68204   0.137   6.508   6.198
22082SOL    HW168205   0.232   6.479   6.206
22082SOL    HW268206   0.129   6.573   6.123
22083SOL     OW68207   0.089   6.694   6.018
22083SOL    HW168208   0.175   6.696   5.966
22083SOL    HW268209   0.103   6.741   6.106
22084SOL     OW68210   7.561   6.323   7.183
22084SOL    HW168211   7.649   6.310   7.228
22084SOL    HW268212   7.548   6.420   7.161
22085SOL     OW68213   8.061   6.951   6.312
22085SOL    HW168214   8.012   6.864   6.321
22085SOL    HW268215   8.038   6.994   6.225
22086SOL     OW68216   8.741   6.814   7.009
22086SOL    HW168217   8.778   6.741   6.951
22086SOL    HW268218   8.793   6.819   7.094
22087SOL     OW68219   8.257   5.590   6.088
22087SOL    HW168220   8.297   5.681   6.079
22087SOL    HW268221   8.157   5.598   6.094
22088SOL     OW68222   7.645   6.562   6.850
22088SOL    HW168223   7.734   6.517   6.836
22088SOL    HW268224   7.572   6.497   6.831
22089SOL     OW68225   8.973   6.585   5.776
22089SOL    HW168226   8.910   6.509   5.789
22089SOL    HW268227   9.021   6.603   5.862
22090SOL     OW68228   8.635   7.378   7.202
22090SOL    HW168229   8.659   7.438   7.126
22090SOL    HW268230   8.642   7.283   7.172
22091SOL     OW68231   7.765   5.837   7.387
22091SOL    HW168232   7.836   5.908   7.393
22091SOL    HW268233   7.677   5.876   7.415
22092SOL     OW68234   8.914   7.003   6.539
22092SOL    HW168235   8.855   7.009   6.619
22092SOL    HW268236   8.899   6.915   6.493
22093SOL     OW68237   0.115   7.300   6.158
22093SOL    HW168238   0.074   7.277   6.070
22093SOL    HW268239   0.097   7.226   6.223
22094SOL     OW68240   8.046   6.315   5.856
22094SOL    HW168241   8.070   6.384   5.788
22094SOL    HW268242   7.968   6.348   5.910
22095SOL     OW68243   8.729   5.931   6.530
22095SOL    HW168244   8.643   5.881   6.517
22095SOL    HW268245   8.791   5.877   6.586
22096SOL     OW68246   0.024   7.248   5.893
22096SOL    HW168247   0.113   7.294   5.896
22096SOL    HW268248   0.003   7.224   5.798
22097SOL     OW68249   8.255   6.191   7.051
22097SOL    HW168250   8.208   6.188   7.140
22097SOL    HW268251   8.204   6.136   6.985
22098SOL     OW68252   8.842   6.055   7.260
22098SOL    HW168253   8.822   6.098   7.348
22098SOL    HW268254   8.920   5.993   7.269
22099SOL     OW68255   8.421   6.476   7.158
22099SOL    HW168256   8.467   6.392   7.129
22099SOL    HW268257   8.365   6.510   7.083
22100SOL     OW68258   8.439   5.996   6.828
22100SOL    HW168259   8.362   6.030   6.882
22100SOL    HW268260   8.405   5.945   6.749
22101SOL     OW68261   8.489   6.287   6.015
22101SOL    HW168262   8.515   6.283   6.111
22101SOL    HW268263   8.404   6.236   6.001
22102SOL     OW68264   7.524   6.397   6.375
22102SOL    HW168265   7.623   6.385   6.384
22102SOL    HW268266   7.500   6.492   6.396
22103SOL     OW68267   7.578   7.407   7.157
22103SOL    HW168268   7.568   7.392   7.256
22103SOL    HW268269   7.492   7.443   7.121
22104SOL     OW68270   8.313   5.934   5.781
22104SOL    HW168271   8.372   5.997   5.732
22104SOL    HW268272   8.332   5.840   5.752
22105SOL     OW68273   0.167   6.171   7.417
22105SOL    HW168274   0.141   6.260   7.381
22105SOL    HW268275   0.165   6.103   7.344
22106SOL     OW68276   8.810   6.730   6.131
22106SOL    HW168277   8.893   6.701   6.083
22106SOL    HW268278   8.761   6.797   6.075
22107SOL     OW68279   7.998   5.782   6.471
22107SOL    HW168280   7.993   5.777   6.571
22107SOL    HW268281   8.000   5.878   6.442
22108SOL     OW68282   8.456   7.042   6.063
22108SOL    HW168283   8.410   7.114   6.011
22108SOL    HW268284   8.452   7.062   6.161
22109SOL     OW68285   7.799   7.387   6.439
22109SOL    HW168286   7.849   7.301   6.445
22109SOL    HW268287   7.864   7.464   6.436
22110SOL     OW68288   0.243   6.652   6.459
22110SOL    HW168289   0.181   6.637   6.383
22110SOL    HW268290   0.191   6.663   6.544
22111SOL     OW68291   8.675   7.136   7.092
22111SOL    HW168292   8.681   7.059   7.156
22111SOL    HW268293   8.623   7.110   7.012
22112SOL     OW68294   7.769   6.529   5.828
22112SOL    HW168295   7.851   6.568   5.786
22112SOL    HW268296   7.742   6.447   5.779
22113SOL     OW68297   8.906   6.321   6.314
22113SOL    HW168298   8.901   6.256   6.389
22113SOL    HW268299   8.986   6.380   6.327
22114SOL     OW68300   7.909   6.852   7.313
22114SOL    HW168301   7.859   6.853   7.227
22114SOL    HW268302   7.846   6.834   7.389
22115SOL     OW68303   8.559   7.362   5.823
22115SOL    HW168304   8.499   7.300   5.873
22115SOL    HW268305   8.590   7.318   5.738
22116SOL     OW68306   7.650   5.871   7.084
22116SOL    HW168307   7.570   5.931   7.071
22116SOL    HW268308   7.640   5.822   7.170
22117SOL     OW68309   0.080   6.963   5.667
22117SOL    HW168310   0.048   7.057   5.657
22117SOL    HW268311   0.004   6.900   5.655
22118SOL     OW68312   7.912   7.329   5.909
22118SOL    HW168313   7.945   7.368   5.995
22118SOL    HW268314   7.988   7.322   5.844
22119SOL     OW68315   8.848   5.693   6.012
22119SOL    HW168316   8.824   5.656   5.922
22119SOL    HW268317   8.947   5.709   6.016
22120SOL     OW68318   7.697   7.371   6.827
22120SOL    HW168319   7.754   7.306   6.877
22120SOL    HW268320   7.681   7.338   6.734
22121SOL     OW68321   8.388   7.284   6.490
22121SOL    HW168322   8.468   7.227   6.511
22121SOL    HW268323   8.339   7.244   6.413
22122SOL     OW68324   7.830   6.286   6.066
22122SOL    HW168325   7.875   6.196   6.063
22122SOL    HW268326   7.736   6.275   6.099
22123SOL     OW68327   8.995   5.808   7.315
22123SOL    HW168328   8.990   5.845   7.407
22123SOL    HW268329   8.923   5.739   7.303
22124SOL     OW68330   8.062   5.708   5.703
22124SOL    HW168331   8.160   5.686   5.710
22124SOL    HW268332   8.031   5.691   5.610
22125SOL     OW68333   8.229   5.850   7.335
22125SOL    HW168334   8.296   5.789   7.378
22125SOL    HW268335   8.156   5.869   7.400
22126SOL     OW68336   8.336   7.100   6.781
22126SOL    HW168337   8.313   7.075   6.687
22126SOL    HW268338   8.397   7.031   6.820
22127SOL     OW68339   8.799   6.176   7.019
22127SOL    HW168340   8.827   6.133   7.104
22127SOL    HW268341   8.824   6.272   7.020
22128SOL     OW68342   8.251   6.988   6.510
22128SOL    HW168343   8.341   7.002   6.468
22128SOL    HW268344   8.180   6.990   6.439
22129SOL     OW68345   8.370   6.089   6.485
22129SOL    HW168346   8.345   6.080   6.389
22129SOL    HW268347   8.418   6.007   6.516
22130SOL     OW68348   7.987   5.650   6.098
22130SOL    HW168349   7.906   5.651   6.156
22130SOL    HW268350   7.990   5.733   6.043
22131SOL     OW68351   8.882   6.774   5.627
22131SOL    HW168352   8.914   6.698   5.684
22131SOL    HW268353   8.790   6.801   5.657
22132SOL     OW68354   7.745   5.621   5.757
22132SOL    HW168355   7.794   5.705   5.736
22132SOL    HW268356   7.807   5.556   5.802
22133SOL     OW68357   8.383   5.822   6.066
22133SOL    HW168358   8.335   5.863   5.988
22133SOL    HW268359   8.482   5.820   6.047
22134SOL     OW68360   8.524   6.269   7.050
22134SOL    HW168361   8.444   6.208   7.053
22134SOL    HW268362   8.605   6.216   7.026
22135SOL     OW68363   8.675   7.156   6.379
22135SOL    HW168364   8.696   7.230   6.314
22135SOL    HW268365   8.743   7.156   6.452
22136SOL     OW68366   7.907   6.738   6.327
22136SOL    HW168367   7.836   6.711   6.392
22136SOL    HW268368   7.881   6.710   6.234
22137SOL     OW68369   8.719   7.383   6.177
22137SOL    HW168370   8.763   7.447   6.113
22137SOL    HW268371   8.669   7.435   6.247
22138SOL     OW68372   8.480   6.135   5.602
22138SOL    HW168373   8.439   6.217   5.563
22138SOL    HW268374   8.544   6.161   5.675
22139SOL     OW68375   7.526   6.142   6.972
22139SOL    HW168376   7.618   6.141   6.931
22139SOL    HW268377   7.520   6.216   7.039
22140SOL     OW68378   8.009   5.808   6.733
22140SOL    HW168379   8.047   5.724   6.770
22140SOL    HW268380   7.921   5.827   6.777
22141SOL     OW68381   8.314   6.040   6.228
22141SOL    HW168382   8.282   6.112   6.166
22141SOL    HW268383   8.338   5.959   6.175
22142SOL     OW68384   8.465   5.625   6.339
22142SOL    HW168385   8.393   5.630   6.270
22142SOL    HW268386   8.441   5.556   6.408
22143SOL     OW68387   8.877   6.759   6.453
22143SOL    HW168388   8.822   6.675   6.446
22143SOL    HW268389   8.903   6.788   6.361
22144SOL     OW68390   8.914   6.176   6.578
22144SOL    HW168391   8.884   6.081   6.585
22144SOL    HW268392   8.987   6.192   6.644
22145SOL     OW68393   7.936   6.971   5.760
22145SOL    HW168394   7.849   6.956   5.807
22145SOL    HW268395   7.919   6.997   5.665
22146SOL     OW68396   0.112   6.866   6.243
22146SOL    HW168397   0.211   6.874   6.257
22146SOL    HW268398   0.067   6.950   6.274
22147SOL     OW68399   8.838   6.161   5.664
22147SOL    HW168400   8.784   6.140   5.745
22147SOL    HW268401   8.929   6.120   5.673
22148SOL     OW68402   7.975   5.842   5.914
22148SOL    HW168403   8.002   5.783   5.839
22148SOL    HW268404   7.975   5.937   5.883
22149SOL     OW68405   8.512   6.933   6.926
22149SOL    HW168406   8.432   6.910   6.981
22149SOL    HW268407   8.595   6.907   6.975
22150SOL     OW68408   0.040   7.215   7.211
22150SOL    HW168409   0.067   7.249   7.121
22150SOL    HW268410   0.119   7.177   7.257
22151SOL     OW68411   8.559   6.781   6.686
22151SOL    HW168412   8.519   6.825   6.767
22151SOL    HW268413   8.518   6.818   6.603
22152SOL     OW68414   0.086   6.685   6.665
22152SOL    HW168415   0.091   6.766   6.724
22152SOL    HW268416   0.000   6.687   6.614
22153SOL     OW68417   8.363   5.675   6.988
22153SOL    HW168418   8.388   5.655   6.893
22153SOL    HW268419   8.435   5.731   7.030
22154SOL     OW68420   8.428   6.702   7.305
22154SOL    HW168421   8.329   6.708   7.315
22154SOL    HW268422   8.451   6.622   7.249
22155SOL     OW68423   8.153   6.636   5.954
22155SOL    HW168424   8.139   6.643   6.053
22155SOL    HW268425   8.237   6.585   5.936
22156SOL     OW68426   7.858   6.399   6.837
22156SOL    HW168427   7.944   6.411   6.887
22156SOL    HW268428   7.816   6.312   6.864
22157SOL     OW68429   8.722   5.972   6.848
22157SOL    HW168430   8.743   6.046   6.912
22157SOL    HW268431   8.633   5.989   6.805
22158SOL     OW68432   7.512   7.150   6.917
22158SOL    HW168433   7.466   7.232   6.883
22158SOL    HW268434   7.610   7.169   6.926
22159SOL     OW68435   7.815   6.686   6.087
22159SOL    HW168436   7.808   6.769   6.031
22159SOL    HW268437   7.819   6.606   6.027
22160SOL     OW68438   8.014   6.123   6.451
22160SOL    HW168439   8.026   6.189   6.377
22160SOL    HW268440   8.060   6.157   6.534
22161SOL     OW68441   8.700   6.934   5.974
22161SOL    HW168442   8.750   7.011   6.014
22161SOL    HW268443   8.605   6.936   6.006
22162SOL     OW68444   8.720   7.031   6.728
22162SOL    HW168445   8.767   7.044   6.815
22162SOL    HW268446   8.654   6.957   6.737
22163SOL     OW68447   0.030   6.225   6.058
22163SOL    HW168448  -0.001   6.286   6.131
22163SOL    HW268449   0.080   6.277   5.989
22164SOL     OW68450   7.802   7.096   6.915
22164SOL    HW168451   7.781   7.052   6.828
22164SOL    HW268452   7.899   7.122   6.918
22165SOL     OW68453   7.850   6.337   7.184
22165SOL    HW168454   7.918   6.392   7.137
22165SOL    HW268455   7.890   6.249   7.211
22166SOL     OW68456   0.035   6.365   7.256
22166SOL    HW168457  -0.057   6.403   7.251
22166SOL    HW268458   0.095   6.412   7.191
22167SOL     OW68459   8.461   5.691   7.356
22167SOL    HW168460   8.467   5.776   7.304
22167SOL    HW268461   8.493   5.615   7.299
22168SOL     OW68462   7.952   5.636   7.326
22168SOL    HW168463   7.910   5.579   7.256
22168SOL    HW268464   7.886   5.705   7.358
22169SOL     OW68465   8.021   6.456   6.615
22169SOL    HW168466   8.065   6.545   6.606
22169SOL    HW268467   7.958   6.456   6.692
22170SOL     OW68468   8.808   6.448   6.631
22170SOL    HW168469   8.733   6.448   6.565
22170SOL    HW268470   8.845   6.356   6.640
22171SOL     OW68471   8.657   6.111   5.861
22171SOL    HW168472   8.670   6.027   5.915
22171SOL    HW268473   8.628   6.185   5.921
22172SOL     OW68474   7.755   5.799   6.817
22172SOL    HW168475   7.732   5.836   6.907
22172SOL    HW268476   7.725   5.704   6.811
22173SOL     OW68477   7.485   6.896   6.868
22173SOL    HW168478   7.538   6.847   6.936
22173SOL    HW268479   7.507   6.994   6.873
22174SOL     OW68480   8.180   6.220   6.650
22174SOL    HW168481   8.239   6.194   6.574
22174SOL    HW268482   8.152   6.316   6.639
22175SOL     OW68483   0.176   6.521   7.440
22175SOL    HW168484   0.130   6.514   7.351
22175SOL    HW268485   0.114   6.565   7.506
22176SOL     OW68486   7.755   5.649   6.204
22176SOL    HW168487   7.744   5.743   6.237
22176SOL    HW268488   7.750   5.586   6.281
22177SOL     OW68489   0.070   5.953   5.960
22177SOL    HW168490   0.072   5.877   6.024
22177SOL    HW268491   0.022   6.030   6.000
22178SOL     OW68492   8.471   6.352   6.552
22178SOL    HW168493   8.486   6.373   6.648
22178SOL    HW268494   8.441   6.257   6.543
22179SOL     OW68495   8.428   7.159   7.286
22179SOL    HW168496   8.408   7.203   7.198
22179SOL    HW268497   8.467   7.068   7.270
22180SOL     OW68498   7.798   6.484   7.390
22180SOL    HW168499   7.874   6.528   7.438
22180SOL    HW268500   7.833   6.437   7.308
22181SOL     OW68501   8.988   5.860   5.711
22181SOL    HW168502   8.927   5.785   5.734
22181SOL    HW268503   9.010   5.912   5.794
22182SOL     OW68504   8.751   6.424   5.628
22182SOL    HW168505   8.785   6.331   5.643
22182SOL    HW268506   8.769   6.451   5.533
22183SOL     OW68507   8.516   6.919   6.435
22183SOL    HW168508   8.523   6.835   6.380
22183SOL    HW268509   8.578   6.988   6.399
22184SOL     OW68510   7.767   6.396   6.535
22184SOL    HW168511   7.860   6.432   6.540
22184SOL    HW268512   7.761   6.311   6.587
22185SOL     OW68513   7.787   6.095   6.592
22185SOL    HW168514   7.735   6.012   6.575
22185SOL    HW268515   7.864   6.100   6.528
22186SOL     OW68516   7.959   6.001   7.394
22186SOL    HW168517   7.941   6.046   7.482
22186SOL    HW268518   8.001   6.066   7.331
22187SOL     OW68519   8.586   5.966   7.264
22187SOL    HW168520   8.541   6.029   7.328
22187SOL    HW268521   8.679   5.997   7.247
22188SOL     OW68522   8.608   5.793   7.063
22188SOL    HW168523   8.608   5.857   7.140
22188SOL    HW268524   8.636   5.841   6.980
22189SOL     OW68525   7.456   6.912   5.786
22189SOL    HW168526   7.363   6.933   5.755
22189SOL    HW268527   7.466   6.813   5.799
22190SOL     OW68528   7.536   7.387   6.513
22190SOL    HW168529   7.494   7.301   6.486
22190SOL    HW268530   7.630   7.390   6.479
22191SOL     OW68531   7.952   7.154   6.496
22191SOL    HW168532   8.018   7.228   6.505
22191SOL    HW268533   7.996   7.075   6.454
22192SOL     OW68534   8.450   6.382   6.824
22192SOL    HW168535   8.491   6.350   6.910
22192SOL    HW268536   8.354   6.355   6.821
22193SOL     OW68537   7.488   6.130   6.700
22193SOL    HW168538   7.573   6.097   6.659
22193SOL    HW268539   7.501   6.145   6.798
22194SOL     OW68540   7.637   6.106   7.308
22194SOL    HW168541   7.696   6.066   7.238
22194SOL    HW268542   7.579   6.177   7.267
22195SOL     OW68543   8.817   6.536   7.246
22195SOL    HW168544   8.856   6.625   7.266
22195SOL    HW268545   8.827   6.516   7.149
22196SOL     OW68546   8.263   6.158   5.911
22196SOL    HW168547   8.270   6.069   5.865
22196SOL    HW268548   8.169   6.192   5.903
22197SOL     OW68549   0.105   6.190   6.792
22197SOL    HW168550   0.067   6.121   6.854
22197SOL    HW268551   0.187   6.154   6.748
22198SOL     OW68552   7.700   7.150   7.330
22198SOL    HW168553   7.670   7.207   7.406
22198SOL    HW268554   7.693   7.053   7.356
22199SOL     OW68555   8.119   6.050   6.855
22199SOL    HW168556   8.085   5.961   6.825
22199SOL    HW268557   8.145   6.104   6.775
22200SOL     OW68558   8.378   7.264   7.051
22200SOL    HW168559   8.354   7.246   6.956
22200SOL    HW268560   8.408   7.358   7.061
22201SOL     OW68561   7.921   6.086   5.777
22201SOL    HW168562   7.982   6.166   5.781
22201SOL    HW268563   7.826   6.117   5.784
22202SOL     OW68564   7.607   6.723   7.052
22202SOL    HW168565   7.629   6.662   7.128
22202SOL    HW268566   7.617   6.674   6.966
22203SOL     OW68567   8.795   6.645   6.820
22203SOL    HW168568   8.819   6.582   6.746
22203SOL    HW268569   8.705   6.685   6.802
22204SOL     OW68570   8.750   6.441   5.895
22204SOL    HW168571   8.664   6.410   5.937
22204SOL    HW268572   8.746   6.427   5.796
22205SOL     OW68573   8.700   7.317   6.714
22205SOL    HW168574   8.784   7.322   6.660
22205SOL    HW268575   8.677   7.221   6.732
22206SOL     OW68576   7.531   6.844   6.608
22206SOL    HW168577   7.526   6.843   6.708
22206SOL    HW268578   7.448   6.803   6.570
22207SOL     OW68579   8.136   7.248   7.302
22207SOL    HW168580   8.080   7.329   7.311
22207SOL    HW268581   8.188   7.252   7.216
22208SOL     OW68582   8.351   5.672   5.719
22208SOL    HW168583   8.402   5.673   5.633
22208SOL    HW268584   8.407   5.630   5.790
22209SOL     OW68585   0.174   5.721   6.109
22209SOL    HW168586   0.247   5.704   6.042
22209SOL    HW268587   0.143   5.634   6.147
22210SOL     OW68588   8.836   7.159   6.063
22210SOL    HW168589   8.903   7.171   5.989
22210SOL    HW268590   8.796   7.248   6.086
22211SOL     OW68591   7.578   7.380   7.437
22211SOL    HW168592   7.537   7.306   7.490
22211SOL    HW268593   7.642   7.431   7.495
22212SOL     OW68594   8.728   6.513   6.258
22212SOL    HW168595   8.788   6.432   6.260
22212SOL    HW268596   8.768   6.582   6.198
22213SOL     OW68597   8.278   6.859   7.008
22213SOL    HW168598   8.273   6.892   7.103
22213SOL    HW268599   8.192   6.878   6.962
22214SOL     OW68600   8.120   7.202   5.740
22214SOL    HW168601   8.129   7.212   5.641
22214SOL    HW268602   8.080   7.113   5.761
22215SOL     OW68603   0.098   7.306   6.980
22215SOL    HW168604   0.151   7.316   6.896
22215SOL    HW268605   0.071   7.396   7.014
22216SOL     OW68606   7.711   5.912   6.306
22216SOL    HW168607   7.632   5.963   6.272
22216SOL    HW268608   7.702   5.897   6.404
22217SOL     OW68609   8.642   7.198   5.617
22217SOL    HW168610   8.648   7.105   5.654
22217SOL    HW268611   8.583   7.198   5.537
22218SOL     OW68612   8.270   6.588   6.958
22218SOL    HW168613   8.310   6.587   6.866
22218SOL    HW268614   8.280   6.680   6.998
22219SOL     OW68615   8.364   6.496   5.877
22219SOL    HW168616   8.427   6.534   5.809
22219SOL    HW268617   8.404   6.413   5.916
22220SOL     OW68618   8.952   7.193   5.630
22220SOL    HW168619   8.860   7.230   5.637
22220SOL    HW268620   8.990   7.213   5.540
22221SOL     OW68621   7.820   6.874   7.076
22221SOL    HW168622   7.807   6.967   7.042
22221SOL    HW268623   7.736   6.822   7.063
22222SOL     OW68624   0.062   6.878   6.875
22222SOL    HW168625   0.122   6.881   6.955
22222SOL    HW268626  -0.013   6.942   6.888
22223SOL     OW68627   8.487   6.684   6.282
22223SOL    HW168628   8.417   6.637   6.336
22223SOL    HW268629   8.546   6.616   6.239
22224SOL     OW68630   8.462   5.822   6.557
22224SOL    HW168631   8.454   5.786   6.464
22224SOL    HW268632   8.460   5.746   6.622
22225SOL     OW68633   8.038   7.073   6.077
22225SOL    HW168634   8.080   7.015   6.007
22225SOL    HW268635   7.994   7.152   6.033
22226SOL     OW68636   0.157   5.971   6.967
22226SOL    HW168637   0.230   6.040   6.971
22226SOL    HW268638   0.185   5.896   6.908
22227SOL     OW68639   7.703   6.934   5.876
22227SOL    HW168640   7.607   6.935   5.849
22227SOL    HW268641   7.715   6.987   5.960
22228SOL     OW68642   7.553   6.599   7.312
22228SOL    HW168643   7.476   6.566   7.366
22228SOL    HW268644   7.638   6.569   7.354
22229SOL     OW68645   8.120   5.789   7.075
22229SOL    HW168646   8.210   5.773   7.035
22229SOL    HW268647   8.128   5.794   7.174
22230SOL     OW68648   7.523   5.931   5.619
22230SOL    HW168649   7.431   5.903   5.590
22230SOL    HW268650   7.554   6.008   5.563
22231SOL     OW68651   8.888   6.442   6.984
22231SOL    HW168652   8.831   6.494   6.921
22231SOL    HW268653   8.984   6.454   6.960
22232SOL     OW68654   7.520   5.752   5.904
22232SOL    HW168655   7.503   5.835   5.850
22232SOL    HW268656   7.610   5.715   5.882
22233SOL     OW68657   8.631   6.921   5.705
22233SOL    HW168658   8.532   6.910   5.707
22233SOL    HW268659   8.665   6.936   5.798
22234SOL     OW68660   8.061   6.428   7.017
22234SOL    HW168661   8.117   6.509   7.000
22234SOL    HW268662   8.120   6.348   7.020
22235SOL     OW68663   8.941   7.353   6.545
22235SOL    HW168664   8.974   7.417   6.476
22235SOL    HW268665   9.007   7.347   6.620
22236SOL     OW68666   8.164   6.151   7.294
22236SOL    HW168667   8.183   6.216   7.368
22236SOL    HW268668   8.224   6.071   7.303
22237SOL     OW68669   8.898   6.806   7.219
22237SOL    HW168670   8.889   6.796   7.318
22237SOL    HW268671   8.994   6.799   7.193
22238SOL     OW68672   7.838   7.327   7.146
22238SOL    HW168673   7.747   7.368   7.144
22238SOL    HW268674   7.831   7.233   7.178
22239SOL     OW68675   0.122   6.469   6.840
22239SOL    HW168676   0.095   6.380   6.803
22239SOL    HW268677   0.123   6.537   6.767
22240SOL     OW68678   8.673   5.911   6.035
22240SOL    HW168679   8.738   5.837   6.024
22240SOL    HW268680   8.693   5.961   6.119
22241SOL     OW68681   8.042   6.331   6.238
22241SOL    HW168682   8.092   6.416   6.219
22241SOL    HW268683   7.954   6.333   6.190
22242SOL     OW68684   0.225   5.928   7.228
22242SOL    HW168685   0.208   5.959   7.134
22242SOL    HW268686   0.141   5.891   7.266
22243SOL     OW68687   0.178   6.520   7.103
22243SOL    HW168688   0.216   6.611   7.118
22243SOL    HW268689   0.170   6.503   7.004
22244SOL     OW68690   8.307   6.960   5.602
22244SOL    HW168691   8.261   6.975   5.690
22244SOL    HW268692   8.351   7.045   5.572
22245SOL     OW68693   8.109   7.376   6.539
22245SOL    HW168694   8.063   7.464   6.526
22245SOL    HW268695   8.208   7.388   6.532
22246SOL     OW68696   8.307   6.542   6.447
22246SOL    HW168697   8.361   6.473   6.495
22246SOL    HW268698   8.275   6.611   6.513
22247SOL     OW68699   8.531   6.570   5.673
22247SOL    HW168700   8.508   6.623   5.591
22247SOL    HW268701   8.612   6.514   5.654
22248SOL     OW68702   7.669   6.900   7.430
22248SOL    HW168703   7.604   6.827   7.409
22248SOL    HW268704   7.673   6.914   7.528
22249SOL     OW68705   7.527   6.826   6.239
22249SOL    HW168706   7.526   6.779   6.327
22249SOL    HW268707   7.609   6.798   6.188
22250SOL     OW68708   8.120   6.977   7.210
22250SOL    HW168709   8.042   6.927   7.248
22250SOL    HW268710   8.117   7.072   7.241
22251SOL     OW68711   7.876   6.010   6.106
22251SOL    HW168712   7.906   5.938   6.044
22251SOL    HW268713   7.837   5.970   6.189
22252SOL     OW68714   0.153   7.073   6.690
22252SOL    HW168715   0.060   7.048   6.663
22252SOL    HW268716   0.179   7.023   6.772
22253SOL     OW68717   7.765   6.133   6.866
22253SOL    HW168718   7.803   6.074   6.938
22253SOL    HW268719   7.805   6.107   6.778
22254SOL     OW68720   8.260   7.172   6.273
22254SOL    HW168721   8.292   7.182   6.179
22254SOL    HW268722   8.181   7.110   6.275
22255SOL     OW68723   8.872   5.800   6.698
22255SOL    HW168724   8.924   5.735   6.753
22255SOL    HW268725   8.823   5.863   6.759
22256SOL     OW68726   8.449   5.620   6.740
22256SOL    HW168727   8.386   5.548   6.709
22256SOL    HW268728   8.542   5.584   6.740
22257SOL     OW68729   8.218   6.916   5.887
22257SOL    HW168730   8.172   6.829   5.904
22257SOL    HW268731   8.309   6.913   5.928
22258SOL     OW68732   8.066   7.153   6.870
22258SOL    HW168733   8.061   7.235   6.927
22258SOL    HW268734   8.155   7.150   6.825
22259SOL     OW68735   8.800   5.638   5.754
22259SOL    HW168736   8.835   5.597   5.670
22259SOL    HW268737   8.710   5.600   5.774
22260SOL     OW68738   8.748   6.039   6.277
22260SOL    HW168739   8.689   6.119   6.281
22260SOL    HW268740   8.763   6.004   6.370
22261SOL     OW68741   0.041   5.807   6.468
22261SOL    HW168742  -0.043   5.806   6.522
22261SOL    HW268743   0.043   5.890   6.412
22262SOL     OW68744   7.487   6.663   5.886
22262SOL    HW168745   7.586   6.652   5.877
22262SOL    HW268746   7.447   6.577   5.918
22263SOL     OW68747   8.323   7.232   5.923
22263SOL    HW168748   8.246   7.197   5.869
22263SOL    HW268749   8.291   7.303   5.985
22264SOL     OW68750   7.678   6.214   7.561
22264SOL    HW168751   7.585   6.212   7.598
22264SOL    HW268752   7.679   6.175   7.469
22265SOL     OW68753   7.673   5.861   8.444
22265SOL    HW168754   7.708   5.844   8.536
22265SOL    HW268755   7.585   5.816   8.432
22266SOL     OW68756   7.467   5.954   8.095
22266SOL    HW168757   7.385   5.997   8.134
22266SOL    HW268758   7.439   5.881   8.032
22267SOL     OW68759   8.017   6.861   8.613
22267SOL    HW168760   7.924   6.854   8.576
22267SOL    HW268761   8.028   6.950   8.657
22268SOL     OW68762   0.003   7.097   8.151
22268SOL    HW168763  -0.054   7.081   8.232
22268SOL    HW268764  -0.056   7.107   8.071
22269SOL     OW68765   0.191   6.204   8.304
22269SOL    HW168766   0.224   6.298   8.304
22269SOL    HW268767   0.242   6.150   8.370
22270SOL     OW68768   8.583   6.289   8.165
22270SOL    HW168769   8.640   6.367   8.140
22270SOL    HW268770   8.523   6.315   8.241
22271SOL     OW68771   0.203   6.193   7.679
22271SOL    HW168772   0.191   6.180   7.580
22271SOL    HW268773   0.173   6.112   7.728
22272SOL     OW68774   8.216   6.730   8.471
22272SOL    HW168775   8.138   6.747   8.531
22272SOL    HW268776   8.250   6.817   8.435
22273SOL     OW68777   8.133   6.598   8.113
22273SOL    HW168778   8.202   6.582   8.183
22273SOL    HW268779   8.060   6.655   8.151
22274SOL     OW68780   7.783   7.021   8.509
22274SOL    HW168781   7.705   6.990   8.456
22274SOL    HW268782   7.841   7.079   8.452
22275SOL     OW68783   8.908   7.091   8.787
22275SOL    HW168784   8.932   7.185   8.813
22275SOL    HW268785   8.892   7.037   8.869
22276SOL     OW68786   7.886   5.978   8.947
22276SOL    HW168787   7.968   5.922   8.956
22276SOL    HW268788   7.805   5.920   8.951
22277SOL     OW68789   7.679   7.299   7.931
22277SOL    HW168790   7.713   7.376   7.985
22277SOL    HW268791   7.723   7.299   7.841
22278SOL     OW68792   7.678   7.020   7.986
22278SOL    HW168793   7.652   7.116   7.986
22278SOL    HW268794   7.607   6.966   8.031
22279SOL     OW68795   7.688   6.677   8.334
22279SOL    HW168796   7.702   6.593   8.386
22279SOL    HW268797   7.633   6.741   8.389
22280SOL     OW68798   8.068   7.372   8.887
22280SOL    HW168799   7.976   7.355   8.922
22280SOL    HW268800   8.096   7.464   8.913
22281SOL     OW68801   8.054   6.550   7.571
22281SOL    HW168802   8.061   6.634   7.517
22281SOL    HW268803   8.100   6.563   7.659
22282SOL     OW68804   0.042   5.700   8.928
22282SOL    HW168805   0.024   5.767   8.856
22282SOL    HW268806   0.039   5.746   9.017
22283SOL     OW68807   7.570   6.229   8.011
22283SOL    HW168808   7.525   6.141   8.028
22283SOL    HW268809   7.569   6.283   8.095
22284SOL     OW68810   7.475   7.182   7.565
22284SOL    HW168811   7.456   7.086   7.586
22284SOL    HW268812   7.442   7.240   7.640
22285SOL     OW68813   0.137   6.508   8.060
22285SOL    HW168814   0.232   6.479   8.068
22285SOL    HW268815   0.129   6.573   7.985
22286SOL     OW68816   0.089   6.694   7.880
22286SOL    HW168817   0.175   6.696   7.828
22286SOL    HW268818   0.103   6.741   7.968
22287SOL     OW68819   8.061   6.951   8.174
22287SOL    HW168820   8.012   6.864   8.183
22287SOL    HW268821   8.038   6.994   8.087
22288SOL     OW68822   8.257   5.590   7.950
22288SOL    HW168823   8.297   5.681   7.941
22288SOL    HW268824   8.157   5.598   7.956
22289SOL     OW68825   7.645   6.562   8.712
22289SOL    HW168826   7.734   6.517   8.698
22289SOL    HW268827   7.572   6.497   8.693
22290SOL     OW68828   8.973   6.585   7.638
22290SOL    HW168829   8.910   6.509   7.651
22290SOL    HW268830   9.021   6.603   7.724
22291SOL     OW68831   8.914   7.003   8.401
22291SOL    HW168832   8.855   7.009   8.481
22291SOL    HW268833   8.899   6.915   8.355
22292SOL     OW68834   0.115   7.300   8.020
22292SOL    HW168835   0.074   7.277   7.932
22292SOL    HW268836   0.097   7.226   8.085
22293SOL     OW68837   8.046   6.315   7.718
22293SOL    HW168838   8.070   6.384   7.650
22293SOL    HW268839   7.968   6.348   7.772
22294SOL     OW68840   8.729   5.931   8.392
22294SOL    HW168841   8.643   5.881   8.379
22294SOL    HW268842   8.791   5.877   8.448
22295SOL     OW68843   0.024   7.248   7.755
22295SOL    HW168844   0.113   7.294   7.758
22295SOL    HW268845   0.003   7.224   7.660
22296SOL     OW68846   8.255   6.191   8.913
22296SOL    HW168847   8.208   6.188   9.002
22296SOL    HW268848   8.204   6.136   8.847
22297SOL     OW68849   8.439   5.996   8.690
22297SOL    HW168850   8.362   6.030   8.744
22297SOL    HW268851   8.405   5.945   8.611
22298SOL     OW68852   8.489   6.287   7.877
22298SOL    HW168853   8.515   6.283   7.973
22298SOL    HW268854   8.404   6.236   7.863
22299SOL     OW68855   7.524   6.397   8.237
22299SOL    HW168856   7.623   6.385   8.246
22299SOL    HW268857   7.500   6.492   8.258
22300SOL     OW68858   7.578   7.407   0.019
22300SOL    HW168859   7.568   7.392   0.118
22300SOL    HW268860   7.492   7.443  -0.017
22301SOL     OW68861   8.313   5.934   7.643
22301SOL    HW168862   8.372   5.997   7.594
22301SOL    HW268863   8.332   5.840   7.614
22302SOL     OW68864   8.810   6.730   7.993
22302SOL    HW168865   8.893   6.701   7.945
22302SOL    HW268866   8.761   6.797   7.937
22303SOL     OW68867   7.998   5.782   8.333
22303SOL    HW168868   7.993   5.777   8.433
22303SOL    HW268869   8.000   5.878   8.304
22304SOL     OW68870   8.456   7.042   7.925
22304SOL    HW168871   8.410   7.114   7.873
22304SOL    HW268872   8.452   7.062   8.023
22305SOL     OW68873   7.799   7.387   8.301
22305SOL    HW168874   7.849   7.301   8.307
22305SOL    HW268875   7.864   7.464   8.298
22306SOL     OW68876   0.243   6.652   8.321
22306SOL    HW168877   0.181   6.637   8.245
22306SOL    HW268878   0.191   6.663   8.406
22307SOL     OW68879   7.769   6.529   7.690
22307SOL    HW168880   7.851   6.568   7.648
22307SOL    HW268881   7.742   6.447   7.641
22308SOL     OW68882   8.906   6.321   8.176
22308SOL    HW168883   8.901   6.256   8.251
22308SOL    HW268884   8.986   6.380   8.189
22309SOL     OW68885   8.559   7.362   7.685
22309SOL    HW168886   8.499   7.300   7.735
22309SOL    HW268887   8.590   7.318   7.600
22310SOL     OW68888   7.650   5.871   8.946
22310SOL    HW168889   7.570   5.931   8.933
22310SOL    HW268890   7.640   5.822   9.032
22311SOL     OW68891   0.080   6.963   7.529
22311SOL    HW168892   0.048   7.057   7.519
22311SOL    HW268893   0.004   6.900   7.517
22312SOL     OW68894   7.912   7.329   7.771
22312SOL    HW168895   7.945   7.368   7.857
22312SOL    HW268896   7.988   7.322   7.706
22313SOL     OW68897   8.848   5.693   7.874
22313SOL    HW168898   8.824   5.656   7.784
22313SOL    HW268899   8.947   5.709   7.878
22314SOL     OW68900   7.697   7.371   8.689
22314SOL    HW168901   7.754   7.306   8.739
22314SOL    HW268902   7.681   7.338   8.596
22315SOL     OW68903   8.388   7.284   8.352
22315SOL    HW168904   8.468   7.227   8.373
22315SOL    HW268905   8.339   7.244   8.275
22316SOL     OW68906   7.830   6.286   7.928
22316SOL    HW168907   7.875   6.196   7.925
22316SOL    HW268908   7.736   6.275   7.961
22317SOL     OW68909   8.062   5.708   7.565
22317SOL    HW168910   8.160   5.686   7.572
22317SOL    HW268911   8.031   5.691   7.472
22318SOL     OW68912   8.336   7.100   8.643
22318SOL    HW168913   8.313   7.075   8.549
22318SOL    HW268914   8.397   7.031   8.682
22319SOL     OW68915   8.251   6.988   8.372
22319SOL    HW168916   8.341   7.002   8.330
22319SOL    HW268917   8.180   6.990   8.301
22320SOL     OW68918   8.370   6.089   8.347
22320SOL    HW168919   8.345   6.080   8.251
22320SOL    HW268920   8.418   6.007   8.378
22321SOL     OW68921   7.987   5.650   7.960
22321SOL    HW168922   7.906   5.651   8.018
22321SOL    HW268923   7.990   5.733   7.905
22322SOL     OW68924   8.882   6.774   7.489
22322SOL    HW168925   8.914   6.698   7.546
22322SOL    HW268926   8.790   6.801   7.519
22323SOL     OW68927   7.745   5.621   7.619
22323SOL    HW168928   7.794   5.705   7.598
22323SOL    HW268929   7.807   5.556   7.664
22324SOL     OW68930   8.383   5.822   7.928
22324SOL    HW168931   8.335   5.863   7.850
22324SOL    HW268932   8.482   5.820   7.909
22325SOL     OW68933   8.675   7.156   8.241
22325SOL    HW168934   8.696   7.230   8.176
22325SOL    HW268935   8.743   7.156   8.314
22326SOL     OW68936   7.907   6.738   8.189
22326SOL    HW168937   7.836   6.711   8.254
22326SOL    HW268938   7.881   6.710   8.096
22327SOL     OW68939   8.719   7.383   8.039
22327SOL    HW168940   8.763   7.447   7.975
22327SOL    HW268941   8.669   7.435   8.109
22328SOL     OW68942   8.480   6.135   7.464
22328SOL    HW168943   8.439   6.217   7.425
22328SOL    HW268944   8.544   6.161   7.537
22329SOL     OW68945   7.526   6.142   8.834
22329SOL    HW168946   7.618   6.141   8.793
22329SOL    HW268947   7.520   6.216   8.901
22330SOL     OW68948   8.009   5.808   8.595
22330SOL    HW168949   8.047   5.724   8.632
22330SOL    HW268950   7.921   5.827   8.639
22331SOL     OW68951   8.314   6.040   8.090
22331SOL    HW168952   8.282   6.112   8.028
22331SOL    HW268953   8.338   5.959   8.037
22332SOL     OW68954   8.465   5.625   8.201
22332SOL    HW168955   8.393   5.630   8.132
22332SOL    HW268956   8.441   5.556   8.270
22333SOL     OW68957   8.877   6.759   8.315
22333SOL    HW168958   8.822   6.675   8.308
22333SOL    HW268959   8.903   6.788   8.223
22334SOL     OW68960   8.914   6.176   8.440
22334SOL    HW168961   8.884   6.081   8.447
22334SOL    HW268962   8.987   6.192   8.506
22335SOL     OW68963   7.936   6.971   7.622
22335SOL    HW168964   7.849   6.956   7.669
22335SOL    HW268965   7.919   6.997   7.527
22336SOL     OW68966   0.112   6.866   8.105
22336SOL    HW168967   0.211   6.874   8.119
22336SOL    HW268968   0.067   6.950   8.136
22337SOL     OW68969   8.838   6.161   7.526
22337SOL    HW168970   8.784   6.140   7.607
22337SOL    HW268971   8.929   6.120   7.535
22338SOL     OW68972   7.975   5.842   7.776
22338SOL    HW168973   8.002   5.783   7.701
22338SOL    HW268974   7.975   5.937   7.745
22339SOL     OW68975   8.512   6.933   8.788
22339SOL    HW168976   8.432   6.910   8.843
22339SOL    HW268977   8.595   6.907   8.837
22340SOL     OW68978   8.559   6.781   8.548
22340SOL    HW168979   8.519   6.825   8.629
22340SOL    HW268980   8.518   6.818   8.465
22341SOL     OW68981   0.086   6.685   8.527
22341SOL    HW168982   0.091   6.766   8.586
22341SOL    HW268983   0.000   6.687   8.476
22342SOL     OW68984   8.363   5.675   8.850
22342SOL    HW168985   8.388   5.655   8.755
22342SOL    HW268986   8.435   5.731   8.892
22343SOL     OW68987   8.153   6.636   7.816
22343SOL    HW168988   8.139   6.643   7.915
22343SOL    HW268989   8.237   6.585   7.798
22344SOL     OW68990   7.858   6.399   8.699
22344SOL    HW168991   7.944   6.411   8.749
22344SOL    HW268992   7.816   6.312   8.726
22345SOL     OW68993   8.722   5.972   8.710
22345SOL    HW168994   8.743   6.046   8.774
22345SOL    HW268995   8.633   5.989   8.667
22346SOL     OW68996   7.512   7.150   8.779
22346SOL    HW168997   7.466   7.232   8.745
22346SOL    HW268998   7.610   7.169   8.788
22347SOL     OW68999   7.815   6.686   7.949
22347SOL    HW169000   7.808   6.769   7.893
22347SOL    HW269001   7.819   6.606   7.889
22348SOL     OW69002   8.014   6.123   8.313
22348SOL    HW169003   8.026   6.189   8.239
22348SOL    HW269004   8.060   6.157   8.396
22349SOL     OW69005   8.700   6.934   7.836
22349SOL    HW169006   8.750   7.011   7.876
22349SOL    HW269007   8.605   6.936   7.868
22350SOL     OW69008   8.720   7.031   8.590
22350SOL    HW169009   8.767   7.044   8.677
22350SOL    HW269010   8.654   6.957   8.599
22351SOL     OW69011   0.030   6.225   7.920
22351SOL    HW169012  -0.001   6.286   7.993
22351SOL    HW269013   0.080   6.277   7.851
22352SOL     OW69014   7.802   7.096   8.777
22352SOL    HW169015   7.781   7.052   8.690
22352SOL    HW269016   7.899   7.122   8.780
22353SOL     OW69017   7.850   6.337   0.046
22353SOL    HW169018   7.918   6.392  -0.001
22353SOL    HW269019   7.890   6.249   0.073
22354SOL     OW69020   0.035   6.365   0.118
22354SOL    HW169021  -0.057   6.403   0.113
22354SOL    HW269022   0.095   6.412   0.053
22355SOL     OW69023   8.021   6.456   8.477
22355SOL    HW169024   8.065   6.545   8.468
22355SOL    HW269025   7.958   6.456   8.554
22356SOL     OW69026   8.808   6.448   8.493
22356SOL    HW169027   8.733   6.448   8.427
22356SOL    HW269028   8.845   6.356   8.502
22357SOL     OW69029   8.657   6.111   7.723
22357SOL    HW169030   8.670   6.027   7.777
22357SOL    HW269031   8.628   6.185   7.783
22358SOL     OW69032   7.755   5.799   8.679
22358SOL    HW169033   7.732   5.836   8.769
22358SOL    HW269034   7.725   5.704   8.673
22359SOL     OW69035   7.485   6.896   8.730
22359SOL    HW169036   7.538   6.847   8.798
22359SOL    HW269037   7.507   6.994   8.735
22360SOL     OW69038   8.180   6.220   8.512
22360SOL    HW169039   8.239   6.194   8.436
22360SOL    HW269040   8.152   6.316   8.501
22361SOL     OW69041   7.755   5.649   8.066
22361SOL    HW169042   7.744   5.743   8.099
22361SOL    HW269043   7.750   5.586   8.143
22362SOL     OW69044   0.070   5.953   7.822
22362SOL    HW169045   0.072   5.877   7.886
22362SOL    HW269046   0.022   6.030   7.862
22363SOL     OW69047   8.471   6.352   8.414
22363SOL    HW169048   8.486   6.373   8.510
22363SOL    HW269049   8.441   6.257   8.405
22364SOL     OW69050   8.428   7.159   0.148
22364SOL    HW169051   8.408   7.203   0.060
22364SOL    HW269052   8.467   7.068   0.132
22365SOL     OW69053   8.988   5.860   7.573
22365SOL    HW169054   8.927   5.785   7.596
22365SOL    HW269055   9.010   5.912   7.656
22366SOL     OW69056   8.751   6.424   7.490
22366SOL    HW169057   8.785   6.331   7.505
22366SOL    HW269058   8.769   6.451   7.395
22367SOL     OW69059   8.516   6.919   8.297
22367SOL    HW169060   8.523   6.835   8.242
22367SOL    HW269061   8.578   6.988   8.261
22368SOL     OW69062   7.767   6.396   8.397
22368SOL    HW169063   7.860   6.432   8.402
22368SOL    HW269064   7.761   6.311   8.449
22369SOL     OW69065   7.787   6.095   8.454
22369SOL    HW169066   7.735   6.012   8.437
22369SOL    HW269067   7.864   6.100   8.390
22370SOL     OW69068   8.586   5.966   0.126
22370SOL    HW169069   8.541   6.029   0.190
22370SOL    HW269070   8.679   5.997   0.109
22371SOL     OW69071   8.608   5.793   8.925
22371SOL    HW169072   8.608   5.857   9.002
22371SOL    HW269073   8.636   5.841   8.842
22372SOL     OW69074   7.456   6.912   7.648
22372SOL    HW169075   7.363   6.933   7.617
22372SOL    HW269076   7.466   6.813   7.661
22373SOL     OW69077   7.536   7.387   8.375
22373SOL    HW169078   7.494   7.301   8.348
22373SOL    HW269079   7.630   7.390   8.341
22374SOL     OW69080   7.952   7.154   8.358
22374SOL    HW169081   8.018   7.228   8.367
22374SOL    HW269082   7.996   7.075   8.316
22375SOL     OW69083   8.450   6.382   8.686
22375SOL    HW169084   8.491   6.350   8.772
22375SOL    HW269085   8.354   6.355   8.683
22376SOL     OW69086   7.488   6.130   8.562
22376SOL    HW169087   7.573   6.097   8.521
22376SOL    HW269088   7.501   6.145   8.660
22377SOL     OW69089   8.263   6.158   7.773
22377SOL    HW169090   8.270   6.069   7.727
22377SOL    HW269091   8.169   6.192   7.765
22378SOL     OW69092   0.105   6.190   8.654
22378SOL    HW169093   0.067   6.121   8.716
22378SOL    HW269094   0.187   6.154   8.610
22379SOL     OW69095   8.119   6.050   8.717
22379SOL    HW169096   8.085   5.961   8.687
22379SOL    HW269097   8.145   6.104   8.637
22380SOL     OW69098   8.378   7.264   8.913
22380SOL    HW169099   8.354   7.246   8.818
22380SOL    HW269100   8.408   7.358   8.923
22381SOL     OW69101   7.921   6.086   7.639
22381SOL    HW169102   7.982   6.166   7.643
22381SOL    HW269103   7.826   6.117   7.646
22382SOL     OW69104   7.607   6.723   8.914
22382SOL    HW169105   7.629   6.662   8.990
22382SOL    HW269106   7.617   6.674   8.828
22383SOL     OW69107   8.795   6.645   8.682
22383SOL    HW169108   8.819   6.582   8.608
22383SOL    HW269109   8.705   6.685   8.664
22384SOL     OW69110   8.750   6.441   7.757
22384SOL    HW169111   8.664   6.410   7.799
22384SOL    HW269112   8.746   6.427   7.658
22385SOL     OW69113   8.700   7.317   8.576
22385SOL    HW169114   8.784   7.322   8.522
22385SOL    HW269115   8.677   7.221   8.594
22386SOL     OW69116   7.531   6.844   8.470
22386SOL    HW169117   7.526   6.843   8.570
22386SOL    HW269118   7.448   6.803   8.432
22387SOL     OW69119   8.351   5.672   7.581
22387SOL    HW169120   8.402   5.673   7.495
22387SOL    HW269121   8.407   5.630   7.652
22388SOL     OW69122   0.174   5.721   7.971
22388SOL    HW169123   0.247   5.704   7.904
22388SOL    HW269124   0.143   5.634   8.009
22389SOL     OW69125   8.836   7.159   7.925
22389SOL    HW169126   8.903   7.171   7.851
22389SOL    HW269127   8.796   7.248   7.948
22390SOL     OW69128   8.728   6.513   8.120
22390SOL    HW169129   8.788   6.432   8.122
22390SOL    HW269130   8.768   6.582   8.060
22391SOL     OW69131   8.120   7.202   7.602
22391SOL    HW169132   8.129   7.212   7.503
22391SOL    HW269133   8.080   7.113   7.623
22392SOL     OW69134   0.098   7.306   8.842
22392SOL    HW169135   0.151   7.316   8.758
22392SOL    HW269136   0.071   7.396   8.876
22393SOL     OW69137   7.711   5.912   8.168
22393SOL    HW169138   7.632   5.963   8.134
22393SOL    HW269139   7.702   5.897   8.266
22394SOL     OW69140   8.642   7.198   7.479
22394SOL    HW169141   8.648   7.105   7.516
22394SOL    HW269142   8.583   7.198   7.399
22395SOL     OW69143   8.270   6.588   8.820
22395SOL    HW169144   8.310   6.587   8.728
22395SOL    HW269145   8.280   6.680   8.860
22396SOL     OW69146   8.364   6.496   7.739
22396SOL    HW169147   8.427   6.534   7.671
22396SOL    HW269148   8.404   6.413   7.778
22397SOL     OW69149   8.952   7.193   7.492
22397SOL    HW169150   8.860   7.230   7.499
22397SOL    HW269151   8.990   7.213   7.402
22398SOL     OW69152   7.820   6.874   8.938
22398SOL    HW169153   7.807   6.967   8.904
22398SOL    HW269154   7.736   6.822   8.925
22399SOL     OW69155   0.062   6.878   8.737
22399SOL    HW169156   0.122   6.881   8.817
22399SOL    HW269157  -0.013   6.942   8.750
22400SOL     OW69158   8.487   6.684   8.144
22400SOL    HW169159   8.417   6.637   8.198
22400SOL    HW269160   8.546   6.616   8.101
22401SOL     OW69161   8.462   5.822   8.419
22401SOL    HW169162   8.454   5.786   8.326
22401SOL    HW269163   8.460   5.746   8.484
22402SOL     OW69164   8.038   7.073   7.939
22402SOL    HW169165   8.080   7.015   7.869
22402SOL    HW269166   7.994   7.152   7.895
22403SOL     OW69167   0.157   5.971   8.829
22403SOL    HW169168   0.230   6.040   8.833
22403SOL    HW269169   0.185   5.896   8.770
22404SOL     OW69170   7.703   6.934   7.738
22404SOL    HW169171   7.607   6.935   7.711
22404SOL    HW269172   7.715   6.987   7.822
22405SOL     OW69173   7.523   5.931   7.481
22405SOL    HW169174   7.431   5.903   7.452
22405SOL    HW269175   7.554   6.008   7.425
22406SOL     OW69176   8.888   6.442   8.846
22406SOL    HW169177   8.831   6.494   8.783
22406SOL    HW269178   8.984   6.454   8.822
22407SOL     OW69179   7.520   5.752   7.766
22407SOL    HW169180   7.503   5.835   7.712
22407SOL    HW269181   7.610   5.715   7.744
22408SOL     OW69182   8.631   6.921   7.567
22408SOL    HW169183   8.532   6.910   7.569
22408SOL    HW269184   8.665   6.936   7.660
22409SOL     OW69185   8.061   6.428   8.879
22409SOL    HW169186   8.117   6.509   8.862
22409SOL    HW269187   8.120   6.348   8.882
22410SOL     OW69188   8.941   7.353   8.407
22410SOL    HW169189   8.974   7.417   8.338
22410SOL    HW269190   9.007   7.347   8.482
22411SOL     OW69191   7.838   7.327   0.008
22411SOL    HW169192   7.747   7.368   0.006
22411SOL    HW269193   7.831   7.233   0.040
22412SOL     OW69194   0.122   6.469   8.702
22412SOL    HW169195   0.095   6.380   8.665
22412SOL    HW269196   0.123   6.537   8.629
22413SOL     OW69197   8.673   5.911   7.897
22413SOL    HW169198   8.738   5.837   7.886
22413SOL    HW269199   8.693   5.961   7.981
22414SOL     OW69200   8.042   6.331   8.100
22414SOL    HW169201   8.092   6.416   8.081
22414SOL    HW269202   7.954   6.333   8.052
22415SOL     OW69203   0.225   5.928   0.090
22415SOL    HW169204   0.208   5.959  -0.004
22415SOL    HW269205   0.141   5.891   0.128
22416SOL     OW69206   0.178   6.520   8.965
22416SOL    HW169207   0.216   6.611   8.980
22416SOL    HW269208   0.170   6.503   8.866
22417SOL     OW69209   8.307   6.960   7.464
22417SOL    HW169210   8.261   6.975   7.552
22417SOL    HW269211   8.351   7.045   7.434
22418SOL     OW69212   8.109   7.376   8.401
22418SOL    HW169213   8.063   7.464   8.388
22418SOL    HW269214   8.208   7.388   8.394
22419SOL     OW69215   8.856   7.437   0.168
22419SOL    HW169216   8.760   7.426   0.141
22419SOL    HW269217   8.912   7.370   0.120
22420SOL     OW69218   8.307   6.542   8.309
22420SOL    HW169219   8.361   6.473   8.357
22420SOL    HW269220   8.275   6.611   8.375
22421SOL     OW69221   8.531   6.570   7.535
22421SOL    HW169222   8.508   6.623   7.453
22421SOL    HW269223   8.612   6.514   7.516
22422SOL     OW69224   7.527   6.826   8.101
22422SOL    HW169225   7.526   6.779   8.189
22422SOL    HW269226   7.609   6.798   8.050
22423SOL     OW69227   7.876   6.010   7.968
22423SOL    HW169228   7.906   5.938   7.906
22423SOL    HW269229   7.837   5.970   8.051
22424SOL     OW69230   0.153   7.073   8.552
22424SOL    HW169231   0.060   7.048   8.525
22424SOL    HW269232   0.179   7.023   8.634
22425SOL     OW69233   7.765   6.133   8.728
22425SOL    HW169234   7.803   6.074   8.800
22425SOL    HW269235   7.805   6.107   8.640
22426SOL     OW69236   8.260   7.172   8.135
22426SOL    HW169237   8.292   7.182   8.041
22426SOL    HW269238   8.181   7.110   8.137
22427SOL     OW69239   8.872   5.800   8.560
22427SOL    HW169240   8.924   5.735   8.615
22427SOL    HW269241   8.823   5.863   8.621
22428SOL     OW69242   8.449   5.620   8.602
22428SOL    HW169243   8.386   5.548   8.571
22428SOL    HW269244   8.542   5.584   8.602
22429SOL     OW69245   8.218   6.916   7.749
22429SOL    HW169246   8.172   6.829   7.766
22429SOL    HW269247   8.309   6.913   7.790
22430SOL     OW69248   8.066   7.153   8.732
22430SOL    HW169249   8.061   7.235   8.789
22430SOL    HW269250   8.155   7.150   8.687
22431SOL     OW69251   8.800   5.638   7.616
22431SOL    HW169252   8.835   5.597   7.532
22431SOL    HW269253   8.710   5.600   7.636
22432SOL     OW69254   8.748   6.039   8.139
22432SOL    HW169255   8.689   6.119   8.143
22432SOL    HW269256   8.763   6.004   8.232
22433SOL     OW69257   0.041   5.807   8.330
22433SOL    HW169258  -0.043   5.806   8.384
22433SOL    HW269259   0.043   5.890   8.274
22434SOL     OW69260   7.487   6.663   7.748
22434SOL    HW169261   7.586   6.652   7.739
22434SOL    HW269262   7.447   6.577   7.780
22435SOL     OW69263   8.323   7.232   7.785
22435SOL    HW169264   8.246   7.197   7.731
22435SOL    HW269265   8.291   7.303   7.847
22436SOL     OW69266   7.678   8.076   0.113
22436SOL    HW169267   7.585   8.074   0.150
22436SOL    HW269268   7.679   8.037   0.021
22437SOL     OW69269   7.673   7.723   0.996
22437SOL    HW169270   7.708   7.706   1.088
22437SOL    HW269271   7.585   7.678   0.984
22438SOL     OW69272   7.467   7.816   0.647
22438SOL    HW169273   7.385   7.859   0.686
22438SOL    HW269274   7.439   7.743   0.584
22439SOL     OW69275   8.017   8.723   1.165
22439SOL    HW169276   7.924   8.716   1.128
22439SOL    HW269277   8.028   8.812   1.209
22440SOL     OW69278   0.003   8.959   0.703
22440SOL    HW169279  -0.054   8.943   0.784
22440SOL    HW269280  -0.056   8.969   0.623
22441SOL     OW69281   0.191   8.066   0.856
22441SOL    HW169282   0.224   8.160   0.856
22441SOL    HW269283   0.242   8.012   0.922
22442SOL     OW69284   8.583   8.151   0.717
22442SOL    HW169285   8.640   8.229   0.692
22442SOL    HW269286   8.523   8.177   0.793
22443SOL     OW69287   0.203   8.055   0.231
22443SOL    HW169288   0.191   8.042   0.132
22443SOL    HW269289   0.173   7.974   0.280
22444SOL     OW69290   8.216   8.592   1.023
22444SOL    HW169291   8.138   8.609   1.083
22444SOL    HW269292   8.250   8.679   0.987
22445SOL     OW69293   8.298   8.246   1.823
22445SOL    HW169294   8.294   8.322   1.888
22445SOL    HW269295   8.320   8.282   1.732
22446SOL     OW69296   8.133   8.460   0.665
22446SOL    HW169297   8.202   8.444   0.735
22446SOL    HW269298   8.060   8.517   0.703
22447SOL     OW69299   8.134   8.609   1.803
22447SOL    HW169300   8.194   8.688   1.817
22447SOL    HW269301   8.048   8.640   1.762
22448SOL     OW69302   7.783   8.883   1.061
22448SOL    HW169303   7.705   8.852   1.008
22448SOL    HW269304   7.841   8.941   1.004
22449SOL     OW69305   8.908   8.953   1.339
22449SOL    HW169306   8.932   9.047   1.365
22449SOL    HW269307   8.892   8.899   1.421
22450SOL     OW69308   7.886   7.840   1.499
22450SOL    HW169309   7.968   7.784   1.508
22450SOL    HW269310   7.805   7.782   1.503
22451SOL     OW69311   7.679   0.161   0.483
22451SOL    HW169312   7.713   0.238   0.537
22451SOL    HW269313   7.723   0.161   0.393
22452SOL     OW69314   8.575   8.789   1.690
22452SOL    HW169315   8.622   8.789   1.778
22452SOL    HW269316   8.527   8.702   1.679
22453SOL     OW69317   7.678   8.882   0.538
22453SOL    HW169318   7.652   8.978   0.538
22453SOL    HW269319   7.607   8.828   0.583
22454SOL     OW69320   7.688   8.539   0.886
22454SOL    HW169321   7.702   8.455   0.938
22454SOL    HW269322   7.633   8.603   0.941
22455SOL     OW69323   8.054   8.412   0.123
22455SOL    HW169324   8.061   8.496   0.069
22455SOL    HW269325   8.100   8.425   0.211
22456SOL     OW69326   0.042   7.562   1.480
22456SOL    HW169327   0.024   7.629   1.408
22456SOL    HW269328   0.039   7.608   1.569
22457SOL     OW69329   7.570   8.091   0.563
22457SOL    HW169330   7.525   8.003   0.580
22457SOL    HW269331   7.569   8.145   0.647
22458SOL     OW69332   0.137   8.370   0.612
22458SOL    HW169333   0.232   8.341   0.620
22458SOL    HW269334   0.129   8.435   0.537
22459SOL     OW69335   0.089   8.556   0.432
22459SOL    HW169336   0.175   8.558   0.380
22459SOL    HW269337   0.103   8.603   0.520
22460SOL     OW69338   7.561   8.185   1.597
22460SOL    HW169339   7.649   8.172   1.642
22460SOL    HW269340   7.548   8.282   1.575
22461SOL     OW69341   8.061   8.813   0.726
22461SOL    HW169342   8.012   8.726   0.735
22461SOL    HW269343   8.038   8.856   0.639
22462SOL     OW69344   8.741   8.676   1.423
22462SOL    HW169345   8.778   8.603   1.365
22462SOL    HW269346   8.793   8.681   1.508
22463SOL     OW69347   8.257   7.452   0.502
22463SOL    HW169348   8.297   7.543   0.493
22463SOL    HW269349   8.157   7.460   0.508
22464SOL     OW69350   7.645   8.424   1.264
22464SOL    HW169351   7.734   8.379   1.250
22464SOL    HW269352   7.572   8.359   1.245
22465SOL     OW69353   8.973   8.447   0.190
22465SOL    HW169354   8.910   8.371   0.203
22465SOL    HW269355   9.021   8.465   0.276
22466SOL     OW69356   7.765   7.699   1.801
22466SOL    HW169357   7.836   7.770   1.807
22466SOL    HW269358   7.677   7.738   1.829
22467SOL     OW69359   8.914   8.865   0.953
22467SOL    HW169360   8.855   8.871   1.033
22467SOL    HW269361   8.899   8.777   0.907
22468SOL     OW69362   8.046   8.177   0.270
22468SOL    HW169363   8.070   8.246   0.202
22468SOL    HW269364   7.968   8.210   0.324
22469SOL     OW69365   8.729   7.793   0.944
22469SOL    HW169366   8.643   7.743   0.931
22469SOL    HW269367   8.791   7.739   1.000
22470SOL     OW69368   8.255   8.053   1.465
22470SOL    HW169369   8.208   8.050   1.554
22470SOL    HW269370   8.204   7.998   1.399
22471SOL     OW69371   8.842   7.917   1.674
22471SOL    HW169372   8.822   7.960   1.762
22471SOL    HW269373   8.920   7.855   1.683
22472SOL     OW69374   8.421   8.338   1.572
22472SOL    HW169375   8.467   8.254   1.543
22472SOL    HW269376   8.365   8.372   1.497
22473SOL     OW69377   8.439   7.858   1.242
22473SOL    HW169378   8.362   7.892   1.296
22473SOL    HW269379   8.405   7.807   1.163
22474SOL     OW69380   8.489   8.149   0.429
22474SOL    HW169381   8.515   8.145   0.525
22474SOL    HW269382   8.404   8.098   0.415
22475SOL     OW69383   7.524   8.259   0.789
22475SOL    HW169384   7.623   8.247   0.798
22475SOL    HW269385   7.500   8.354   0.810
22476SOL     OW69386   8.313   7.796   0.195
22476SOL    HW169387   8.372   7.859   0.146
22476SOL    HW269388   8.332   7.702   0.166
22477SOL     OW69389   0.167   8.033   1.831
22477SOL    HW169390   0.141   8.122   1.795
22477SOL    HW269391   0.165   7.965   1.758
22478SOL     OW69392   8.810   8.592   0.545
22478SOL    HW169393   8.893   8.563   0.497
22478SOL    HW269394   8.761   8.659   0.489
22479SOL     OW69395   7.998   7.644   0.885
22479SOL    HW169396   7.993   7.639   0.985
22479SOL    HW269397   8.000   7.740   0.856
22480SOL     OW69398   8.456   8.904   0.477
22480SOL    HW169399   8.410   8.976   0.425
22480SOL    HW269400   8.452   8.924   0.575
22481SOL     OW69401   0.243   8.514   0.873
22481SOL    HW169402   0.181   8.499   0.797
22481SOL    HW269403   0.191   8.525   0.958
22482SOL     OW69404   8.675   8.998   1.506
22482SOL    HW169405   8.681   8.921   1.570
22482SOL    HW269406   8.623   8.972   1.426
22483SOL     OW69407   7.769   8.391   0.242
22483SOL    HW169408   7.851   8.430   0.200
22483SOL    HW269409   7.742   8.309   0.193
22484SOL     OW69410   8.906   8.183   0.728
22484SOL    HW169411   8.901   8.118   0.803
22484SOL    HW269412   8.986   8.242   0.741
22485SOL     OW69413   7.909   8.714   1.727
22485SOL    HW169414   7.859   8.715   1.641
22485SOL    HW269415   7.846   8.696   1.803
22486SOL     OW69416   8.559   0.224   0.237
22486SOL    HW169417   8.499   0.162   0.287
22486SOL    HW269418   8.590   0.180   0.152
22487SOL     OW69419   7.650   7.733   1.498
22487SOL    HW169420   7.570   7.793   1.485
22487SOL    HW269421   7.640   7.684   1.584
22488SOL     OW69422   0.080   8.825   0.081
22488SOL    HW169423   0.048   8.919   0.071
22488SOL    HW269424   0.004   8.762   0.069
22489SOL     OW69425   8.848   7.555   0.426
22489SOL    HW169426   8.824   7.518   0.336
22489SOL    HW269427   8.947   7.571   0.430
22490SOL     OW69428   7.830   8.148   0.480
22490SOL    HW169429   7.875   8.058   0.477
22490SOL    HW269430   7.736   8.137   0.513
22491SOL     OW69431   8.995   7.670   1.729
22491SOL    HW169432   8.990   7.707   1.821
22491SOL    HW269433   8.923   7.601   1.717
22492SOL     OW69434   8.062   7.570   0.117
22492SOL    HW169435   8.160   7.548   0.124
22492SOL    HW269436   8.031   7.553   0.024
22493SOL     OW69437   8.229   7.712   1.749
22493SOL    HW169438   8.296   7.651   1.792
22493SOL    HW269439   8.156   7.731   1.814
22494SOL     OW69440   8.799   8.038   1.433
22494SOL    HW169441   8.827   7.995   1.518
22494SOL    HW269442   8.824   8.134   1.434
22495SOL     OW69443   8.251   8.850   0.924
22495SOL    HW169444   8.341   8.864   0.882
22495SOL    HW269445   8.180   8.852   0.853
22496SOL     OW69446   8.370   7.951   0.899
22496SOL    HW169447   8.345   7.942   0.803
22496SOL    HW269448   8.418   7.869   0.930
22497SOL     OW69449   7.987   7.512   0.512
22497SOL    HW169450   7.906   7.513   0.570
22497SOL    HW269451   7.990   7.595   0.457
22498SOL     OW69452   8.882   8.636   0.041
22498SOL    HW169453   8.914   8.560   0.098
22498SOL    HW269454   8.790   8.663   0.071
22499SOL     OW69455   7.745   7.483   0.171
22499SOL    HW169456   7.794   7.567   0.150
22499SOL    HW269457   7.807   7.418   0.216
22500SOL     OW69458   8.383   7.684   0.480
22500SOL    HW169459   8.335   7.725   0.402
22500SOL    HW269460   8.482   7.682   0.461
22501SOL     OW69461   8.524   8.131   1.464
22501SOL    HW169462   8.444   8.070   1.467
22501SOL    HW269463   8.605   8.078   1.440
22502SOL     OW69464   8.675   0.018   0.793
22502SOL    HW169465   8.696   0.092   0.728
22502SOL    HW269466   8.743   0.018   0.866
22503SOL     OW69467   7.907   8.600   0.741
22503SOL    HW169468   7.836   8.573   0.806
22503SOL    HW269469   7.881   8.572   0.648
22504SOL     OW69470   8.480   7.997   0.016
22504SOL    HW169471   8.439   8.079  -0.023
22504SOL    HW269472   8.544   8.023   0.089
22505SOL     OW69473   7.526   8.004   1.386
22505SOL    HW169474   7.618   8.003   1.345
22505SOL    HW269475   7.520   8.078   1.453
22506SOL     OW69476   8.009   7.670   1.147
22506SOL    HW169477   8.047   7.586   1.184
22506SOL    HW269478   7.921   7.689   1.191
22507SOL     OW69479   8.314   7.902   0.642
22507SOL    HW169480   8.282   7.974   0.580
22507SOL    HW269481   8.338   7.821   0.589
22508SOL     OW69482   8.465   7.487   0.753
22508SOL    HW169483   8.393   7.492   0.684
22508SOL    HW269484   8.441   7.418   0.822
22509SOL     OW69485   8.877   8.621   0.867
22509SOL    HW169486   8.822   8.537   0.860
22509SOL    HW269487   8.903   8.650   0.775
22510SOL     OW69488   8.914   8.038   0.992
22510SOL    HW169489   8.884   7.943   0.999
22510SOL    HW269490   8.987   8.054   1.058
22511SOL     OW69491   7.936   8.833   0.174
22511SOL    HW169492   7.849   8.818   0.221
22511SOL    HW269493   7.919   8.859   0.079
22512SOL     OW69494   0.112   8.728   0.657
22512SOL    HW169495   0.211   8.736   0.671
22512SOL    HW269496   0.067   8.812   0.688
22513SOL     OW69497   8.838   8.023   0.078
22513SOL    HW169498   8.784   8.002   0.159
22513SOL    HW269499   8.929   7.982   0.087
22514SOL     OW69500   7.975   7.704   0.328
22514SOL    HW169501   8.002   7.645   0.253
22514SOL    HW269502   7.975   7.799   0.297
22515SOL     OW69503   8.512   8.795   1.340
22515SOL    HW169504   8.432   8.772   1.395
22515SOL    HW269505   8.595   8.769   1.389
22516SOL     OW69506   8.559   8.643   1.100
22516SOL    HW169507   8.519   8.687   1.181
22516SOL    HW269508   8.518   8.680   1.017
22517SOL     OW69509   0.086   8.547   1.079
22517SOL    HW169510   0.091   8.628   1.138
22517SOL    HW269511   0.000   8.549   1.028
22518SOL     OW69512   8.363   7.537   1.402
22518SOL    HW169513   8.388   7.517   1.307
22518SOL    HW269514   8.435   7.593   1.444
22519SOL     OW69515   8.428   8.564   1.719
22519SOL    HW169516   8.329   8.570   1.729
22519SOL    HW269517   8.451   8.484   1.663
22520SOL     OW69518   8.153   8.498   0.368
22520SOL    HW169519   8.139   8.505   0.467
22520SOL    HW269520   8.237   8.447   0.350
22521SOL     OW69521   7.858   8.261   1.251
22521SOL    HW169522   7.944   8.273   1.301
22521SOL    HW269523   7.816   8.174   1.278
22522SOL     OW69524   8.722   7.834   1.262
22522SOL    HW169525   8.743   7.908   1.326
22522SOL    HW269526   8.633   7.851   1.219
22523SOL     OW69527   7.815   8.548   0.501
22523SOL    HW169528   7.808   8.631   0.445
22523SOL    HW269529   7.819   8.468   0.441
22524SOL     OW69530   8.014   7.985   0.865
22524SOL    HW169531   8.026   8.051   0.791
22524SOL    HW269532   8.060   8.019   0.948
22525SOL     OW69533   8.700   8.796   0.388
22525SOL    HW169534   8.750   8.873   0.428
22525SOL    HW269535   8.605   8.798   0.420
22526SOL     OW69536   8.720   8.893   1.142
22526SOL    HW169537   8.767   8.906   1.229
22526SOL    HW269538   8.654   8.819   1.151
22527SOL     OW69539   0.030   8.087   0.472
22527SOL    HW169540  -0.001   8.148   0.545
22527SOL    HW269541   0.080   8.139   0.403
22528SOL     OW69542   7.802   8.958   1.329
22528SOL    HW169543   7.781   8.914   1.242
22528SOL    HW269544   7.899   8.984   1.332
22529SOL     OW69545   7.850   8.199   1.598
22529SOL    HW169546   7.918   8.254   1.551
22529SOL    HW269547   7.890   8.111   1.625
22530SOL     OW69548   0.035   8.227   1.670
22530SOL    HW169549  -0.057   8.265   1.665
22530SOL    HW269550   0.095   8.274   1.605
22531SOL     OW69551   8.461   7.553   1.770
22531SOL    HW169552   8.467   7.638   1.718
22531SOL    HW269553   8.493   7.477   1.713
22532SOL     OW69554   7.952   7.498   1.740
22532SOL    HW169555   7.910   7.441   1.670
22532SOL    HW269556   7.886   7.567   1.772
22533SOL     OW69557   8.021   8.318   1.029
22533SOL    HW169558   8.065   8.407   1.020
22533SOL    HW269559   7.958   8.318   1.106
22534SOL     OW69560   8.808   8.310   1.045
22534SOL    HW169561   8.733   8.310   0.979
22534SOL    HW269562   8.845   8.218   1.054
22535SOL     OW69563   8.657   7.973   0.275
22535SOL    HW169564   8.670   7.889   0.329
22535SOL    HW269565   8.628   8.047   0.335
22536SOL     OW69566   7.755   7.661   1.231
22536SOL    HW169567   7.732   7.698   1.321
22536SOL    HW269568   7.725   7.566   1.225
22537SOL     OW69569   7.485   8.758   1.282
22537SOL    HW169570   7.538   8.709   1.350
22537SOL    HW269571   7.507   8.856   1.287
22538SOL     OW69572   8.180   8.082   1.064
22538SOL    HW169573   8.239   8.056   0.988
22538SOL    HW269574   8.152   8.178   1.053
22539SOL     OW69575   0.176   8.383   1.854
22539SOL    HW169576   0.130   8.376   1.765
22539SOL    HW269577   0.114   8.427   1.920
22540SOL     OW69578   7.755   7.511   0.618
22540SOL    HW169579   7.744   7.605   0.651
22540SOL    HW269580   7.750   7.448   0.695
22541SOL     OW69581   0.070   7.815   0.374
22541SOL    HW169582   0.072   7.739   0.438
22541SOL    HW269583   0.022   7.892   0.414
22542SOL     OW69584   8.471   8.214   0.966
22542SOL    HW169585   8.486   8.235   1.062
22542SOL    HW269586   8.441   8.119   0.957
22543SOL     OW69587   7.798   8.346   1.804
22543SOL    HW169588   7.874   8.390   1.852
22543SOL    HW269589   7.833   8.299   1.722
22544SOL     OW69590   8.988   7.722   0.125
22544SOL    HW169591   8.927   7.647   0.148
22544SOL    HW269592   9.010   7.774   0.208
22545SOL     OW69593   8.751   8.286   0.042
22545SOL    HW169594   8.785   8.193   0.057
22545SOL    HW269595   8.769   8.313  -0.053
22546SOL     OW69596   8.516   8.781   0.849
22546SOL    HW169597   8.523   8.697   0.794
22546SOL    HW269598   8.578   8.850   0.813
22547SOL     OW69599   7.767   8.258   0.949
22547SOL    HW169600   7.860   8.294   0.954
22547SOL    HW269601   7.761   8.173   1.001
22548SOL     OW69602   7.787   7.957   1.006
22548SOL    HW169603   7.735   7.874   0.989
22548SOL    HW269604   7.864   7.962   0.942
22549SOL     OW69605   7.959   7.863   1.808
22549SOL    HW169606   7.941   7.908   1.896
22549SOL    HW269607   8.001   7.928   1.745
22550SOL     OW69608   8.586   7.828   1.678
22550SOL    HW169609   8.541   7.891   1.742
22550SOL    HW269610   8.679   7.859   1.661
22551SOL     OW69611   8.608   7.655   1.477
22551SOL    HW169612   8.608   7.719   1.554
22551SOL    HW269613   8.636   7.703   1.394
22552SOL     OW69614   7.456   8.774   0.200
22552SOL    HW169615   7.363   8.795   0.169
22552SOL    HW269616   7.466   8.675   0.213
22553SOL     OW69617   8.450   8.244   1.238
22553SOL    HW169618   8.491   8.212   1.324
22553SOL    HW269619   8.354   8.217   1.235
22554SOL     OW69620   7.488   7.992   1.114
22554SOL    HW169621   7.573   7.959   1.073
22554SOL    HW269622   7.501   8.007   1.212
22555SOL     OW69623   7.637   7.968   1.722
22555SOL    HW169624   7.696   7.928   1.652
22555SOL    HW269625   7.579   8.039   1.681
22556SOL     OW69626   8.817   8.398   1.660
22556SOL    HW169627   8.856   8.487   1.680
22556SOL    HW269628   8.827   8.378   1.563
22557SOL     OW69629   8.263   8.020   0.325
22557SOL    HW169630   8.270   7.931   0.279
22557SOL    HW269631   8.169   8.054   0.317
22558SOL     OW69632   0.105   8.052   1.206
22558SOL    HW169633   0.067   7.983   1.268
22558SOL    HW269634   0.187   8.016   1.162
22559SOL     OW69635   7.700   0.012   1.744
22559SOL    HW169636   7.670   0.069   1.820
22559SOL    HW269637   7.693  -0.085   1.770
22560SOL     OW69638   8.119   7.912   1.269
22560SOL    HW169639   8.085   7.823   1.239
22560SOL    HW269640   8.145   7.966   1.189
22561SOL     OW69641   7.921   7.948   0.191
22561SOL    HW169642   7.982   8.028   0.195
22561SOL    HW269643   7.826   7.979   0.198
22562SOL     OW69644   7.607   8.585   1.466
22562SOL    HW169645   7.629   8.524   1.542
22562SOL    HW269646   7.617   8.536   1.380
22563SOL     OW69647   8.795   8.507   1.234
22563SOL    HW169648   8.819   8.444   1.160
22563SOL    HW269649   8.705   8.547   1.216
22564SOL     OW69650   8.750   8.303   0.309
22564SOL    HW169651   8.664   8.272   0.351
22564SOL    HW269652   8.746   8.289   0.210
22565SOL     OW69653   7.531   8.706   1.022
22565SOL    HW169654   7.526   8.705   1.122
22565SOL    HW269655   7.448   8.665   0.984
22566SOL     OW69656   8.351   7.534   0.133
22566SOL    HW169657   8.402   7.535   0.047
22566SOL    HW269658   8.407   7.492   0.204
22567SOL     OW69659   0.174   7.583   0.523
22567SOL    HW169660   0.247   7.566   0.456
22567SOL    HW269661   0.143   7.496   0.561
22568SOL     OW69662   8.728   8.375   0.672
22568SOL    HW169663   8.788   8.294   0.674
22568SOL    HW269664   8.768   8.444   0.612
22569SOL     OW69665   8.278   8.721   1.422
22569SOL    HW169666   8.273   8.754   1.517
22569SOL    HW269667   8.192   8.740   1.376
22570SOL     OW69668   7.711   7.774   0.720
22570SOL    HW169669   7.632   7.825   0.686
22570SOL    HW269670   7.702   7.759   0.818
22571SOL     OW69671   8.270   8.450   1.372
22571SOL    HW169672   8.310   8.449   1.280
22571SOL    HW269673   8.280   8.542   1.412
22572SOL     OW69674   8.364   8.358   0.291
22572SOL    HW169675   8.427   8.396   0.223
22572SOL    HW269676   8.404   8.275   0.330
22573SOL     OW69677   7.820   8.736   1.490
22573SOL    HW169678   7.807   8.829   1.456
22573SOL    HW269679   7.736   8.684   1.477
22574SOL     OW69680   0.062   8.740   1.289
22574SOL    HW169681   0.122   8.743   1.369
22574SOL    HW269682  -0.013   8.804   1.302
22575SOL     OW69683   8.487   8.546   0.696
22575SOL    HW169684   8.417   8.499   0.750
22575SOL    HW269685   8.546   8.478   0.653
22576SOL     OW69686   8.462   7.684   0.971
22576SOL    HW169687   8.454   7.648   0.878
22576SOL    HW269688   8.460   7.608   1.036
22577SOL     OW69689   0.157   7.833   1.381
22577SOL    HW169690   0.230   7.902   1.385
22577SOL    HW269691   0.185   7.758   1.322
22578SOL     OW69692   7.703   8.796   0.290
22578SOL    HW169693   7.607   8.797   0.263
22578SOL    HW269694   7.715   8.849   0.374
22579SOL     OW69695   7.553   8.461   1.726
22579SOL    HW169696   7.476   8.428   1.780
22579SOL    HW269697   7.638   8.431   1.768
22580SOL     OW69698   8.120   7.651   1.489
22580SOL    HW169699   8.210   7.635   1.449
22580SOL    HW269700   8.128   7.656   1.588
22581SOL     OW69701   8.888   8.304   1.398
22581SOL    HW169702   8.831   8.356   1.335
22581SOL    HW269703   8.984   8.316   1.374
22582SOL     OW69704   7.520   7.614   0.318
22582SOL    HW169705   7.503   7.697   0.264
22582SOL    HW269706   7.610   7.577   0.296
22583SOL     OW69707   8.631   8.783   0.119
22583SOL    HW169708   8.532   8.772   0.121
22583SOL    HW269709   8.665   8.798   0.212
22584SOL     OW69710   8.061   8.290   1.431
22584SOL    HW169711   8.117   8.371   1.414
22584SOL    HW269712   8.120   8.210   1.434
22585SOL     OW69713   8.164   8.013   1.708
22585SOL    HW169714   8.183   8.078   1.782
22585SOL    HW269715   8.224   7.933   1.717
22586SOL     OW69716   8.898   8.668   1.633
22586SOL    HW169717   8.889   8.658   1.732
22586SOL    HW269718   8.994   8.661   1.607
22587SOL     OW69719   0.122   8.331   1.254
22587SOL    HW169720   0.095   8.242   1.217
22587SOL    HW269721   0.123   8.399   1.181
22588SOL     OW69722   8.673   7.773   0.449
22588SOL    HW169723   8.738   7.699   0.438
22588SOL    HW269724   8.693   7.823   0.533
22589SOL     OW69725   8.042   8.193   0.652
22589SOL    HW169726   8.092   8.278   0.633
22589SOL    HW269727   7.954   8.195   0.604
22590SOL     OW69728   0.225   7.790   1.642
22590SOL    HW169729   0.208   7.821   1.548
22590SOL    HW269730   0.141   7.753   1.680
22591SOL     OW69731   0.178   8.382   1.517
22591SOL    HW169732   0.216   8.473   1.532
22591SOL    HW269733   0.170   8.365   1.418
22592SOL     OW69734   8.307   8.822   0.016
22592SOL    HW169735   8.261   8.837   0.104
22592SOL    HW269736   8.351   8.907  -0.014
22593SOL     OW69737   8.307   8.404   0.861
22593SOL    HW169738   8.361   8.335   0.909
22593SOL    HW269739   8.275   8.473   0.927
22594SOL     OW69740   8.531   8.432   0.087
22594SOL    HW169741   8.508   8.485   0.005
22594SOL    HW269742   8.612   8.376   0.068
22595SOL     OW69743   7.669   8.762   1.844
22595SOL    HW169744   7.604   8.689   1.823
22595SOL    HW269745   7.673   8.776   1.942
22596SOL     OW69746   7.527   8.688   0.653
22596SOL    HW169747   7.526   8.641   0.741
22596SOL    HW269748   7.609   8.660   0.602
22597SOL     OW69749   8.120   8.839   1.624
22597SOL    HW169750   8.042   8.789   1.662
22597SOL    HW269751   8.117   8.934   1.655
22598SOL     OW69752   7.876   7.872   0.520
22598SOL    HW169753   7.906   7.800   0.458
22598SOL    HW269754   7.837   7.832   0.603
22599SOL     OW69755   0.153   8.935   1.104
22599SOL    HW169756   0.060   8.910   1.077
22599SOL    HW269757   0.179   8.885   1.186
22600SOL     OW69758   7.765   7.995   1.280
22600SOL    HW169759   7.803   7.936   1.352
22600SOL    HW269760   7.805   7.969   1.192
22601SOL     OW69761   8.872   7.662   1.112
22601SOL    HW169762   8.924   7.597   1.167
22601SOL    HW269763   8.823   7.725   1.173
22602SOL     OW69764   8.449   7.482   1.154
22602SOL    HW169765   8.386   7.410   1.123
22602SOL    HW269766   8.542   7.446   1.154
22603SOL     OW69767   8.218   8.778   0.301
22603SOL    HW169768   8.172   8.691   0.318
22603SOL    HW269769   8.309   8.775   0.342
22604SOL     OW69770   8.066   0.015   1.284
22604SOL    HW169771   8.061   0.097   1.341
22604SOL    HW269772   8.155   0.012   1.239
22605SOL     OW69773   8.748   7.901   0.691
22605SOL    HW169774   8.689   7.981   0.695
22605SOL    HW269775   8.763   7.866   0.784
22606SOL     OW69776   0.041   7.669   0.882
22606SOL    HW169777  -0.043   7.668   0.936
22606SOL    HW269778   0.043   7.752   0.826
22607SOL     OW69779   7.487   8.525   0.300
22607SOL    HW169780   7.586   8.514   0.291
22607SOL    HW269781   7.447   8.439   0.332
22608SOL     OW69782   7.678   8.076   1.975
22608SOL    HW169783   7.585   8.074   2.012
22608SOL    HW269784   7.679   8.037   1.883
22609SOL     OW69785   7.673   7.723   2.858
22609SOL    HW169786   7.708   7.706   2.950
22609SOL    HW269787   7.585   7.678   2.846
22610SOL     OW69788   7.467   7.816   2.509
22610SOL    HW169789   7.385   7.859   2.548
22610SOL    HW269790   7.439   7.743   2.446
22611SOL     OW69791   8.017   8.723   3.027
22611SOL    HW169792   7.924   8.716   2.990
22611SOL    HW269793   8.028   8.812   3.071
22612SOL     OW69794   0.003   8.959   2.565
22612SOL    HW169795  -0.054   8.943   2.646
22612SOL    HW269796  -0.056   8.969   2.485
22613SOL     OW69797   0.191   8.066   2.718
22613SOL    HW169798   0.224   8.160   2.718
22613SOL    HW269799   0.242   8.012   2.784
22614SOL     OW69800   8.583   8.151   2.579
22614SOL    HW169801   8.640   8.229   2.554
22614SOL    HW269802   8.523   8.177   2.655
22615SOL     OW69803   0.203   8.055   2.093
22615SOL    HW169804   0.191   8.042   1.994
22615SOL    HW269805   0.173   7.974   2.142
22616SOL     OW69806   8.216   8.592   2.885
22616SOL    HW169807   8.138   8.609   2.945
22616SOL    HW269808   8.250   8.679   2.849
22617SOL     OW69809   8.298   8.246   3.685
22617SOL    HW169810   8.294   8.322   3.750
22617SOL    HW269811   8.320   8.282   3.594
22618SOL     OW69812   8.133   8.460   2.527
22618SOL    HW169813   8.202   8.444   2.597
22618SOL    HW269814   8.060   8.517   2.565
22619SOL     OW69815   8.134   8.609   3.665
22619SOL    HW169816   8.194   8.688   3.679
22619SOL    HW269817   8.048   8.640   3.624
22620SOL     OW69818   7.783   8.883   2.923
22620SOL    HW169819   7.705   8.852   2.870
22620SOL    HW269820   7.841   8.941   2.866
22621SOL     OW69821   8.908   8.953   3.201
22621SOL    HW169822   8.932   9.047   3.227
22621SOL    HW269823   8.892   8.899   3.283
22622SOL     OW69824   7.886   7.840   3.361
22622SOL    HW169825   7.968   7.784   3.370
22622SOL    HW269826   7.805   7.782   3.365
22623SOL     OW69827   7.679   0.161   2.345
22623SOL    HW169828   7.713   0.238   2.399
22623SOL    HW269829   7.723   0.161   2.255
22624SOL     OW69830   8.575   8.789   3.552
22624SOL    HW169831   8.622   8.789   3.640
22624SOL    HW269832   8.527   8.702   3.541
22625SOL     OW69833   7.678   8.882   2.400
22625SOL    HW169834   7.652   8.978   2.400
22625SOL    HW269835   7.607   8.828   2.445
22626SOL     OW69836   7.688   8.539   2.748
22626SOL    HW169837   7.702   8.455   2.800
22626SOL    HW269838   7.633   8.603   2.803
22627SOL     OW69839   8.054   8.412   1.985
22627SOL    HW169840   8.061   8.496   1.931
22627SOL    HW269841   8.100   8.425   2.073
22628SOL     OW69842   0.042   7.562   3.342
22628SOL    HW169843   0.024   7.629   3.270
22628SOL    HW269844   0.039   7.608   3.431
22629SOL     OW69845   7.570   8.091   2.425
22629SOL    HW169846   7.525   8.003   2.442
22629SOL    HW269847   7.569   8.145   2.509
22630SOL     OW69848   7.475   0.044   1.979
22630SOL    HW169849   7.456  -0.052   2.000
22630SOL    HW269850   7.442   0.102   2.054
22631SOL     OW69851   0.137   8.370   2.474
22631SOL    HW169852   0.232   8.341   2.482
22631SOL    HW269853   0.129   8.435   2.399
22632SOL     OW69854   0.089   8.556   2.294
22632SOL    HW169855   0.175   8.558   2.242
22632SOL    HW269856   0.103   8.603   2.382
22633SOL     OW69857   7.561   8.185   3.459
22633SOL    HW169858   7.649   8.172   3.504
22633SOL    HW269859   7.548   8.282   3.437
22634SOL     OW69860   8.061   8.813   2.588
22634SOL    HW169861   8.012   8.726   2.597
22634SOL    HW269862   8.038   8.856   2.501
22635SOL     OW69863   8.741   8.676   3.285
22635SOL    HW169864   8.778   8.603   3.227
22635SOL    HW269865   8.793   8.681   3.370
22636SOL     OW69866   8.257   7.452   2.364
22636SOL    HW169867   8.297   7.543   2.355
22636SOL    HW269868   8.157   7.460   2.370
22637SOL     OW69869   7.645   8.424   3.126
22637SOL    HW169870   7.734   8.379   3.112
22637SOL    HW269871   7.572   8.359   3.107
22638SOL     OW69872   8.973   8.447   2.052
22638SOL    HW169873   8.910   8.371   2.065
22638SOL    HW269874   9.021   8.465   2.138
22639SOL     OW69875   7.765   7.699   3.663
22639SOL    HW169876   7.836   7.770   3.669
22639SOL    HW269877   7.677   7.738   3.691
22640SOL     OW69878   8.914   8.865   2.815
22640SOL    HW169879   8.855   8.871   2.895
22640SOL    HW269880   8.899   8.777   2.769
22641SOL     OW69881   8.046   8.177   2.132
22641SOL    HW169882   8.070   8.246   2.064
22641SOL    HW269883   7.968   8.210   2.186
22642SOL     OW69884   8.729   7.793   2.806
22642SOL    HW169885   8.643   7.743   2.793
22642SOL    HW269886   8.791   7.739   2.862
22643SOL     OW69887   8.255   8.053   3.327
22643SOL    HW169888   8.208   8.050   3.416
22643SOL    HW269889   8.204   7.998   3.261
22644SOL     OW69890   8.842   7.917   3.536
22644SOL    HW169891   8.822   7.960   3.624
22644SOL    HW269892   8.920   7.855   3.545
22645SOL     OW69893   8.421   8.338   3.434
22645SOL    HW169894   8.467   8.254   3.405
22645SOL    HW269895   8.365   8.372   3.359
22646SOL     OW69896   8.439   7.858   3.104
22646SOL    HW169897   8.362   7.892   3.158
22646SOL    HW269898   8.405   7.807   3.025
22647SOL     OW69899   8.489   8.149   2.291
22647SOL    HW169900   8.515   8.145   2.387
22647SOL    HW269901   8.404   8.098   2.277
22648SOL     OW69902   7.524   8.259   2.651
22648SOL    HW169903   7.623   8.247   2.660
22648SOL    HW269904   7.500   8.354   2.672
22649SOL     OW69905   8.313   7.796   2.057
22649SOL    HW169906   8.372   7.859   2.008
22649SOL    HW269907   8.332   7.702   2.028
22650SOL     OW69908   0.167   8.033   3.693
22650SOL    HW169909   0.141   8.122   3.657
22650SOL    HW269910   0.165   7.965   3.620
22651SOL     OW69911   8.810   8.592   2.407
22651SOL    HW169912   8.893   8.563   2.359
22651SOL    HW269913   8.761   8.659   2.351
22652SOL     OW69914   7.998   7.644   2.747
22652SOL    HW169915   7.993   7.639   2.847
22652SOL    HW269916   8.000   7.740   2.718
22653SOL     OW69917   8.456   8.904   2.339
22653SOL    HW169918   8.410   8.976   2.287
22653SOL    HW269919   8.452   8.924   2.437
22654SOL     OW69920   0.243   8.514   2.735
22654SOL    HW169921   0.181   8.499   2.659
22654SOL    HW269922   0.191   8.525   2.820
22655SOL     OW69923   8.675   8.998   3.368
22655SOL    HW169924   8.681   8.921   3.432
22655SOL    HW269925   8.623   8.972   3.288
22656SOL     OW69926   7.769   8.391   2.104
22656SOL    HW169927   7.851   8.430   2.062
22656SOL    HW269928   7.742   8.309   2.055
22657SOL     OW69929   8.906   8.183   2.590
22657SOL    HW169930   8.901   8.118   2.665
22657SOL    HW269931   8.986   8.242   2.603
22658SOL     OW69932   7.909   8.714   3.589
22658SOL    HW169933   7.859   8.715   3.503
22658SOL    HW269934   7.846   8.696   3.665
22659SOL     OW69935   8.559   0.224   2.099
22659SOL    HW169936   8.499   0.162   2.149
22659SOL    HW269937   8.590   0.180   2.014
22660SOL     OW69938   7.650   7.733   3.360
22660SOL    HW169939   7.570   7.793   3.347
22660SOL    HW269940   7.640   7.684   3.446
22661SOL     OW69941   0.080   8.825   1.943
22661SOL    HW169942   0.048   8.919   1.933
22661SOL    HW269943   0.004   8.762   1.931
22662SOL     OW69944   8.848   7.555   2.288
22662SOL    HW169945   8.824   7.518   2.198
22662SOL    HW269946   8.947   7.571   2.292
22663SOL     OW69947   7.830   8.148   2.342
22663SOL    HW169948   7.875   8.058   2.339
22663SOL    HW269949   7.736   8.137   2.375
22664SOL     OW69950   8.995   7.670   3.591
22664SOL    HW169951   8.990   7.707   3.683
22664SOL    HW269952   8.923   7.601   3.579
22665SOL     OW69953   8.062   7.570   1.979
22665SOL    HW169954   8.160   7.548   1.986
22665SOL    HW269955   8.031   7.553   1.886
22666SOL     OW69956   8.229   7.712   3.611
22666SOL    HW169957   8.296   7.651   3.654
22666SOL    HW269958   8.156   7.731   3.676
22667SOL     OW69959   8.799   8.038   3.295
22667SOL    HW169960   8.827   7.995   3.380
22667SOL    HW269961   8.824   8.134   3.296
22668SOL     OW69962   8.251   8.850   2.786
22668SOL    HW169963   8.341   8.864   2.744
22668SOL    HW269964   8.180   8.852   2.715
22669SOL     OW69965   8.370   7.951   2.761
22669SOL    HW169966   8.345   7.942   2.665
22669SOL    HW269967   8.418   7.869   2.792
22670SOL     OW69968   7.987   7.512   2.374
22670SOL    HW169969   7.906   7.513   2.432
22670SOL    HW269970   7.990   7.595   2.319
22671SOL     OW69971   8.882   8.636   1.903
22671SOL    HW169972   8.914   8.560   1.960
22671SOL    HW269973   8.790   8.663   1.933
22672SOL     OW69974   7.745   7.483   2.033
22672SOL    HW169975   7.794   7.567   2.012
22672SOL    HW269976   7.807   7.418   2.078
22673SOL     OW69977   8.383   7.684   2.342
22673SOL    HW169978   8.335   7.725   2.264
22673SOL    HW269979   8.482   7.682   2.323
22674SOL     OW69980   8.524   8.131   3.326
22674SOL    HW169981   8.444   8.070   3.329
22674SOL    HW269982   8.605   8.078   3.302
22675SOL     OW69983   8.675   0.018   2.655
22675SOL    HW169984   8.696   0.092   2.590
22675SOL    HW269985   8.743   0.018   2.728
22676SOL     OW69986   7.907   8.600   2.603
22676SOL    HW169987   7.836   8.573   2.668
22676SOL    HW269988   7.881   8.572   2.510
22677SOL     OW69989   8.480   7.997   1.878
22677SOL    HW169990   8.439   8.079   1.839
22677SOL    HW269991   8.544   8.023   1.951
22678SOL     OW69992   7.526   8.004   3.248
22678SOL    HW169993   7.618   8.003   3.207
22678SOL    HW269994   7.520   8.078   3.315
22679SOL     OW69995   8.009   7.670   3.009
22679SOL    HW169996   8.047   7.586   3.046
22679SOL    HW269997   7.921   7.689   3.053
22680SOL     OW69998   8.314   7.902   2.504
22680SOL    HW169999   8.282   7.974   2.442
22680SOL    HW270000   8.338   7.821   2.451
22681SOL     OW70001   8.465   7.487   2.615
22681SOL    HW170002   8.393   7.492   2.546
22681SOL    HW270003   8.441   7.418   2.684
22682SOL     OW70004   8.877   8.621   2.729
22682SOL    HW170005   8.822   8.537   2.722
22682SOL    HW270006   8.903   8.650   2.637
22683SOL     OW70007   8.914   8.038   2.854
22683SOL    HW170008   8.884   7.943   2.861
22683SOL    HW270009   8.987   8.054   2.920
22684SOL     OW70010   7.936   8.833   2.036
22684SOL    HW170011   7.849   8.818   2.083
22684SOL    HW270012   7.919   8.859   1.941
22685SOL     OW70013   0.112   8.728   2.519
22685SOL    HW170014   0.211   8.736   2.533
22685SOL    HW270015   0.067   8.812   2.550
22686SOL     OW70016   8.838   8.023   1.940
22686SOL    HW170017   8.784   8.002   2.021
22686SOL    HW270018   8.929   7.982   1.949
22687SOL     OW70019   7.975   7.704   2.190
22687SOL    HW170020   8.002   7.645   2.115
22687SOL    HW270021   7.975   7.799   2.159
22688SOL     OW70022   8.512   8.795   3.202
22688SOL    HW170023   8.432   8.772   3.257
22688SOL    HW270024   8.595   8.769   3.251
22689SOL     OW70025   8.559   8.643   2.962
22689SOL    HW170026   8.519   8.687   3.043
22689SOL    HW270027   8.518   8.680   2.879
22690SOL     OW70028   0.086   8.547   2.941
22690SOL    HW170029   0.091   8.628   3.000
22690SOL    HW270030   0.000   8.549   2.890
22691SOL     OW70031   8.363   7.537   3.264
22691SOL    HW170032   8.388   7.517   3.169
22691SOL    HW270033   8.435   7.593   3.306
22692SOL     OW70034   8.428   8.564   3.581
22692SOL    HW170035   8.329   8.570   3.591
22692SOL    HW270036   8.451   8.484   3.525
22693SOL     OW70037   8.153   8.498   2.230
22693SOL    HW170038   8.139   8.505   2.329
22693SOL    HW270039   8.237   8.447   2.212
22694SOL     OW70040   7.858   8.261   3.113
22694SOL    HW170041   7.944   8.273   3.163
22694SOL    HW270042   7.816   8.174   3.140
22695SOL     OW70043   8.722   7.834   3.124
22695SOL    HW170044   8.743   7.908   3.188
22695SOL    HW270045   8.633   7.851   3.081
22696SOL     OW70046   7.815   8.548   2.363
22696SOL    HW170047   7.808   8.631   2.307
22696SOL    HW270048   7.819   8.468   2.303
22697SOL     OW70049   8.014   7.985   2.727
22697SOL    HW170050   8.026   8.051   2.653
22697SOL    HW270051   8.060   8.019   2.810
22698SOL     OW70052   8.700   8.796   2.250
22698SOL    HW170053   8.750   8.873   2.290
22698SOL    HW270054   8.605   8.798   2.282
22699SOL     OW70055   8.720   8.893   3.004
22699SOL    HW170056   8.767   8.906   3.091
22699SOL    HW270057   8.654   8.819   3.013
22700SOL     OW70058   0.030   8.087   2.334
22700SOL    HW170059  -0.001   8.148   2.407
22700SOL    HW270060   0.080   8.139   2.265
22701SOL     OW70061   7.802   8.958   3.191
22701SOL    HW170062   7.781   8.914   3.104
22701SOL    HW270063   7.899   8.984   3.194
22702SOL     OW70064   7.850   8.199   3.460
22702SOL    HW170065   7.918   8.254   3.413
22702SOL    HW270066   7.890   8.111   3.487
22703SOL     OW70067   0.035   8.227   3.532
22703SOL    HW170068  -0.057   8.265   3.527
22703SOL    HW270069   0.095   8.274   3.467
22704SOL     OW70070   8.461   7.553   3.632
22704SOL    HW170071   8.467   7.638   3.580
22704SOL    HW270072   8.493   7.477   3.575
22705SOL     OW70073   7.952   7.498   3.602
22705SOL    HW170074   7.910   7.441   3.532
22705SOL    HW270075   7.886   7.567   3.634
22706SOL     OW70076   8.021   8.318   2.891
22706SOL    HW170077   8.065   8.407   2.882
22706SOL    HW270078   7.958   8.318   2.968
22707SOL     OW70079   8.808   8.310   2.907
22707SOL    HW170080   8.733   8.310   2.841
22707SOL    HW270081   8.845   8.218   2.916
22708SOL     OW70082   8.657   7.973   2.137
22708SOL    HW170083   8.670   7.889   2.191
22708SOL    HW270084   8.628   8.047   2.197
22709SOL     OW70085   7.755   7.661   3.093
22709SOL    HW170086   7.732   7.698   3.183
22709SOL    HW270087   7.725   7.566   3.087
22710SOL     OW70088   7.485   8.758   3.144
22710SOL    HW170089   7.538   8.709   3.212
22710SOL    HW270090   7.507   8.856   3.149
22711SOL     OW70091   8.180   8.082   2.926
22711SOL    HW170092   8.239   8.056   2.850
22711SOL    HW270093   8.152   8.178   2.915
22712SOL     OW70094   0.176   8.383   3.716
22712SOL    HW170095   0.130   8.376   3.627
22712SOL    HW270096   0.114   8.427   3.782
22713SOL     OW70097   7.755   7.511   2.480
22713SOL    HW170098   7.744   7.605   2.513
22713SOL    HW270099   7.750   7.448   2.557
22714SOL     OW70100   0.070   7.815   2.236
22714SOL    HW170101   0.072   7.739   2.300
22714SOL    HW270102   0.022   7.892   2.276
22715SOL     OW70103   8.471   8.214   2.828
22715SOL    HW170104   8.486   8.235   2.924
22715SOL    HW270105   8.441   8.119   2.819
22716SOL     OW70106   7.798   8.346   3.666
22716SOL    HW170107   7.874   8.390   3.714
22716SOL    HW270108   7.833   8.299   3.584
22717SOL     OW70109   8.988   7.722   1.987
22717SOL    HW170110   8.927   7.647   2.010
22717SOL    HW270111   9.010   7.774   2.070
22718SOL     OW70112   8.751   8.286   1.904
22718SOL    HW170113   8.785   8.193   1.919
22718SOL    HW270114   8.769   8.313   1.809
22719SOL     OW70115   8.516   8.781   2.711
22719SOL    HW170116   8.523   8.697   2.656
22719SOL    HW270117   8.578   8.850   2.675
22720SOL     OW70118   7.767   8.258   2.811
22720SOL    HW170119   7.860   8.294   2.816
22720SOL    HW270120   7.761   8.173   2.863
22721SOL     OW70121   7.787   7.957   2.868
22721SOL    HW170122   7.735   7.874   2.851
22721SOL    HW270123   7.864   7.962   2.804
22722SOL     OW70124   7.959   7.863   3.670
22722SOL    HW170125   7.941   7.908   3.758
22722SOL    HW270126   8.001   7.928   3.607
22723SOL     OW70127   8.586   7.828   3.540
22723SOL    HW170128   8.541   7.891   3.604
22723SOL    HW270129   8.679   7.859   3.523
22724SOL     OW70130   8.608   7.655   3.339
22724SOL    HW170131   8.608   7.719   3.416
22724SOL    HW270132   8.636   7.703   3.256
22725SOL     OW70133   7.456   8.774   2.062
22725SOL    HW170134   7.363   8.795   2.031
22725SOL    HW270135   7.466   8.675   2.075
22726SOL     OW70136   8.450   8.244   3.100
22726SOL    HW170137   8.491   8.212   3.186
22726SOL    HW270138   8.354   8.217   3.097
22727SOL     OW70139   7.488   7.992   2.976
22727SOL    HW170140   7.573   7.959   2.935
22727SOL    HW270141   7.501   8.007   3.074
22728SOL     OW70142   7.637   7.968   3.584
22728SOL    HW170143   7.696   7.928   3.514
22728SOL    HW270144   7.579   8.039   3.543
22729SOL     OW70145   8.817   8.398   3.522
22729SOL    HW170146   8.856   8.487   3.542
22729SOL    HW270147   8.827   8.378   3.425
22730SOL     OW70148   8.263   8.020   2.187
22730SOL    HW170149   8.270   7.931   2.141
22730SOL    HW270150   8.169   8.054   2.179
22731SOL     OW70151   0.105   8.052   3.068
22731SOL    HW170152   0.067   7.983   3.130
22731SOL    HW270153   0.187   8.016   3.024
22732SOL     OW70154   7.700   0.012   3.606
22732SOL    HW170155   7.670   0.069   3.682
22732SOL    HW270156   7.693  -0.085   3.632
22733SOL     OW70157   8.119   7.912   3.131
22733SOL    HW170158   8.085   7.823   3.101
22733SOL    HW270159   8.145   7.966   3.051
22734SOL     OW70160   7.921   7.948   2.053
22734SOL    HW170161   7.982   8.028   2.057
22734SOL    HW270162   7.826   7.979   2.060
22735SOL     OW70163   7.607   8.585   3.328
22735SOL    HW170164   7.629   8.524   3.404
22735SOL    HW270165   7.617   8.536   3.242
22736SOL     OW70166   8.795   8.507   3.096
22736SOL    HW170167   8.819   8.444   3.022
22736SOL    HW270168   8.705   8.547   3.078
22737SOL     OW70169   8.750   8.303   2.171
22737SOL    HW170170   8.664   8.272   2.213
22737SOL    HW270171   8.746   8.289   2.072
22738SOL     OW70172   7.531   8.706   2.884
22738SOL    HW170173   7.526   8.705   2.984
22738SOL    HW270174   7.448   8.665   2.846
22739SOL     OW70175   8.351   7.534   1.995
22739SOL    HW170176   8.402   7.535   1.909
22739SOL    HW270177   8.407   7.492   2.066
22740SOL     OW70178   0.174   7.583   2.385
22740SOL    HW170179   0.247   7.566   2.318
22740SOL    HW270180   0.143   7.496   2.423
22741SOL     OW70181   8.728   8.375   2.534
22741SOL    HW170182   8.788   8.294   2.536
22741SOL    HW270183   8.768   8.444   2.474
22742SOL     OW70184   8.278   8.721   3.284
22742SOL    HW170185   8.273   8.754   3.379
22742SOL    HW270186   8.192   8.740   3.238
22743SOL     OW70187   7.711   7.774   2.582
22743SOL    HW170188   7.632   7.825   2.548
22743SOL    HW270189   7.702   7.759   2.680
22744SOL     OW70190   8.270   8.450   3.234
22744SOL    HW170191   8.310   8.449   3.142
22744SOL    HW270192   8.280   8.542   3.274
22745SOL     OW70193   8.364   8.358   2.153
22745SOL    HW170194   8.427   8.396   2.085
22745SOL    HW270195   8.404   8.275   2.192
22746SOL     OW70196   7.820   8.736   3.352
22746SOL    HW170197   7.807   8.829   3.318
22746SOL    HW270198   7.736   8.684   3.339
22747SOL     OW70199   0.062   8.740   3.151
22747SOL    HW170200   0.122   8.743   3.231
22747SOL    HW270201  -0.013   8.804   3.164
22748SOL     OW70202   8.487   8.546   2.558
22748SOL    HW170203   8.417   8.499   2.612
22748SOL    HW270204   8.546   8.478   2.515
22749SOL     OW70205   8.462   7.684   2.833
22749SOL    HW170206   8.454   7.648   2.740
22749SOL    HW270207   8.460   7.608   2.898
22750SOL     OW70208   0.157   7.833   3.243
22750SOL    HW170209   0.230   7.902   3.247
22750SOL    HW270210   0.185   7.758   3.184
22751SOL     OW70211   7.703   8.796   2.152
22751SOL    HW170212   7.607   8.797   2.125
22751SOL    HW270213   7.715   8.849   2.236
22752SOL     OW70214   7.553   8.461   3.588
22752SOL    HW170215   7.476   8.428   3.642
22752SOL    HW270216   7.638   8.431   3.630
22753SOL     OW70217   8.120   7.651   3.351
22753SOL    HW170218   8.210   7.635   3.311
22753SOL    HW270219   8.128   7.656   3.450
22754SOL     OW70220   7.523   7.793   1.895
22754SOL    HW170221   7.431   7.765   1.866
22754SOL    HW270222   7.554   7.870   1.839
22755SOL     OW70223   8.888   8.304   3.260
22755SOL    HW170224   8.831   8.356   3.197
22755SOL    HW270225   8.984   8.316   3.236
22756SOL     OW70226   7.520   7.614   2.180
22756SOL    HW170227   7.503   7.697   2.126
22756SOL    HW270228   7.610   7.577   2.158
22757SOL     OW70229   8.631   8.783   1.981
22757SOL    HW170230   8.532   8.772   1.983
22757SOL    HW270231   8.665   8.798   2.074
22758SOL     OW70232   8.061   8.290   3.293
22758SOL    HW170233   8.117   8.371   3.276
22758SOL    HW270234   8.120   8.210   3.296
22759SOL     OW70235   8.164   8.013   3.570
22759SOL    HW170236   8.183   8.078   3.644
22759SOL    HW270237   8.224   7.933   3.579
22760SOL     OW70238   8.898   8.668   3.495
22760SOL    HW170239   8.889   8.658   3.594
22760SOL    HW270240   8.994   8.661   3.469
22761SOL     OW70241   0.122   8.331   3.116
22761SOL    HW170242   0.095   8.242   3.079
22761SOL    HW270243   0.123   8.399   3.043
22762SOL     OW70244   8.673   7.773   2.311
22762SOL    HW170245   8.738   7.699   2.300
22762SOL    HW270246   8.693   7.823   2.395
22763SOL     OW70247   8.042   8.193   2.514
22763SOL    HW170248   8.092   8.278   2.495
22763SOL    HW270249   7.954   8.195   2.466
22764SOL     OW70250   0.225   7.790   3.504
22764SOL    HW170251   0.208   7.821   3.410
22764SOL    HW270252   0.141   7.753   3.542
22765SOL     OW70253   0.178   8.382   3.379
22765SOL    HW170254   0.216   8.473   3.394
22765SOL    HW270255   0.170   8.365   3.280
22766SOL     OW70256   8.307   8.822   1.878
22766SOL    HW170257   8.261   8.837   1.966
22766SOL    HW270258   8.351   8.907   1.848
22767SOL     OW70259   8.307   8.404   2.723
22767SOL    HW170260   8.361   8.335   2.771
22767SOL    HW270261   8.275   8.473   2.789
22768SOL     OW70262   8.531   8.432   1.949
22768SOL    HW170263   8.508   8.485   1.867
22768SOL    HW270264   8.612   8.376   1.930
22769SOL     OW70265   7.669   8.762   3.706
22769SOL    HW170266   7.604   8.689   3.685
22769SOL    HW270267   7.673   8.776   3.804
22770SOL     OW70268   7.527   8.688   2.515
22770SOL    HW170269   7.526   8.641   2.603
22770SOL    HW270270   7.609   8.660   2.464
22771SOL     OW70271   8.120   8.839   3.486
22771SOL    HW170272   8.042   8.789   3.524
22771SOL    HW270273   8.117   8.934   3.517
22772SOL     OW70274   7.876   7.872   2.382
22772SOL    HW170275   7.906   7.800   2.320
22772SOL    HW270276   7.837   7.832   2.465
22773SOL     OW70277   0.153   8.935   2.966
22773SOL    HW170278   0.060   8.910   2.939
22773SOL    HW270279   0.179   8.885   3.048
22774SOL     OW70280   7.765   7.995   3.142
22774SOL    HW170281   7.803   7.936   3.214
22774SOL    HW270282   7.805   7.969   3.054
22775SOL     OW70283   8.872   7.662   2.974
22775SOL    HW170284   8.924   7.597   3.029
22775SOL    HW270285   8.823   7.725   3.035
22776SOL     OW70286   8.449   7.482   3.016
22776SOL    HW170287   8.386   7.410   2.985
22776SOL    HW270288   8.542   7.446   3.016
22777SOL     OW70289   8.218   8.778   2.163
22777SOL    HW170290   8.172   8.691   2.180
22777SOL    HW270291   8.309   8.775   2.204
22778SOL     OW70292   8.066   0.015   3.146
22778SOL    HW170293   8.061   0.097   3.203
22778SOL    HW270294   8.155   0.012   3.101
22779SOL     OW70295   8.800   7.500   2.030
22779SOL    HW170296   8.835   7.459   1.946
22779SOL    HW270297   8.710   7.462   2.050
22780SOL     OW70298   8.748   7.901   2.553
22780SOL    HW170299   8.689   7.981   2.557
22780SOL    HW270300   8.763   7.866   2.646
22781SOL     OW70301   0.041   7.669   2.744
22781SOL    HW170302  -0.043   7.668   2.798
22781SOL    HW270303   0.043   7.752   2.688
22782SOL     OW70304   7.487   8.525   2.162
22782SOL    HW170305   7.586   8.514   2.153
22782SOL    HW270306   7.447   8.439   2.194
22783SOL     OW70307   7.678   8.076   3.837
22783SOL    HW170308   7.585   8.074   3.874
22783SOL    HW270309   7.679   8.037   3.745
22784SOL     OW70310   7.673   7.723   4.720
22784SOL    HW170311   7.708   7.706   4.812
22784SOL    HW270312   7.585   7.678   4.708
22785SOL     OW70313   7.467   7.816   4.371
22785SOL    HW170314   7.385   7.859   4.410
22785SOL    HW270315   7.439   7.743   4.308
22786SOL     OW70316   8.017   8.723   4.889
22786SOL    HW170317   7.924   8.716   4.852
22786SOL    HW270318   8.028   8.812   4.933
22787SOL     OW70319   0.003   8.959   4.427
22787SOL    HW170320  -0.054   8.943   4.508
22787SOL    HW270321  -0.056   8.969   4.347
22788SOL     OW70322   0.191   8.066   4.580
22788SOL    HW170323   0.224   8.160   4.580
22788SOL    HW270324   0.242   8.012   4.646
22789SOL     OW70325   8.583   8.151   4.441
22789SOL    HW170326   8.640   8.229   4.416
22789SOL    HW270327   8.523   8.177   4.517
22790SOL     OW70328   0.203   8.055   3.955
22790SOL    HW170329   0.191   8.042   3.856
22790SOL    HW270330   0.173   7.974   4.004
22791SOL     OW70331   8.216   8.592   4.747
22791SOL    HW170332   8.138   8.609   4.807
22791SOL    HW270333   8.250   8.679   4.711
22792SOL     OW70334   8.298   8.246   5.547
22792SOL    HW170335   8.294   8.322   5.612
22792SOL    HW270336   8.320   8.282   5.456
22793SOL     OW70337   8.133   8.460   4.389
22793SOL    HW170338   8.202   8.444   4.459
22793SOL    HW270339   8.060   8.517   4.427
22794SOL     OW70340   8.134   8.609   5.527
22794SOL    HW170341   8.194   8.688   5.541
22794SOL    HW270342   8.048   8.640   5.486
22795SOL     OW70343   7.783   8.883   4.785
22795SOL    HW170344   7.705   8.852   4.732
22795SOL    HW270345   7.841   8.941   4.728
22796SOL     OW70346   8.908   8.953   5.063
22796SOL    HW170347   8.932   9.047   5.089
22796SOL    HW270348   8.892   8.899   5.145
22797SOL     OW70349   7.886   7.840   5.223
22797SOL    HW170350   7.968   7.784   5.232
22797SOL    HW270351   7.805   7.782   5.227
22798SOL     OW70352   7.679   0.161   4.207
22798SOL    HW170353   7.713   0.238   4.261
22798SOL    HW270354   7.723   0.161   4.117
22799SOL     OW70355   8.575   8.789   5.414
22799SOL    HW170356   8.622   8.789   5.502
22799SOL    HW270357   8.527   8.702   5.403
22800SOL     OW70358   7.678   8.882   4.262
22800SOL    HW170359   7.652   8.978   4.262
22800SOL    HW270360   7.607   8.828   4.307
22801SOL     OW70361   7.688   8.539   4.610
22801SOL    HW170362   7.702   8.455   4.662
22801SOL    HW270363   7.633   8.603   4.665
22802SOL     OW70364   8.054   8.412   3.847
22802SOL    HW170365   8.061   8.496   3.793
22802SOL    HW270366   8.100   8.425   3.935
22803SOL     OW70367   0.042   7.562   5.204
22803SOL    HW170368   0.024   7.629   5.132
22803SOL    HW270369   0.039   7.608   5.293
22804SOL     OW70370   7.570   8.091   4.287
22804SOL    HW170371   7.525   8.003   4.304
22804SOL    HW270372   7.569   8.145   4.371
22805SOL     OW70373   7.475   0.044   3.841
22805SOL    HW170374   7.456  -0.052   3.862
22805SOL    HW270375   7.442   0.102   3.916
22806SOL     OW70376   0.137   8.370   4.336
22806SOL    HW170377   0.232   8.341   4.344
22806SOL    HW270378   0.129   8.435   4.261
22807SOL     OW70379   0.089   8.556   4.156
22807SOL    HW170380   0.175   8.558   4.104
22807SOL    HW270381   0.103   8.603   4.244
22808SOL     OW70382   7.561   8.185   5.321
22808SOL    HW170383   7.649   8.172   5.366
22808SOL    HW270384   7.548   8.282   5.299
22809SOL     OW70385   8.061   8.813   4.450
22809SOL    HW170386   8.012   8.726   4.459
22809SOL    HW270387   8.038   8.856   4.363
22810SOL     OW70388   8.741   8.676   5.147
22810SOL    HW170389   8.778   8.603   5.089
22810SOL    HW270390   8.793   8.681   5.232
22811SOL     OW70391   8.257   7.452   4.226
22811SOL    HW170392   8.297   7.543   4.217
22811SOL    HW270393   8.157   7.460   4.232
22812SOL     OW70394   7.645   8.424   4.988
22812SOL    HW170395   7.734   8.379   4.974
22812SOL    HW270396   7.572   8.359   4.969
22813SOL     OW70397   8.973   8.447   3.914
22813SOL    HW170398   8.910   8.371   3.927
22813SOL    HW270399   9.021   8.465   4.000
22814SOL     OW70400   7.765   7.699   5.525
22814SOL    HW170401   7.836   7.770   5.531
22814SOL    HW270402   7.677   7.738   5.553
22815SOL     OW70403   8.914   8.865   4.677
22815SOL    HW170404   8.855   8.871   4.757
22815SOL    HW270405   8.899   8.777   4.631
22816SOL     OW70406   8.046   8.177   3.994
22816SOL    HW170407   8.070   8.246   3.926
22816SOL    HW270408   7.968   8.210   4.048
22817SOL     OW70409   8.729   7.793   4.668
22817SOL    HW170410   8.643   7.743   4.655
22817SOL    HW270411   8.791   7.739   4.724
22818SOL     OW70412   8.255   8.053   5.189
22818SOL    HW170413   8.208   8.050   5.278
22818SOL    HW270414   8.204   7.998   5.123
22819SOL     OW70415   8.842   7.917   5.398
22819SOL    HW170416   8.822   7.960   5.486
22819SOL    HW270417   8.920   7.855   5.407
22820SOL     OW70418   8.421   8.338   5.296
22820SOL    HW170419   8.467   8.254   5.267
22820SOL    HW270420   8.365   8.372   5.221
22821SOL     OW70421   8.439   7.858   4.966
22821SOL    HW170422   8.362   7.892   5.020
22821SOL    HW270423   8.405   7.807   4.887
22822SOL     OW70424   8.489   8.149   4.153
22822SOL    HW170425   8.515   8.145   4.249
22822SOL    HW270426   8.404   8.098   4.139
22823SOL     OW70427   7.524   8.259   4.513
22823SOL    HW170428   7.623   8.247   4.522
22823SOL    HW270429   7.500   8.354   4.534
22824SOL     OW70430   8.313   7.796   3.919
22824SOL    HW170431   8.372   7.859   3.870
22824SOL    HW270432   8.332   7.702   3.890
22825SOL     OW70433   0.167   8.033   5.555
22825SOL    HW170434   0.141   8.122   5.519
22825SOL    HW270435   0.165   7.965   5.482
22826SOL     OW70436   8.810   8.592   4.269
22826SOL    HW170437   8.893   8.563   4.221
22826SOL    HW270438   8.761   8.659   4.213
22827SOL     OW70439   7.998   7.644   4.609
22827SOL    HW170440   7.993   7.639   4.709
22827SOL    HW270441   8.000   7.740   4.580
22828SOL     OW70442   8.456   8.904   4.201
22828SOL    HW170443   8.410   8.976   4.149
22828SOL    HW270444   8.452   8.924   4.299
22829SOL     OW70445   0.243   8.514   4.597
22829SOL    HW170446   0.181   8.499   4.521
22829SOL    HW270447   0.191   8.525   4.682
22830SOL     OW70448   8.675   8.998   5.230
22830SOL    HW170449   8.681   8.921   5.294
22830SOL    HW270450   8.623   8.972   5.150
22831SOL     OW70451   7.769   8.391   3.966
22831SOL    HW170452   7.851   8.430   3.924
22831SOL    HW270453   7.742   8.309   3.917
22832SOL     OW70454   8.906   8.183   4.452
22832SOL    HW170455   8.901   8.118   4.527
22832SOL    HW270456   8.986   8.242   4.465
22833SOL     OW70457   7.909   8.714   5.451
22833SOL    HW170458   7.859   8.715   5.365
22833SOL    HW270459   7.846   8.696   5.527
22834SOL     OW70460   8.559   0.224   3.961
22834SOL    HW170461   8.499   0.162   4.011
22834SOL    HW270462   8.590   0.180   3.876
22835SOL     OW70463   7.650   7.733   5.222
22835SOL    HW170464   7.570   7.793   5.209
22835SOL    HW270465   7.640   7.684   5.308
22836SOL     OW70466   0.080   8.825   3.805
22836SOL    HW170467   0.048   8.919   3.795
22836SOL    HW270468   0.004   8.762   3.793
22837SOL     OW70469   8.848   7.555   4.150
22837SOL    HW170470   8.824   7.518   4.060
22837SOL    HW270471   8.947   7.571   4.154
22838SOL     OW70472   7.830   8.148   4.204
22838SOL    HW170473   7.875   8.058   4.201
22838SOL    HW270474   7.736   8.137   4.237
22839SOL     OW70475   8.995   7.670   5.453
22839SOL    HW170476   8.990   7.707   5.545
22839SOL    HW270477   8.923   7.601   5.441
22840SOL     OW70478   8.062   7.570   3.841
22840SOL    HW170479   8.160   7.548   3.848
22840SOL    HW270480   8.031   7.553   3.748
22841SOL     OW70481   8.229   7.712   5.473
22841SOL    HW170482   8.296   7.651   5.516
22841SOL    HW270483   8.156   7.731   5.538
22842SOL     OW70484   8.799   8.038   5.157
22842SOL    HW170485   8.827   7.995   5.242
22842SOL    HW270486   8.824   8.134   5.158
22843SOL     OW70487   8.251   8.850   4.648
22843SOL    HW170488   8.341   8.864   4.606
22843SOL    HW270489   8.180   8.852   4.577
22844SOL     OW70490   8.370   7.951   4.623
22844SOL    HW170491   8.345   7.942   4.527
22844SOL    HW270492   8.418   7.869   4.654
22845SOL     OW70493   7.987   7.512   4.236
22845SOL    HW170494   7.906   7.513   4.294
22845SOL    HW270495   7.990   7.595   4.181
22846SOL     OW70496   8.882   8.636   3.765
22846SOL    HW170497   8.914   8.560   3.822
22846SOL    HW270498   8.790   8.663   3.795
22847SOL     OW70499   7.745   7.483   3.895
22847SOL    HW170500   7.794   7.567   3.874
22847SOL    HW270501   7.807   7.418   3.940
22848SOL     OW70502   8.383   7.684   4.204
22848SOL    HW170503   8.335   7.725   4.126
22848SOL    HW270504   8.482   7.682   4.185
22849SOL     OW70505   8.524   8.131   5.188
22849SOL    HW170506   8.444   8.070   5.191
22849SOL    HW270507   8.605   8.078   5.164
22850SOL     OW70508   8.675   0.018   4.517
22850SOL    HW170509   8.696   0.092   4.452
22850SOL    HW270510   8.743   0.018   4.590
22851SOL     OW70511   7.907   8.600   4.465
22851SOL    HW170512   7.836   8.573   4.530
22851SOL    HW270513   7.881   8.572   4.372
22852SOL     OW70514   8.480   7.997   3.740
22852SOL    HW170515   8.439   8.079   3.701
22852SOL    HW270516   8.544   8.023   3.813
22853SOL     OW70517   7.526   8.004   5.110
22853SOL    HW170518   7.618   8.003   5.069
22853SOL    HW270519   7.520   8.078   5.177
22854SOL     OW70520   8.009   7.670   4.871
22854SOL    HW170521   8.047   7.586   4.908
22854SOL    HW270522   7.921   7.689   4.915
22855SOL     OW70523   8.314   7.902   4.366
22855SOL    HW170524   8.282   7.974   4.304
22855SOL    HW270525   8.338   7.821   4.313
22856SOL     OW70526   8.465   7.487   4.477
22856SOL    HW170527   8.393   7.492   4.408
22856SOL    HW270528   8.441   7.418   4.546
22857SOL     OW70529   8.877   8.621   4.591
22857SOL    HW170530   8.822   8.537   4.584
22857SOL    HW270531   8.903   8.650   4.499
22858SOL     OW70532   8.914   8.038   4.716
22858SOL    HW170533   8.884   7.943   4.723
22858SOL    HW270534   8.987   8.054   4.782
22859SOL     OW70535   7.936   8.833   3.898
22859SOL    HW170536   7.849   8.818   3.945
22859SOL    HW270537   7.919   8.859   3.803
22860SOL     OW70538   0.112   8.728   4.381
22860SOL    HW170539   0.211   8.736   4.395
22860SOL    HW270540   0.067   8.812   4.412
22861SOL     OW70541   8.838   8.023   3.802
22861SOL    HW170542   8.784   8.002   3.883
22861SOL    HW270543   8.929   7.982   3.811
22862SOL     OW70544   7.975   7.704   4.052
22862SOL    HW170545   8.002   7.645   3.977
22862SOL    HW270546   7.975   7.799   4.021
22863SOL     OW70547   8.512   8.795   5.064
22863SOL    HW170548   8.432   8.772   5.119
22863SOL    HW270549   8.595   8.769   5.113
22864SOL     OW70550   8.559   8.643   4.824
22864SOL    HW170551   8.519   8.687   4.905
22864SOL    HW270552   8.518   8.680   4.741
22865SOL     OW70553   0.086   8.547   4.803
22865SOL    HW170554   0.091   8.628   4.862
22865SOL    HW270555   0.000   8.549   4.752
22866SOL     OW70556   8.363   7.537   5.126
22866SOL    HW170557   8.388   7.517   5.031
22866SOL    HW270558   8.435   7.593   5.168
22867SOL     OW70559   8.428   8.564   5.443
22867SOL    HW170560   8.329   8.570   5.453
22867SOL    HW270561   8.451   8.484   5.387
22868SOL     OW70562   8.153   8.498   4.092
22868SOL    HW170563   8.139   8.505   4.191
22868SOL    HW270564   8.237   8.447   4.074
22869SOL     OW70565   7.858   8.261   4.975
22869SOL    HW170566   7.944   8.273   5.025
22869SOL    HW270567   7.816   8.174   5.002
22870SOL     OW70568   8.722   7.834   4.986
22870SOL    HW170569   8.743   7.908   5.050
22870SOL    HW270570   8.633   7.851   4.943
22871SOL     OW70571   7.815   8.548   4.225
22871SOL    HW170572   7.808   8.631   4.169
22871SOL    HW270573   7.819   8.468   4.165
22872SOL     OW70574   8.014   7.985   4.589
22872SOL    HW170575   8.026   8.051   4.515
22872SOL    HW270576   8.060   8.019   4.672
22873SOL     OW70577   8.700   8.796   4.112
22873SOL    HW170578   8.750   8.873   4.152
22873SOL    HW270579   8.605   8.798   4.144
22874SOL     OW70580   8.720   8.893   4.866
22874SOL    HW170581   8.767   8.906   4.953
22874SOL    HW270582   8.654   8.819   4.875
22875SOL     OW70583   0.030   8.087   4.196
22875SOL    HW170584  -0.001   8.148   4.269
22875SOL    HW270585   0.080   8.139   4.127
22876SOL     OW70586   7.802   8.958   5.053
22876SOL    HW170587   7.781   8.914   4.966
22876SOL    HW270588   7.899   8.984   5.056
22877SOL     OW70589   7.850   8.199   5.322
22877SOL    HW170590   7.918   8.254   5.275
22877SOL    HW270591   7.890   8.111   5.349
22878SOL     OW70592   0.035   8.227   5.394
22878SOL    HW170593  -0.057   8.265   5.389
22878SOL    HW270594   0.095   8.274   5.329
22879SOL     OW70595   8.461   7.553   5.494
22879SOL    HW170596   8.467   7.638   5.442
22879SOL    HW270597   8.493   7.477   5.437
22880SOL     OW70598   7.952   7.498   5.464
22880SOL    HW170599   7.910   7.441   5.394
22880SOL    HW270600   7.886   7.567   5.496
22881SOL     OW70601   8.021   8.318   4.753
22881SOL    HW170602   8.065   8.407   4.744
22881SOL    HW270603   7.958   8.318   4.830
22882SOL     OW70604   8.808   8.310   4.769
22882SOL    HW170605   8.733   8.310   4.703
22882SOL    HW270606   8.845   8.218   4.778
22883SOL     OW70607   8.657   7.973   3.999
22883SOL    HW170608   8.670   7.889   4.053
22883SOL    HW270609   8.628   8.047   4.059
22884SOL     OW70610   7.755   7.661   4.955
22884SOL    HW170611   7.732   7.698   5.045
22884SOL    HW270612   7.725   7.566   4.949
22885SOL     OW70613   7.485   8.758   5.006
22885SOL    HW170614   7.538   8.709   5.074
22885SOL    HW270615   7.507   8.856   5.011
22886SOL     OW70616   8.180   8.082   4.788
22886SOL    HW170617   8.239   8.056   4.712
22886SOL    HW270618   8.152   8.178   4.777
22887SOL     OW70619   0.176   8.383   5.578
22887SOL    HW170620   0.130   8.376   5.489
22887SOL    HW270621   0.114   8.427   5.644
22888SOL     OW70622   7.755   7.511   4.342
22888SOL    HW170623   7.744   7.605   4.375
22888SOL    HW270624   7.750   7.448   4.419
22889SOL     OW70625   0.070   7.815   4.098
22889SOL    HW170626   0.072   7.739   4.162
22889SOL    HW270627   0.022   7.892   4.138
22890SOL     OW70628   8.471   8.214   4.690
22890SOL    HW170629   8.486   8.235   4.786
22890SOL    HW270630   8.441   8.119   4.681
22891SOL     OW70631   7.798   8.346   5.528
22891SOL    HW170632   7.874   8.390   5.576
22891SOL    HW270633   7.833   8.299   5.446
22892SOL     OW70634   8.988   7.722   3.849
22892SOL    HW170635   8.927   7.647   3.872
22892SOL    HW270636   9.010   7.774   3.932
22893SOL     OW70637   8.751   8.286   3.766
22893SOL    HW170638   8.785   8.193   3.781
22893SOL    HW270639   8.769   8.313   3.671
22894SOL     OW70640   8.516   8.781   4.573
22894SOL    HW170641   8.523   8.697   4.518
22894SOL    HW270642   8.578   8.850   4.537
22895SOL     OW70643   7.767   8.258   4.673
22895SOL    HW170644   7.860   8.294   4.678
22895SOL    HW270645   7.761   8.173   4.725
22896SOL     OW70646   7.787   7.957   4.730
22896SOL    HW170647   7.735   7.874   4.713
22896SOL    HW270648   7.864   7.962   4.666
22897SOL     OW70649   7.959   7.863   5.532
22897SOL    HW170650   7.941   7.908   5.620
22897SOL    HW270651   8.001   7.928   5.469
22898SOL     OW70652   8.586   7.828   5.402
22898SOL    HW170653   8.541   7.891   5.466
22898SOL    HW270654   8.679   7.859   5.385
22899SOL     OW70655   8.608   7.655   5.201
22899SOL    HW170656   8.608   7.719   5.278
22899SOL    HW270657   8.636   7.703   5.118
22900SOL     OW70658   7.456   8.774   3.924
22900SOL    HW170659   7.363   8.795   3.893
22900SOL    HW270660   7.466   8.675   3.937
22901SOL     OW70661   8.450   8.244   4.962
22901SOL    HW170662   8.491   8.212   5.048
22901SOL    HW270663   8.354   8.217   4.959
22902SOL     OW70664   7.488   7.992   4.838
22902SOL    HW170665   7.573   7.959   4.797
22902SOL    HW270666   7.501   8.007   4.936
22903SOL     OW70667   7.637   7.968   5.446
22903SOL    HW170668   7.696   7.928   5.376
22903SOL    HW270669   7.579   8.039   5.405
22904SOL     OW70670   8.817   8.398   5.384
22904SOL    HW170671   8.856   8.487   5.404
22904SOL    HW270672   8.827   8.378   5.287
22905SOL     OW70673   8.263   8.020   4.049
22905SOL    HW170674   8.270   7.931   4.003
22905SOL    HW270675   8.169   8.054   4.041
22906SOL     OW70676   0.105   8.052   4.930
22906SOL    HW170677   0.067   7.983   4.992
22906SOL    HW270678   0.187   8.016   4.886
22907SOL     OW70679   7.700   0.012   5.468
22907SOL    HW170680   7.670   0.069   5.544
22907SOL    HW270681   7.693  -0.085   5.494
22908SOL     OW70682   8.119   7.912   4.993
22908SOL    HW170683   8.085   7.823   4.963
22908SOL    HW270684   8.145   7.966   4.913
22909SOL     OW70685   7.921   7.948   3.915
22909SOL    HW170686   7.982   8.028   3.919
22909SOL    HW270687   7.826   7.979   3.922
22910SOL     OW70688   7.607   8.585   5.190
22910SOL    HW170689   7.629   8.524   5.266
22910SOL    HW270690   7.617   8.536   5.104
22911SOL     OW70691   8.795   8.507   4.958
22911SOL    HW170692   8.819   8.444   4.884
22911SOL    HW270693   8.705   8.547   4.940
22912SOL     OW70694   8.750   8.303   4.033
22912SOL    HW170695   8.664   8.272   4.075
22912SOL    HW270696   8.746   8.289   3.934
22913SOL     OW70697   7.531   8.706   4.746
22913SOL    HW170698   7.526   8.705   4.846
22913SOL    HW270699   7.448   8.665   4.708
22914SOL     OW70700   8.351   7.534   3.857
22914SOL    HW170701   8.402   7.535   3.771
22914SOL    HW270702   8.407   7.492   3.928
22915SOL     OW70703   0.174   7.583   4.247
22915SOL    HW170704   0.247   7.566   4.180
22915SOL    HW270705   0.143   7.496   4.285
22916SOL     OW70706   8.728   8.375   4.396
22916SOL    HW170707   8.788   8.294   4.398
22916SOL    HW270708   8.768   8.444   4.336
22917SOL     OW70709   8.278   8.721   5.146
22917SOL    HW170710   8.273   8.754   5.241
22917SOL    HW270711   8.192   8.740   5.100
22918SOL     OW70712   7.711   7.774   4.444
22918SOL    HW170713   7.632   7.825   4.410
22918SOL    HW270714   7.702   7.759   4.542
22919SOL     OW70715   8.270   8.450   5.096
22919SOL    HW170716   8.310   8.449   5.004
22919SOL    HW270717   8.280   8.542   5.136
22920SOL     OW70718   8.364   8.358   4.015
22920SOL    HW170719   8.427   8.396   3.947
22920SOL    HW270720   8.404   8.275   4.054
22921SOL     OW70721   7.820   8.736   5.214
22921SOL    HW170722   7.807   8.829   5.180
22921SOL    HW270723   7.736   8.684   5.201
22922SOL     OW70724   0.062   8.740   5.013
22922SOL    HW170725   0.122   8.743   5.093
22922SOL    HW270726  -0.013   8.804   5.026
22923SOL     OW70727   8.487   8.546   4.420
22923SOL    HW170728   8.417   8.499   4.474
22923SOL    HW270729   8.546   8.478   4.377
22924SOL     OW70730   8.462   7.684   4.695
22924SOL    HW170731   8.454   7.648   4.602
22924SOL    HW270732   8.460   7.608   4.760
22925SOL     OW70733   0.157   7.833   5.105
22925SOL    HW170734   0.230   7.902   5.109
22925SOL    HW270735   0.185   7.758   5.046
22926SOL     OW70736   7.703   8.796   4.014
22926SOL    HW170737   7.607   8.797   3.987
22926SOL    HW270738   7.715   8.849   4.098
22927SOL     OW70739   7.553   8.461   5.450
22927SOL    HW170740   7.476   8.428   5.504
22927SOL    HW270741   7.638   8.431   5.492
22928SOL     OW70742   8.120   7.651   5.213
22928SOL    HW170743   8.210   7.635   5.173
22928SOL    HW270744   8.128   7.656   5.312
22929SOL     OW70745   7.523   7.793   3.757
22929SOL    HW170746   7.431   7.765   3.728
22929SOL    HW270747   7.554   7.870   3.701
22930SOL     OW70748   8.888   8.304   5.122
22930SOL    HW170749   8.831   8.356   5.059
22930SOL    HW270750   8.984   8.316   5.098
22931SOL     OW70751   7.520   7.614   4.042
22931SOL    HW170752   7.503   7.697   3.988
22931SOL    HW270753   7.610   7.577   4.020
22932SOL     OW70754   8.631   8.783   3.843
22932SOL    HW170755   8.532   8.772   3.845
22932SOL    HW270756   8.665   8.798   3.936
22933SOL     OW70757   8.061   8.290   5.155
22933SOL    HW170758   8.117   8.371   5.138
22933SOL    HW270759   8.120   8.210   5.158
22934SOL     OW70760   8.164   8.013   5.432
22934SOL    HW170761   8.183   8.078   5.506
22934SOL    HW270762   8.224   7.933   5.441
22935SOL     OW70763   8.898   8.668   5.357
22935SOL    HW170764   8.889   8.658   5.456
22935SOL    HW270765   8.994   8.661   5.331
22936SOL     OW70766   0.122   8.331   4.978
22936SOL    HW170767   0.095   8.242   4.941
22936SOL    HW270768   0.123   8.399   4.905
22937SOL     OW70769   8.673   7.773   4.173
22937SOL    HW170770   8.738   7.699   4.162
22937SOL    HW270771   8.693   7.823   4.257
22938SOL     OW70772   8.042   8.193   4.376
22938SOL    HW170773   8.092   8.278   4.357
22938SOL    HW270774   7.954   8.195   4.328
22939SOL     OW70775   0.225   7.790   5.366
22939SOL    HW170776   0.208   7.821   5.272
22939SOL    HW270777   0.141   7.753   5.404
22940SOL     OW70778   0.178   8.382   5.241
22940SOL    HW170779   0.216   8.473   5.256
22940SOL    HW270780   0.170   8.365   5.142
22941SOL     OW70781   8.307   8.822   3.740
22941SOL    HW170782   8.261   8.837   3.828
22941SOL    HW270783   8.351   8.907   3.710
22942SOL     OW70784   8.307   8.404   4.585
22942SOL    HW170785   8.361   8.335   4.633
22942SOL    HW270786   8.275   8.473   4.651
22943SOL     OW70787   8.531   8.432   3.811
22943SOL    HW170788   8.508   8.485   3.729
22943SOL    HW270789   8.612   8.376   3.792
22944SOL     OW70790   7.669   8.762   5.568
22944SOL    HW170791   7.604   8.689   5.547
22944SOL    HW270792   7.673   8.776   5.666
22945SOL     OW70793   7.527   8.688   4.377
22945SOL    HW170794   7.526   8.641   4.465
22945SOL    HW270795   7.609   8.660   4.326
22946SOL     OW70796   8.120   8.839   5.348
22946SOL    HW170797   8.042   8.789   5.386
22946SOL    HW270798   8.117   8.934   5.379
22947SOL     OW70799   7.876   7.872   4.244
22947SOL    HW170800   7.906   7.800   4.182
22947SOL    HW270801   7.837   7.832   4.327
22948SOL     OW70802   0.153   8.935   4.828
22948SOL    HW170803   0.060   8.910   4.801
22948SOL    HW270804   0.179   8.885   4.910
22949SOL     OW70805   7.765   7.995   5.004
22949SOL    HW170806   7.803   7.936   5.076
22949SOL    HW270807   7.805   7.969   4.916
22950SOL     OW70808   8.872   7.662   4.836
22950SOL    HW170809   8.924   7.597   4.891
22950SOL    HW270810   8.823   7.725   4.897
22951SOL     OW70811   8.449   7.482   4.878
22951SOL    HW170812   8.386   7.410   4.847
22951SOL    HW270813   8.542   7.446   4.878
22952SOL     OW70814   8.218   8.778   4.025
22952SOL    HW170815   8.172   8.691   4.042
22952SOL    HW270816   8.309   8.775   4.066
22953SOL     OW70817   8.066   0.015   5.008
22953SOL    HW170818   8.061   0.097   5.065
22953SOL    HW270819   8.155   0.012   4.963
22954SOL     OW70820   8.800   7.500   3.892
22954SOL    HW170821   8.835   7.459   3.808
22954SOL    HW270822   8.710   7.462   3.912
22955SOL     OW70823   8.748   7.901   4.415
22955SOL    HW170824   8.689   7.981   4.419
22955SOL    HW270825   8.763   7.866   4.508
22956SOL     OW70826   0.041   7.669   4.606
22956SOL    HW170827  -0.043   7.668   4.660
22956SOL    HW270828   0.043   7.752   4.550
22957SOL     OW70829   7.487   8.525   4.024
22957SOL    HW170830   7.586   8.514   4.015
22957SOL    HW270831   7.447   8.439   4.056
22958SOL     OW70832   7.678   8.076   5.699
22958SOL    HW170833   7.585   8.074   5.736
22958SOL    HW270834   7.679   8.037   5.607
22959SOL     OW70835   7.673   7.723   6.582
22959SOL    HW170836   7.708   7.706   6.674
22959SOL    HW270837   7.585   7.678   6.570
22960SOL     OW70838   7.467   7.816   6.233
22960SOL    HW170839   7.385   7.859   6.272
22960SOL    HW270840   7.439   7.743   6.170
22961SOL     OW70841   8.017   8.723   6.751
22961SOL    HW170842   7.924   8.716   6.714
22961SOL    HW270843   8.028   8.812   6.795
22962SOL     OW70844   0.003   8.959   6.289
22962SOL    HW170845  -0.054   8.943   6.370
22962SOL    HW270846  -0.056   8.969   6.209
22963SOL     OW70847   0.191   8.066   6.442
22963SOL    HW170848   0.224   8.160   6.442
22963SOL    HW270849   0.242   8.012   6.508
22964SOL     OW70850   8.583   8.151   6.303
22964SOL    HW170851   8.640   8.229   6.278
22964SOL    HW270852   8.523   8.177   6.379
22965SOL     OW70853   0.203   8.055   5.817
22965SOL    HW170854   0.191   8.042   5.718
22965SOL    HW270855   0.173   7.974   5.866
22966SOL     OW70856   8.216   8.592   6.609
22966SOL    HW170857   8.138   8.609   6.669
22966SOL    HW270858   8.250   8.679   6.573
22967SOL     OW70859   8.298   8.246   7.409
22967SOL    HW170860   8.294   8.322   7.474
22967SOL    HW270861   8.320   8.282   7.318
22968SOL     OW70862   8.133   8.460   6.251
22968SOL    HW170863   8.202   8.444   6.321
22968SOL    HW270864   8.060   8.517   6.289
22969SOL     OW70865   8.134   8.609   7.389
22969SOL    HW170866   8.194   8.688   7.403
22969SOL    HW270867   8.048   8.640   7.348
22970SOL     OW70868   7.783   8.883   6.647
22970SOL    HW170869   7.705   8.852   6.594
22970SOL    HW270870   7.841   8.941   6.590
22971SOL     OW70871   8.908   8.953   6.925
22971SOL    HW170872   8.932   9.047   6.951
22971SOL    HW270873   8.892   8.899   7.007
22972SOL     OW70874   7.886   7.840   7.085
22972SOL    HW170875   7.968   7.784   7.094
22972SOL    HW270876   7.805   7.782   7.089
22973SOL     OW70877   7.679   0.161   6.069
22973SOL    HW170878   7.713   0.238   6.123
22973SOL    HW270879   7.723   0.161   5.979
22974SOL     OW70880   8.575   8.789   7.276
22974SOL    HW170881   8.622   8.789   7.364
22974SOL    HW270882   8.527   8.702   7.265
22975SOL     OW70883   7.678   8.882   6.124
22975SOL    HW170884   7.652   8.978   6.124
22975SOL    HW270885   7.607   8.828   6.169
22976SOL     OW70886   7.688   8.539   6.472
22976SOL    HW170887   7.702   8.455   6.524
22976SOL    HW270888   7.633   8.603   6.527
22977SOL     OW70889   8.054   8.412   5.709
22977SOL    HW170890   8.061   8.496   5.655
22977SOL    HW270891   8.100   8.425   5.797
22978SOL     OW70892   0.042   7.562   7.066
22978SOL    HW170893   0.024   7.629   6.994
22978SOL    HW270894   0.039   7.608   7.155
22979SOL     OW70895   7.570   8.091   6.149
22979SOL    HW170896   7.525   8.003   6.166
22979SOL    HW270897   7.569   8.145   6.233
22980SOL     OW70898   7.475   0.044   5.703
22980SOL    HW170899   7.456  -0.052   5.724
22980SOL    HW270900   7.442   0.102   5.778
22981SOL     OW70901   0.137   8.370   6.198
22981SOL    HW170902   0.232   8.341   6.206
22981SOL    HW270903   0.129   8.435   6.123
22982SOL     OW70904   0.089   8.556   6.018
22982SOL    HW170905   0.175   8.558   5.966
22982SOL    HW270906   0.103   8.603   6.106
22983SOL     OW70907   7.561   8.185   7.183
22983SOL    HW170908   7.649   8.172   7.228
22983SOL    HW270909   7.548   8.282   7.161
22984SOL     OW70910   8.061   8.813   6.312
22984SOL    HW170911   8.012   8.726   6.321
22984SOL    HW270912   8.038   8.856   6.225
22985SOL     OW70913   8.741   8.676   7.009
22985SOL    HW170914   8.778   8.603   6.951
22985SOL    HW270915   8.793   8.681   7.094
22986SOL     OW70916   8.257   7.452   6.088
22986SOL    HW170917   8.297   7.543   6.079
22986SOL    HW270918   8.157   7.460   6.094
22987SOL     OW70919   7.645   8.424   6.850
22987SOL    HW170920   7.734   8.379   6.836
22987SOL    HW270921   7.572   8.359   6.831
22988SOL     OW70922   8.973   8.447   5.776
22988SOL    HW170923   8.910   8.371   5.789
22988SOL    HW270924   9.021   8.465   5.862
22989SOL     OW70925   7.765   7.699   7.387
22989SOL    HW170926   7.836   7.770   7.393
22989SOL    HW270927   7.677   7.738   7.415
22990SOL     OW70928   8.914   8.865   6.539
22990SOL    HW170929   8.855   8.871   6.619
22990SOL    HW270930   8.899   8.777   6.493
22991SOL     OW70931   8.046   8.177   5.856
22991SOL    HW170932   8.070   8.246   5.788
22991SOL    HW270933   7.968   8.210   5.910
22992SOL     OW70934   8.729   7.793   6.530
22992SOL    HW170935   8.643   7.743   6.517
22992SOL    HW270936   8.791   7.739   6.586
22993SOL     OW70937   8.255   8.053   7.051
22993SOL    HW170938   8.208   8.050   7.140
22993SOL    HW270939   8.204   7.998   6.985
22994SOL     OW70940   8.842   7.917   7.260
22994SOL    HW170941   8.822   7.960   7.348
22994SOL    HW270942   8.920   7.855   7.269
22995SOL     OW70943   8.421   8.338   7.158
22995SOL    HW170944   8.467   8.254   7.129
22995SOL    HW270945   8.365   8.372   7.083
22996SOL     OW70946   8.439   7.858   6.828
22996SOL    HW170947   8.362   7.892   6.882
22996SOL    HW270948   8.405   7.807   6.749
22997SOL     OW70949   8.489   8.149   6.015
22997SOL    HW170950   8.515   8.145   6.111
22997SOL    HW270951   8.404   8.098   6.001
22998SOL     OW70952   7.524   8.259   6.375
22998SOL    HW170953   7.623   8.247   6.384
22998SOL    HW270954   7.500   8.354   6.396
22999SOL     OW70955   8.313   7.796   5.781
22999SOL    HW170956   8.372   7.859   5.732
22999SOL    HW270957   8.332   7.702   5.752
23000SOL     OW70958   0.167   8.033   7.417
23000SOL    HW170959   0.141   8.122   7.381
23000SOL    HW270960   0.165   7.965   7.344
23001SOL     OW70961   8.810   8.592   6.131
23001SOL    HW170962   8.893   8.563   6.083
23001SOL    HW270963   8.761   8.659   6.075
23002SOL     OW70964   7.998   7.644   6.471
23002SOL    HW170965   7.993   7.639   6.571
23002SOL    HW270966   8.000   7.740   6.442
23003SOL     OW70967   8.456   8.904   6.063
23003SOL    HW170968   8.410   8.976   6.011
23003SOL    HW270969   8.452   8.924   6.161
23004SOL     OW70970   0.243   8.514   6.459
23004SOL    HW170971   0.181   8.499   6.383
23004SOL    HW270972   0.191   8.525   6.544
23005SOL     OW70973   8.675   8.998   7.092
23005SOL    HW170974   8.681   8.921   7.156
23005SOL    HW270975   8.623   8.972   7.012
23006SOL     OW70976   7.769   8.391   5.828
23006SOL    HW170977   7.851   8.430   5.786
23006SOL    HW270978   7.742   8.309   5.779
23007SOL     OW70979   8.906   8.183   6.314
23007SOL    HW170980   8.901   8.118   6.389
23007SOL    HW270981   8.986   8.242   6.327
23008SOL     OW70982   7.909   8.714   7.313
23008SOL    HW170983   7.859   8.715   7.227
23008SOL    HW270984   7.846   8.696   7.389
23009SOL     OW70985   8.559   0.224   5.823
23009SOL    HW170986   8.499   0.162   5.873
23009SOL    HW270987   8.590   0.180   5.738
23010SOL     OW70988   7.650   7.733   7.084
23010SOL    HW170989   7.570   7.793   7.071
23010SOL    HW270990   7.640   7.684   7.170
23011SOL     OW70991   0.080   8.825   5.667
23011SOL    HW170992   0.048   8.919   5.657
23011SOL    HW270993   0.004   8.762   5.655
23012SOL     OW70994   8.848   7.555   6.012
23012SOL    HW170995   8.824   7.518   5.922
23012SOL    HW270996   8.947   7.571   6.016
23013SOL     OW70997   7.830   8.148   6.066
23013SOL    HW170998   7.875   8.058   6.063
23013SOL    HW270999   7.736   8.137   6.099
23014SOL     OW71000   8.995   7.670   7.315
23014SOL    HW171001   8.990   7.707   7.407
23014SOL    HW271002   8.923   7.601   7.303
23015SOL     OW71003   8.062   7.570   5.703
23015SOL    HW171004   8.160   7.548   5.710
23015SOL    HW271005   8.031   7.553   5.610
23016SOL     OW71006   8.229   7.712   7.335
23016SOL    HW171007   8.296   7.651   7.378
23016SOL    HW271008   8.156   7.731   7.400
23017SOL     OW71009   8.799   8.038   7.019
23017SOL    HW171010   8.827   7.995   7.104
23017SOL    HW271011   8.824   8.134   7.020
23018SOL     OW71012   8.251   8.850   6.510
23018SOL    HW171013   8.341   8.864   6.468
23018SOL    HW271014   8.180   8.852   6.439
23019SOL     OW71015   8.370   7.951   6.485
23019SOL    HW171016   8.345   7.942   6.389
23019SOL    HW271017   8.418   7.869   6.516
23020SOL     OW71018   7.987   7.512   6.098
23020SOL    HW171019   7.906   7.513   6.156
23020SOL    HW271020   7.990   7.595   6.043
23021SOL     OW71021   8.882   8.636   5.627
23021SOL    HW171022   8.914   8.560   5.684
23021SOL    HW271023   8.790   8.663   5.657
23022SOL     OW71024   7.745   7.483   5.757
23022SOL    HW171025   7.794   7.567   5.736
23022SOL    HW271026   7.807   7.418   5.802
23023SOL     OW71027   8.383   7.684   6.066
23023SOL    HW171028   8.335   7.725   5.988
23023SOL    HW271029   8.482   7.682   6.047
23024SOL     OW71030   8.524   8.131   7.050
23024SOL    HW171031   8.444   8.070   7.053
23024SOL    HW271032   8.605   8.078   7.026
23025SOL     OW71033   8.675   0.018   6.379
23025SOL    HW171034   8.696   0.092   6.314
23025SOL    HW271035   8.743   0.018   6.452
23026SOL     OW71036   7.907   8.600   6.327
23026SOL    HW171037   7.836   8.573   6.392
23026SOL    HW271038   7.881   8.572   6.234
23027SOL     OW71039   8.480   7.997   5.602
23027SOL    HW171040   8.439   8.079   5.563
23027SOL    HW271041   8.544   8.023   5.675
23028SOL     OW71042   7.526   8.004   6.972
23028SOL    HW171043   7.618   8.003   6.931
23028SOL    HW271044   7.520   8.078   7.039
23029SOL     OW71045   8.009   7.670   6.733
23029SOL    HW171046   8.047   7.586   6.770
23029SOL    HW271047   7.921   7.689   6.777
23030SOL     OW71048   8.314   7.902   6.228
23030SOL    HW171049   8.282   7.974   6.166
23030SOL    HW271050   8.338   7.821   6.175
23031SOL     OW71051   8.465   7.487   6.339
23031SOL    HW171052   8.393   7.492   6.270
23031SOL    HW271053   8.441   7.418   6.408
23032SOL     OW71054   8.877   8.621   6.453
23032SOL    HW171055   8.822   8.537   6.446
23032SOL    HW271056   8.903   8.650   6.361
23033SOL     OW71057   8.914   8.038   6.578
23033SOL    HW171058   8.884   7.943   6.585
23033SOL    HW271059   8.987   8.054   6.644
23034SOL     OW71060   7.936   8.833   5.760
23034SOL    HW171061   7.849   8.818   5.807
23034SOL    HW271062   7.919   8.859   5.665
23035SOL     OW71063   0.112   8.728   6.243
23035SOL    HW171064   0.211   8.736   6.257
23035SOL    HW271065   0.067   8.812   6.274
23036SOL     OW71066   8.838   8.023   5.664
23036SOL    HW171067   8.784   8.002   5.745
23036SOL    HW271068   8.929   7.982   5.673
23037SOL     OW71069   7.975   7.704   5.914
23037SOL    HW171070   8.002   7.645   5.839
23037SOL    HW271071   7.975   7.799   5.883
23038SOL     OW71072   8.512   8.795   6.926
23038SOL    HW171073   8.432   8.772   6.981
23038SOL    HW271074   8.595   8.769   6.975
23039SOL     OW71075   8.559   8.643   6.686
23039SOL    HW171076   8.519   8.687   6.767
23039SOL    HW271077   8.518   8.680   6.603
23040SOL     OW71078   0.086   8.547   6.665
23040SOL    HW171079   0.091   8.628   6.724
23040SOL    HW271080   0.000   8.549   6.614
23041SOL     OW71081   8.363   7.537   6.988
23041SOL    HW171082   8.388   7.517   6.893
23041SOL    HW271083   8.435   7.593   7.030
23042SOL     OW71084   8.428   8.564   7.305
23042SOL    HW171085   8.329   8.570   7.315
23042SOL    HW271086   8.451   8.484   7.249
23043SOL     OW71087   8.153   8.498   5.954
23043SOL    HW171088   8.139   8.505   6.053
23043SOL    HW271089   8.237   8.447   5.936
23044SOL     OW71090   7.858   8.261   6.837
23044SOL    HW171091   7.944   8.273   6.887
23044SOL    HW271092   7.816   8.174   6.864
23045SOL     OW71093   8.722   7.834   6.848
23045SOL    HW171094   8.743   7.908   6.912
23045SOL    HW271095   8.633   7.851   6.805
23046SOL     OW71096   7.815   8.548   6.087
23046SOL    HW171097   7.808   8.631   6.031
23046SOL    HW271098   7.819   8.468   6.027
23047SOL     OW71099   8.014   7.985   6.451
23047SOL    HW171100   8.026   8.051   6.377
23047SOL    HW271101   8.060   8.019   6.534
23048SOL     OW71102   8.700   8.796   5.974
23048SOL    HW171103   8.750   8.873   6.014
23048SOL    HW271104   8.605   8.798   6.006
23049SOL     OW71105   8.720   8.893   6.728
23049SOL    HW171106   8.767   8.906   6.815
23049SOL    HW271107   8.654   8.819   6.737
23050SOL     OW71108   0.030   8.087   6.058
23050SOL    HW171109  -0.001   8.148   6.131
23050SOL    HW271110   0.080   8.139   5.989
23051SOL     OW71111   7.802   8.958   6.915
23051SOL    HW171112   7.781   8.914   6.828
23051SOL    HW271113   7.899   8.984   6.918
23052SOL     OW71114   7.850   8.199   7.184
23052SOL    HW171115   7.918   8.254   7.137
23052SOL    HW271116   7.890   8.111   7.211
23053SOL     OW71117   0.035   8.227   7.256
23053SOL    HW171118  -0.057   8.265   7.251
23053SOL    HW271119   0.095   8.274   7.191
23054SOL     OW71120   8.461   7.553   7.356
23054SOL    HW171121   8.467   7.638   7.304
23054SOL    HW271122   8.493   7.477   7.299
23055SOL     OW71123   7.952   7.498   7.326
23055SOL    HW171124   7.910   7.441   7.256
23055SOL    HW271125   7.886   7.567   7.358
23056SOL     OW71126   8.021   8.318   6.615
23056SOL    HW171127   8.065   8.407   6.606
23056SOL    HW271128   7.958   8.318   6.692
23057SOL     OW71129   8.808   8.310   6.631
23057SOL    HW171130   8.733   8.310   6.565
23057SOL    HW271131   8.845   8.218   6.640
23058SOL     OW71132   8.657   7.973   5.861
23058SOL    HW171133   8.670   7.889   5.915
23058SOL    HW271134   8.628   8.047   5.921
23059SOL     OW71135   7.755   7.661   6.817
23059SOL    HW171136   7.732   7.698   6.907
23059SOL    HW271137   7.725   7.566   6.811
23060SOL     OW71138   7.485   8.758   6.868
23060SOL    HW171139   7.538   8.709   6.936
23060SOL    HW271140   7.507   8.856   6.873
23061SOL     OW71141   8.180   8.082   6.650
23061SOL    HW171142   8.239   8.056   6.574
23061SOL    HW271143   8.152   8.178   6.639
23062SOL     OW71144   0.176   8.383   7.440
23062SOL    HW171145   0.130   8.376   7.351
23062SOL    HW271146   0.114   8.427   7.506
23063SOL     OW71147   7.755   7.511   6.204
23063SOL    HW171148   7.744   7.605   6.237
23063SOL    HW271149   7.750   7.448   6.281
23064SOL     OW71150   0.070   7.815   5.960
23064SOL    HW171151   0.072   7.739   6.024
23064SOL    HW271152   0.022   7.892   6.000
23065SOL     OW71153   8.471   8.214   6.552
23065SOL    HW171154   8.486   8.235   6.648
23065SOL    HW271155   8.441   8.119   6.543
23066SOL     OW71156   7.798   8.346   7.390
23066SOL    HW171157   7.874   8.390   7.438
23066SOL    HW271158   7.833   8.299   7.308
23067SOL     OW71159   8.988   7.722   5.711
23067SOL    HW171160   8.927   7.647   5.734
23067SOL    HW271161   9.010   7.774   5.794
23068SOL     OW71162   8.751   8.286   5.628
23068SOL    HW171163   8.785   8.193   5.643
23068SOL    HW271164   8.769   8.313   5.533
23069SOL     OW71165   8.516   8.781   6.435
23069SOL    HW171166   8.523   8.697   6.380
23069SOL    HW271167   8.578   8.850   6.399
23070SOL     OW71168   7.767   8.258   6.535
23070SOL    HW171169   7.860   8.294   6.540
23070SOL    HW271170   7.761   8.173   6.587
23071SOL     OW71171   7.787   7.957   6.592
23071SOL    HW171172   7.735   7.874   6.575
23071SOL    HW271173   7.864   7.962   6.528
23072SOL     OW71174   7.959   7.863   7.394
23072SOL    HW171175   7.941   7.908   7.482
23072SOL    HW271176   8.001   7.928   7.331
23073SOL     OW71177   8.586   7.828   7.264
23073SOL    HW171178   8.541   7.891   7.328
23073SOL    HW271179   8.679   7.859   7.247
23074SOL     OW71180   8.608   7.655   7.063
23074SOL    HW171181   8.608   7.719   7.140
23074SOL    HW271182   8.636   7.703   6.980
23075SOL     OW71183   7.456   8.774   5.786
23075SOL    HW171184   7.363   8.795   5.755
23075SOL    HW271185   7.466   8.675   5.799
23076SOL     OW71186   8.450   8.244   6.824
23076SOL    HW171187   8.491   8.212   6.910
23076SOL    HW271188   8.354   8.217   6.821
23077SOL     OW71189   7.488   7.992   6.700
23077SOL    HW171190   7.573   7.959   6.659
23077SOL    HW271191   7.501   8.007   6.798
23078SOL     OW71192   7.637   7.968   7.308
23078SOL    HW171193   7.696   7.928   7.238
23078SOL    HW271194   7.579   8.039   7.267
23079SOL     OW71195   8.817   8.398   7.246
23079SOL    HW171196   8.856   8.487   7.266
23079SOL    HW271197   8.827   8.378   7.149
23080SOL     OW71198   8.263   8.020   5.911
23080SOL    HW171199   8.270   7.931   5.865
23080SOL    HW271200   8.169   8.054   5.903
23081SOL     OW71201   0.105   8.052   6.792
23081SOL    HW171202   0.067   7.983   6.854
23081SOL    HW271203   0.187   8.016   6.748
23082SOL     OW71204   7.700   0.012   7.330
23082SOL    HW171205   7.670   0.069   7.406
23082SOL    HW271206   7.693  -0.085   7.356
23083SOL     OW71207   8.119   7.912   6.855
23083SOL    HW171208   8.085   7.823   6.825
23083SOL    HW271209   8.145   7.966   6.775
23084SOL     OW71210   7.921   7.948   5.777
23084SOL    HW171211   7.982   8.028   5.781
23084SOL    HW271212   7.826   7.979   5.784
23085SOL     OW71213   7.607   8.585   7.052
23085SOL    HW171214   7.629   8.524   7.128
23085SOL    HW271215   7.617   8.536   6.966
23086SOL     OW71216   8.795   8.507   6.820
23086SOL    HW171217   8.819   8.444   6.746
23086SOL    HW271218   8.705   8.547   6.802
23087SOL     OW71219   8.750   8.303   5.895
23087SOL    HW171220   8.664   8.272   5.937
23087SOL    HW271221   8.746   8.289   5.796
23088SOL     OW71222   7.531   8.706   6.608
23088SOL    HW171223   7.526   8.705   6.708
23088SOL    HW271224   7.448   8.665   6.570
23089SOL     OW71225   8.351   7.534   5.719
23089SOL    HW171226   8.402   7.535   5.633
23089SOL    HW271227   8.407   7.492   5.790
23090SOL     OW71228   0.174   7.583   6.109
23090SOL    HW171229   0.247   7.566   6.042
23090SOL    HW271230   0.143   7.496   6.147
23091SOL     OW71231   8.728   8.375   6.258
23091SOL    HW171232   8.788   8.294   6.260
23091SOL    HW271233   8.768   8.444   6.198
23092SOL     OW71234   8.278   8.721   7.008
23092SOL    HW171235   8.273   8.754   7.103
23092SOL    HW271236   8.192   8.740   6.962
23093SOL     OW71237   7.711   7.774   6.306
23093SOL    HW171238   7.632   7.825   6.272
23093SOL    HW271239   7.702   7.759   6.404
23094SOL     OW71240   8.270   8.450   6.958
23094SOL    HW171241   8.310   8.449   6.866
23094SOL    HW271242   8.280   8.542   6.998
23095SOL     OW71243   8.364   8.358   5.877
23095SOL    HW171244   8.427   8.396   5.809
23095SOL    HW271245   8.404   8.275   5.916
23096SOL     OW71246   7.820   8.736   7.076
23096SOL    HW171247   7.807   8.829   7.042
23096SOL    HW271248   7.736   8.684   7.063
23097SOL     OW71249   0.062   8.740   6.875
23097SOL    HW171250   0.122   8.743   6.955
23097SOL    HW271251  -0.013   8.804   6.888
23098SOL     OW71252   8.487   8.546   6.282
23098SOL    HW171253   8.417   8.499   6.336
23098SOL    HW271254   8.546   8.478   6.239
23099SOL     OW71255   8.462   7.684   6.557
23099SOL    HW171256   8.454   7.648   6.464
23099SOL    HW271257   8.460   7.608   6.622
23100SOL     OW71258   0.157   7.833   6.967
23100SOL    HW171259   0.230   7.902   6.971
23100SOL    HW271260   0.185   7.758   6.908
23101SOL     OW71261   7.703   8.796   5.876
23101SOL    HW171262   7.607   8.797   5.849
23101SOL    HW271263   7.715   8.849   5.960
23102SOL     OW71264   7.553   8.461   7.312
23102SOL    HW171265   7.476   8.428   7.366
23102SOL    HW271266   7.638   8.431   7.354
23103SOL     OW71267   8.120   7.651   7.075
23103SOL    HW171268   8.210   7.635   7.035
23103SOL    HW271269   8.128   7.656   7.174
23104SOL     OW71270   7.523   7.793   5.619
23104SOL    HW171271   7.431   7.765   5.590
23104SOL    HW271272   7.554   7.870   5.563
23105SOL     OW71273   8.888   8.304   6.984
23105SOL    HW171274   8.831   8.356   6.921
23105SOL    HW271275   8.984   8.316   6.960
23106SOL     OW71276   7.520   7.614   5.904
23106SOL    HW171277   7.503   7.697   5.850
23106SOL    HW271278   7.610   7.577   5.882
23107SOL     OW71279   8.631   8.783   5.705
23107SOL    HW171280   8.532   8.772   5.707
23107SOL    HW271281   8.665   8.798   5.798
23108SOL     OW71282   8.061   8.290   7.017
23108SOL    HW171283   8.117   8.371   7.000
23108SOL    HW271284   8.120   8.210   7.020
23109SOL     OW71285   8.164   8.013   7.294
23109SOL    HW171286   8.183   8.078   7.368
23109SOL    HW271287   8.224   7.933   7.303
23110SOL     OW71288   8.898   8.668   7.219
23110SOL    HW171289   8.889   8.658   7.318
23110SOL    HW271290   8.994   8.661   7.193
23111SOL     OW71291   0.122   8.331   6.840
23111SOL    HW171292   0.095   8.242   6.803
23111SOL    HW271293   0.123   8.399   6.767
23112SOL     OW71294   8.673   7.773   6.035
23112SOL    HW171295   8.738   7.699   6.024
23112SOL    HW271296   8.693   7.823   6.119
23113SOL     OW71297   8.042   8.193   6.238
23113SOL    HW171298   8.092   8.278   6.219
23113SOL    HW271299   7.954   8.195   6.190
23114SOL     OW71300   0.225   7.790   7.228
23114SOL    HW171301   0.208   7.821   7.134
23114SOL    HW271302   0.141   7.753   7.266
23115SOL     OW71303   0.178   8.382   7.103
23115SOL    HW171304   0.216   8.473   7.118
23115SOL    HW271305   0.170   8.365   7.004
23116SOL     OW71306   8.307   8.822   5.602
23116SOL    HW171307   8.261   8.837   5.690
23116SOL    HW271308   8.351   8.907   5.572
23117SOL     OW71309   8.307   8.404   6.447
23117SOL    HW171310   8.361   8.335   6.495
23117SOL    HW271311   8.275   8.473   6.513
23118SOL     OW71312   8.531   8.432   5.673
23118SOL    HW171313   8.508   8.485   5.591
23118SOL    HW271314   8.612   8.376   5.654
23119SOL     OW71315   7.669   8.762   7.430
23119SOL    HW171316   7.604   8.689   7.409
23119SOL    HW271317   7.673   8.776   7.528
23120SOL     OW71318   7.527   8.688   6.239
23120SOL    HW171319   7.526   8.641   6.327
23120SOL    HW271320   7.609   8.660   6.188
23121SOL     OW71321   8.120   8.839   7.210
23121SOL    HW171322   8.042   8.789   7.248
23121SOL    HW271323   8.117   8.934   7.241
23122SOL     OW71324   7.876   7.872   6.106
23122SOL    HW171325   7.906   7.800   6.044
23122SOL    HW271326   7.837   7.832   6.189
23123SOL     OW71327   0.153   8.935   6.690
23123SOL    HW171328   0.060   8.910   6.663
23123SOL    HW271329   0.179   8.885   6.772
23124SOL     OW71330   7.765   7.995   6.866
23124SOL    HW171331   7.803   7.936   6.938
23124SOL    HW271332   7.805   7.969   6.778
23125SOL     OW71333   8.872   7.662   6.698
23125SOL    HW171334   8.924   7.597   6.753
23125SOL    HW271335   8.823   7.725   6.759
23126SOL     OW71336   8.449   7.482   6.740
23126SOL    HW171337   8.386   7.410   6.709
23126SOL    HW271338   8.542   7.446   6.740
23127SOL     OW71339   8.218   8.778   5.887
23127SOL    HW171340   8.172   8.691   5.904
23127SOL    HW271341   8.309   8.775   5.928
23128SOL     OW71342   8.066   0.015   6.870
23128SOL    HW171343   8.061   0.097   6.927
23128SOL    HW271344   8.155   0.012   6.825
23129SOL     OW71345   8.800   7.500   5.754
23129SOL    HW171346   8.835   7.459   5.670
23129SOL    HW271347   8.710   7.462   5.774
23130SOL     OW71348   8.748   7.901   6.277
23130SOL    HW171349   8.689   7.981   6.281
23130SOL    HW271350   8.763   7.866   6.370
23131SOL     OW71351   0.041   7.669   6.468
23131SOL    HW171352  -0.043   7.668   6.522
23131SOL    HW271353   0.043   7.752   6.412
23132SOL     OW71354   7.487   8.525   5.886
23132SOL    HW171355   7.586   8.514   5.877
23132SOL    HW271356   7.447   8.439   5.918
23133SOL     OW71357   7.678   8.076   7.561
23133SOL    HW171358   7.585   8.074   7.598
23133SOL    HW271359   7.679   8.037   7.469
23134SOL     OW71360   7.673   7.723   8.444
23134SOL    HW171361   7.708   7.706   8.536
23134SOL    HW271362   7.585   7.678   8.432
23135SOL     OW71363   7.467   7.816   8.095
23135SOL    HW171364   7.385   7.859   8.134
23135SOL    HW271365   7.439   7.743   8.032
23136SOL     OW71366   8.017   8.723   8.613
23136SOL    HW171367   7.924   8.716   8.576
23136SOL    HW271368   8.028   8.812   8.657
23137SOL     OW71369   0.003   8.959   8.151
23137SOL    HW171370  -0.054   8.943   8.232
23137SOL    HW271371  -0.056   8.969   8.071
23138SOL     OW71372   0.191   8.066   8.304
23138SOL    HW171373   0.224   8.160   8.304
23138SOL    HW271374   0.242   8.012   8.370
23139SOL     OW71375   8.583   8.151   8.165
23139SOL    HW171376   8.640   8.229   8.140
23139SOL    HW271377   8.523   8.177   8.241
23140SOL     OW71378   0.203   8.055   7.679
23140SOL    HW171379   0.191   8.042   7.580
23140SOL    HW271380   0.173   7.974   7.728
23141SOL     OW71381   8.216   8.592   8.471
23141SOL    HW171382   8.138   8.609   8.531
23141SOL    HW271383   8.250   8.679   8.435
23142SOL     OW71384   8.133   8.460   8.113
23142SOL    HW171385   8.202   8.444   8.183
23142SOL    HW271386   8.060   8.517   8.151
23143SOL     OW71387   7.783   8.883   8.509
23143SOL    HW171388   7.705   8.852   8.456
23143SOL    HW271389   7.841   8.941   8.452
23144SOL     OW71390   8.908   8.953   8.787
23144SOL    HW171391   8.932   9.047   8.813
23144SOL    HW271392   8.892   8.899   8.869
23145SOL     OW71393   7.886   7.840   8.947
23145SOL    HW171394   7.968   7.784   8.956
23145SOL    HW271395   7.805   7.782   8.951
23146SOL     OW71396   7.679   0.161   7.931
23146SOL    HW171397   7.713   0.238   7.985
23146SOL    HW271398   7.723   0.161   7.841
23147SOL     OW71399   7.678   8.882   7.986
23147SOL    HW171400   7.652   8.978   7.986
23147SOL    HW271401   7.607   8.828   8.031
23148SOL     OW71402   7.688   8.539   8.334
23148SOL    HW171403   7.702   8.455   8.386
23148SOL    HW271404   7.633   8.603   8.389
23149SOL     OW71405   8.054   8.412   7.571
23149SOL    HW171406   8.061   8.496   7.517
23149SOL    HW271407   8.100   8.425   7.659
23150SOL     OW71408   0.042   7.562   8.928
23150SOL    HW171409   0.024   7.629   8.856
23150SOL    HW271410   0.039   7.608   9.017
23151SOL     OW71411   7.570   8.091   8.011
23151SOL    HW171412   7.525   8.003   8.028
23151SOL    HW271413   7.569   8.145   8.095
23152SOL     OW71414   7.475   0.044   7.565
23152SOL    HW171415   7.456  -0.052   7.586
23152SOL    HW271416   7.442   0.102   7.640
23153SOL     OW71417   0.137   8.370   8.060
23153SOL    HW171418   0.232   8.341   8.068
23153SOL    HW271419   0.129   8.435   7.985
23154SOL     OW71420   0.089   8.556   7.880
23154SOL    HW171421   0.175   8.558   7.828
23154SOL    HW271422   0.103   8.603   7.968
23155SOL     OW71423   8.061   8.813   8.174
23155SOL    HW171424   8.012   8.726   8.183
23155SOL    HW271425   8.038   8.856   8.087
23156SOL     OW71426   8.257   7.452   7.950
23156SOL    HW171427   8.297   7.543   7.941
23156SOL    HW271428   8.157   7.460   7.956
23157SOL     OW71429   7.645   8.424   8.712
23157SOL    HW171430   7.734   8.379   8.698
23157SOL    HW271431   7.572   8.359   8.693
23158SOL     OW71432   8.973   8.447   7.638
23158SOL    HW171433   8.910   8.371   7.651
23158SOL    HW271434   9.021   8.465   7.724
23159SOL     OW71435   8.914   8.865   8.401
23159SOL    HW171436   8.855   8.871   8.481
23159SOL    HW271437   8.899   8.777   8.355
23160SOL     OW71438   8.046   8.177   7.718
23160SOL    HW171439   8.070   8.246   7.650
23160SOL    HW271440   7.968   8.210   7.772
23161SOL     OW71441   8.729   7.793   8.392
23161SOL    HW171442   8.643   7.743   8.379
23161SOL    HW271443   8.791   7.739   8.448
23162SOL     OW71444   8.255   8.053   8.913
23162SOL    HW171445   8.208   8.050   9.002
23162SOL    HW271446   8.204   7.998   8.847
23163SOL     OW71447   8.439   7.858   8.690
23163SOL    HW171448   8.362   7.892   8.744
23163SOL    HW271449   8.405   7.807   8.611
23164SOL     OW71450   8.489   8.149   7.877
23164SOL    HW171451   8.515   8.145   7.973
23164SOL    HW271452   8.404   8.098   7.863
23165SOL     OW71453   7.524   8.259   8.237
23165SOL    HW171454   7.623   8.247   8.246
23165SOL    HW271455   7.500   8.354   8.258
23166SOL     OW71456   8.313   7.796   7.643
23166SOL    HW171457   8.372   7.859   7.594
23166SOL    HW271458   8.332   7.702   7.614
23167SOL     OW71459   8.810   8.592   7.993
23167SOL    HW171460   8.893   8.563   7.945
23167SOL    HW271461   8.761   8.659   7.937
23168SOL     OW71462   7.998   7.644   8.333
23168SOL    HW171463   7.993   7.639   8.433
23168SOL    HW271464   8.000   7.740   8.304
23169SOL     OW71465   8.456   8.904   7.925
23169SOL    HW171466   8.410   8.976   7.873
23169SOL    HW271467   8.452   8.924   8.023
23170SOL     OW71468   0.243   8.514   8.321
23170SOL    HW171469   0.181   8.499   8.245
23170SOL    HW271470   0.191   8.525   8.406
23171SOL     OW71471   8.675   8.998   8.954
23171SOL    HW171472   8.681   8.921   9.018
23171SOL    HW271473   8.623   8.972   8.874
23172SOL     OW71474   7.769   8.391   7.690
23172SOL    HW171475   7.851   8.430   7.648
23172SOL    HW271476   7.742   8.309   7.641
23173SOL     OW71477   8.906   8.183   8.176
23173SOL    HW171478   8.901   8.118   8.251
23173SOL    HW271479   8.986   8.242   8.189
23174SOL     OW71480   8.559   0.224   7.685
23174SOL    HW171481   8.499   0.162   7.735
23174SOL    HW271482   8.590   0.180   7.600
23175SOL     OW71483   7.650   7.733   8.946
23175SOL    HW171484   7.570   7.793   8.933
23175SOL    HW271485   7.640   7.684   9.032
23176SOL     OW71486   0.080   8.825   7.529
23176SOL    HW171487   0.048   8.919   7.519
23176SOL    HW271488   0.004   8.762   7.517
23177SOL     OW71489   8.848   7.555   7.874
23177SOL    HW171490   8.824   7.518   7.784
23177SOL    HW271491   8.947   7.571   7.878
23178SOL     OW71492   7.830   8.148   7.928
23178SOL    HW171493   7.875   8.058   7.925
23178SOL    HW271494   7.736   8.137   7.961
23179SOL     OW71495   8.062   7.570   7.565
23179SOL    HW171496   8.160   7.548   7.572
23179SOL    HW271497   8.031   7.553   7.472
23180SOL     OW71498   8.251   8.850   8.372
23180SOL    HW171499   8.341   8.864   8.330
23180SOL    HW271500   8.180   8.852   8.301
23181SOL     OW71501   8.370   7.951   8.347
23181SOL    HW171502   8.345   7.942   8.251
23181SOL    HW271503   8.418   7.869   8.378
23182SOL     OW71504   7.987   7.512   7.960
23182SOL    HW171505   7.906   7.513   8.018
23182SOL    HW271506   7.990   7.595   7.905
23183SOL     OW71507   8.882   8.636   7.489
23183SOL    HW171508   8.914   8.560   7.546
23183SOL    HW271509   8.790   8.663   7.519
23184SOL     OW71510   7.745   7.483   7.619
23184SOL    HW171511   7.794   7.567   7.598
23184SOL    HW271512   7.807   7.418   7.664
23185SOL     OW71513   8.383   7.684   7.928
23185SOL    HW171514   8.335   7.725   7.850
23185SOL    HW271515   8.482   7.682   7.909
23186SOL     OW71516   8.675   0.018   8.241
23186SOL    HW171517   8.696   0.092   8.176
23186SOL    HW271518   8.743   0.018   8.314
23187SOL     OW71519   7.907   8.600   8.189
23187SOL    HW171520   7.836   8.573   8.254
23187SOL    HW271521   7.881   8.572   8.096
23188SOL     OW71522   8.480   7.997   7.464
23188SOL    HW171523   8.439   8.079   7.425
23188SOL    HW271524   8.544   8.023   7.537
23189SOL     OW71525   7.526   8.004   8.834
23189SOL    HW171526   7.618   8.003   8.793
23189SOL    HW271527   7.520   8.078   8.901
23190SOL     OW71528   8.009   7.670   8.595
23190SOL    HW171529   8.047   7.586   8.632
23190SOL    HW271530   7.921   7.689   8.639
23191SOL     OW71531   8.314   7.902   8.090
23191SOL    HW171532   8.282   7.974   8.028
23191SOL    HW271533   8.338   7.821   8.037
23192SOL     OW71534   8.465   7.487   8.201
23192SOL    HW171535   8.393   7.492   8.132
23192SOL    HW271536   8.441   7.418   8.270
23193SOL     OW71537   8.877   8.621   8.315
23193SOL    HW171538   8.822   8.537   8.308
23193SOL    HW271539   8.903   8.650   8.223
23194SOL     OW71540   8.914   8.038   8.440
23194SOL    HW171541   8.884   7.943   8.447
23194SOL    HW271542   8.987   8.054   8.506
23195SOL     OW71543   7.936   8.833   7.622
23195SOL    HW171544   7.849   8.818   7.669
23195SOL    HW271545   7.919   8.859   7.527
23196SOL     OW71546   0.112   8.728   8.105
23196SOL    HW171547   0.211   8.736   8.119
23196SOL    HW271548   0.067   8.812   8.136
23197SOL     OW71549   8.838   8.023   7.526
23197SOL    HW171550   8.784   8.002   7.607
23197SOL    HW271551   8.929   7.982   7.535
23198SOL     OW71552   7.975   7.704   7.776
23198SOL    HW171553   8.002   7.645   7.701
23198SOL    HW271554   7.975   7.799   7.745
23199SOL     OW71555   8.512   8.795   8.788
23199SOL    HW171556   8.432   8.772   8.843
23199SOL    HW271557   8.595   8.769   8.837
23200SOL     OW71558   8.559   8.643   8.548
23200SOL    HW171559   8.519   8.687   8.629
23200SOL    HW271560   8.518   8.680   8.465
23201SOL     OW71561   0.086   8.547   8.527
23201SOL    HW171562   0.091   8.628   8.586
23201SOL    HW271563   0.000   8.549   8.476
23202SOL     OW71564   8.363   7.537   8.850
23202SOL    HW171565   8.388   7.517   8.755
23202SOL    HW271566   8.435   7.593   8.892
23203SOL     OW71567   8.153   8.498   7.816
23203SOL    HW171568   8.139   8.505   7.915
23203SOL    HW271569   8.237   8.447   7.798
23204SOL     OW71570   7.858   8.261   8.699
23204SOL    HW171571   7.944   8.273   8.749
23204SOL    HW271572   7.816   8.174   8.726
23205SOL     OW71573   8.722   7.834   8.710
23205SOL    HW171574   8.743   7.908   8.774
23205SOL    HW271575   8.633   7.851   8.667
23206SOL     OW71576   7.815   8.548   7.949
23206SOL    HW171577   7.808   8.631   7.893
23206SOL    HW271578   7.819   8.468   7.889
23207SOL     OW71579   8.014   7.985   8.313
23207SOL    HW171580   8.026   8.051   8.239
23207SOL    HW271581   8.060   8.019   8.396
23208SOL     OW71582   8.700   8.796   7.836
23208SOL    HW171583   8.750   8.873   7.876
23208SOL    HW271584   8.605   8.798   7.868
23209SOL     OW71585   8.720   8.893   8.590
23209SOL    HW171586   8.767   8.906   8.677
23209SOL    HW271587   8.654   8.819   8.599
23210SOL     OW71588   0.030   8.087   7.920
23210SOL    HW171589  -0.001   8.148   7.993
23210SOL    HW271590   0.080   8.139   7.851
23211SOL     OW71591   7.802   8.958   8.777
23211SOL    HW171592   7.781   8.914   8.690
23211SOL    HW271593   7.899   8.984   8.780
23212SOL     OW71594   7.850   8.199   0.046
23212SOL    HW171595   7.918   8.254  -0.001
23212SOL    HW271596   7.890   8.111   0.073
23213SOL     OW71597   0.035   8.227   0.118
23213SOL    HW171598  -0.057   8.265   0.113
23213SOL    HW271599   0.095   8.274   0.053
23214SOL     OW71600   8.021   8.318   8.477
23214SOL    HW171601   8.065   8.407   8.468
23214SOL    HW271602   7.958   8.318   8.554
23215SOL     OW71603   8.808   8.310   8.493
23215SOL    HW171604   8.733   8.310   8.427
23215SOL    HW271605   8.845   8.218   8.502
23216SOL     OW71606   8.657   7.973   7.723
23216SOL    HW171607   8.670   7.889   7.777
23216SOL    HW271608   8.628   8.047   7.783
23217SOL     OW71609   7.755   7.661   8.679
23217SOL    HW171610   7.732   7.698   8.769
23217SOL    HW271611   7.725   7.566   8.673
23218SOL     OW71612   7.485   8.758   8.730
23218SOL    HW171613   7.538   8.709   8.798
23218SOL    HW271614   7.507   8.856   8.735
23219SOL     OW71615   8.180   8.082   8.512
23219SOL    HW171616   8.239   8.056   8.436
23219SOL    HW271617   8.152   8.178   8.501
23220SOL     OW71618   7.755   7.511   8.066
23220SOL    HW171619   7.744   7.605   8.099
23220SOL    HW271620   7.750   7.448   8.143
23221SOL     OW71621   0.070   7.815   7.822
23221SOL    HW171622   0.072   7.739   7.886
23221SOL    HW271623   0.022   7.892   7.862
23222SOL     OW71624   8.471   8.214   8.414
23222SOL    HW171625   8.486   8.235   8.510
23222SOL    HW271626   8.441   8.119   8.405
23223SOL     OW71627   8.988   7.722   7.573
23223SOL    HW171628   8.927   7.647   7.596
23223SOL    HW271629   9.010   7.774   7.656
23224SOL     OW71630   8.751   8.286   7.490
23224SOL    HW171631   8.785   8.193   7.505
23224SOL    HW271632   8.769   8.313   7.395
23225SOL     OW71633   8.516   8.781   8.297
23225SOL    HW171634   8.523   8.697   8.242
23225SOL    HW271635   8.578   8.850   8.261
23226SOL     OW71636   7.767   8.258   8.397
23226SOL    HW171637   7.860   8.294   8.402
23226SOL    HW271638   7.761   8.173   8.449
23227SOL     OW71639   7.787   7.957   8.454
23227SOL    HW171640   7.735   7.874   8.437
23227SOL    HW271641   7.864   7.962   8.390
23228SOL     OW71642   8.586   7.828   0.126
23228SOL    HW171643   8.541   7.891   0.190
23228SOL    HW271644   8.679   7.859   0.109
23229SOL     OW71645   8.608   7.655   8.925
23229SOL    HW171646   8.608   7.719   9.002
23229SOL    HW271647   8.636   7.703   8.842
23230SOL     OW71648   7.456   8.774   7.648
23230SOL    HW171649   7.363   8.795   7.617
23230SOL    HW271650   7.466   8.675   7.661
23231SOL     OW71651   8.450   8.244   8.686
23231SOL    HW171652   8.491   8.212   8.772
23231SOL    HW271653   8.354   8.217   8.683
23232SOL     OW71654   7.488   7.992   8.562
23232SOL    HW171655   7.573   7.959   8.521
23232SOL    HW271656   7.501   8.007   8.660
23233SOL     OW71657   8.263   8.020   7.773
23233SOL    HW171658   8.270   7.931   7.727
23233SOL    HW271659   8.169   8.054   7.765
23234SOL     OW71660   0.105   8.052   8.654
23234SOL    HW171661   0.067   7.983   8.716
23234SOL    HW271662   0.187   8.016   8.610
23235SOL     OW71663   8.119   7.912   8.717
23235SOL    HW171664   8.085   7.823   8.687
23235SOL    HW271665   8.145   7.966   8.637
23236SOL     OW71666   7.921   7.948   7.639
23236SOL    HW171667   7.982   8.028   7.643
23236SOL    HW271668   7.826   7.979   7.646
23237SOL     OW71669   7.607   8.585   8.914
23237SOL    HW171670   7.629   8.524   8.990
23237SOL    HW271671   7.617   8.536   8.828
23238SOL     OW71672   8.795   8.507   8.682
23238SOL    HW171673   8.819   8.444   8.608
23238SOL    HW271674   8.705   8.547   8.664
23239SOL     OW71675   8.750   8.303   7.757
23239SOL    HW171676   8.664   8.272   7.799
23239SOL    HW271677   8.746   8.289   7.658
23240SOL     OW71678   7.531   8.706   8.470
23240SOL    HW171679   7.526   8.705   8.570
23240SOL    HW271680   7.448   8.665   8.432
23241SOL     OW71681   8.351   7.534   7.581
23241SOL    HW171682   8.402   7.535   7.495
23241SOL    HW271683   8.407   7.492   7.652
23242SOL     OW71684   0.174   7.583   7.971
23242SOL    HW171685   0.247   7.566   7.904
23242SOL    HW271686   0.143   7.496   8.009
23243SOL     OW71687   8.728   8.375   8.120
23243SOL    HW171688   8.788   8.294   8.122
23243SOL    HW271689   8.768   8.444   8.060
23244SOL     OW71690   7.711   7.774   8.168
23244SOL    HW171691   7.632   7.825   8.134
23244SOL    HW271692   7.702   7.759   8.266
23245SOL     OW71693   8.270   8.450   8.820
23245SOL    HW171694   8.310   8.449   8.728
23245SOL    HW271695   8.280   8.542   8.860
23246SOL     OW71696   8.364   8.358   7.739
23246SOL    HW171697   8.427   8.396   7.671
23246SOL    HW271698   8.404   8.275   7.778
23247SOL     OW71699   7.820   8.736   8.938
23247SOL    HW171700   7.807   8.829   8.904
23247SOL    HW271701   7.736   8.684   8.925
23248SOL     OW71702   0.062   8.740   8.737
23248SOL    HW171703   0.122   8.743   8.817
23248SOL    HW271704  -0.013   8.804   8.750
23249SOL     OW71705   8.487   8.546   8.144
23249SOL    HW171706   8.417   8.499   8.198
23249SOL    HW271707   8.546   8.478   8.101
23250SOL     OW71708   8.462   7.684   8.419
23250SOL    HW171709   8.454   7.648   8.326
23250SOL    HW271710   8.460   7.608   8.484
23251SOL     OW71711   0.157   7.833   8.829
23251SOL    HW171712   0.230   7.902   8.833
23251SOL    HW271713   0.185   7.758   8.770
23252SOL     OW71714   7.703   8.796   7.738
23252SOL    HW171715   7.607   8.797   7.711
23252SOL    HW271716   7.715   8.849   7.822
23253SOL     OW71717   7.523   7.793   7.481
23253SOL    HW171718   7.431   7.765   7.452
23253SOL    HW271719   7.554   7.870   7.425
23254SOL     OW71720   8.888   8.304   8.846
23254SOL    HW171721   8.831   8.356   8.783
23254SOL    HW271722   8.984   8.316   8.822
23255SOL     OW71723   7.520   7.614   7.766
23255SOL    HW171724   7.503   7.697   7.712
23255SOL    HW271725   7.610   7.577   7.744
23256SOL     OW71726   8.631   8.783   7.567
23256SOL    HW171727   8.532   8.772   7.569
23256SOL    HW271728   8.665   8.798   7.660
23257SOL     OW71729   8.061   8.290   8.879
23257SOL    HW171730   8.117   8.371   8.862
23257SOL    HW271731   8.120   8.210   8.882
23258SOL     OW71732   0.122   8.331   8.702
23258SOL    HW171733   0.095   8.242   8.665
23258SOL    HW271734   0.123   8.399   8.629
23259SOL     OW71735   8.673   7.773   7.897
23259SOL    HW171736   8.738   7.699   7.886
23259SOL    HW271737   8.693   7.823   7.981
23260SOL     OW71738   8.042   8.193   8.100
23260SOL    HW171739   8.092   8.278   8.081
23260SOL    HW271740   7.954   8.195   8.052
23261SOL     OW71741   0.225   7.790   0.090
23261SOL    HW171742   0.208   7.821  -0.004
23261SOL    HW271743   0.141   7.753   0.128
23262SOL     OW71744   0.178   8.382   8.965
23262SOL    HW171745   0.216   8.473   8.980
23262SOL    HW271746   0.170   8.365   8.866
23263SOL     OW71747   8.307   8.822   7.464
23263SOL    HW171748   8.261   8.837   7.552
23263SOL    HW271749   8.351   8.907   7.434
23264SOL     OW71750   8.307   8.404   8.309
23264SOL    HW171751   8.361   8.335   8.357
23264SOL    HW271752   8.275   8.473   8.375
23265SOL     OW71753   8.531   8.432   7.535
23265SOL    HW171754   8.508   8.485   7.453
23265SOL    HW271755   8.612   8.376   7.516
23266SOL     OW71756   7.527   8.688   8.101
23266SOL    HW171757   7.526   8.641   8.189
23266SOL    HW271758   7.609   8.660   8.050
23267SOL     OW71759   7.876   7.872   7.968
23267SOL    HW171760   7.906   7.800   7.906
23267SOL    HW271761   7.837   7.832   8.051
23268SOL     OW71762   0.153   8.935   8.552
23268SOL    HW171763   0.060   8.910   8.525
23268SOL    HW271764   0.179   8.885   8.634
23269SOL     OW71765   7.765   7.995   8.728
23269SOL    HW171766   7.803   7.936   8.800
23269SOL    HW271767   7.805   7.969   8.640
23270SOL     OW71768   8.872   7.662   8.560
23270SOL    HW171769   8.924   7.597   8.615
23270SOL    HW271770   8.823   7.725   8.621
23271SOL     OW71771   8.449   7.482   8.602
23271SOL    HW171772   8.386   7.410   8.571
23271SOL    HW271773   8.542   7.446   8.602
23272SOL     OW71774   8.218   8.778   7.749
23272SOL    HW171775   8.172   8.691   7.766
23272SOL    HW271776   8.309   8.775   7.790
23273SOL     OW71777   8.066   0.015   8.732
23273SOL    HW171778   8.061   0.097   8.789
23273SOL    HW271779   8.155   0.012   8.687
23274SOL     OW71780   8.800   7.500   7.616
23274SOL    HW171781   8.835   7.459   7.532
23274SOL    HW271782   8.710   7.462   7.636
23275SOL     OW71783   8.748   7.901   8.139
23275SOL    HW171784   8.689   7.981   8.143
23275SOL    HW271785   8.763   7.866   8.232
23276SOL     OW71786   0.041   7.669   8.330
23276SOL    HW171787  -0.043   7.668   8.384
23276SOL    HW271788   0.043   7.752   8.274
23277SOL     OW71789   7.487   8.525   7.748
23277SOL    HW171790   7.586   8.514   7.739
23277SOL    HW271791   7.447   8.439   7.780
   9.00000   9.00000   9.00000
