generated by VMD, t= 0.000000
71806
    1ADC   O113    1   7.336   4.675   5.041
    1ADC   C159    2   7.347   4.612   5.149
    1ADC   C160    3   7.437   4.664   5.254
    1ADC   O111    4   7.267   4.503   5.165
    1ADC   C152    5   7.282   4.392   5.257
    1ADC   H193    6   7.299   4.432   5.357
    1ADC   C155    7   7.402   4.302   5.215
    1ADC   H205    8   7.492   4.355   5.248
    1ADC    O72    9   7.401   4.177   5.287
    1ADC   C154   10   7.280   4.100   5.273
    1ADC   H195   11   7.258   4.081   5.168
    1ADC   C156   12   7.309   3.959   5.336
    1ADC    O73   13   7.381   3.969   5.459
    1ADC   C157   14   7.425   3.865   5.535
    1ADC   O112   15   7.397   3.747   5.505
    1ADC   C158   16   7.506   3.890   5.655
    1ADC   C151   17   7.159   4.178   5.335
    1ADC   H192   18   7.182   4.195   5.441
    1ADC   C153   19   7.147   4.313   5.260
    1ADC   H194   20   7.115   4.294   5.157
    1ADC   O110   21   7.051   4.398   5.322
    1ADC   H196   22   7.046   4.477   5.264
    1ADC   O104   23   7.041   4.095   5.320
    1ADC   C145   24   6.925   4.128   5.398
    1ADC   H206   25   6.888   4.226   5.369
    1ADC   O103   26   6.951   4.134   5.540
    1ADC   C141   27   6.990   4.009   5.600
    1ADC   H182   28   7.078   3.969   5.550
    1ADC   C146   29   7.031   4.038   5.746
    1ADC   O107   30   7.144   4.126   5.747
    1ADC   C147   31   7.211   4.170   5.857
    1ADC   O108   32   7.175   4.139   5.972
    1ADC   C148   33   7.330   4.255   5.839
    1ADC   C142   34   6.874   3.906   5.587
    1ADC   H183   35   6.787   3.945   5.640
    1ADC   C143   36   6.838   3.890   5.436
    1ADC   H184   37   6.922   3.840   5.385
    1ADC   O106   38   6.723   3.807   5.419
    1ADC   H219   39   6.715   3.795   5.322
    1ADC   C144   40   6.810   4.026   5.368
    1ADC   H185   41   6.717   4.066   5.410
    1ADC   O105   42   6.794   4.007   5.227
    1ADC   C149   43   6.746   4.092   5.131
    1ADC   O109   44   6.773   4.064   5.013
    1ADC   C150   45   6.658   4.207   5.161
    1ADC    O45   46   6.920   3.781   5.647
    1ADC    C55   47   6.820   3.686   5.690
    1ADC    H74   48   6.763   3.652   5.604
    1ADC    O39   49   6.726   3.740   5.784
    1ADC    C54   50   6.781   3.777   5.912
    1ADC    H64   51   6.860   3.850   5.898
    1ADC    C56   52   6.668   3.849   5.991
    1ADC    O42   53   6.630   3.968   5.920
    1ADC    C57   54   6.538   4.060   5.961
    1ADC    O43   55   6.474   4.046   6.067
    1ADC    C58   56   6.514   4.180   5.878
    1ADC    C51   57   6.838   3.652   5.983
    1ADC    H61   58   6.755   3.580   5.997
    1ADC    C53   59   6.947   3.588   5.891
    1ADC    H63   60   7.032   3.657   5.884
    1ADC    O40   61   6.995   3.465   5.945
    1ADC    H65   62   7.069   3.438   5.886
    1ADC    C52   63   6.891   3.559   5.748
    1ADC    H62   64   6.818   3.478   5.757
    1ADC    O41   65   7.000   3.517   5.664
    1ADC    C59   66   6.997   3.459   5.541
    1ADC    C60   67   6.878   3.392   5.484
    1ADC    O44   68   7.104   3.460   5.475
    1ADC    O33   69   6.891   3.694   6.111
    1ADC    C45   70   6.905   3.595   6.215
    1ADC    H75   71   6.973   3.517   6.182
    1ADC    O32   72   6.781   3.529   6.248
    1ADC    C41   73   6.681   3.613   6.308
    1ADC    H51   74   6.659   3.698   6.242
    1ADC    C46   75   6.551   3.531   6.318
    1ADC    O36   76   6.508   3.493   6.187
    1ADC    C47   77   6.395   3.423   6.156
    1ADC    O37   78   6.317   3.382   6.246
    1ADC    C48   79   6.363   3.395   6.016
    1ADC    C42   80   6.733   3.670   6.444
    1ADC    H52   81   6.752   3.585   6.510
    1ADC    C43   82   6.865   3.747   6.418
    1ADC    H53   83   6.843   3.836   6.359
    1ADC    O35   84   6.925   3.790   6.540
    1ADC   H211   85   7.002   3.845   6.513
    1ADC    C44   86   6.968   3.660   6.342
    1ADC    H54   87   7.001   3.580   6.410
    1ADC    O34   88   7.082   3.741   6.308
    1ADC    C49   89   7.206   3.703   6.264
    1ADC    O38   90   7.277   3.793   6.211
    1ADC    C50   91   7.262   3.568   6.280
    1ADC    O31   92   6.628   3.754   6.498
    1ADC    C35   93   6.628   3.779   6.641
    1ADC    H49   94   6.720   3.829   6.669
    1ADC    O25   95   6.622   3.658   6.719
    1ADC    C34   96   6.499   3.583   6.708
    1ADC    H39   97   6.481   3.556   6.604
    1ADC    C36   98   6.519   3.450   6.784
    1ADC    O28   99   6.625   3.376   6.723
    1ADC    C37  100   6.668   3.252   6.758
    1ADC    O29  101   6.617   3.190   6.855
    1ADC    C38  102   6.776   3.187   6.682
    1ADC    C31  103   6.379   3.669   6.759
    1ADC    H36  104   6.398   3.693   6.865
    1ADC    C33  105   6.375   3.801   6.676
    1ADC    H38  106   6.348   3.777   6.572
    1ADC    O26  107   6.276   3.890   6.726
    1ADC    H40  108   6.274   3.965   6.663
    1ADC    C32  109   6.511   3.875   6.678
    1ADC    H37  110   6.528   3.912   6.780
    1ADC    O27  111   6.505   3.987   6.587
    1ADC    C39  112   6.590   4.093   6.575
    1ADC    C40  113   6.684   4.137   6.679
    1ADC    O30  114   6.580   4.161   6.470
    1ADC    O19  115   6.259   3.589   6.745
    1ADC    C25  116   6.144   3.623   6.827
    1ADC    H50  117   6.113   3.724   6.804
    1ADC    O18  118   6.173   3.620   6.968
    1ADC    C21  119   6.204   3.490   7.023
    1ADC    H26  120   6.288   3.447   6.970
    1ADC    C26  121   6.248   3.511   7.170
    1ADC    O22  122   6.367   3.591   7.171
    1ADC    C27  123   6.439   3.627   7.282
    1ADC    O23  124   6.402   3.592   7.397
    1ADC    C28  125   6.560   3.707   7.266
    1ADC    C22  126   6.081   3.396   7.007
    1ADC    H27  127   5.997   3.440   7.061
    1ADC    C23  128   6.046   3.388   6.854
    1ADC    H28  129   6.126   3.336   6.802
    1ADC    O21  130   5.926   3.313   6.833
    1ADC   H209  131   5.917   3.307   6.735
    1ADC    C24  132   6.025   3.530   6.793
    1ADC    H29  133   5.934   3.572   6.836
    1ADC    O20  134   6.008   3.516   6.650
    1ADC    C29  135   5.963   3.607   6.559
    1ADC    O24  136   5.986   3.582   6.438
    1ADC    C30  137   5.884   3.727   6.594
    1ADC    O17  138   6.117   3.267   7.063
    1ADC    C15  139   6.011   3.178   7.104
    1ADC    H24  140   5.950   3.154   7.018
    1ADC     O9  141   5.923   3.235   7.202
    1ADC    C14  142   5.982   3.260   7.333
    1ADC    H14  143   6.067   3.326   7.322
    1ADC    C16  144   5.877   3.336   7.416
    1ADC    O12  145   5.849   3.461   7.352
    1ADC    C17  146   5.766   3.559   7.398
    1ADC    O13  147   5.702   3.547   7.504
    1ADC    C18  148   5.752   3.684   7.320
    1ADC    C11  149   6.029   3.126   7.397
    1ADC    H11  150   5.942   3.061   7.408
    1ADC    C13  151   6.130   3.058   7.298
    1ADC    H13  152   6.221   3.119   7.293
    1ADC    O10  153   6.168   2.929   7.344
    1ADC    H15  154   6.239   2.899   7.281
    1ADC    C12  155   6.071   3.043   7.155
    1ADC    H12  156   5.990   2.969   7.160
    1ADC    O11  157   6.174   2.996   7.067
    1ADC    C19  158   6.164   2.943   6.941
    1ADC    C20  159   6.038   2.887   6.885
    1ADC    O14  160   6.269   2.936   6.874
    1ADC     O2  161   6.088   3.157   7.526
    1ADC     C5  162   6.099   3.051   7.623
    1ADC    H25  163   6.162   2.972   7.584
    1ADC     O1  164   5.973   2.989   7.657
    1ADC     C1  165   5.879   3.073   7.728
    1ADC     H1  166   5.857   3.162   7.668
    1ADC     C6  167   5.746   2.994   7.740
    1ADC     O6  168   5.695   2.974   7.608
    1ADC     C7  169   5.575   2.919   7.575
    1ADC     O7  170   5.496   2.877   7.662
    1ADC     C8  171   5.537   2.909   7.433
    1ADC     C2  172   5.937   3.117   7.865
    1ADC     H2  173   5.953   3.029   7.927
    1ADC     O5  174   5.838   3.204   7.927
    1ADC    C75  175   5.846   3.233   8.068
    1ADC   H103  176   5.942   3.279   8.090
    1ADC    C72  177   5.736   3.337   8.106
    1ADC    H91  178   5.755   3.371   8.209
    1ADC    O55  179   5.741   3.450   8.018
    1ADC    C79  180   5.835   3.549   8.011
    1ADC    C80  181   5.931   3.578   8.121
    1ADC    O57  182   5.835   3.621   7.909
    1ADC    C73  183   5.596   3.270   8.105
    1ADC    H92  184   5.570   3.241   8.003
    1ADC    O54  185   5.500   3.367   8.149
    1ADC    H94  186   5.504   3.438   8.081
    1ADC    C71  187   5.594   3.143   8.197
    1ADC    H90  188   5.614   3.176   8.299
    1ADC    C74  189   5.710   3.048   8.155
    1ADC    H93  190   5.691   3.007   8.056
    1ADC    C76  191   5.727   2.929   8.253
    1ADC    O16  192   5.846   2.855   8.221
    1ADC    C77  193   5.856   2.724   8.185
    1ADC    O56  194   5.755   2.652   8.170
    1ADC    C78  195   5.990   2.668   8.165
    1ADC    O15  196   5.838   3.118   8.153
    1ADC    O47  197   5.469   3.069   8.189
    1ADC    C65  198   5.360   3.113   8.271
    1ADC   H104  199   5.332   3.214   8.241
    1ADC    O46  200   5.400   3.112   8.410
    1ADC    C61  201   5.301   3.165   8.502
    1ADC    H76  202   5.278   3.269   8.474
    1ADC    C66  203   5.366   3.170   8.643
    1ADC    O51  204   5.489   3.244   8.637
    1ADC    C67  205   5.578   3.265   8.742
    1ADC    O52  206   5.549   3.221   8.856
    1ADC    C68  207   5.708   3.339   8.730
    1ADC    C62  208   5.171   3.080   8.496
    1ADC    H77  209   5.093   3.129   8.556
    1ADC    O50  210   5.191   2.950   8.551
    1ADC    H81  211   5.265   2.910   8.498
    1ADC    C63  212   5.122   3.069   8.349
    1ADC    H78  213   5.087   3.168   8.316
    1ADC    O49  214   5.010   2.980   8.342
    1ADC    H80  215   4.983   2.981   8.248
    1ADC    C64  216   5.235   3.021   8.253
    1ADC    H79  217   5.261   2.918   8.281
    1ADC    O48  218   5.187   3.025   8.118
    1ADC    C69  219   5.239   2.968   8.006
    1ADC    O53  220   5.216   3.025   7.897
    1ADC    C70  221   5.313   2.839   8.002
    1ADC     C3  222   6.074   3.190   7.839
    1ADC     H3  223   6.055   3.285   7.789
    1ADC     O4  224   6.141   3.218   7.962
    1ADC   H207  225   6.221   3.268   7.936
    1ADC     C4  226   6.170   3.103   7.753
    1ADC     H4  227   6.201   3.018   7.813
    1ADC     O3  228   6.286   3.183   7.719
    1ADC     C9  229   6.406   3.144   7.668
    1ADC     O8  230   6.478   3.234   7.620
    1ADC    C10  231   6.458   3.006   7.674
    1ADC    O62  232   7.408   4.284   5.073
    1ADC    C82  233   7.520   4.208   5.020
    1ADC   H106  234   7.546   4.125   5.088
    1ADC    C83  235   7.646   4.295   4.995
    1ADC   H107  236   7.619   4.380   4.931
    1ADC    O61  237   7.698   4.349   5.117
    1ADC   H213  238   7.770   4.410   5.091
    1ADC    C84  239   7.759   4.213   4.927
    1ADC   H108  240   7.794   4.139   5.000
    1ADC    O60  241   7.868   4.301   4.894
    1ADC    C89  242   7.997   4.270   4.858
    1ADC    O65  243   8.064   4.362   4.805
    1ADC    C90  244   8.061   4.140   4.885
    1ADC    C85  245   7.706   4.138   4.801
    1ADC   H129  246   7.781   4.064   4.774
    1ADC    O59  247   7.691   4.232   4.692
    1ADC    C91  248   7.645   4.180   4.564
    1ADC   H115  249   7.567   4.105   4.578
    1ADC    C94  250   7.582   4.299   4.485
    1ADC   H118  251   7.657   4.378   4.473
    1ADC    C96  252   7.462   4.366   4.558
    1ADC    O69  253   7.415   4.478   4.481
    1ADC    C97  254   7.315   4.563   4.517
    1ADC    O70  255   7.249   4.546   4.623
    1ADC    C98  256   7.281   4.676   4.430
    1ADC    O66  257   7.535   4.254   4.356
    1ADC    C95  258   7.637   4.202   4.269
    1ADC   H128  259   7.586   4.161   4.182
    1ADC    O74  260   7.733   4.301   4.226
    1ADC   C102  261   7.683   4.419   4.158
    1ADC   H131  262   7.589   4.454   4.204
    1ADC   C103  263   7.659   4.394   4.006
    1ADC   H132  264   7.750   4.353   3.961
    1ADC    O78  265   7.554   4.300   3.984
    1ADC   H215  266   7.554   4.285   3.887
    1ADC   C104  267   7.621   4.526   3.933
    1ADC   H133  268   7.522   4.556   3.968
    1ADC    O77  269   7.615   4.500   3.791
    1ADC   C109  270   7.558   4.574   3.691
    1ADC    O81  271   7.589   4.545   3.574
    1ADC   C110  272   7.457   4.680   3.715
    1ADC   C105  273   7.723   4.639   3.965
    1ADC   H154  274   7.678   4.732   3.932
    1ADC    O76  275   7.845   4.617   3.891
    1ADC   C111  276   7.952   4.714   3.905
    1ADC   H140  277   7.964   4.744   4.010
    1ADC   C114  278   8.083   4.643   3.861
    1ADC   H143  279   8.071   4.606   3.758
    1ADC   C116  280   8.120   4.520   3.948
    1ADC    O85  281   8.235   4.454   3.893
    1ADC   C117  282   8.294   4.341   3.940
    1ADC    O86  283   8.250   4.284   4.044
    1ADC   C118  284   8.410   4.284   3.870
    1ADC    O82  285   8.195   4.734   3.865
    1ADC   C115  286   8.183   4.850   3.780
    1ADC   H153  287   8.268   4.914   3.802
    1ADC    O88  288   8.183   4.819   3.639
    1ADC   C122  289   8.295   4.746   3.585
    1ADC   H156  290   8.328   4.669   3.656
    1ADC   C123  291   8.417   4.839   3.552
    1ADC   H157  292   8.381   4.920   3.487
    1ADC    O92  293   8.472   4.897   3.668
    1ADC   H159  294   8.540   4.960   3.636
    1ADC   C124  295   8.528   4.761   3.477
    1ADC   H158  296   8.573   4.689   3.547
    1ADC    O91  297   8.628   4.854   3.431
    1ADC   C129  298   8.762   4.861   3.455
    1ADC    O95  299   8.821   4.965   3.419
    1ADC   C130  300   8.840   4.751   3.516
    1ADC   C125  301   8.472   4.682   3.357
    1ADC   H181  302   8.441   4.752   3.277
    1ADC    O90  303   8.576   4.596   3.309
    1ADC   C131  304   8.552   4.521   3.186
    1ADC   H167  305   8.513   4.589   3.109
    1ADC   C134  306   8.455   4.400   3.200
    1ADC   H170  307   8.355   4.440   3.208
    1ADC   C136  308   8.477   4.314   3.328
    1ADC    O99  309   8.368   4.223   3.345
    1ADC   C137  310   8.353   4.137   3.451
    1ADC   O100  311   8.440   4.127   3.541
    1ADC   C138  312   8.231   4.055   3.460
    1ADC    O96  313   8.451   4.320   3.080
    1ADC   C135  314   8.578   4.272   3.031
    1ADC   H180  315   8.619   4.197   3.101
    1ADC   O102  316   8.554   4.204   2.908
    1ADC   H218  317   8.490   4.132   2.930
    1ADC   C132  318   8.679   4.386   3.009
    1ADC   H168  319   8.643   4.449   2.927
    1ADC    O98  320   8.808   4.330   2.979
    1ADC   C139  321   8.901   4.369   2.886
    1ADC   C140  322   8.884   4.485   2.797
    1ADC   O101  323   9.006   4.303   2.882
    1ADC   C133  324   8.691   4.473   3.137
    1ADC   H169  325   8.739   4.414   3.216
    1ADC    O97  326   8.776   4.585   3.110
    1ADC   H171  327   8.785   4.630   3.195
    1ADC    O89  328   8.358   4.603   3.398
    1ADC   C121  329   8.249   4.676   3.455
    1ADC   H155  330   8.213   4.750   3.383
    1ADC   C126  331   8.134   4.574   3.476
    1ADC    O93  332   8.101   4.512   3.351
    1ADC   C127  333   8.008   4.415   3.330
    1ADC    O94  334   7.941   4.368   3.424
    1ADC   C128  335   7.986   4.364   3.194
    1ADC   C112  336   8.056   4.932   3.816
    1ADC   H141  337   8.067   4.973   3.916
    1ADC    O84  338   8.036   5.039   3.722
    1ADC   C119  339   8.107   5.155   3.709
    1ADC   C120  340   8.184   5.216   3.819
    1ADC    O87  341   8.099   5.214   3.599
    1ADC   C113  342   7.929   4.841   3.817
    1ADC   H142  343   7.905   4.809   3.715
    1ADC    O83  344   7.820   4.918   3.865
    1ADC   H144  345   7.808   4.990   3.800
    1ADC    O75  346   7.743   4.652   4.107
    1ADC   C101  347   7.788   4.532   4.173
    1ADC   H130  348   7.883   4.499   4.130
    1ADC   C106  349   7.819   4.569   4.321
    1ADC    O79  350   7.922   4.668   4.325
    1ADC   C107  351   7.978   4.721   4.438
    1ADC    O80  352   7.939   4.688   4.552
    1ADC   C108  353   8.087   4.819   4.425
    1ADC    C92  354   7.711   4.082   4.336
    1ADC   H116  355   7.642   3.998   4.346
    1ADC    O68  356   7.824   4.041   4.257
    1ADC    C99  357   7.827   3.974   4.138
    1ADC   C100  358   7.713   3.895   4.085
    1ADC    O71  359   7.935   3.975   4.076
    1ADC    C93  360   7.760   4.120   4.479
    1ADC   H117  361   7.841   4.193   4.472
    1ADC    O67  362   7.813   4.002   4.540
    1ADC   H119  363   7.889   3.976   4.483
    1ADC    O58  364   7.586   4.065   4.830
    1ADC    C81  365   7.477   4.144   4.884
    1ADC   H105  366   7.451   4.224   4.815
    1ADC    C86  367   7.353   4.052   4.894
    1ADC    O63  368   7.318   4.003   4.765
    1ADC    C87  369   7.211   3.924   4.735
    1ADC    O64  370   7.131   3.886   4.825
    1ADC    C88  371   7.187   3.883   4.597
    2ADC   O113  372   6.151   5.059   1.500
    2ADC   C159  373   6.027   5.074   1.502
    2ADC   C160  374   5.966   5.193   1.439
    2ADC   O111  375   5.954   4.972   1.558
    2ADC   C152  376   5.819   4.974   1.608
    2ADC   H193  377   5.754   5.020   1.533
    2ADC   C155  378   5.811   5.055   1.740
    2ADC   H205  379   5.812   5.161   1.711
    2ADC    O72  380   5.684   5.035   1.807
    2ADC   C154  381   5.653   4.898   1.837
    2ADC   H195  382   5.732   4.852   1.895
    2ADC   C156  383   5.527   4.899   1.930
    2ADC    O73  384   5.429   4.994   1.886
    2ADC   C157  385   5.311   5.022   1.948
    2ADC   O112  386   5.274   4.958   2.049
    2ADC   C158  387   5.224   5.128   1.896
    2ADC   C151  388   5.638   4.816   1.704
    2ADC   H192  389   5.557   4.862   1.646
    2ADC   C153  390   5.771   4.827   1.626
    2ADC   H194  391   5.848   4.771   1.680
    2ADC   O110  392   5.760   4.771   1.496
    2ADC   H196  393   5.850   4.775   1.458
    2ADC   O104  394   5.604   4.680   1.740
    2ADC   C145  395   5.551   4.593   1.637
    2ADC   H206  396   5.626   4.579   1.560
    2ADC   O103  397   5.434   4.647   1.572
    2ADC   C141  398   5.319   4.662   1.658
    2ADC   H182  399   5.343   4.725   1.743
    2ADC   C146  400   5.210   4.736   1.576
    2ADC   O107  401   5.258   4.867   1.542
    2ADC   C147  402   5.189   4.963   1.475
    2ADC   O108  403   5.073   4.942   1.433
    2ADC   C148  404   5.251   5.094   1.453
    2ADC   C142  405   5.274   4.522   1.710
    2ADC   H183  406   5.246   4.460   1.623
    2ADC   C143  407   5.393   4.455   1.784
    2ADC   H184  408   5.413   4.511   1.876
    2ADC   O106  409   5.362   4.321   1.822
    2ADC   H219  410   5.439   4.291   1.875
    2ADC   C144  411   5.521   4.452   1.696
    2ADC   H185  412   5.503   4.383   1.613
    2ADC   O105  413   5.632   4.405   1.776
    2ADC   C149  414   5.756   4.364   1.737
    2ADC   O109  415   5.843   4.359   1.826
    2ADC   C150  416   5.788   4.317   1.600
    2ADC    O45  417   5.159   4.544   1.797
    2ADC    C55  418   5.070   4.432   1.821
    2ADC    H74  419   5.125   4.353   1.871
    2ADC    O39  420   5.016   4.375   1.701
    2ADC    C54  421   4.927   4.462   1.626
    2ADC    H64  422   4.979   4.554   1.600
    2ADC    C56  423   4.893   4.390   1.493
    2ADC    O42  424   5.015   4.372   1.418
    2ADC    C57  425   5.025   4.318   1.294
    2ADC    O43  426   4.925   4.273   1.233
    2ADC    C58  427   5.158   4.311   1.229
    2ADC    C51  428   4.802   4.496   1.712
    2ADC    H61  429   4.751   4.402   1.737
    2ADC    C53  430   4.851   4.564   1.844
    2ADC    H63  431   4.895   4.662   1.819
    2ADC    O40  432   4.742   4.588   1.934
    2ADC    H65  433   4.780   4.639   2.008
    2ADC    C52  434   4.957   4.477   1.919
    2ADC    H62  435   4.905   4.388   1.956
    2ADC    O41  436   5.009   4.552   2.029
    2ADC    C59  437   5.084   4.510   2.135
    2ADC    C60  438   5.095   4.369   2.178
    2ADC    O44  439   5.143   4.599   2.201
    2ADC    O33  440   4.716   4.582   1.634
    2ADC    C45  441   4.576   4.589   1.668
    2ADC    H75  442   4.566   4.626   1.770
    2ADC    O32  443   4.511   4.460   1.665
    2ADC    C41  444   4.501   4.399   1.535
    2ADC    H51  445   4.601   4.388   1.491
    2ADC    C46  446   4.446   4.256   1.555
    2ADC    O36  447   4.537   4.181   1.635
    2ADC    C47  448   4.524   4.049   1.670
    2ADC    O37  449   4.424   3.982   1.634
    2ADC    C48  450   4.629   3.986   1.750
    2ADC    C42  451   4.415   4.489   1.441
    2ADC    H52  452   4.315   4.498   1.484
    2ADC    C43  453   4.481   4.630   1.433
    2ADC    H53  454   4.577   4.622   1.382
    2ADC    O35  455   4.401   4.721   1.359
    2ADC   H211  456   4.454   4.803   1.353
    2ADC    C44  457   4.503   4.690   1.575
    2ADC    H54  458   4.405   4.713   1.618
    2ADC    O34  459   4.578   4.813   1.563
    2ADC    C49  460   4.599   4.911   1.656
    2ADC    O38  461   4.692   4.992   1.631
    2ADC    C50  462   4.516   4.931   1.775
    2ADC    O31  463   4.410   4.424   1.311
    2ADC    C35  464   4.301   4.457   1.222
    2ADC    H49  465   4.305   4.563   1.199
    2ADC    O25  466   4.171   4.434   1.281
    2ADC    C34  467   4.139   4.296   1.307
    2ADC    H39  468   4.213   4.252   1.373
    2ADC    C36  469   4.005   4.293   1.385
    2ADC    O28  470   4.022   4.362   1.509
    2ADC    C37  471   3.928   4.376   1.607
    2ADC    O29  472   3.812   4.330   1.593
    2ADC    C38  473   3.962   4.446   1.732
    2ADC    C31  474   4.137   4.215   1.173
    2ADC    H36  475   4.059   4.260   1.109
    2ADC    C33  476   4.276   4.230   1.105
    2ADC    H38  477   4.351   4.179   1.165
    2ADC    O26  478   4.277   4.170   0.976
    2ADC    H40  479   4.370   4.177   0.945
    2ADC    C32  480   4.316   4.380   1.089
    2ADC    H37  481   4.248   4.425   1.014
    2ADC    O27  482   4.451   4.386   1.040
    2ADC    C39  483   4.519   4.493   0.987
    2ADC    C40  484   4.455   4.613   0.932
    2ADC    O30  485   4.644   4.481   0.980
    2ADC    O19  486   4.104   4.078   1.206
    2ADC    C25  487   4.049   3.994   1.101
    2ADC    H50  488   4.120   3.987   1.020
    2ADC    O18  489   3.927   4.048   1.044
    2ADC    C21  490   3.814   4.052   1.134
    2ADC    H26  491   3.838   4.111   1.222
    2ADC    C26  492   3.700   4.127   1.060
    2ADC    O22  493   3.743   4.262   1.033
    2ADC    C27  494   3.669   4.360   0.974
    2ADC    O23  495   3.552   4.338   0.935
    2ADC    C28  496   3.727   4.493   0.956
    2ADC    C22  497   3.775   3.908   1.178
    2ADC    H27  498   3.749   3.851   1.088
    2ADC    C23  499   3.900   3.844   1.247
    2ADC    H28  500   3.921   3.896   1.340
    2ADC    O21  501   3.877   3.706   1.279
    2ADC   H209  502   3.957   3.678   1.328
    2ADC    C24  503   4.026   3.850   1.154
    2ADC    H29  504   4.008   3.783   1.070
    2ADC    O20  505   4.140   3.803   1.229
    2ADC    C29  506   4.264   3.767   1.184
    2ADC    O24  507   4.355   3.759   1.270
    2ADC    C30  508   4.295   3.731   1.044
    2ADC    O17  509   3.661   3.919   1.267
    2ADC    C15  510   3.577   3.802   1.285
    2ADC    H24  511   3.636   3.722   1.326
    2ADC     O9  512   3.521   3.753   1.162
    2ADC    C14  513   3.424   3.840   1.098
    2ADC    H14  514   3.470   3.937   1.077
    2ADC    C16  515   3.389   3.778   0.962
    2ADC    O12  516   3.508   3.773   0.882
    2ADC    C17  517   3.518   3.729   0.753
    2ADC    O13  518   3.419   3.685   0.690
    2ADC    C18  519   3.649   3.734   0.685
    2ADC    C11  520   3.301   3.862   1.191
    2ADC    H11  521   3.255   3.764   1.210
    2ADC    C13  522   3.353   3.920   1.327
    2ADC    H13  523   3.391   4.021   1.310
    2ADC    O10  524   3.247   3.930   1.423
    2ADC    H15  525   3.287   3.977   1.500
    2ADC    C12  526   3.466   3.832   1.389
    2ADC    H12  527   3.420   3.738   1.420
    2ADC    O11  528   3.519   3.901   1.504
    2ADC    C19  529   3.598   3.853   1.604
    2ADC    C20  530   3.614   3.709   1.636
    2ADC    O14  531   3.654   3.938   1.677
    2ADC     O2  532   3.208   3.950   1.123
    2ADC     C5  533   3.070   3.951   1.165
    2ADC    H25  534   3.065   3.982   1.269
    2ADC     O1  535   3.006   3.822   1.158
    2ADC     C1  536   2.986   3.769   1.026
    2ADC     H1  537   3.083   3.761   0.974
    2ADC     C6  538   2.931   3.625   1.040
    2ADC     O6  539   3.033   3.545   1.103
    2ADC     C7  540   3.029   3.411   1.124
    2ADC     O7  541   2.930   3.342   1.091
    2ADC     C8  542   3.144   3.345   1.189
    2ADC     C2  543   2.893   3.862   0.942
    2ADC     H2  544   2.795   3.866   0.989
    2ADC     O5  545   2.883   3.803   0.810
    2ADC    C75  546   2.778   3.845   0.720
    2ADC   H103  547   2.786   3.952   0.704
    2ADC    C72  548   2.796   3.777   0.582
    2ADC    H91  549   2.727   3.823   0.511
    2ADC    O55  550   2.930   3.794   0.534
    2ADC    C79  551   2.990   3.909   0.487
    2ADC    C80  552   2.914   4.027   0.443
    2ADC    O57  553   3.115   3.908   0.478
    2ADC    C73  554   2.759   3.626   0.590
    2ADC    H92  555   2.830   3.574   0.655
    2ADC    O54  556   2.769   3.570   0.459
    2ADC    H94  557   2.864   3.579   0.436
    2ADC    C71  558   2.615   3.608   0.648
    2ADC    H90  559   2.545   3.655   0.579
    2ADC    C74  560   2.604   3.685   0.783
    2ADC    H93  561   2.667   3.636   0.859
    2ADC    C76  562   2.459   3.687   0.838
    2ADC    O16  563   2.451   3.773   0.953
    2ADC    C77  564   2.414   3.741   1.080
    2ADC    O56  565   2.387   3.624   1.113
    2ADC    C78  566   2.406   3.849   1.179
    2ADC    O15  567   2.645   3.823   0.770
    2ADC    O47  568   2.580   3.469   0.672
    2ADC    C65  569   2.529   3.393   0.560
    2ADC   H104  570   2.607   3.387   0.484
    2ADC    O46  571   2.411   3.457   0.507
    2ADC    C61  572   2.357   3.396   0.387
    2ADC    H76  573   2.435   3.396   0.309
    2ADC    C66  574   2.241   3.485   0.336
    2ADC    O51  575   2.288   3.619   0.320
    2ADC    C67  576   2.212   3.729   0.280
    2ADC    O52  577   2.091   3.712   0.252
    2ADC    C68  578   2.264   3.869   0.268
    2ADC    C62  579   2.315   3.249   0.417
    2ADC    H77  580   2.287   3.200   0.323
    2ADC    O50  581   2.202   3.244   0.502
    2ADC    H81  582   2.228   3.293   0.584
    2ADC    C63  583   2.434   3.171   0.481
    2ADC    H78  584   2.512   3.158   0.405
    2ADC    O49  585   2.391   3.040   0.520
    2ADC    H80  586   2.470   2.997   0.555
    2ADC    C64  587   2.494   3.247   0.603
    2ADC    H79  588   2.417   3.250   0.681
    2ADC    O48  589   2.610   3.177   0.649
    2ADC    C69  590   2.677   3.189   0.767
    2ADC    O53  591   2.800   3.162   0.766
    2ADC    C70  592   2.616   3.224   0.897
    2ADC     C3  593   2.957   4.006   0.940
    2ADC     H3  594   3.048   4.003   0.881
    2ADC     O4  595   2.868   4.100   0.880
    2ADC   H207  596   2.918   4.184   0.878
    2ADC     C4  597   2.988   4.056   1.084
    2ADC     H4  598   2.894   4.074   1.134
    2ADC     O3  599   3.062   4.181   1.074
    2ADC     C9  600   3.088   4.275   1.169
    2ADC     O8  601   3.178   4.357   1.143
    2ADC    C10  602   3.012   4.288   1.295
    2ADC    O62  603   5.923   5.029   1.826
    2ADC    C82  604   5.931   5.105   1.949
    2ADC   H106  605   5.831   5.121   1.992
    2ADC    C83  606   6.001   5.242   1.932
    2ADC   H107  607   6.099   5.227   1.885
    2ADC    O61  608   5.927   5.329   1.847
    2ADC   H213  609   5.983   5.408   1.833
    2ADC    C84  610   6.020   5.314   2.069
    2ADC   H108  611   5.920   5.341   2.105
    2ADC    O60  612   6.097   5.434   2.049
    2ADC    C89  613   6.115   5.541   2.133
    2ADC    O65  614   6.209   5.618   2.107
    2ADC    C90  615   6.025   5.572   2.247
    2ADC    C85  616   6.087   5.220   2.173
    2ADC   H129  617   6.074   5.266   2.271
    2ADC    O59  618   6.228   5.210   2.144
    2ADC    C91  619   6.310   5.128   2.233
    2ADC   H115  620   6.257   5.037   2.262
    2ADC    C94  621   6.437   5.085   2.154
    2ADC   H118  622   6.491   5.175   2.121
    2ADC    C96  623   6.407   5.004   2.026
    2ADC    O69  624   6.529   4.975   1.956
    2ADC    C97  625   6.540   4.909   1.838
    2ADC    O70  626   6.439   4.863   1.778
    2ADC    C98  627   6.672   4.892   1.776
    2ADC    O66  628   6.523   5.004   2.238
    2ADC    C95  629   6.573   5.071   2.356
    2ADC   H128  630   6.625   4.995   2.414
    2ADC    O74  631   6.664   5.179   2.328
    2ADC   C102  632   6.781   5.150   2.248
    2ADC   H131  633   6.758   5.080   2.167
    2ADC   C103  634   6.898   5.092   2.334
    2ADC   H132  635   6.917   5.159   2.419
    2ADC    O78  636   6.865   4.964   2.387
    2ADC   H215  637   6.940   4.941   2.446
    2ADC   C104  638   7.028   5.077   2.250
    2ADC   H133  639   7.011   4.999   2.176
    2ADC    O77  640   7.135   5.038   2.338
    2ADC   C109  641   7.258   4.985   2.307
    2ADC    O81  642   7.343   4.984   2.398
    2ADC   C110  643   7.290   4.922   2.177
    2ADC   C105  644   7.062   5.210   2.177
    2ADC   H154  645   7.138   5.186   2.102
    2ADC    O76  646   7.116   5.306   2.269
    2ADC   C111  647   7.158   5.435   2.219
    2ADC   H140  648   7.084   5.474   2.148
    2ADC   C114  649   7.162   5.531   2.341
    2ADC   H143  650   7.230   5.490   2.417
    2ADC   C116  651   7.025   5.550   2.411
    2ADC    O85  652   7.041   5.631   2.528
    2ADC   C117  653   6.943   5.665   2.617
    2ADC    O86  654   6.824   5.629   2.599
    2ADC   C118  655   6.976   5.746   2.735
    2ADC    O82  656   7.209   5.662   2.302
    2ADC   C115  657   7.341   5.666   2.244
    2ADC   H153  658   7.358   5.767   2.210
    2ADC    O88  659   7.446   5.630   2.338
    2ADC   C122  660   7.456   5.707   2.460
    2ADC   H156  661   7.357   5.730   2.499
    2ADC   C123  662   7.537   5.840   2.441
    2ADC   H157  663   7.633   5.816   2.394
    2ADC    O92  664   7.469   5.930   2.355
    2ADC   H159  665   7.531   6.004   2.341
    2ADC   C124  666   7.563   5.910   2.576
    2ADC   H158  667   7.467   5.946   2.615
    2ADC    O91  668   7.653   6.020   2.556
    2ADC   C129  669   7.639   6.153   2.582
    2ADC    O95  670   7.726   6.230   2.535
    2ADC   C130  671   7.533   6.210   2.667
    2ADC   C125  672   7.623   5.813   2.680
    2ADC   H181  673   7.726   5.788   2.652
    2ADC    O90  674   7.622   5.879   2.808
    2ADC   C131  675   7.687   5.813   2.920
    2ADC   H167  676   7.787   5.779   2.888
    2ADC   C134  677   7.610   5.691   2.979
    2ADC   H170  678   7.621   5.609   2.910
    2ADC   C136  679   7.457   5.715   2.995
    2ADC    O99  680   7.392   5.590   3.025
    2ADC   C137  681   7.257   5.573   3.038
    2ADC   O100  682   7.177   5.670   3.032
    2ADC   C138  683   7.203   5.437   3.061
    2ADC    O96  684   7.671   5.643   3.101
    2ADC   C135  685   7.691   5.741   3.205
    2ADC   H180  686   7.594   5.773   3.245
    2ADC   O102  687   7.760   5.678   3.312
    2ADC   H218  688   7.703   5.602   3.339
    2ADC   C132  689   7.772   5.863   3.157
    2ADC   H168  690   7.873   5.830   3.133
    2ADC    O98  691   7.772   5.965   3.259
    2ADC   C139  692   7.874   6.045   3.302
    2ADC   C140  693   8.010   6.043   3.246
    2ADC   O101  694   7.846   6.126   3.392
    2ADC   C133  695   7.708   5.922   3.028
    2ADC   H169  696   7.611   5.967   3.053
    2ADC    O97  697   7.792   6.027   2.978
    2ADC   H171  698   7.742   6.064   2.902
    2ADC    O89  699   7.544   5.692   2.687
    2ADC   C121  700   7.530   5.619   2.565
    2ADC   H155  701   7.629   5.591   2.527
    2ADC   C126  702   7.456   5.487   2.600
    2ADC    O93  703   7.530   5.416   2.700
    2ADC   C127  704   7.495   5.299   2.758
    2ADC    O94  705   7.388   5.240   2.729
    2ADC   C128  706   7.585   5.239   2.858
    2ADC   C112  707   7.350   5.574   2.119
    2ADC   H141  708   7.286   5.615   2.041
    2ADC    O84  709   7.485   5.566   2.071
    2ADC   C119  710   7.558   5.661   2.006
    2ADC   C120  711   7.498   5.772   1.929
    2ADC    O87  712   7.682   5.648   2.009
    2ADC   C113  713   7.298   5.430   2.151
    2ADC   H142  714   7.368   5.380   2.218
    2ADC    O83  715   7.295   5.357   2.030
    2ADC   H144  716   7.387   5.353   1.999
    2ADC    O75  717   6.948   5.260   2.104
    2ADC   C101  718   6.830   5.283   2.183
    2ADC   H130  719   6.852   5.356   2.262
    2ADC   C106  720   6.724   5.350   2.092
    2ADC    O79  721   6.775   5.475   2.044
    2ADC   C107  722   6.707   5.563   1.964
    2ADC    O80  723   6.592   5.539   1.923
    2ADC   C108  724   6.772   5.690   1.927
    2ADC    C92  725   6.455   5.121   2.445
    2ADC   H116  726   6.401   5.035   2.485
    2ADC    O68  727   6.504   5.202   2.554
    2ADC    C99  728   6.571   5.164   2.666
    2ADC   C100  729   6.573   5.025   2.719
    2ADC    O71  730   6.628   5.254   2.731
    2ADC    C93  731   6.354   5.205   2.361
    2ADC   H117  732   6.400   5.300   2.332
    2ADC    O67  733   6.243   5.235   2.445
    2ADC   H119  734   6.279   5.289   2.518
    2ADC    O58  735   6.021   5.093   2.179
    2ADC    C81  736   6.013   5.021   2.053
    2ADC   H105  737   6.113   5.005   2.013
    2ADC    C86  738   5.954   4.881   2.082
    2ADC    O63  739   6.038   4.811   2.173
    2ADC    C87  740   6.020   4.683   2.217
    2ADC    O64  741   5.921   4.614   2.178
    2ADC    C88  742   6.116   4.622   2.309
    3ADC   O113  743   6.441   2.346   5.125
    3ADC   C159  744   6.374   2.348   5.019
    3ADC   C160  745   6.307   2.473   4.978
    3ADC   O111  746   6.375   2.234   4.944
    3ADC   C152  747   6.283   2.193   4.840
    3ADC   H193  748   6.269   2.276   4.770
    3ADC   C155  749   6.145   2.154   4.901
    3ADC   H205  750   6.094   2.249   4.923
    3ADC    O72  751   6.062   2.086   4.805
    3ADC   C154  752   6.120   1.968   4.747
    3ADC   H195  753   6.150   1.897   4.825
    3ADC   C156  754   6.007   1.896   4.667
    3ADC    O73  755   5.927   1.989   4.592
    3ADC   C157  756   5.819   1.958   4.516
    3ADC   O112  757   5.783   1.839   4.499
    3ADC   C158  758   5.741   2.065   4.451
    3ADC   C151  759   6.247   2.005   4.665
    3ADC   H192  760   6.217   2.075   4.586
    3ADC   C153  761   6.348   2.075   4.761
    3ADC   H194  762   6.385   2.001   4.832
    3ADC   O110  763   6.459   2.129   4.691
    3ADC   H196  764   6.519   2.164   4.759
    3ADC   O104  765   6.301   1.884   4.607
    3ADC   C145  766   6.396   1.895   4.500
    3ADC   H206  767   6.486   1.944   4.537
    3ADC   O103  768   6.348   1.973   4.389
    3ADC   C141  769   6.235   1.917   4.319
    3ADC   H182  770   6.153   1.901   4.388
    3ADC   C146  771   6.187   2.022   4.216
    3ADC   O107  772   6.144   2.140   4.285
    3ADC   C147  773   6.090   2.251   4.228
    3ADC   O108  774   6.078   2.262   4.104
    3ADC   C148  775   6.045   2.361   4.315
    3ADC   C142  776   6.275   1.780   4.256
    3ADC   H183  777   6.356   1.798   4.184
    3ADC   C143  778   6.328   1.686   4.368
    3ADC   H184  779   6.244   1.660   4.434
    3ADC   O106  780   6.379   1.564   4.314
    3ADC   H219  781   6.400   1.509   4.392
    3ADC   C144  782   6.440   1.753   4.452
    3ADC   H185  783   6.528   1.763   4.388
    3ADC   O105  784   6.472   1.668   4.564
    3ADC   C149  785   6.578   1.674   4.650
    3ADC   O109  786   6.566   1.610   4.757
    3ADC   C150  787   6.706   1.741   4.619
    3ADC    O45  788   6.157   1.728   4.189
    3ADC    C55  789   6.176   1.629   4.085
    3ADC    H74  790   6.223   1.540   4.128
    3ADC    O39  791   6.263   1.673   3.979
    3ADC    C54  792   6.212   1.782   3.900
    3ADC    H64  793   6.190   1.868   3.964
    3ADC    C56  794   6.325   1.826   3.804
    3ADC    O42  795   6.436   1.873   3.882
    3ADC    C57  796   6.552   1.925   3.833
    3ADC    O43  797   6.574   1.933   3.710
    3ADC    C58  798   6.655   1.973   3.927
    3ADC    C51  799   6.081   1.738   3.827
    3ADC    H61  800   6.106   1.653   3.763
    3ADC    C53  801   5.978   1.693   3.935
    3ADC    H63  802   5.948   1.781   3.995
    3ADC    O40  803   5.860   1.640   3.876
    3ADC    H65  804   5.798   1.624   3.950
    3ADC    C52  805   6.037   1.584   4.030
    3ADC    H62  806   6.050   1.493   3.971
    3ADC    O41  807   5.944   1.560   4.137
    3ADC    C59  808   5.941   1.458   4.228
    3ADC    C60  809   6.012   1.329   4.210
    3ADC    O44  810   5.868   1.475   4.329
    3ADC    O33  811   6.034   1.850   3.749
    3ADC    C45  812   5.947   1.824   3.637
    3ADC    H75  813   5.856   1.776   3.673
    3ADC    O32  814   6.004   1.733   3.541
    3ADC    C41  815   6.118   1.784   3.470
    3ADC    H51  816   6.196   1.812   3.541
    3ADC    C46  817   6.176   1.668   3.385
    3ADC    O36  818   6.217   1.563   3.472
    3ADC    C47  819   6.277   1.445   3.434
    3ADC    O37  820   6.298   1.420   3.313
    3ADC    C48  821   6.317   1.349   3.537
    3ADC    C42  822   6.078   1.910   3.387
    3ADC    H52  823   6.002   1.880   3.315
    3ADC    C43  824   6.020   2.016   3.484
    3ADC    H53  825   6.099   2.052   3.550
    3ADC    O35  826   5.969   2.129   3.414
    3ADC   H211  827   5.942   2.193   3.484
    3ADC    C44  828   5.904   1.957   3.569
    3ADC    H54  829   5.819   1.938   3.503
    3ADC    O34  830   5.864   2.055   3.668
    3ADC    C49  831   5.752   2.058   3.747
    3ADC    O38  832   5.756   2.136   3.846
    3ADC    C50  833   5.629   1.982   3.720
    3ADC    O31  834   6.197   1.957   3.319
    3ADC    C35  835   6.181   2.040   3.201
    3ADC    H49  836   6.128   2.130   3.228
    3ADC    O25  837   6.103   1.975   3.098
    3ADC    C34  838   6.163   1.859   3.038
    3ADC    H39  839   6.186   1.784   3.114
    3ADC    C36  840   6.058   1.795   2.945
    3ADC    O28  841   5.945   1.754   3.022
    3ADC    C37  842   5.835   1.690   2.975
    3ADC    O29  843   5.821   1.662   2.853
    3ADC    C38  844   5.728   1.651   3.068
    3ADC    C31  845   6.297   1.899   2.967
    3ADC    H36  846   6.272   1.972   2.889
    3ADC    C33  847   6.391   1.965   3.073
    3ADC    H38  848   6.421   1.889   3.146
    3ADC    O26  849   6.509   2.016   3.012
    3ADC    H40  850   6.565   2.047   3.087
    3ADC    C32  851   6.320   2.082   3.147
    3ADC    H37  852   6.305   2.164   3.074
    3ADC    O27  853   6.406   2.129   3.253
    3ADC    C39  854   6.398   2.244   3.327
    3ADC    C40  855   6.324   2.363   3.286
    3ADC    O30  856   6.466   2.246   3.432
    3ADC    O19  857   6.353   1.778   2.909
    3ADC    C25  858   6.447   1.793   2.800
    3ADC    H50  859   6.533   1.850   2.834
    3ADC    O18  860   6.392   1.865   2.687
    3ADC    C21  861   6.284   1.799   2.618
    3ADC    H26  862   6.203   1.777   2.687
    3ADC    C26  863   6.229   1.899   2.513
    3ADC    O22  864   6.176   2.013   2.582
    3ADC    C27  865   6.114   2.121   2.523
    3ADC    O23  866   6.101   2.128   2.399
    3ADC    C28  867   6.064   2.229   2.608
    3ADC    C22  868   6.335   1.665   2.556
    3ADC    H27  869   6.416   1.688   2.486
    3ADC    C23  870   6.391   1.577   2.673
    3ADC    H28  871   6.310   1.547   2.738
    3ADC    O21  872   6.452   1.457   2.622
    3ADC   H209  873   6.477   1.407   2.703
    3ADC    C24  874   6.499   1.654   2.755
    3ADC    H29  875   6.587   1.667   2.692
    3ADC    O20  876   6.536   1.573   2.869
    3ADC    C29  877   6.642   1.586   2.954
    3ADC    O24  878   6.635   1.523   3.063
    3ADC    C30  879   6.764   1.663   2.924
    3ADC    O17  880   6.223   1.603   2.488
    3ADC    C15  881   6.251   1.506   2.384
    3ADC    H24  882   6.306   1.423   2.428
    3ADC     O9  883   6.334   1.557   2.278
    3ADC    C14  884   6.272   1.659   2.195
    3ADC    H14  885   6.241   1.743   2.257
    3ADC    C16  886   6.380   1.712   2.099
    3ADC    O12  887   6.485   1.771   2.177
    3ADC    C17  888   6.596   1.834   2.130
    3ADC    O13  889   6.619   1.844   2.007
    3ADC    C18  890   6.693   1.892   2.225
    3ADC    C11  891   6.146   1.601   2.123
    3ADC    H11  892   6.179   1.518   2.060
    3ADC    C13  893   6.048   1.547   2.232
    3ADC    H13  894   6.009   1.631   2.290
    3ADC    O10  895   5.937   1.480   2.174
    3ADC    H15  896   5.877   1.459   2.249
    3ADC    C12  897   6.119   1.447   2.329
    3ADC    H12  898   6.142   1.356   2.271
    3ADC    O11  899   6.028   1.414   2.436
    3ADC    C19  900   6.034   1.312   2.527
    3ADC    C20  901   6.116   1.190   2.510
    3ADC    O14  902   5.959   1.322   2.626
    3ADC     O2  903   6.089   1.707   2.042
    3ADC     C5  904   6.001   1.671   1.934
    3ADC    H25  905   5.915   1.618   1.974
    3ADC     O1  906   6.061   1.583   1.836
    3ADC     C1  907   6.168   1.641   1.758
    3ADC     H1  908   6.248   1.677   1.825
    3ADC     C6  909   6.230   1.528   1.672
    3ADC     O6  910   6.289   1.433   1.761
    3ADC     C7  911   6.362   1.323   1.726
    3ADC     O7  912   6.384   1.295   1.606
    3ADC     C8  913   6.417   1.237   1.831
    3ADC     C2  914   6.116   1.761   1.674
    3ADC     H2  915   6.041   1.725   1.603
    3ADC     O5  916   6.231   1.815   1.603
    3ADC    C75  917   6.210   1.903   1.490
    3ADC   H103  918   6.153   1.990   1.523
    3ADC    C72  919   6.348   1.956   1.440
    3ADC    H91  920   6.330   2.036   1.367
    3ADC    O55  921   6.425   2.009   1.549
    3ADC    C79  922   6.404   2.125   1.619
    3ADC    C80  923   6.320   2.236   1.571
    3ADC    O57  924   6.466   2.136   1.728
    3ADC    C73  925   6.425   1.843   1.366
    3ADC    H92  926   6.452   1.764   1.436
    3ADC    O54  927   6.546   1.899   1.314
    3ADC    H94  928   6.597   1.927   1.393
    3ADC    C71  929   6.338   1.782   1.251
    3ADC    H90  930   6.317   1.862   1.179
    3ADC    C74  931   6.200   1.738   1.310
    3ADC    H93  932   6.214   1.653   1.378
    3ADC    C76  933   6.101   1.694   1.199
    3ADC    O16  934   5.971   1.671   1.256
    3ADC    C77  935   5.898   1.556   1.257
    3ADC    O56  936   5.943   1.449   1.210
    3ADC    C78  937   5.764   1.559   1.315
    3ADC    O15  938   6.136   1.846   1.382
    3ADC    O47  939   6.399   1.667   1.187
    3ADC    C65  940   6.494   1.692   1.082
    3ADC   H104  941   6.579   1.747   1.124
    3ADC    O46  942   6.432   1.770   0.977
    3ADC    C61  943   6.521   1.811   0.870
    3ADC    H76  944   6.603   1.870   0.913
    3ADC    C66  945   6.442   1.904   0.775
    3ADC    O51  946   6.384   2.011   0.850
    3ADC    C67  947   6.302   2.112   0.801
    3ADC    O52  948   6.277   2.115   0.678
    3ADC    C68  949   6.240   2.221   0.884
    3ADC    C62  950   6.581   1.686   0.800
    3ADC    H77  951   6.658   1.717   0.729
    3ADC    O50  952   6.482   1.615   0.726
    3ADC    H81  953   6.412   1.592   0.792
    3ADC    C63  954   6.646   1.591   0.905
    3ADC    H78  955   6.736   1.640   0.946
    3ADC    O49  956   6.689   1.470   0.842
    3ADC    H80  957   6.732   1.418   0.912
    3ADC    C64  958   6.549   1.559   1.022
    3ADC    H79  959   6.465   1.501   0.981
    3ADC    O48  960   6.619   1.483   1.122
    3ADC    C69  961   6.569   1.409   1.225
    3ADC    O53  962   6.642   1.397   1.327
    3ADC    C70  963   6.440   1.337   1.225
    3ADC     C3  964   6.051   1.865   1.772
    3ADC     H3  965   6.129   1.910   1.833
    3ADC     O4  966   5.986   1.970   1.700
    3ADC   H207  967   5.954   2.032   1.768
    3ADC     C4  968   5.944   1.799   1.864
    3ADC     H4  969   5.860   1.771   1.801
    3ADC     O3  970   5.902   1.896   1.962
    3ADC     C9  971   5.794   1.894   2.045
    3ADC     O8  972   5.795   1.975   2.141
    3ADC    C10  973   5.674   1.809   2.024
    3ADC    O62  974   6.161   2.079   5.023
    3ADC    C82  975   6.039   2.044   5.095
    3ADC   H106  976   5.958   2.019   5.025
    3ADC    C83  977   5.991   2.155   5.192
    3ADC   H107  978   6.073   2.183   5.259
    3ADC    O61  979   5.953   2.273   5.121
    3ADC   H213  980   5.933   2.340   5.190
    3ADC    C84  981   5.869   2.107   5.276
    3ADC   H108  982   5.784   2.096   5.207
    3ADC    O60  983   5.836   2.209   5.373
    3ADC    C89  984   5.723   2.223   5.448
    3ADC    O65  985   5.730   2.301   5.546
    3ADC    C90  986   5.593   2.159   5.416
    3ADC    C85  987   5.897   1.971   5.344
    3ADC   H129  988   5.802   1.932   5.379
    3ADC    O59  989   5.984   1.991   5.457
    3ADC    C91  990   6.020   1.874   5.537
    3ADC   H115  991   6.039   1.787   5.473
    3ADC    C94  992   6.153   1.907   5.612
    3ADC   H118  993   6.138   1.995   5.674
    3ADC    C96  994   6.271   1.941   5.517
    3ADC    O69  995   6.387   1.977   5.594
    3ADC    C97  996   6.507   2.017   5.545
    3ADC    O70  997   6.529   2.023   5.421
    3ADC    C98  998   6.615   2.055   5.636
    3ADC    O66  999   6.194   1.795   5.693
    3ADC    C95 1000   6.100   1.758   5.797
    3ADC   H128 1001   6.139   1.666   5.841
    3ADC    O74 1002   6.087   1.858   5.900
    3ADC   C102 1003   6.207   1.901   5.970
    3ADC   H131 1004   6.292   1.909   5.901
    3ADC   C103 1005   6.245   1.804   6.086
    3ADC   H132 1006   6.157   1.790   6.152
    3ADC    O78 1007   6.282   1.675   6.038
    3ADC   H215 1008   6.295   1.621   6.118
    3ADC   C104 1009   6.363   1.860   6.170
    3ADC   H133 1010   6.452   1.858   6.107
    3ADC    O77 1011   6.384   1.775   6.284
    3ADC   C109 1012   6.492   1.766   6.367
    3ADC    O81 1013   6.475   1.704   6.475
    3ADC   C110 1014   6.627   1.818   6.334
    3ADC   C105 1015   6.336   2.007   6.214
    3ADC   H154 1016   6.431   2.047   6.249
    3ADC    O76 1017   6.241   2.009   6.322
    3ADC   C111 1018   6.205   2.137   6.380
    3ADC   H140 1019   6.189   2.212   6.301
    3ADC   C114 1020   6.069   2.116   6.453
    3ADC   H143 1021   6.081   2.037   6.528
    3ADC   C116 1022   5.953   2.073   6.360
    3ADC    O85 1023   5.836   2.046   6.437
    3ADC   C117 1024   5.716   2.001   6.390
    3ADC    O86 1025   5.698   1.983   6.267
    3ADC   C118 1026   5.606   1.974   6.483
    3ADC    O82 1027   6.028   2.238   6.519
    3ADC   C115 1028   6.119   2.288   6.619
    3ADC   H153 1029   6.081   2.384   6.652
    3ADC    O88 1030   6.132   2.201   6.734
    3ADC   C122 1031   6.012   2.167   6.808
    3ADC   H156 1032   5.929   2.150   6.739
    3ADC   C123 1033   5.973   2.277   6.911
    3ADC   H157 1034   6.060   2.298   6.975
    3ADC    O92 1035   5.935   2.398   6.848
    3ADC   H159 1036   5.922   2.462   6.921
    3ADC   C124 1037   5.855   2.230   7.001
    3ADC   H158 1038   5.765   2.222   6.939
    3ADC    O91 1039   5.836   2.325   7.107
    3ADC   C129 1040   5.726   2.398   7.143
    3ADC    O95 1041   5.743   2.489   7.226
    3ADC   C130 1042   5.590   2.371   7.093
    3ADC   C125 1043   5.884   2.090   7.063
    3ADC   H181 1044   5.963   2.098   7.138
    3ADC    O90 1045   5.762   2.045   7.124
    3ADC   C131 1046   5.766   1.922   7.202
    3ADC   H167 1047   5.852   1.925   7.270
    3ADC   C134 1048   5.776   1.791   7.117
    3ADC   H170 1049   5.877   1.784   7.080
    3ADC   C136 1050   5.683   1.789   6.992
    3ADC    O99 1051   5.718   1.677   6.908
    3ADC   C137 1052   5.661   1.649   6.787
    3ADC   O100 1053   5.565   1.718   6.741
    3ADC   C138 1054   5.712   1.537   6.707
    3ADC    O96 1055   5.761   1.673   7.199
    3ADC   C135 1056   5.641   1.667   7.281
    3ADC   H180 1057   5.553   1.656   7.217
    3ADC   O102 1058   5.649   1.549   7.361
    3ADC   H218 1059   5.657   1.475   7.297
    3ADC   C132 1060   5.627   1.790   7.372
    3ADC   H168 1061   5.708   1.789   7.445
    3ADC    O98 1062   5.499   1.788   7.437
    3ADC   C139 1063   5.465   1.817   7.566
    3ADC   C140 1064   5.561   1.862   7.668
    3ADC   O101 1065   5.344   1.807   7.595
    3ADC   C133 1066   5.638   1.921   7.288
    3ADC   H169 1067   5.550   1.929   7.223
    3ADC    O97 1068   5.637   2.034   7.377
    3ADC   H171 1069   5.636   2.111   7.318
    3ADC    O89 1070   5.923   1.998   6.959
    3ADC   C121 1071   6.039   2.034   6.884
    3ADC   H155 1072   6.125   2.046   6.951
    3ADC   C126 1073   6.072   1.914   6.791
    3ADC    O93 1074   6.091   1.797   6.870
    3ADC   C127 1075   6.117   1.671   6.825
    3ADC    O94 1076   6.126   1.647   6.702
    3ADC   C128 1077   6.136   1.562   6.921
    3ADC   C112 1078   6.260   2.315   6.558
    3ADC   H141 1079   6.252   2.396   6.486
    3ADC    O84 1080   6.354   2.349   6.660
    3ADC   C119 1081   6.363   2.466   6.731
    3ADC   C120 1082   6.310   2.595   6.683
    3ADC    O87 1083   6.426   2.461   6.839
    3ADC   C113 1084   6.311   2.189   6.480
    3ADC   H142 1085   6.335   2.109   6.552
    3ADC    O83 1086   6.432   2.226   6.415
    3ADC   H144 1087   6.495   2.249   6.486
    3ADC    O75 1088   6.297   2.088   6.101
    3ADC   C101 1089   6.180   2.042   6.030
    3ADC   H130 1090   6.094   2.037   6.098
    3ADC   C106 1091   6.145   2.149   5.924
    3ADC    O79 1092   6.114   2.272   5.989
    3ADC   C107 1093   6.075   2.388   5.927
    3ADC    O80 1094   6.064   2.395   5.803
    3ADC   C108 1095   6.042   2.506   6.009
    3ADC    C92 1096   5.961   1.724   5.737
    3ADC   H116 1097   5.969   1.633   5.677
    3ADC    O68 1098   5.863   1.704   5.841
    3ADC    C99 1099   5.850   1.600   5.928
    3ADC   C100 1100   5.910   1.466   5.907
    3ADC    O71 1101   5.776   1.619   6.027
    3ADC    C93 1102   5.912   1.838   5.642
    3ADC   H117 1103   5.888   1.927   5.701
    3ADC    O67 1104   5.792   1.793   5.580
    3ADC   H119 1105   5.728   1.779   5.653
    3ADC    O58 1106   5.948   1.875   5.250
    3ADC    C81 1107   6.068   1.915   5.179
    3ADC   H105 1108   6.148   1.937   5.250
    3ADC    C86 1109   6.116   1.795   5.095
    3ADC    O63 1110   6.145   1.684   5.181
    3ADC    C87 1111   6.194   1.563   5.142
    3ADC    O64 1112   6.218   1.539   5.021
    3ADC    C88 1113   6.221   1.459   5.242
    4ADC   O113 1114   6.350   3.854   1.976
    4ADC   C159 1115   6.320   3.860   2.098
    4ADC   C160 1116   6.356   3.980   2.176
    4ADC   O111 1117   6.249   3.755   2.148
    4ADC   C152 1118   6.232   3.714   2.286
    4ADC   H193 1119   6.204   3.801   2.346
    4ADC   C155 1120   6.364   3.654   2.342
    4ADC   H205 1121   6.429   3.739   2.364
    4ADC    O72 1122   6.343   3.586   2.467
    4ADC   C154 1123   6.243   3.482   2.464
    4ADC   H195 1124   6.267   3.408   2.388
    4ADC   C156 1125   6.253   3.406   2.601
    4ADC    O73 1126   6.268   3.496   2.711
    4ADC   C157 1127   6.283   3.460   2.841
    4ADC   O112 1128   6.278   3.341   2.878
    4ADC   C158 1129   6.306   3.564   2.944
    4ADC   C151 1130   6.103   3.542   2.430
    4ADC   H192 1131   6.079   3.615   2.508
    4ADC   C153 1132   6.113   3.613   2.292
    4ADC   H194 1133   6.127   3.537   2.215
    4ADC   O110 1134   5.995   3.686   2.262
    4ADC   H196 1135   6.008   3.721   2.172
    4ADC   O104 1136   6.007   3.433   2.430
    4ADC   C145 1137   5.867   3.466   2.436
    4ADC   H206 1138   5.839   3.521   2.347
    4ADC   O103 1139   5.833   3.549   2.549
    4ADC   C141 1140   5.852   3.487   2.678
    4ADC   H182 1141   5.955   3.455   2.689
    4ADC   C146 1142   5.827   3.596   2.786
    4ADC   O107 1143   5.924   3.700   2.771
    4ADC   C147 1144   5.937   3.810   2.850
    4ADC   O108 1145   5.859   3.831   2.945
    4ADC   C148 1146   6.046   3.905   2.824
    4ADC   C142 1147   5.758   3.363   2.691
    4ADC   H183 1148   5.654   3.397   2.684
    4ADC   C143 1149   5.788   3.265   2.574
    4ADC   H184 1150   5.889   3.223   2.589
    4ADC   O106 1151   5.697   3.156   2.573
    4ADC   H219 1152   5.729   3.096   2.503
    4ADC   C144 1153   5.781   3.335   2.436
    4ADC   H185 1154   5.677   3.362   2.418
    4ADC   O105 1155   5.826   3.244   2.334
    4ADC   C149 1156   5.816   3.253   2.198
    4ADC   O109 1157   5.891   3.179   2.132
    4ADC   C150 1158   5.716   3.337   2.129
    4ADC    O45 1159   5.784   3.304   2.822
    4ADC    C55 1160   5.682   3.219   2.879
    4ADC    H74 1161   5.667   3.132   2.815
    4ADC    O39 1162   5.554   3.283   2.891
    4ADC    C54 1163   5.549   3.393   2.985
    4ADC    H64 1164   5.622   3.469   2.957
    4ADC    C56 1165   5.409   3.459   2.971
    4ADC    O42 1166   5.396   3.510   2.837
    4ADC    C57 1167   5.289   3.580   2.789
    4ADC    O43 1168   5.188   3.603   2.859
    4ADC    C58 1169   5.293   3.630   2.649
    4ADC    C51 1170   5.580   3.342   3.128
    4ADC    H61 1171   5.504   3.267   3.154
    4ADC    C53 1172   5.721   3.275   3.127
    4ADC    H63 1173   5.797   3.352   3.108
    4ADC    O40 1174   5.752   3.215   3.252
    4ADC    H65 1175   5.844   3.184   3.245
    4ADC    C52 1176   5.731   3.164   3.017
    4ADC    H62 1177   5.666   3.081   3.048
    4ADC    O41 1178   5.867   3.119   3.009
    4ADC    C59 1179   5.919   3.009   2.947
    4ADC    C60 1180   5.838   2.892   2.906
    4ADC    O44 1181   6.043   3.008   2.929
    4ADC    O33 1182   5.574   3.455   3.218
    4ADC    C45 1183   5.550   3.430   3.358
    4ADC    H75 1184   5.630   3.369   3.398
    4ADC    O32 1185   5.428   3.357   3.383
    4ADC    C41 1186   5.307   3.427   3.351
    4ADC    H51 1187   5.308   3.457   3.245
    4ADC    C46 1188   5.190   3.327   3.366
    4ADC    O36 1189   5.207   3.219   3.275
    4ADC    C47 1190   5.121   3.114   3.257
    4ADC    O37 1191   5.017   3.103   3.325
    4ADC    C48 1192   5.152   3.013   3.155
    4ADC    C42 1193   5.294   3.555   3.439
    4ADC    H52 1194   5.291   3.524   3.543
    4ADC    C43 1195   5.420   3.644   3.414
    4ADC    H53 1196   5.418   3.681   3.312
    4ADC    O35 1197   5.422   3.756   3.502
    4ADC   H211 1198   5.499   3.810   3.473
    4ADC    C44 1199   5.551   3.564   3.438
    4ADC    H54 1200   5.559   3.541   3.545
    4ADC    O34 1201   5.663   3.646   3.399
    4ADC    C49 1202   5.797   3.628   3.425
    4ADC    O38 1203   5.876   3.695   3.355
    4ADC    C50 1204   5.850   3.541   3.531
    4ADC    O31 1205   5.171   3.622   3.401
    4ADC    C35 1206   5.111   3.713   3.496
    4ADC    H49 1207   5.180   3.794   3.516
    4ADC    O25 1208   5.081   3.651   3.622
    4ADC    C34 1209   4.980   3.549   3.619
    4ADC    H39 1210   5.007   3.470   3.549
    4ADC    C36 1211   4.975   3.483   3.759
    4ADC    O28 1212   5.102   3.422   3.786
    4ADC    C37 1213   5.134   3.350   3.897
    4ADC    O29 1214   5.052   3.334   3.991
    4ADC    C38 1215   5.268   3.290   3.908
    4ADC    C31 1216   4.844   3.611   3.573
    4ADC    H36 1217   4.816   3.689   3.646
    4ADC    C33 1218   4.865   3.676   3.433
    4ADC    H38 1219   4.884   3.598   3.359
    4ADC    O26 1220   4.748   3.746   3.391
    4ADC    H40 1221   4.768   3.776   3.299
    4ADC    C32 1222   4.983   3.777   3.434
    4ADC    H37 1223   4.954   3.863   3.496
    4ADC    O27 1224   5.008   3.822   3.299
    4ADC    C39 1225   5.083   3.927   3.255
    4ADC    C40 1226   5.123   4.041   3.339
    4ADC    O30 1227   5.112   3.927   3.133
    4ADC    O19 1228   4.745   3.504   3.571
    4ADC    C25 1229   4.605   3.540   3.580
    4ADC    H50 1230   4.580   3.603   3.495
    4ADC    O18 1231   4.574   3.617   3.698
    4ADC    C21 1232   4.588   3.545   3.823
    4ADC    H26 1233   4.690   3.508   3.833
    4ADC    C26 1234   4.567   3.648   3.937
    4ADC    O22 1235   4.669   3.749   3.929
    4ADC    C27 1236   4.686   3.853   4.015
    4ADC    O23 1237   4.608   3.871   4.112
    4ADC    C28 1238   4.798   3.946   3.994
    4ADC    C22 1239   4.489   3.425   3.828
    4ADC    H27 1240   4.387   3.464   3.819
    4ADC    C23 1241   4.520   3.333   3.705
    4ADC    H28 1242   4.618   3.288   3.718
    4ADC    O21 1243   4.425   3.226   3.695
    4ADC   H209 1244   4.458   3.171   3.621
    4ADC    C24 1245   4.517   3.413   3.571
    4ADC    H29 1246   4.414   3.443   3.553
    4ADC    O20 1247   4.561   3.326   3.464
    4ADC    C29 1248   4.551   3.343   3.329
    4ADC    O24 1249   4.623   3.269   3.258
    4ADC    C30 1250   4.457   3.436   3.264
    4ADC    O17 1251   4.508   3.358   3.955
    4ADC    C15 1252   4.400   3.275   4.005
    4ADC    H24 1253   4.381   3.195   3.934
    4ADC     O9 1254   4.276   3.346   4.020
    4ADC    C14 1255   4.275   3.448   4.124
    4ADC    H14 1256   4.353   3.521   4.104
    4ADC    C16 1257   4.140   3.522   4.113
    4ADC    O12 1258   4.132   3.585   3.985
    4ADC    C17 1259   4.032   3.664   3.938
    4ADC    O13 1260   3.930   3.689   4.007
    4ADC    C18 1261   4.042   3.723   3.804
    4ADC    C11 1262   4.301   3.383   4.263
    4ADC    H11 1263   4.221   3.311   4.283
    4ADC    C13 1264   4.437   3.307   4.257
    4ADC    H13 1265   4.518   3.380   4.246
    4ADC    O10 1266   4.462   3.234   4.377
    4ADC    H15 1267   4.553   3.199   4.368
    4ADC    C12 1268   4.443   3.207   4.138
    4ADC    H12 1269   4.372   3.126   4.160
    4ADC    O11 1270   4.576   3.154   4.129
    4ADC    C19 1271   4.622   3.045   4.060
    4ADC    C20 1272   4.534   2.935   4.011
    4ADC    O14 1273   4.745   3.036   4.045
    4ADC     O2 1274   4.298   3.490   4.362
    4ADC     C5 1275   4.276   3.454   4.500
    4ADC    H25 1276   4.355   3.388   4.534
    4ADC     O1 1277   4.152   3.384   4.524
    4ADC     C1 1278   4.032   3.461   4.502
    4ADC     H1 1279   4.030   3.499   4.398
    4ADC     C6 1280   3.911   3.365   4.516
    4ADC     O6 1281   3.920   3.269   4.410
    4ADC     C7 1282   3.827   3.173   4.380
    4ADC     O7 1283   3.723   3.159   4.447
    4ADC     C8 1284   3.852   3.083   4.266
    4ADC     C2 1285   4.025   3.583   4.599
    4ADC     H2 1286   4.021   3.546   4.702
    4ADC     O5 1287   3.904   3.656   4.567
    4ADC    C75 1288   3.852   3.752   4.661
    4ADC   H103 1289   3.927   3.828   4.681
    4ADC    C72 1290   3.729   3.825   4.598
    4ADC    H91 1291   3.702   3.909   4.663
    4ADC    O55 1292   3.762   3.875   4.468
    4ADC    C79 1293   3.844   3.980   4.435
    4ADC    C80 1294   3.884   4.085   4.531
    4ADC    O57 1295   3.881   3.988   4.316
    4ADC    C73 1296   3.606   3.730   4.592
    4ADC    H92 1297   3.627   3.648   4.523
    4ADC    O54 1298   3.495   3.804   4.542
    4ADC    H94 1299   3.521   3.829   4.451
    4ADC    C71 1300   3.576   3.671   4.734
    4ADC    H90 1301   3.550   3.754   4.800
    4ADC    C74 1302   3.705   3.606   4.792
    4ADC    H93 1303   3.731   3.517   4.733
    4ADC    C76 1304   3.688   3.561   4.939
    4ADC    O16 1305   3.814   3.518   4.993
    4ADC    C77 1306   3.847   3.396   5.043
    4ADC    O56 1307   3.767   3.301   5.042
    4ADC    C78 1308   3.981   3.378   5.100
    4ADC    O15 1309   3.817   3.698   4.789
    4ADC    O47 1310   3.470   3.571   4.733
    4ADC    C65 1311   3.334   3.617   4.738
    4ADC   H104 1312   3.314   3.676   4.648
    4ADC    O46 1313   3.314   3.696   4.856
    4ADC    C61 1314   3.183   3.758   4.867
    4ADC    H76 1315   3.166   3.822   4.779
    4ADC    C66 1316   3.183   3.850   4.991
    4ADC    O51 1317   3.293   3.942   4.982
    4ADC    C67 1318   3.329   4.038   5.077
    4ADC    O52 1319   3.260   4.050   5.181
    4ADC    C68 1320   3.447   4.129   5.065
    4ADC    C62 1321   3.073   3.648   4.871
    4ADC    H77 1322   2.974   3.695   4.866
    4ADC    O50 1323   3.077   3.574   4.993
    4ADC    H81 1324   3.169   3.536   4.997
    4ADC    C63 1325   3.089   3.552   4.750
    4ADC    H78 1326   3.064   3.606   4.658
    4ADC    O49 1327   2.996   3.443   4.761
    4ADC    H80 1328   3.009   3.390   4.681
    4ADC    C64 1329   3.234   3.497   4.738
    4ADC    H79 1330   3.253   3.434   4.826
    4ADC    O48 1331   3.246   3.420   4.618
    4ADC    C69 1332   3.343   3.331   4.581
    4ADC    O53 1333   3.362   3.317   4.457
    4ADC    C70 1334   3.420   3.245   4.673
    4ADC     C3 1335   4.156   3.668   4.579
    4ADC     H3 1336   4.152   3.716   4.481
    4ADC     O4 1337   4.164   3.771   4.678
    4ADC   H207 1338   4.244   3.822   4.654
    4ADC     C4 1339   4.284   3.581   4.591
    4ADC     H4 1340   4.293   3.550   4.695
    4ADC     O3 1341   4.398   3.663   4.555
    4ADC     C9 1342   4.531   3.640   4.575
    4ADC     O8 1343   4.610   3.710   4.508
    4ADC    C10 1344   4.585   3.544   4.674
    4ADC    O62 1345   6.429   3.569   2.245
    4ADC    C82 1346   6.558   3.513   2.282
    4ADC   H106 1347   6.560   3.486   2.389
    4ADC    C83 1348   6.677   3.608   2.251
    4ADC   H107 1349   6.673   3.638   2.146
    4ADC    O61 1350   6.671   3.727   2.329
    4ADC   H213 1351   6.743   3.785   2.296
    4ADC    C84 1352   6.813   3.538   2.280
    4ADC   H108 1353   6.820   3.524   2.388
    4ADC    O60 1354   6.920   3.626   2.237
    4ADC    C89 1355   7.054   3.619   2.266
    4ADC    O65 1356   7.130   3.686   2.194
    4ADC    C90 1357   7.110   3.544   2.381
    4ADC    C85 1358   6.821   3.400   2.210
    4ADC   H129 1359   6.906   3.347   2.254
    4ADC    O59 1360   6.846   3.418   2.069
    4ADC    C91 1361   6.860   3.299   1.986
    4ADC   H115 1362   6.788   3.222   2.016
    4ADC    C94 1363   6.827   3.340   1.839
    4ADC   H118 1364   6.895   3.419   1.808
    4ADC    C96 1365   6.684   3.396   1.821
    4ADC    O69 1366   6.665   3.437   1.684
    4ADC    C97 1367   6.554   3.496   1.633
    4ADC    O70 1368   6.451   3.516   1.703
    4ADC    C98 1369   6.551   3.536   1.492
    4ADC    O66 1370   6.841   3.225   1.752
    4ADC    C95 1371   6.973   3.168   1.746
    4ADC   H128 1372   6.964   3.077   1.687
    4ADC    O74 1373   7.071   3.255   1.686
    4ADC   C102 1374   7.045   3.304   1.551
    4ADC   H131 1375   6.939   3.328   1.538
    4ADC   C103 1376   7.087   3.201   1.442
    4ADC   H132 1377   7.192   3.171   1.459
    4ADC    O78 1378   7.008   3.083   1.447
    4ADC   H215 1379   7.048   3.023   1.381
    4ADC   C104 1380   7.074   3.262   1.300
    4ADC   H133 1381   6.968   3.276   1.280
    4ADC    O77 1382   7.128   3.169   1.204
    4ADC   C109 1383   7.112   3.164   1.068
    4ADC    O81 1384   7.191   3.090   1.005
    4ADC   C110 1385   7.004   3.234   0.996
    4ADC   C105 1386   7.146   3.399   1.291
    4ADC   H154 1387   7.112   3.447   1.199
    4ADC    O76 1388   7.289   3.380   1.284
    4ADC   C111 1389   7.374   3.497   1.272
    4ADC   H140 1390   7.340   3.576   1.339
    4ADC   C114 1391   7.516   3.453   1.318
    4ADC   H143 1392   7.549   3.369   1.257
    4ADC   C116 1393   7.522   3.406   1.465
    4ADC    O85 1394   7.654   3.358   1.496
    4ADC   C117 1395   7.695   3.305   1.614
    4ADC    O86 1396   7.617   3.297   1.713
    4ADC   C118 1397   7.833   3.257   1.628
    4ADC    O82 1398   7.610   3.562   1.303
    4ADC   C115 1399   7.626   3.612   1.169
    4ADC   H153 1400   7.690   3.699   1.175
    4ADC    O88 1401   7.686   3.516   1.078
    4ADC   C122 1402   7.815   3.462   1.113
    4ADC   H156 1403   7.821   3.442   1.220
    4ADC   C123 1404   7.933   3.555   1.071
    4ADC   H157 1405   7.922   3.580   0.964
    4ADC    O92 1406   7.932   3.677   1.144
    4ADC   H159 1407   8.002   3.732   1.104
    4ADC   C124 1408   8.070   3.486   1.092
    4ADC   H158 1409   8.087   3.475   1.200
    4ADC    O91 1410   8.174   3.568   1.034
    4ADC   C129 1411   8.285   3.623   1.090
    4ADC    O95 1412   8.347   3.707   1.020
    4ADC   C130 1413   8.339   3.586   1.222
    4ADC   C125 1414   8.073   3.346   1.027
    4ADC   H181 1415   8.074   3.355   0.918
    4ADC    O90 1416   8.194   3.280   1.071
    4ADC   C131 1417   8.227   3.151   1.013
    4ADC   H167 1418   8.218   3.158   0.904
    4ADC   C134 1419   8.141   3.032   1.063
    4ADC   H170 1420   8.044   3.040   1.016
    4ADC   C136 1421   8.115   3.031   1.217
    4ADC    O99 1422   8.014   2.934   1.249
    4ADC   C137 1423   7.963   2.912   1.373
    4ADC   O100 1424   8.006   2.973   1.475
    4ADC   C138 1425   7.854   2.814   1.390
    4ADC    O96 1426   8.192   2.905   1.015
    4ADC   C135 1427   8.331   2.878   1.044
    4ADC   H180 1428   8.344   2.863   1.152
    4ADC   O102 1429   8.364   2.754   0.982
    4ADC   H218 1430   8.302   2.688   1.019
    4ADC   C132 1431   8.424   2.989   0.993
    4ADC   H168 1432   8.421   2.989   0.884
    4ADC    O98 1433   8.558   2.965   1.040
    4ADC   C139 1434   8.677   2.977   0.976
    4ADC   C140 1435   8.691   3.023   0.836
    4ADC   O101 1436   8.780   2.951   1.042
    4ADC   C133 1437   8.377   3.127   1.045
    4ADC   H169 1438   8.393   3.132   1.154
    4ADC    O97 1439   8.458   3.230   0.986
    4ADC   H171 1440   8.428   3.312   1.028
    4ADC    O89 1441   7.959   3.269   1.070
    4ADC   C121 1442   7.831   3.326   1.039
    4ADC   H155 1443   7.822   3.341   0.931
    4ADC   C126 1444   7.724   3.220   1.079
    4ADC    O93 1445   7.750   3.098   1.008
    4ADC   C127 1446   7.681   2.982   1.019
    4ADC    O94 1447   7.584   2.971   1.097
    4ADC   C128 1448   7.720   2.866   0.937
    4ADC   C112 1449   7.490   3.661   1.111
    4ADC   H141 1450   7.456   3.747   1.168
    4ADC    O84 1451   7.503   3.696   0.972
    4ADC   C119 1452   7.565   3.805   0.918
    4ADC   C120 1453   7.587   3.931   0.991
    4ADC    O87 1454   7.599   3.796   0.798
    4ADC   C113 1455   7.380   3.550   1.126
    4ADC   H142 1456   7.403   3.467   1.058
    4ADC    O83 1457   7.257   3.607   1.085
    4ADC   H144 1458   7.268   3.630   0.991
    4ADC    O75 1459   7.105   3.487   1.398
    4ADC   C101 1460   7.127   3.434   1.531
    4ADC   H130 1461   7.234   3.413   1.546
    4ADC   C106 1462   7.092   3.547   1.632
    4ADC    O79 1463   7.178   3.659   1.610
    4ADC   C107 1464   7.179   3.775   1.683
    4ADC    O80 1465   7.099   3.793   1.777
    4ADC   C108 1466   7.277   3.879   1.651
    4ADC    C92 1467   7.021   3.124   1.888
    4ADC   H116 1468   6.959   3.041   1.922
    4ADC    O68 1469   7.158   3.083   1.885
    4ADC    C99 1470   7.214   2.970   1.833
    4ADC   C100 1471   7.138   2.847   1.803
    4ADC    O71 1472   7.338   2.970   1.817
    4ADC    C93 1473   7.004   3.240   1.990
    4ADC   H117 1474   7.076   3.320   1.968
    4ADC    O67 1475   7.035   3.189   2.120
    4ADC   H119 1476   7.129   3.160   2.115
    4ADC    O58 1477   6.705   3.320   2.238
    4ADC    C81 1478   6.579   3.381   2.201
    4ADC   H105 1479   6.578   3.405   2.094
    4ADC    C86 1480   6.468   3.275   2.223
    4ADC    O63 1481   6.493   3.161   2.141
    4ADC    C87 1482   6.413   3.051   2.131
    4ADC    O64 1483   6.306   3.042   2.198
    4ADC    C88 1484   6.450   2.942   2.041
    5ADC   O113 1485   2.647   5.637   3.781
    5ADC   C159 1486   2.611   5.711   3.876
    5ADC   C160 1487   2.466   5.738   3.896
    5ADC   O111 1488   2.708   5.757   3.959
    5ADC   C152 1489   2.705   5.869   4.051
    5ADC   H193 1490   2.614   5.863   4.111
    5ADC   C155 1491   2.706   6.003   3.973
    5ADC   H205 1492   2.603   6.017   3.936
    5ADC    O72 1493   2.731   6.115   4.060
    5ADC   C154 1494   2.854   6.107   4.136
    5ADC   H195 1495   2.939   6.093   4.069
    5ADC   C156 1496   2.875   6.246   4.203
    5ADC    O73 1497   2.754   6.298   4.258
    5ADC   C157 1498   2.739   6.419   4.318
    5ADC   O112 1499   2.837   6.494   4.340
    5ADC   C158 1500   2.606   6.464   4.362
    5ADC   C151 1501   2.848   5.985   4.233
    5ADC   H192 1502   2.763   6.000   4.300
    5ADC   C153 1503   2.826   5.856   4.148
    5ADC   H194 1504   2.917   5.837   4.089
    5ADC   O110 1505   2.802   5.743   4.230
    5ADC   H196 1506   2.796   5.667   4.168
    5ADC   O104 1507   2.972   5.982   4.308
    5ADC   C145 1508   2.979   5.901   4.427
    5ADC   H206 1509   2.966   5.796   4.400
    5ADC   O103 1510   2.876   5.933   4.523
    5ADC   C141 1511   2.885   6.066   4.579
    5ADC   H182 1512   2.882   6.140   4.500
    5ADC   C146 1513   2.758   6.088   4.665
    5ADC   O107 1514   2.642   6.082   4.581
    5ADC   C147 1515   2.513   6.102   4.619
    5ADC   O108 1516   2.484   6.124   4.739
    5ADC   C148 1517   2.406   6.098   4.519
    5ADC   C142 1518   3.018   6.081   4.658
    5ADC   H183 1519   3.017   6.008   4.740
    5ADC   C143 1520   3.137   6.049   4.563
    5ADC   H184 1521   3.143   6.129   4.487
    5ADC   O106 1522   3.261   6.049   4.633
    5ADC   H219 1523   3.329   6.038   4.564
    5ADC   C144 1524   3.120   5.913   4.492
    5ADC   H185 1525   3.130   5.834   4.568
    5ADC   O105 1526   3.224   5.897   4.393
    5ADC   C149 1527   3.263   5.786   4.324
    5ADC   O109 1528   3.332   5.806   4.222
    5ADC   C150 1529   3.236   5.648   4.369
    5ADC    O45 1530   3.021   6.217   4.710
    5ADC    C55 1531   3.108   6.244   4.823
    5ADC    H74 1532   3.211   6.225   4.795
    5ADC    O39 1533   3.080   6.161   4.937
    5ADC    C54 1534   2.951   6.182   4.999
    5ADC    H64 1535   2.872   6.166   4.926
    5ADC    C56 1536   2.933   6.072   5.108
    5ADC    O42 1537   2.935   5.943   5.044
    5ADC    C57 1538   2.916   5.824   5.106
    5ADC    O43 1539   2.900   5.815   5.229
    5ADC    C58 1540   2.915   5.700   5.024
    5ADC    C51 1541   2.942   6.327   5.054
    5ADC    H61 1542   3.022   6.340   5.129
    5ADC    C53 1543   2.965   6.426   4.936
    5ADC    H63 1544   2.881   6.417   4.866
    5ADC    O40 1545   2.971   6.561   4.981
    5ADC    H65 1546   2.976   6.616   4.899
    5ADC    C52 1547   3.099   6.395   4.860
    5ADC    H62 1548   3.181   6.420   4.928
    5ADC    O41 1549   3.105   6.478   4.743
    5ADC    C59 1550   3.211   6.504   4.661
    5ADC    C60 1551   3.353   6.482   4.699
    5ADC    O44 1552   3.185   6.554   4.549
    5ADC    O33 1553   2.812   6.343   5.115
    5ADC    C45 1554   2.796   6.447   5.214
    5ADC    H75 1555   2.816   6.544   5.169
    5ADC    O32 1556   2.886   6.435   5.325
    5ADC    C41 1557   2.867   6.319   5.409
    5ADC    H51 1558   2.873   6.228   5.348
    5ADC    C46 1559   2.983   6.313   5.510
    5ADC    O36 1560   3.106   6.299   5.439
    5ADC    C47 1561   3.230   6.286   5.495
    5ADC    O37 1562   3.246   6.290   5.619
    5ADC    C48 1563   3.347   6.269   5.408
    5ADC    C42 1564   2.724   6.325   5.474
    5ADC    H52 1565   2.719   6.414   5.536
    5ADC    C43 1566   2.618   6.333   5.361
    5ADC    H53 1567   2.618   6.240   5.305
    5ADC    O35 1568   2.487   6.352   5.413
    5ADC   H211 1569   2.428   6.347   5.335
    5ADC    C44 1570   2.648   6.451   5.264
    5ADC    H54 1571   2.631   6.545   5.318
    5ADC    O34 1572   2.556   6.445   5.153
    5ADC    C49 1573   2.528   6.539   5.058
    5ADC    O38 1574   2.468   6.498   4.955
    5ADC    C50 1575   2.557   6.682   5.072
    5ADC    O31 1576   2.709   6.205   5.555
    5ADC    C35 1577   2.612   6.207   5.662
    5ADC    H49 1578   2.514   6.224   5.621
    5ADC    O25 1579   2.635   6.314   5.757
    5ADC    C34 1580   2.756   6.303   5.835
    5ADC    H39 1581   2.843   6.297   5.769
    5ADC    C36 1582   2.771   6.433   5.916
    5ADC    O28 1583   2.783   6.544   5.826
    5ADC    C37 1584   2.803   6.674   5.860
    5ADC    O29 1585   2.810   6.710   5.981
    5ADC    C38 1586   2.818   6.776   5.755
    5ADC    C31 1587   2.752   6.173   5.921
    5ADC    H36 1588   2.665   6.181   5.989
    5ADC    C33 1589   2.732   6.051   5.826
    5ADC    H38 1590   2.822   6.039   5.765
    5ADC    O26 1591   2.714   5.931   5.900
    5ADC    H40 1592   2.712   5.859   5.833
    5ADC    C32 1593   2.609   6.070   5.734
    5ADC    H37 1594   2.519   6.065   5.797
    5ADC    O27 1595   2.606   5.962   5.638
    5ADC    C39 1596   2.505   5.922   5.555
    5ADC    C40 1597   2.363   5.957   5.575
    5ADC    O30 1598   2.537   5.845   5.461
    5ADC    O19 1599   2.876   6.167   5.997
    5ADC    C25 1600   2.878   6.087   6.118
    5ADC    H50 1601   2.856   5.984   6.093
    5ADC    O18 1602   2.778   6.128   6.215
    5ADC    C21 1603   2.798   6.259   6.272
    5ADC    H26 1604   2.801   6.334   6.193
    5ADC    C26 1605   2.674   6.290   6.359
    5ADC    O22 1606   2.558   6.294   6.274
    5ADC    C27 1607   2.430   6.323   6.313
    5ADC    O23 1608   2.403   6.348   6.433
    5ADC    C28 1609   2.323   6.325   6.213
    5ADC    C22 1610   2.932   6.262   6.351
    5ADC    H27 1611   2.927   6.188   6.431
    5ADC    C23 1612   3.048   6.225   6.252
    5ADC    H28 1613   3.058   6.304   6.178
    5ADC    O21 1614   3.173   6.214   6.320
    5ADC   H209 1615   3.238   6.198   6.249
    5ADC    C24 1616   3.020   6.089   6.181
    5ADC    H29 1617   3.027   6.010   6.256
    5ADC    O20 1618   3.121   6.068   6.080
    5ADC    C29 1619   3.153   5.954   6.011
    5ADC    O24 1620   3.224   5.969   5.909
    5ADC    C30 1621   3.116   5.818   6.054
    5ADC    O17 1622   2.947   6.396   6.406
    5ADC    C15 1623   3.034   6.414   6.520
    5ADC    H24 1624   3.135   6.385   6.492
    5ADC     O9 1625   2.999   6.332   6.633
    5ADC    C14 1626   2.873   6.366   6.698
    5ADC    H14 1627   2.792   6.360   6.625
    5ADC    C16 1628   2.845   6.258   6.804
    5ADC    O12 1629   2.832   6.132   6.739
    5ADC    C17 1630   2.803   6.012   6.797
    5ADC    O13 1631   2.785   6.002   6.921
    5ADC    C18 1632   2.790   5.891   6.714
    5ADC    C11 1633   2.879   6.511   6.754
    5ADC    H11 1634   2.959   6.516   6.828
    5ADC    C13 1635   2.913   6.608   6.636
    5ADC    H13 1636   2.828   6.610   6.566
    5ADC    O10 1637   2.933   6.741   6.682
    5ADC    H15 1638   2.943   6.796   6.600
    5ADC    C12 1639   3.041   6.564   6.559
    5ADC    H12 1640   3.126   6.579   6.627
    5ADC    O11 1641   3.056   6.647   6.443
    5ADC    C19 1642   3.165   6.665   6.362
    5ADC    C20 1643   3.304   6.630   6.402
    5ADC    O14 1644   3.145   6.720   6.252
    5ADC     O2 1645   2.750   6.540   6.816
    5ADC     C5 1646   2.743   6.647   6.913
    5ADC    H25 1647   2.771   6.740   6.865
    5ADC     O1 1648   2.833   6.630   7.025
    5ADC     C1 1649   2.803   6.521   7.113
    5ADC     H1 1650   2.803   6.426   7.057
    5ADC     C6 1651   2.917   6.510   7.217
    5ADC     O6 1652   3.037   6.476   7.146
    5ADC     C7 1653   3.158   6.447   7.200
    5ADC     O7 1654   3.177   6.450   7.324
    5ADC     C8 1655   3.271   6.412   7.112
    5ADC     C2 1656   2.662   6.539   7.179
    5ADC     H2 1657   2.664   6.630   7.240
    5ADC     O5 1658   2.639   6.423   7.262
    5ADC    C75 1659   2.536   6.426   7.363
    5ADC   H103 1660   2.440   6.447   7.315
    5ADC    C72 1661   2.523   6.286   7.429
    5ADC    H91 1662   2.433   6.285   7.492
    5ADC    O55 1663   2.511   6.183   7.330
    5ADC    C79 1664   2.405   6.156   7.248
    5ADC    C80 1665   2.268   6.204   7.274
    5ADC    O57 1666   2.427   6.082   7.149
    5ADC    C73 1667   2.644   6.259   7.523
    5ADC    H92 1668   2.736   6.252   7.464
    5ADC    O54 1669   2.624   6.133   7.588
    5ADC    H94 1670   2.623   6.067   7.515
    5ADC    C71 1671   2.659   6.375   7.628
    5ADC    H90 1672   2.570   6.376   7.689
    5ADC    C74 1673   2.665   6.511   7.553
    5ADC    H93 1674   2.758   6.518   7.495
    5ADC    C76 1675   2.662   6.632   7.650
    5ADC    O16 1676   2.649   6.755   7.576
    5ADC    C77 1677   2.734   6.860   7.573
    5ADC    O56 1678   2.843   6.859   7.635
    5ADC    C78 1679   2.696   6.979   7.496
    5ADC    O15 1680   2.552   6.527   7.463
    5ADC    O47 1681   2.779   6.363   7.709
    5ADC    C65 1682   2.773   6.278   7.825
    5ADC   H104 1683   2.753   6.175   7.792
    5ADC    O46 1684   2.667   6.323   7.913
    5ADC    C61 1685   2.643   6.238   8.029
    5ADC    H76 1686   2.618   6.137   7.994
    5ADC    C66 1687   2.519   6.293   8.103
    5ADC    O51 1688   2.409   6.303   8.011
    5ADC    C67 1689   2.282   6.352   8.039
    5ADC    O52 1690   2.255   6.389   8.156
    5ADC    C68 1691   2.171   6.365   7.939
    5ADC    C62 1692   2.771   6.232   8.117
    5ADC    H77 1693   2.757   6.158   8.196
    5ADC    O50 1694   2.797   6.357   8.180
    5ADC    H81 1695   2.805   6.422   8.107
    5ADC    C63 1696   2.894   6.190   8.031
    5ADC    H78 1697   2.881   6.085   8.000
    5ADC    O49 1698   3.013   6.196   8.109
    5ADC    H80 1699   3.084   6.166   8.050
    5ADC    C64 1700   2.908   6.277   7.903
    5ADC    H79 1701   2.931   6.380   7.935
    5ADC    O48 1702   3.014   6.226   7.822
    5ADC    C69 1703   3.080   6.284   7.718
    5ADC    O53 1704   3.128   6.208   7.630
    5ADC    C70 1705   3.107   6.429   7.705
    5ADC     C3 1706   2.556   6.554   7.064
    5ADC     H3 1707   2.546   6.459   7.013
    5ADC     O4 1708   2.428   6.589   7.117
    5ADC   H207 1709   2.369   6.591   7.040
    5ADC     C4 1710   2.596   6.666   6.963
    5ADC     H4 1711   2.588   6.761   7.014
    5ADC     O3 1712   2.504   6.662   6.852
    5ADC     C9 1713   2.482   6.754   6.754
    5ADC     O8 1714   2.419   6.715   6.653
    5ADC    C10 1715   2.522   6.896   6.763
    5ADC    O62 1716   2.796   5.999   3.861
    5ADC    C82 1717   2.800   6.116   3.775
    5ADC   H106 1718   2.789   6.208   3.834
    5ADC    C83 1719   2.692   6.114   3.663
    5ADC   H107 1720   2.700   6.020   3.607
    5ADC    O61 1721   2.560   6.119   3.717
    5ADC   H213 1722   2.500   6.107   3.642
    5ADC    C84 1723   2.709   6.234   3.566
    5ADC   H108 1724   2.685   6.325   3.621
    5ADC    O60 1725   2.615   6.220   3.457
    5ADC    C89 1726   2.576   6.312   3.364
    5ADC    O65 1727   2.517   6.268   3.262
    5ADC    C90 1728   2.591   6.459   3.381
    5ADC    C85 1729   2.855   6.244   3.514
    5ADC   H129 1730   2.866   6.342   3.468
    5ADC    O59 1731   2.878   6.143   3.413
    5ADC    C91 1732   3.009   6.138   3.350
    5ADC   H115 1733   3.089   6.157   3.423
    5ADC    C94 1734   3.029   5.994   3.294
    5ADC   H118 1735   2.949   5.972   3.223
    5ADC    C96 1736   3.023   5.884   3.402
    5ADC    O69 1737   3.035   5.754   3.341
    5ADC    C97 1738   3.029   5.634   3.405
    5ADC    O70 1739   3.015   5.627   3.530
    5ADC    C98 1740   3.039   5.510   3.328
    5ADC    O66 1741   3.158   5.984   3.228
    5ADC    C95 1742   3.176   6.071   3.115
    5ADC   H128 1743   3.280   6.060   3.085
    5ADC    O74 1744   3.090   6.039   3.003
    5ADC   C102 1745   3.097   5.904   2.950
    5ADC   H131 1746   3.108   5.830   3.029
    5ADC   C103 1747   3.215   5.886   2.848
    5ADC   H132 1748   3.208   5.965   2.771
    5ADC    O78 1749   3.341   5.900   2.912
    5ADC   H215 1750   3.407   5.896   2.839
    5ADC   C104 1751   3.210   5.748   2.779
    5ADC   H133 1752   3.232   5.673   2.855
    5ADC    O77 1753   3.310   5.743   2.677
    5ADC   C109 1754   3.363   5.635   2.612
    5ADC    O81 1755   3.430   5.658   2.508
    5ADC   C110 1756   3.353   5.495   2.661
    5ADC   C105 1757   3.068   5.719   2.720
    5ADC   H154 1758   3.065   5.613   2.697
    5ADC    O76 1759   3.050   5.795   2.599
    5ADC   C111 1760   2.925   5.780   2.527
    5ADC   H140 1761   2.840   5.779   2.596
    5ADC   C114 1762   2.911   5.905   2.435
    5ADC   H143 1763   2.999   5.912   2.370
    5ADC   C116 1764   2.904   6.039   2.513
    5ADC    O85 1765   2.902   6.149   2.421
    5ADC   C117 1766   2.900   6.281   2.453
    5ADC    O86 1767   2.896   6.319   2.573
    5ADC   C118 1768   2.902   6.382   2.347
    5ADC    O82 1769   2.792   5.896   2.354
    5ADC   C115 1770   2.786   5.782   2.265
    5ADC   H153 1771   2.688   5.782   2.220
    5ADC    O88 1772   2.887   5.785   2.161
    5ADC   C122 1773   2.890   5.900   2.073
    5ADC   H156 1774   2.871   5.991   2.129
    5ADC   C123 1775   2.787   5.889   1.956
    5ADC   H157 1776   2.802   5.792   1.905
    5ADC    O92 1777   2.653   5.891   2.004
    5ADC   H159 1778   2.598   5.873   1.925
    5ADC   C124 1779   2.806   6.003   1.854
    5ADC   H158 1780   2.776   6.097   1.902
    5ADC    O91 1781   2.723   5.978   1.738
    5ADC   C129 1782   2.624   6.053   1.681
    5ADC    O95 1783   2.554   5.996   1.594
    5ADC   C130 1784   2.600   6.195   1.712
    5ADC   C125 1785   2.953   6.016   1.809
    5ADC   H181 1786   2.981   5.930   1.746
    5ADC    O90 1787   2.966   6.137   1.733
    5ADC   C131 1788   3.092   6.165   1.667
    5ADC   H167 1789   3.125   6.076   1.613
    5ADC   C134 1790   3.208   6.209   1.763
    5ADC   H170 1791   3.241   6.121   1.815
    5ADC   C136 1792   3.165   6.312   1.872
    5ADC    O99 1793   3.270   6.326   1.969
    5ADC   C137 1794   3.263   6.402   2.082
    5ADC   O100 1795   3.163   6.475   2.107
    5ADC   C138 1796   3.375   6.401   2.177
    5ADC    O96 1797   3.324   6.253   1.689
    5ADC   C135 1798   3.302   6.357   1.591
    5ADC   H180 1799   3.277   6.451   1.641
    5ADC   O102 1800   3.426   6.379   1.523
    5ADC   H218 1801   3.490   6.404   1.593
    5ADC   C132 1802   3.193   6.319   1.489
    5ADC   H168 1803   3.229   6.235   1.429
    5ADC    O98 1804   3.163   6.432   1.406
    5ADC   C139 1805   3.141   6.439   1.272
    5ADC   C140 1806   3.142   6.322   1.182
    5ADC   O101 1807   3.116   6.552   1.225
    5ADC   C133 1808   3.063   6.276   1.563
    5ADC   H169 1809   3.019   6.363   1.612
    5ADC    O97 1810   2.968   6.229   1.467
    5ADC   H171 1811   2.888   6.211   1.518
    5ADC    O89 1812   3.040   6.022   1.925
    5ADC   C121 1813   3.033   5.910   2.013
    5ADC   H155 1814   3.057   5.817   1.958
    5ADC   C126 1815   3.144   5.929   2.119
    5ADC    O93 1816   3.271   5.941   2.053
    5ADC   C127 1817   3.391   5.963   2.112
    5ADC    O94 1818   3.402   5.978   2.236
    5ADC   C128 1819   3.512   5.971   2.029
    5ADC   C112 1820   2.798   5.649   2.345
    5ADC   H141 1821   2.710   5.638   2.409
    5ADC    O84 1822   2.808   5.537   2.256
    5ADC   C119 1823   2.710   5.481   2.178
    5ADC   C120 1824   2.566   5.494   2.207
    5ADC    O87 1825   2.748   5.412   2.081
    5ADC   C113 1826   2.923   5.651   2.439
    5ADC   H142 1827   3.014   5.647   2.379
    5ADC    O83 1828   2.918   5.534   2.519
    5ADC   H144 1829   2.925   5.459   2.457
    5ADC    O75 1830   2.965   5.743   2.819
    5ADC   C101 1831   2.963   5.875   2.875
    5ADC   H130 1832   2.950   5.949   2.796
    5ADC   C106 1833   2.838   5.886   2.966
    5ADC    O79 1834   2.721   5.866   2.887
    5ADC   C107 1835   2.591   5.872   2.933
    5ADC    O80 1836   2.566   5.894   3.053
    5ADC   C108 1837   2.481   5.853   2.838
    5ADC    C92 1838   3.156   6.220   3.156
    5ADC   H116 1839   3.237   6.250   3.223
    5ADC    O68 1840   3.157   6.306   3.040
    5ADC    C99 1841   3.262   6.343   2.961
    5ADC   C100 1842   3.404   6.333   3.001
    5ADC    O71 1843   3.233   6.393   2.850
    5ADC    C93 1844   3.022   6.240   3.232
    5ADC   H117 1845   2.938   6.225   3.164
    5ADC    O67 1846   3.018   6.374   3.279
    5ADC   H119 1847   3.020   6.430   3.199
    5ADC    O58 1848   2.950   6.239   3.622
    5ADC    C81 1849   2.941   6.122   3.706
    5ADC   H105 1850   2.954   6.031   3.647
    5ADC    C86 1851   3.059   6.127   3.806
    5ADC    O63 1852   3.183   6.127   3.735
    5ADC    C87 1853   3.307   6.125   3.790
    5ADC    O64 1854   3.323   6.124   3.915
    5ADC    C88 1855   3.426   6.122   3.704
    6NPO     C1 1856   4.531   4.885   4.714
    6NPO     C2 1857   4.513   4.851   4.850
    6NPO     C3 1858   4.386   4.811   4.896
    6NPO     C4 1859   4.274   4.805   4.809
    6NPO     C5 1860   4.295   4.840   4.673
    6NPO     C6 1861   4.422   4.879   4.626
    6NPO     O1 1862   4.653   4.921   4.670
    6NPO     N1 1863   4.152   4.767   4.853
    6NPO     O2 1864   4.131   4.737   4.964
    6NPO     O3 1865   4.051   4.760   4.777
    6NPO     H1 1866   4.592   4.854   4.915
    6NPO     H2 1867   4.376   4.787   4.994
    6NPO     H3 1868   4.218   4.837   4.605
    6NPO     H4 1869   4.435   4.904   4.528
    6NPO     H5 1870   4.655   5.018   4.682
    7NPO     C1 1871   5.051   6.308   5.791
    7NPO     C2 1872   5.022   6.349   5.923
    7NPO     C3 1873   5.081   6.281   6.031
    7NPO     C4 1874   5.170   6.172   6.011
    7NPO     C5 1875   5.196   6.133   5.877
    7NPO     C6 1876   5.138   6.200   5.769
    7NPO     O1 1877   4.995   6.373   5.687
    7NPO     N1 1878   5.227   6.108   6.115
    7NPO     O2 1879   5.208   6.137   6.227
    7NPO     O3 1880   5.307   6.009   6.100
    7NPO     H1 1881   4.959   6.427   5.940
    7NPO     H2 1882   5.060   6.314   6.125
    7NPO     H3 1883   5.259   6.055   5.857
    7NPO     H4 1884   5.158   6.170   5.673
    7NPO     H5 1885   4.911   6.326   5.671
    8NPO     C1 1886   8.012   3.699   6.145
    8NPO     C2 1887   7.973   3.712   6.280
    8NPO     C3 1888   7.888   3.817   6.319
    8NPO     C4 1889   7.838   3.911   6.224
    8NPO     C5 1890   7.879   3.895   6.089
    8NPO     C6 1891   7.964   3.791   6.050
    8NPO     O1 1892   8.093   3.598   6.108
    8NPO     N1 1893   7.756   4.011   6.261
    8NPO     O2 1894   7.720   4.027   6.371
    8NPO     O3 1895   7.711   4.097   6.178
    8NPO     H1 1896   8.007   3.646   6.350
    8NPO     H2 1897   7.861   3.824   6.417
    8NPO     H3 1898   7.847   3.960   6.017
    8NPO     H4 1899   7.993   3.781   5.952
    8NPO     H5 1900   8.184   3.634   6.118
    9NPO     C1 1901   5.989   0.698   6.536
    9NPO     C2 1902   5.942   0.645   6.414
    9NPO     C3 1903   6.023   0.654   6.299
    9NPO     C4 1904   6.151   0.715   6.302
    9NPO     C5 1905   6.195   0.767   6.427
    9NPO     C6 1906   6.116   0.758   6.542
    9NPO     O1 1907   5.913   0.688   6.647
    9NPO     N1 1908   6.229   0.723   6.192
    9NPO     O2 1909   6.195   0.681   6.088
    9NPO     O3 1910   6.343   0.777   6.193
    9NPO     H1 1911   5.851   0.600   6.409
    9NPO     H2 1912   5.986   0.615   6.212
    9NPO     H3 1913   6.287   0.812   6.435
    9NPO     H4 1914   6.149   0.797   6.631
    9NPO     H5 1915   5.859   0.770   6.646
   10NPO     C1 1916   1.460   5.556   2.114
   10NPO     C2 1917   1.326   5.557   2.070
   10NPO     C3 1918   1.262   5.435   2.038
   10NPO     C4 1919   1.331   5.311   2.049
   10NPO     C5 1920   1.465   5.314   2.093
   10NPO     C6 1921   1.529   5.435   2.126
   10NPO     O1 1922   1.519   5.673   2.146
   10NPO     N1 1923   1.270   5.194   2.019
   10NPO     O2 1924   1.159   5.187   1.983
   10NPO     O3 1925   1.329   5.082   2.028
   10NPO     H1 1926   1.274   5.645   2.062
   10NPO     H2 1927   1.165   5.438   2.007
   10NPO     H3 1928   1.520   5.228   2.103
   10NPO     H4 1929   1.627   5.436   2.157
   10NPO     H5 1930   1.560   5.704   2.062
   11NPO     C1 1931   4.521   3.549   2.830
   11NPO     C2 1932   4.487   3.575   2.696
   11NPO     C3 1933   4.559   3.510   2.593
   11NPO     C4 1934   4.664   3.419   2.621
   11NPO     C5 1935   4.695   3.396   2.758
   11NPO     C6 1936   4.624   3.460   2.861
   11NPO     O1 1937   4.451   3.610   2.928
   11NPO     N1 1938   4.732   3.357   2.523
   11NPO     O2 1939   4.709   3.373   2.409
   11NPO     O3 1940   4.827   3.275   2.546
   11NPO     H1 1941   4.412   3.639   2.672
   11NPO     H2 1942   4.532   3.530   2.496
   11NPO     H3 1943   4.771   3.332   2.784
   11NPO     H4 1944   4.649   3.442   2.959
   11NPO     H5 1945   4.500   3.694   2.945
   12NPO     C1 1946   2.498   4.980   2.712
   12NPO     C2 1947   2.429   5.015   2.830
   12NPO     C3 1948   2.296   4.969   2.849
   12NPO     C4 1949   2.231   4.889   2.752
   12NPO     C5 1950   2.304   4.856   2.634
   12NPO     C6 1951   2.435   4.901   2.615
   12NPO     O1 1952   2.625   5.022   2.694
   12NPO     N1 1953   2.105   4.845   2.770
   12NPO     O2 1954   2.042   4.870   2.866
   12NPO     O3 1955   2.044   4.773   2.685
   12NPO     H1 1956   2.473   5.072   2.901
   12NPO     H2 1957   2.249   4.995   2.935
   12NPO     H3 1958   2.261   4.798   2.561
   12NPO     H4 1959   2.486   4.876   2.529
   12NPO     H5 1960   2.616   5.109   2.649
   13NPO     C1 1961   0.606   7.753   6.126
   13NPO     C2 1962   0.554   7.792   6.251
   13NPO     C3 1963   0.625   7.758   6.369
   13NPO     C4 1964   0.747   7.686   6.364
   13NPO     C5 1965   0.795   7.649   6.236
   13NPO     C6 1966   0.726   7.682   6.118
   13NPO     O1 1967   0.539   7.787   6.013
   13NPO     N1 1968   0.815   7.655   6.476
   13NPO     O2 1969   0.778   7.684   6.583
   13NPO     O3 1970   0.924   7.590   6.474
   13NPO     H1 1971   0.467   7.844   6.258
   13NPO     H2 1972   0.586   7.788   6.458
   13NPO     H3 1973   0.883   7.596   6.226
   13NPO     H4 1974   0.762   7.654   6.027
   13NPO     H5 1975   0.477   7.711   5.998
   14NPO     C1 1976   8.393   6.594   2.901
   14NPO     C2 1977   8.365   6.522   3.019
   14NPO     C3 1978   8.470   6.457   3.088
   14NPO     C4 1979   8.603   6.462   3.040
   14NPO     C5 1980   8.628   6.535   2.921
   14NPO     C6 1981   8.524   6.600   2.853
   14NPO     O1 1982   8.292   6.657   2.837
   14NPO     N1 1983   8.704   6.401   3.106
   14NPO     O2 1984   8.688   6.340   3.205
   14NPO     O3 1985   8.825   6.404   3.065
   14NPO     H1 1986   8.270   6.517   3.056
   14NPO     H2 1987   8.447   6.407   3.173
   14NPO     H3 1988   8.723   6.542   2.882
   14NPO     H4 1989   8.543   6.652   2.766
   14NPO     H5 1990   8.258   6.590   2.774
   15NPO     C1 1991   1.900   5.775   2.559
   15NPO     C2 1992   1.931   5.736   2.691
   15NPO     C3 1993   1.861   5.794   2.799
   15NPO     C4 1994   1.759   5.891   2.778
   15NPO     C5 1995   1.731   5.928   2.644
   15NPO     C6 1996   1.800   5.870   2.536
   15NPO     O1 1997   1.966   5.718   2.456
   15NPO     N1 1998   1.692   5.946   2.881
   15NPO     O2 1999   1.712   5.918   2.993
   15NPO     O3 2000   1.601   6.033   2.865
   15NPO     H1 2001   2.003   5.666   2.710
   15NPO     H2 2002   1.885   5.763   2.893
   15NPO     H3 2003   1.659   5.998   2.623
   15NPO     H4 2004   1.779   5.899   2.440
   15NPO     H5 2005   2.044   5.776   2.442
   16SOL     OW 2006   0.019   0.368   0.647
   16SOL    HW1 2007  -0.063   0.411   0.686
   16SOL    HW2 2008  -0.009   0.295   0.584
   17SOL     OW 2009   0.569   1.275   1.165
   17SOL    HW1 2010   0.476   1.268   1.128
   17SOL    HW2 2011   0.580   1.364   1.209
   18SOL     OW 2012   1.555   1.511   0.703
   18SOL    HW1 2013   1.498   1.495   0.784
   18SOL    HW2 2014   1.496   1.521   0.623
   19SOL     OW 2015   1.743   0.618   0.856
   19SOL    HW1 2016   1.776   0.712   0.856
   19SOL    HW2 2017   1.794   0.564   0.922
   20SOL     OW 2018   1.135   0.703   0.717
   20SOL    HW1 2019   1.192   0.781   0.692
   20SOL    HW2 2020   1.075   0.729   0.793
   21SOL     OW 2021   1.755   0.607   0.231
   21SOL    HW1 2022   1.743   0.594   0.132
   21SOL    HW2 2023   1.725   0.526   0.280
   22SOL     OW 2024   0.768   1.144   1.023
   22SOL    HW1 2025   0.690   1.161   1.083
   22SOL    HW2 2026   0.802   1.231   0.987
   23SOL     OW 2027   0.850   0.798   1.823
   23SOL    HW1 2028   0.846   0.874   1.888
   23SOL    HW2 2029   0.872   0.834   1.732
   24SOL     OW 2030   0.685   1.012   0.665
   24SOL    HW1 2031   0.754   0.996   0.735
   24SOL    HW2 2032   0.612   1.069   0.703
   25SOL     OW 2033   0.686   1.161   1.803
   25SOL    HW1 2034   0.746   1.240   1.817
   25SOL    HW2 2035   0.600   1.192   1.762
   26SOL     OW 2036   0.335   1.435   1.061
   26SOL    HW1 2037   0.257   1.404   1.008
   26SOL    HW2 2038   0.393   1.493   1.004
   27SOL     OW 2039   1.460   1.505   1.339
   27SOL    HW1 2040   1.484   1.599   1.365
   27SOL    HW2 2041   1.444   1.451   1.421
   28SOL     OW 2042   0.438   0.392   1.499
   28SOL    HW1 2043   0.520   0.336   1.508
   28SOL    HW2 2044   0.357   0.334   1.503
   29SOL     OW 2045   1.603   0.447   0.737
   29SOL    HW1 2046   1.529   0.493   0.687
   29SOL    HW2 2047   1.654   0.515   0.790
   30SOL     OW 2048   1.127   1.341   1.690
   30SOL    HW1 2049   1.174   1.341   1.778
   30SOL    HW2 2050   1.079   1.254   1.679
   31SOL     OW 2051   0.620   1.786   1.439
   31SOL    HW1 2052   0.528   1.769   1.474
   31SOL    HW2 2053   0.648   1.878   1.465
   32SOL     OW 2054   0.606   0.964   0.123
   32SOL    HW1 2055   0.613   1.048   0.069
   32SOL    HW2 2056   0.652   0.977   0.211
   33SOL     OW 2057   1.594   0.114   1.480
   33SOL    HW1 2058   1.576   0.181   1.408
   33SOL    HW2 2059   1.591   0.160   1.569
   34SOL     OW 2060   1.842   1.767   0.359
   34SOL    HW1 2061   1.896   1.738   0.439
   34SOL    HW2 2062   1.872   1.857   0.330
   35SOL     OW 2063   1.689   0.922   0.612
   35SOL    HW1 2064   1.784   0.893   0.620
   35SOL    HW2 2065   1.681   0.987   0.537
   36SOL     OW 2066   1.641   1.108   0.432
   36SOL    HW1 2067   1.727   1.110   0.380
   36SOL    HW2 2068   1.655   1.155   0.520
   37SOL     OW 2069   0.613   1.365   0.726
   37SOL    HW1 2070   0.564   1.278   0.735
   37SOL    HW2 2071   0.590   1.408   0.639
   38SOL     OW 2072   1.293   1.228   1.423
   38SOL    HW1 2073   1.330   1.155   1.365
   38SOL    HW2 2074   1.345   1.233   1.508
   39SOL     OW 2075   0.809   0.004   0.502
   39SOL    HW1 2076   0.849   0.095   0.493
   39SOL    HW2 2077   0.709   0.012   0.508
   40SOL     OW 2078   1.525   0.999   0.190
   40SOL    HW1 2079   1.462   0.923   0.203
   40SOL    HW2 2080   1.573   1.017   0.276
   41SOL     OW 2081   1.187   1.792   1.616
   41SOL    HW1 2082   1.211   1.852   1.540
   41SOL    HW2 2083   1.194   1.697   1.586
   42SOL     OW 2084   0.317   0.251   1.801
   42SOL    HW1 2085   0.388   0.322   1.807
   42SOL    HW2 2086   0.229   0.290   1.829
   43SOL     OW 2087   1.466   1.417   0.953
   43SOL    HW1 2088   1.407   1.423   1.033
   43SOL    HW2 2089   1.451   1.329   0.907
   44SOL     OW 2090   1.667   1.714   0.572
   44SOL    HW1 2091   1.626   1.691   0.484
   44SOL    HW2 2092   1.649   1.640   0.637
   45SOL     OW 2093   0.598   0.729   0.270
   45SOL    HW1 2094   0.622   0.798   0.202
   45SOL    HW2 2095   0.520   0.762   0.324
   46SOL     OW 2096   1.281   0.345   0.944
   46SOL    HW1 2097   1.195   0.295   0.931
   46SOL    HW2 2098   1.343   0.291   1.000
   47SOL     OW 2099   1.576   1.662   0.307
   47SOL    HW1 2100   1.665   1.708   0.310
   47SOL    HW2 2101   1.555   1.638   0.212
   48SOL     OW 2102   0.807   0.605   1.465
   48SOL    HW1 2103   0.760   0.602   1.554
   48SOL    HW2 2104   0.756   0.550   1.399
   49SOL     OW 2105   1.394   0.469   1.674
   49SOL    HW1 2106   1.374   0.512   1.762
   49SOL    HW2 2107   1.472   0.407   1.683
   50SOL     OW 2108   0.973   0.890   1.572
   50SOL    HW1 2109   1.019   0.806   1.543
   50SOL    HW2 2110   0.917   0.924   1.497
   51SOL     OW 2111   0.991   0.410   1.242
   51SOL    HW1 2112   0.914   0.444   1.296
   51SOL    HW2 2113   0.957   0.359   1.163
   52SOL     OW 2114   1.041   0.701   0.429
   52SOL    HW1 2115   1.067   0.697   0.525
   52SOL    HW2 2116   0.956   0.650   0.415
   53SOL     OW 2117   0.865   0.348   0.195
   53SOL    HW1 2118   0.924   0.411   0.146
   53SOL    HW2 2119   0.884   0.254   0.166
   54SOL     OW 2120   1.719   0.585   1.831
   54SOL    HW1 2121   1.693   0.674   1.795
   54SOL    HW2 2122   1.717   0.517   1.758
   55SOL     OW 2123   1.362   1.144   0.545
   55SOL    HW1 2124   1.445   1.115   0.497
   55SOL    HW2 2125   1.313   1.211   0.489
   56SOL     OW 2126   0.550   0.196   0.885
   56SOL    HW1 2127   0.545   0.191   0.985
   56SOL    HW2 2128   0.552   0.292   0.856
   57SOL     OW 2129   1.008   1.456   0.477
   57SOL    HW1 2130   0.962   1.528   0.425
   57SOL    HW2 2131   1.004   1.476   0.575
   58SOL     OW 2132   0.351   1.801   0.853
   58SOL    HW1 2133   0.401   1.715   0.859
   58SOL    HW2 2134   0.416   1.878   0.850
   59SOL     OW 2135   1.795   1.066   0.873
   59SOL    HW1 2136   1.733   1.051   0.797
   59SOL    HW2 2137   1.743   1.077   0.958
   60SOL     OW 2138   1.227   1.550   1.506
   60SOL    HW1 2139   1.233   1.473   1.570
   60SOL    HW2 2140   1.175   1.524   1.426
   61SOL     OW 2141   0.321   0.943   0.242
   61SOL    HW1 2142   0.403   0.982   0.200
   61SOL    HW2 2143   0.294   0.861   0.193
   62SOL     OW 2144   1.458   0.735   0.728
   62SOL    HW1 2145   1.453   0.670   0.803
   62SOL    HW2 2146   1.538   0.794   0.741
   63SOL     OW 2147   0.461   1.266   1.727
   63SOL    HW1 2148   0.411   1.267   1.641
   63SOL    HW2 2149   0.398   1.248   1.803
   64SOL     OW 2150   1.111   1.776   0.237
   64SOL    HW1 2151   1.051   1.714   0.287
   64SOL    HW2 2152   1.142   1.732   0.152
   65SOL     OW 2153   1.632   1.377   0.081
   65SOL    HW1 2154   1.600   1.471   0.071
   65SOL    HW2 2155   1.556   1.314   0.069
   66SOL     OW 2156   0.464   1.743   0.323
   66SOL    HW1 2157   0.497   1.782   0.409
   66SOL    HW2 2158   0.540   1.736   0.258
   67SOL     OW 2159   1.400   0.107   0.426
   67SOL    HW1 2160   1.376   0.070   0.336
   67SOL    HW2 2161   1.499   0.123   0.430
   68SOL     OW 2162   0.940   1.698   0.904
   68SOL    HW1 2163   1.020   1.641   0.925
   68SOL    HW2 2164   0.891   1.658   0.827
   69SOL     OW 2165   0.382   0.700   0.480
   69SOL    HW1 2166   0.427   0.610   0.477
   69SOL    HW2 2167   0.288   0.689   0.513
   70SOL     OW 2168   1.547   0.222   1.729
   70SOL    HW1 2169   1.542   0.259   1.821
   70SOL    HW2 2170   1.475   0.153   1.717
   71SOL     OW 2171   0.614   0.122   0.117
   71SOL    HW1 2172   0.712   0.100   0.124
   71SOL    HW2 2173   0.583   0.105   0.024
   72SOL     OW 2174   0.781   0.264   1.749
   72SOL    HW1 2175   0.848   0.203   1.792
   72SOL    HW2 2176   0.708   0.283   1.814
   73SOL     OW 2177   0.888   1.514   1.195
   73SOL    HW1 2178   0.865   1.489   1.101
   73SOL    HW2 2179   0.949   1.445   1.234
   74SOL     OW 2180   1.351   0.590   1.433
   74SOL    HW1 2181   1.379   0.547   1.518
   74SOL    HW2 2182   1.376   0.686   1.434
   75SOL     OW 2183   0.803   1.402   0.924
   75SOL    HW1 2184   0.893   1.416   0.882
   75SOL    HW2 2185   0.732   1.404   0.853
   76SOL     OW 2186   0.922   0.503   0.899
   76SOL    HW1 2187   0.897   0.494   0.803
   76SOL    HW2 2188   0.970   0.421   0.930
   77SOL     OW 2189   0.539   0.064   0.512
   77SOL    HW1 2190   0.458   0.065   0.570
   77SOL    HW2 2191   0.542   0.147   0.457
   78SOL     OW 2192   1.434   1.188   0.041
   78SOL    HW1 2193   1.466   1.112   0.098
   78SOL    HW2 2194   1.342   1.215   0.071
   79SOL     OW 2195   0.297   0.035   0.171
   79SOL    HW1 2196   0.346   0.119   0.150
   79SOL    HW2 2197   0.359  -0.030   0.216
   80SOL     OW 2198   0.935   0.236   0.480
   80SOL    HW1 2199   0.887   0.277   0.402
   80SOL    HW2 2200   1.034   0.234   0.461
   81SOL     OW 2201   1.076   0.683   1.464
   81SOL    HW1 2202   0.996   0.622   1.467
   81SOL    HW2 2203   1.157   0.630   1.440
   82SOL     OW 2204   1.227   1.570   0.793
   82SOL    HW1 2205   1.248   1.644   0.728
   82SOL    HW2 2206   1.295   1.570   0.866
   83SOL     OW 2207   0.459   1.152   0.741
   83SOL    HW1 2208   0.388   1.125   0.806
   83SOL    HW2 2209   0.433   1.124   0.648
   84SOL     OW 2210   1.271   1.797   0.591
   84SOL    HW1 2211   1.315   1.861   0.527
   84SOL    HW2 2212   1.221   1.849   0.661
   85SOL     OW 2213   1.032   0.549   0.016
   85SOL    HW1 2214   0.991   0.631  -0.023
   85SOL    HW2 2215   1.096   0.575   0.089
   86SOL     OW 2216   0.561   0.222   1.147
   86SOL    HW1 2217   0.599   0.138   1.184
   86SOL    HW2 2218   0.473   0.241   1.191
   87SOL     OW 2219   0.866   0.454   0.642
   87SOL    HW1 2220   0.834   0.526   0.580
   87SOL    HW2 2221   0.890   0.373   0.589
   88SOL     OW 2222   1.017   0.039   0.753
   88SOL    HW1 2223   0.945   0.044   0.684
   88SOL    HW2 2224   0.993  -0.030   0.822
   89SOL     OW 2225   1.429   1.173   0.867
   89SOL    HW1 2226   1.374   1.089   0.860
   89SOL    HW2 2227   1.455   1.202   0.775
   90SOL     OW 2228   1.466   0.590   0.992
   90SOL    HW1 2229   1.436   0.495   0.999
   90SOL    HW2 2230   1.539   0.606   1.058
   91SOL     OW 2231   1.857   0.833   0.377
   91SOL    HW1 2232   1.899   0.769   0.441
   91SOL    HW2 2233   1.819   0.782   0.299
   92SOL     OW 2234   0.488   1.385   0.174
   92SOL    HW1 2235   0.401   1.370   0.221
   92SOL    HW2 2236   0.471   1.411   0.079
   93SOL     OW 2237   1.664   1.280   0.657
   93SOL    HW1 2238   1.763   1.288   0.671
   93SOL    HW2 2239   1.619   1.364   0.688
   94SOL     OW 2240   1.390   0.575   0.078
   94SOL    HW1 2241   1.336   0.554   0.159
   94SOL    HW2 2242   1.481   0.534   0.087
   95SOL     OW 2243   0.527   0.256   0.328
   95SOL    HW1 2244   0.554   0.197   0.253
   95SOL    HW2 2245   0.527   0.351   0.297
   96SOL     OW 2246   1.754   1.223   1.588
   96SOL    HW1 2247   1.845   1.184   1.575
   96SOL    HW2 2248   1.762   1.319   1.612
   97SOL     OW 2249   1.064   1.347   1.340
   97SOL    HW1 2250   0.984   1.324   1.395
   97SOL    HW2 2251   1.147   1.321   1.389
   98SOL     OW 2252   1.592   1.629   1.625
   98SOL    HW1 2253   1.619   1.663   1.535
   98SOL    HW2 2254   1.671   1.591   1.671
   99SOL     OW 2255   1.111   1.195   1.100
   99SOL    HW1 2256   1.071   1.239   1.181
   99SOL    HW2 2257   1.070   1.232   1.017
  100SOL     OW 2258   1.638   1.099   1.079
  100SOL    HW1 2259   1.643   1.180   1.138
  100SOL    HW2 2260   1.552   1.101   1.028
  101SOL     OW 2261   0.915   0.089   1.402
  101SOL    HW1 2262   0.940   0.069   1.307
  101SOL    HW2 2263   0.987   0.145   1.444
  102SOL     OW 2264   0.980   1.116   1.719
  102SOL    HW1 2265   0.881   1.122   1.729
  102SOL    HW2 2266   1.003   1.036   1.663
  103SOL     OW 2267   0.705   1.050   0.368
  103SOL    HW1 2268   0.691   1.057   0.467
  103SOL    HW2 2269   0.789   0.999   0.350
  104SOL     OW 2270   0.410   0.813   1.251
  104SOL    HW1 2271   0.496   0.825   1.301
  104SOL    HW2 2272   0.368   0.726   1.278
  105SOL     OW 2273   1.274   0.386   1.262
  105SOL    HW1 2274   1.295   0.460   1.326
  105SOL    HW2 2275   1.185   0.403   1.219
  106SOL     OW 2276   0.367   1.100   0.501
  106SOL    HW1 2277   0.360   1.183   0.445
  106SOL    HW2 2278   0.371   1.020   0.441
  107SOL     OW 2279   0.566   0.537   0.865
  107SOL    HW1 2280   0.578   0.603   0.791
  107SOL    HW2 2281   0.612   0.571   0.948
  108SOL     OW 2282   1.252   1.348   0.388
  108SOL    HW1 2283   1.302   1.425   0.428
  108SOL    HW2 2284   1.157   1.350   0.420
  109SOL     OW 2285   1.272   1.445   1.142
  109SOL    HW1 2286   1.319   1.458   1.229
  109SOL    HW2 2287   1.206   1.371   1.151
  110SOL     OW 2288   1.582   0.639   0.472
  110SOL    HW1 2289   1.551   0.700   0.545
  110SOL    HW2 2290   1.632   0.691   0.403
  111SOL     OW 2291   0.354   1.510   1.329
  111SOL    HW1 2292   0.333   1.466   1.242
  111SOL    HW2 2293   0.451   1.536   1.332
  112SOL     OW 2294   0.402   0.751   1.598
  112SOL    HW1 2295   0.470   0.806   1.551
  112SOL    HW2 2296   0.442   0.663   1.625
  113SOL     OW 2297   1.587   0.779   1.670
  113SOL    HW1 2298   1.495   0.817   1.665
  113SOL    HW2 2299   1.647   0.826   1.605
  114SOL     OW 2300   1.013   0.105   1.770
  114SOL    HW1 2301   1.019   0.190   1.718
  114SOL    HW2 2302   1.045   0.029   1.713
  115SOL     OW 2303   0.504   0.050   1.740
  115SOL    HW1 2304   0.462  -0.007   1.670
  115SOL    HW2 2305   0.438   0.119   1.772
  116SOL     OW 2306   0.573   0.870   1.029
  116SOL    HW1 2307   0.617   0.959   1.020
  116SOL    HW2 2308   0.510   0.870   1.106
  117SOL     OW 2309   1.360   0.862   1.045
  117SOL    HW1 2310   1.285   0.862   0.979
  117SOL    HW2 2311   1.397   0.770   1.054
  118SOL     OW 2312   1.209   0.525   0.275
  118SOL    HW1 2313   1.222   0.441   0.329
  118SOL    HW2 2314   1.180   0.599   0.335
  119SOL     OW 2315   0.732   0.634   1.064
  119SOL    HW1 2316   0.791   0.608   0.988
  119SOL    HW2 2317   0.704   0.730   1.053
  120SOL     OW 2318   1.728   0.935   1.854
  120SOL    HW1 2319   1.682   0.928   1.765
  120SOL    HW2 2320   1.666   0.979   1.920
  121SOL     OW 2321   0.307   0.063   0.618
  121SOL    HW1 2322   0.296   0.157   0.651
  121SOL    HW2 2323   0.302   0.000   0.695
  122SOL     OW 2324   1.622   0.367   0.374
  122SOL    HW1 2325   1.624   0.291   0.438
  122SOL    HW2 2326   1.574   0.444   0.414
  123SOL     OW 2327   1.023   0.766   0.966
  123SOL    HW1 2328   1.038   0.787   1.062
  123SOL    HW2 2329   0.993   0.671   0.957
  124SOL     OW 2330   0.980   1.573   1.700
  124SOL    HW1 2331   0.960   1.617   1.612
  124SOL    HW2 2332   1.019   1.482   1.684
  125SOL     OW 2333   1.859   1.518   1.605
  125SOL    HW1 2334   1.873   1.545   1.510
  125SOL    HW2 2335   1.942   1.540   1.658
  126SOL     OW 2336   0.350   0.898   1.804
  126SOL    HW1 2337   0.426   0.942   1.852
  126SOL    HW2 2338   0.385   0.851   1.722
  127SOL     OW 2339   1.540   0.274   0.125
  127SOL    HW1 2340   1.479   0.199   0.148
  127SOL    HW2 2341   1.562   0.326   0.208
  128SOL     OW 2342   1.303   0.838   0.042
  128SOL    HW1 2343   1.337   0.745   0.057
  128SOL    HW2 2344   1.321   0.865  -0.053
  129SOL     OW 2345   1.068   1.333   0.849
  129SOL    HW1 2346   1.075   1.249   0.794
  129SOL    HW2 2347   1.130   1.402   0.813
  130SOL     OW 2348   0.319   0.810   0.949
  130SOL    HW1 2349   0.412   0.846   0.954
  130SOL    HW2 2350   0.313   0.725   1.001
  131SOL     OW 2351   1.138   0.380   1.678
  131SOL    HW1 2352   1.093   0.443   1.742
  131SOL    HW2 2353   1.231   0.411   1.661
  132SOL     OW 2354   1.160   0.207   1.477
  132SOL    HW1 2355   1.160   0.271   1.554
  132SOL    HW2 2356   1.188   0.255   1.394
  133SOL     OW 2357   0.504   1.568   0.910
  133SOL    HW1 2358   0.570   1.642   0.919
  133SOL    HW2 2359   0.548   1.489   0.868
  134SOL     OW 2360   1.002   0.796   1.238
  134SOL    HW1 2361   1.043   0.764   1.324
  134SOL    HW2 2362   0.906   0.769   1.235
  135SOL     OW 2363   1.369   0.950   1.660
  135SOL    HW1 2364   1.408   1.039   1.680
  135SOL    HW2 2365   1.379   0.930   1.563
  136SOL     OW 2366   0.815   0.572   0.325
  136SOL    HW1 2367   0.822   0.483   0.279
  136SOL    HW2 2368   0.721   0.606   0.317
  137SOL     OW 2369   1.657   0.604   1.206
  137SOL    HW1 2370   1.619   0.535   1.268
  137SOL    HW2 2371   1.739   0.568   1.162
  138SOL     OW 2372   0.671   0.464   1.269
  138SOL    HW1 2373   0.637   0.375   1.239
  138SOL    HW2 2374   0.697   0.518   1.189
  139SOL     OW 2375   0.930   1.678   1.465
  139SOL    HW1 2376   0.906   1.660   1.370
  139SOL    HW2 2377   0.960   1.772   1.475
  140SOL     OW 2378   0.473   0.500   0.191
  140SOL    HW1 2379   0.534   0.580   0.195
  140SOL    HW2 2380   0.378   0.531   0.198
  141SOL     OW 2381   1.347   1.059   1.234
  141SOL    HW1 2382   1.371   0.996   1.160
  141SOL    HW2 2383   1.257   1.099   1.216
  142SOL     OW 2384   1.302   0.855   0.309
  142SOL    HW1 2385   1.216   0.824   0.351
  142SOL    HW2 2386   1.298   0.841   0.210
  143SOL     OW 2387   1.759   1.747   1.154
  143SOL    HW1 2388   1.820   1.777   1.081
  143SOL    HW2 2389   1.721   1.658   1.132
  144SOL     OW 2390   1.252   1.731   1.128
  144SOL    HW1 2391   1.336   1.736   1.074
  144SOL    HW2 2392   1.229   1.635   1.146
  145SOL     OW 2393   0.688   1.662   1.716
  145SOL    HW1 2394   0.632   1.743   1.725
  145SOL    HW2 2395   0.740   1.666   1.630
  146SOL     OW 2396   0.903   0.086   0.133
  146SOL    HW1 2397   0.954   0.087   0.047
  146SOL    HW2 2398   0.959   0.044   0.204
  147SOL     OW 2399   1.726   0.135   0.523
  147SOL    HW1 2400   1.799   0.118   0.456
  147SOL    HW2 2401   1.695   0.048   0.561
  148SOL     OW 2402   1.388   1.573   0.477
  148SOL    HW1 2403   1.455   1.585   0.403
  148SOL    HW2 2404   1.348   1.662   0.500
  149SOL     OW 2405   0.130   1.794   1.851
  149SOL    HW1 2406   0.089   1.720   1.904
  149SOL    HW2 2407   0.194   1.845   1.909
  150SOL     OW 2408   1.280   0.927   0.672
  150SOL    HW1 2409   1.340   0.846   0.674
  150SOL    HW2 2410   1.320   0.996   0.612
  151SOL     OW 2411   0.830   1.273   1.422
  151SOL    HW1 2412   0.825   1.306   1.517
  151SOL    HW2 2413   0.744   1.292   1.376
  152SOL     OW 2414   0.672   1.616   0.154
  152SOL    HW1 2415   0.681   1.626   0.055
  152SOL    HW2 2416   0.632   1.527   0.175
  153SOL     OW 2417   1.650   1.720   1.394
  153SOL    HW1 2418   1.703   1.730   1.310
  153SOL    HW2 2419   1.623   1.810   1.428
  154SOL     OW 2420   1.841   0.175   0.963
  154SOL    HW1 2421   1.880   0.090   0.927
  154SOL    HW2 2422   1.743   0.177   0.944
  155SOL     OW 2423   0.263   0.326   0.720
  155SOL    HW1 2424   0.184   0.377   0.686
  155SOL    HW2 2425   0.254   0.311   0.818
  156SOL     OW 2426   1.194   1.612   0.031
  156SOL    HW1 2427   1.200   1.519   0.068
  156SOL    HW2 2428   1.135   1.612  -0.049
  157SOL     OW 2429   0.822   1.002   1.372
  157SOL    HW1 2430   0.862   1.001   1.280
  157SOL    HW2 2431   0.832   1.094   1.412
  158SOL     OW 2432   0.916   0.910   0.291
  158SOL    HW1 2433   0.979   0.948   0.223
  158SOL    HW2 2434   0.956   0.827   0.330
  159SOL     OW 2435   1.504   1.607   0.044
  159SOL    HW1 2436   1.412   1.644   0.051
  159SOL    HW2 2437   1.542   1.627  -0.046
  160SOL     OW 2438   0.372   1.288   1.490
  160SOL    HW1 2439   0.359   1.381   1.456
  160SOL    HW2 2440   0.288   1.236   1.477
  161SOL     OW 2441   1.614   1.292   1.289
  161SOL    HW1 2442   1.674   1.295   1.369
  161SOL    HW2 2443   1.539   1.356   1.302
  162SOL     OW 2444   1.039   1.098   0.696
  162SOL    HW1 2445   0.969   1.051   0.750
  162SOL    HW2 2446   1.098   1.030   0.653
  163SOL     OW 2447   1.014   0.236   0.971
  163SOL    HW1 2448   1.006   0.200   0.878
  163SOL    HW2 2449   1.012   0.160   1.036
  164SOL     OW 2450   0.590   1.487   0.491
  164SOL    HW1 2451   0.632   1.429   0.421
  164SOL    HW2 2452   0.546   1.566   0.447
  165SOL     OW 2453   1.709   0.385   1.381
  165SOL    HW1 2454   1.782   0.454   1.385
  165SOL    HW2 2455   1.737   0.310   1.322
  166SOL     OW 2456   0.255   1.348   0.290
  166SOL    HW1 2457   0.159   1.349   0.263
  166SOL    HW2 2458   0.267   1.401   0.374
  167SOL     OW 2459   0.672   0.203   1.489
  167SOL    HW1 2460   0.762   0.187   1.449
  167SOL    HW2 2461   0.680   0.208   1.588
  168SOL     OW 2462   1.440   0.856   1.398
  168SOL    HW1 2463   1.383   0.908   1.335
  168SOL    HW2 2464   1.536   0.868   1.374
  169SOL     OW 2465   1.183   1.335   0.119
  169SOL    HW1 2466   1.084   1.324   0.121
  169SOL    HW2 2467   1.217   1.350   0.212
  170SOL     OW 2468   0.613   0.842   1.431
  170SOL    HW1 2469   0.669   0.923   1.414
  170SOL    HW2 2470   0.672   0.762   1.434
  171SOL     OW 2471   1.493   1.767   0.959
  171SOL    HW1 2472   1.526   1.831   0.890
  171SOL    HW2 2473   1.559   1.761   1.034
  172SOL     OW 2474   0.716   0.565   1.708
  172SOL    HW1 2475   0.735   0.630   1.782
  172SOL    HW2 2476   0.776   0.485   1.717
  173SOL     OW 2477   1.450   1.220   1.633
  173SOL    HW1 2478   1.441   1.210   1.732
  173SOL    HW2 2479   1.546   1.213   1.607
  174SOL     OW 2480   0.390   1.741   1.560
  174SOL    HW1 2481   0.299   1.782   1.558
  174SOL    HW2 2482   0.383   1.647   1.592
  175SOL     OW 2483   1.674   0.883   1.254
  175SOL    HW1 2484   1.647   0.794   1.217
  175SOL    HW2 2485   1.675   0.951   1.181
  176SOL     OW 2486   1.225   0.325   0.449
  176SOL    HW1 2487   1.290   0.251   0.438
  176SOL    HW2 2488   1.245   0.375   0.533
  177SOL     OW 2489   0.594   0.745   0.652
  177SOL    HW1 2490   0.644   0.830   0.633
  177SOL    HW2 2491   0.506   0.747   0.604
  178SOL     OW 2492   1.777   0.342   1.642
  178SOL    HW1 2493   1.760   0.373   1.548
  178SOL    HW2 2494   1.693   0.305   1.680
  179SOL     OW 2495   1.730   0.934   1.517
  179SOL    HW1 2496   1.768   1.025   1.532
  179SOL    HW2 2497   1.722   0.917   1.418
  180SOL     OW 2498   0.859   1.374   0.016
  180SOL    HW1 2499   0.813   1.389   0.104
  180SOL    HW2 2500   0.903   1.459  -0.014
  181SOL     OW 2501   0.661   1.790   0.953
  181SOL    HW1 2502   0.615   1.878   0.940
  181SOL    HW2 2503   0.760   1.802   0.946
  182SOL     OW 2504   1.408   1.851   1.720
  182SOL    HW1 2505   1.312   1.840   1.693
  182SOL    HW2 2506   1.464   1.784   1.672
  183SOL     OW 2507   0.859   0.956   0.861
  183SOL    HW1 2508   0.913   0.887   0.909
  183SOL    HW2 2509   0.827   1.025   0.927
  184SOL     OW 2510   1.083   0.984   0.087
  184SOL    HW1 2511   1.060   1.037   0.005
  184SOL    HW2 2512   1.164   0.928   0.068
  185SOL     OW 2513   1.861   1.569   0.851
  185SOL    HW1 2514   1.790   1.557   0.781
  185SOL    HW2 2515   1.862   1.490   0.911
  186SOL     OW 2516   0.672   1.391   1.624
  186SOL    HW1 2517   0.594   1.341   1.662
  186SOL    HW2 2518   0.669   1.486   1.655
  187SOL     OW 2519   1.824   0.192   1.227
  187SOL    HW1 2520   1.820   0.102   1.271
  187SOL    HW2 2521   1.827   0.181   1.128
  188SOL     OW 2522   0.428   0.424   0.520
  188SOL    HW1 2523   0.458   0.352   0.458
  188SOL    HW2 2524   0.389   0.384   0.603
  189SOL     OW 2525   1.705   1.487   1.104
  189SOL    HW1 2526   1.612   1.462   1.077
  189SOL    HW2 2527   1.731   1.437   1.186
  190SOL     OW 2528   0.812   1.586   0.687
  190SOL    HW1 2529   0.844   1.596   0.593
  190SOL    HW2 2530   0.733   1.524   0.689
  191SOL     OW 2531   1.424   0.214   1.112
  191SOL    HW1 2532   1.476   0.149   1.167
  191SOL    HW2 2533   1.375   0.277   1.173
  192SOL     OW 2534   1.001   0.034   1.154
  192SOL    HW1 2535   0.938  -0.038   1.123
  192SOL    HW2 2536   1.094  -0.002   1.154
  193SOL     OW 2537   0.770   1.330   0.301
  193SOL    HW1 2538   0.724   1.243   0.318
  193SOL    HW2 2539   0.861   1.327   0.342
  194SOL     OW 2540   0.618   1.567   1.284
  194SOL    HW1 2541   0.613   1.649   1.341
  194SOL    HW2 2542   0.707   1.564   1.239
  195SOL     OW 2543   1.352   0.052   0.168
  195SOL    HW1 2544   1.387   0.011   0.084
  195SOL    HW2 2545   1.262   0.014   0.188
  196SOL     OW 2546   1.300   0.453   0.691
  196SOL    HW1 2547   1.241   0.533   0.695
  196SOL    HW2 2548   1.315   0.418   0.784
  197SOL     OW 2549   1.593   0.221   0.882
  197SOL    HW1 2550   1.509   0.220   0.936
  197SOL    HW2 2551   1.595   0.304   0.826
  198SOL     OW 2552   0.875   1.646   0.337
  198SOL    HW1 2553   0.798   1.611   0.283
  198SOL    HW2 2554   0.843   1.717   0.399
  199SOL     OW 2555   0.019   0.368   2.509
  199SOL    HW1 2556  -0.063   0.411   2.548
  199SOL    HW2 2557  -0.009   0.295   2.446
  200SOL     OW 2558   0.569   1.275   3.027
  200SOL    HW1 2559   0.476   1.268   2.990
  200SOL    HW2 2560   0.580   1.364   3.071
  201SOL     OW 2561   1.555   1.511   2.565
  201SOL    HW1 2562   1.498   1.495   2.646
  201SOL    HW2 2563   1.496   1.521   2.485
  202SOL     OW 2564   1.743   0.618   2.718
  202SOL    HW1 2565   1.776   0.712   2.718
  202SOL    HW2 2566   1.794   0.564   2.784
  203SOL     OW 2567   1.135   0.703   2.579
  203SOL    HW1 2568   1.192   0.781   2.554
  203SOL    HW2 2569   1.075   0.729   2.655
  204SOL     OW 2570   1.755   0.607   2.093
  204SOL    HW1 2571   1.743   0.594   1.994
  204SOL    HW2 2572   1.725   0.526   2.142
  205SOL     OW 2573   0.768   1.144   2.885
  205SOL    HW1 2574   0.690   1.161   2.945
  205SOL    HW2 2575   0.802   1.231   2.849
  206SOL     OW 2576   0.850   0.798   3.685
  206SOL    HW1 2577   0.846   0.874   3.750
  206SOL    HW2 2578   0.872   0.834   3.594
  207SOL     OW 2579   0.685   1.012   2.527
  207SOL    HW1 2580   0.754   0.996   2.597
  207SOL    HW2 2581   0.612   1.069   2.565
  208SOL     OW 2582   0.686   1.161   3.665
  208SOL    HW1 2583   0.746   1.240   3.679
  208SOL    HW2 2584   0.600   1.192   3.624
  209SOL     OW 2585   0.335   1.435   2.923
  209SOL    HW1 2586   0.257   1.404   2.870
  209SOL    HW2 2587   0.393   1.493   2.866
  210SOL     OW 2588   1.460   1.505   3.201
  210SOL    HW1 2589   1.484   1.599   3.227
  210SOL    HW2 2590   1.444   1.451   3.283
  211SOL     OW 2591   0.438   0.392   3.361
  211SOL    HW1 2592   0.520   0.336   3.370
  211SOL    HW2 2593   0.357   0.334   3.365
  212SOL     OW 2594   1.603   0.447   2.599
  212SOL    HW1 2595   1.529   0.493   2.549
  212SOL    HW2 2596   1.654   0.515   2.652
  213SOL     OW 2597   1.127   1.341   3.552
  213SOL    HW1 2598   1.174   1.341   3.640
  213SOL    HW2 2599   1.079   1.254   3.541
  214SOL     OW 2600   0.620   1.786   3.301
  214SOL    HW1 2601   0.528   1.769   3.336
  214SOL    HW2 2602   0.648   1.878   3.327
  215SOL     OW 2603   0.606   0.964   1.985
  215SOL    HW1 2604   0.613   1.048   1.931
  215SOL    HW2 2605   0.652   0.977   2.073
  216SOL     OW 2606   1.594   0.114   3.342
  216SOL    HW1 2607   1.576   0.181   3.270
  216SOL    HW2 2608   1.591   0.160   3.431
  217SOL     OW 2609   1.842   1.767   2.221
  217SOL    HW1 2610   1.896   1.738   2.301
  217SOL    HW2 2611   1.872   1.857   2.192
  218SOL     OW 2612   1.689   0.922   2.474
  218SOL    HW1 2613   1.784   0.893   2.482
  218SOL    HW2 2614   1.681   0.987   2.399
  219SOL     OW 2615   1.641   1.108   2.294
  219SOL    HW1 2616   1.727   1.110   2.242
  219SOL    HW2 2617   1.655   1.155   2.382
  220SOL     OW 2618   0.613   1.365   2.588
  220SOL    HW1 2619   0.564   1.278   2.597
  220SOL    HW2 2620   0.590   1.408   2.501
  221SOL     OW 2621   1.293   1.228   3.285
  221SOL    HW1 2622   1.330   1.155   3.227
  221SOL    HW2 2623   1.345   1.233   3.370
  222SOL     OW 2624   0.809   0.004   2.364
  222SOL    HW1 2625   0.849   0.095   2.355
  222SOL    HW2 2626   0.709   0.012   2.370
  223SOL     OW 2627   1.525   0.999   2.052
  223SOL    HW1 2628   1.462   0.923   2.065
  223SOL    HW2 2629   1.573   1.017   2.138
  224SOL     OW 2630   1.187   1.792   3.478
  224SOL    HW1 2631   1.211   1.852   3.402
  224SOL    HW2 2632   1.194   1.697   3.448
  225SOL     OW 2633   0.317   0.251   3.663
  225SOL    HW1 2634   0.388   0.322   3.669
  225SOL    HW2 2635   0.229   0.290   3.691
  226SOL     OW 2636   1.466   1.417   2.815
  226SOL    HW1 2637   1.407   1.423   2.895
  226SOL    HW2 2638   1.451   1.329   2.769
  227SOL     OW 2639   1.667   1.714   2.434
  227SOL    HW1 2640   1.626   1.691   2.346
  227SOL    HW2 2641   1.649   1.640   2.499
  228SOL     OW 2642   0.598   0.729   2.132
  228SOL    HW1 2643   0.622   0.798   2.064
  228SOL    HW2 2644   0.520   0.762   2.186
  229SOL     OW 2645   1.281   0.345   2.806
  229SOL    HW1 2646   1.195   0.295   2.793
  229SOL    HW2 2647   1.343   0.291   2.862
  230SOL     OW 2648   1.576   1.662   2.169
  230SOL    HW1 2649   1.665   1.708   2.172
  230SOL    HW2 2650   1.555   1.638   2.074
  231SOL     OW 2651   0.807   0.605   3.327
  231SOL    HW1 2652   0.760   0.602   3.416
  231SOL    HW2 2653   0.756   0.550   3.261
  232SOL     OW 2654   1.394   0.469   3.536
  232SOL    HW1 2655   1.374   0.512   3.624
  232SOL    HW2 2656   1.472   0.407   3.545
  233SOL     OW 2657   0.973   0.890   3.434
  233SOL    HW1 2658   1.019   0.806   3.405
  233SOL    HW2 2659   0.917   0.924   3.359
  234SOL     OW 2660   0.991   0.410   3.104
  234SOL    HW1 2661   0.914   0.444   3.158
  234SOL    HW2 2662   0.957   0.359   3.025
  235SOL     OW 2663   1.041   0.701   2.291
  235SOL    HW1 2664   1.067   0.697   2.387
  235SOL    HW2 2665   0.956   0.650   2.277
  236SOL     OW 2666   0.865   0.348   2.057
  236SOL    HW1 2667   0.924   0.411   2.008
  236SOL    HW2 2668   0.884   0.254   2.028
  237SOL     OW 2669   1.719   0.585   3.693
  237SOL    HW1 2670   1.693   0.674   3.657
  237SOL    HW2 2671   1.717   0.517   3.620
  238SOL     OW 2672   1.362   1.144   2.407
  238SOL    HW1 2673   1.445   1.115   2.359
  238SOL    HW2 2674   1.313   1.211   2.351
  239SOL     OW 2675   0.550   0.196   2.747
  239SOL    HW1 2676   0.545   0.191   2.847
  239SOL    HW2 2677   0.552   0.292   2.718
  240SOL     OW 2678   1.008   1.456   2.339
  240SOL    HW1 2679   0.962   1.528   2.287
  240SOL    HW2 2680   1.004   1.476   2.437
  241SOL     OW 2681   0.351   1.801   2.715
  241SOL    HW1 2682   0.401   1.715   2.721
  241SOL    HW2 2683   0.416   1.878   2.712
  242SOL     OW 2684   1.795   1.066   2.735
  242SOL    HW1 2685   1.733   1.051   2.659
  242SOL    HW2 2686   1.743   1.077   2.820
  243SOL     OW 2687   1.227   1.550   3.368
  243SOL    HW1 2688   1.233   1.473   3.432
  243SOL    HW2 2689   1.175   1.524   3.288
  244SOL     OW 2690   0.321   0.943   2.104
  244SOL    HW1 2691   0.403   0.982   2.062
  244SOL    HW2 2692   0.294   0.861   2.055
  245SOL     OW 2693   1.458   0.735   2.590
  245SOL    HW1 2694   1.453   0.670   2.665
  245SOL    HW2 2695   1.538   0.794   2.603
  246SOL     OW 2696   0.461   1.266   3.589
  246SOL    HW1 2697   0.411   1.267   3.503
  246SOL    HW2 2698   0.398   1.248   3.665
  247SOL     OW 2699   1.111   1.776   2.099
  247SOL    HW1 2700   1.051   1.714   2.149
  247SOL    HW2 2701   1.142   1.732   2.014
  248SOL     OW 2702   1.632   1.377   1.943
  248SOL    HW1 2703   1.600   1.471   1.933
  248SOL    HW2 2704   1.556   1.314   1.931
  249SOL     OW 2705   0.464   1.743   2.185
  249SOL    HW1 2706   0.497   1.782   2.271
  249SOL    HW2 2707   0.540   1.736   2.120
  250SOL     OW 2708   1.400   0.107   2.288
  250SOL    HW1 2709   1.376   0.070   2.198
  250SOL    HW2 2710   1.499   0.123   2.292
  251SOL     OW 2711   0.940   1.698   2.766
  251SOL    HW1 2712   1.020   1.641   2.787
  251SOL    HW2 2713   0.891   1.658   2.689
  252SOL     OW 2714   0.382   0.700   2.342
  252SOL    HW1 2715   0.427   0.610   2.339
  252SOL    HW2 2716   0.288   0.689   2.375
  253SOL     OW 2717   1.547   0.222   3.591
  253SOL    HW1 2718   1.542   0.259   3.683
  253SOL    HW2 2719   1.475   0.153   3.579
  254SOL     OW 2720   0.614   0.122   1.979
  254SOL    HW1 2721   0.712   0.100   1.986
  254SOL    HW2 2722   0.583   0.105   1.886
  255SOL     OW 2723   0.781   0.264   3.611
  255SOL    HW1 2724   0.848   0.203   3.654
  255SOL    HW2 2725   0.708   0.283   3.676
  256SOL     OW 2726   0.888   1.514   3.057
  256SOL    HW1 2727   0.865   1.489   2.963
  256SOL    HW2 2728   0.949   1.445   3.096
  257SOL     OW 2729   1.351   0.590   3.295
  257SOL    HW1 2730   1.379   0.547   3.380
  257SOL    HW2 2731   1.376   0.686   3.296
  258SOL     OW 2732   0.803   1.402   2.786
  258SOL    HW1 2733   0.893   1.416   2.744
  258SOL    HW2 2734   0.732   1.404   2.715
  259SOL     OW 2735   0.922   0.503   2.761
  259SOL    HW1 2736   0.897   0.494   2.665
  259SOL    HW2 2737   0.970   0.421   2.792
  260SOL     OW 2738   0.539   0.064   2.374
  260SOL    HW1 2739   0.458   0.065   2.432
  260SOL    HW2 2740   0.542   0.147   2.319
  261SOL     OW 2741   1.434   1.188   1.903
  261SOL    HW1 2742   1.466   1.112   1.960
  261SOL    HW2 2743   1.342   1.215   1.933
  262SOL     OW 2744   0.297   0.035   2.033
  262SOL    HW1 2745   0.346   0.119   2.012
  262SOL    HW2 2746   0.359  -0.030   2.078
  263SOL     OW 2747   0.935   0.236   2.342
  263SOL    HW1 2748   0.887   0.277   2.264
  263SOL    HW2 2749   1.034   0.234   2.323
  264SOL     OW 2750   1.076   0.683   3.326
  264SOL    HW1 2751   0.996   0.622   3.329
  264SOL    HW2 2752   1.157   0.630   3.302
  265SOL     OW 2753   1.227   1.570   2.655
  265SOL    HW1 2754   1.248   1.644   2.590
  265SOL    HW2 2755   1.295   1.570   2.728
  266SOL     OW 2756   0.459   1.152   2.603
  266SOL    HW1 2757   0.388   1.125   2.668
  266SOL    HW2 2758   0.433   1.124   2.510
  267SOL     OW 2759   1.271   1.797   2.453
  267SOL    HW1 2760   1.315   1.861   2.389
  267SOL    HW2 2761   1.221   1.849   2.523
  268SOL     OW 2762   1.032   0.549   1.878
  268SOL    HW1 2763   0.991   0.631   1.839
  268SOL    HW2 2764   1.096   0.575   1.951
  269SOL     OW 2765   0.561   0.222   3.009
  269SOL    HW1 2766   0.599   0.138   3.046
  269SOL    HW2 2767   0.473   0.241   3.053
  270SOL     OW 2768   0.866   0.454   2.504
  270SOL    HW1 2769   0.834   0.526   2.442
  270SOL    HW2 2770   0.890   0.373   2.451
  271SOL     OW 2771   1.017   0.039   2.615
  271SOL    HW1 2772   0.945   0.044   2.546
  271SOL    HW2 2773   0.993  -0.030   2.684
  272SOL     OW 2774   1.429   1.173   2.729
  272SOL    HW1 2775   1.374   1.089   2.722
  272SOL    HW2 2776   1.455   1.202   2.637
  273SOL     OW 2777   1.466   0.590   2.854
  273SOL    HW1 2778   1.436   0.495   2.861
  273SOL    HW2 2779   1.539   0.606   2.920
  274SOL     OW 2780   1.857   0.833   2.239
  274SOL    HW1 2781   1.899   0.769   2.303
  274SOL    HW2 2782   1.819   0.782   2.161
  275SOL     OW 2783   0.488   1.385   2.036
  275SOL    HW1 2784   0.401   1.370   2.083
  275SOL    HW2 2785   0.471   1.411   1.941
  276SOL     OW 2786   1.664   1.280   2.519
  276SOL    HW1 2787   1.763   1.288   2.533
  276SOL    HW2 2788   1.619   1.364   2.550
  277SOL     OW 2789   1.390   0.575   1.940
  277SOL    HW1 2790   1.336   0.554   2.021
  277SOL    HW2 2791   1.481   0.534   1.949
  278SOL     OW 2792   0.527   0.256   2.190
  278SOL    HW1 2793   0.554   0.197   2.115
  278SOL    HW2 2794   0.527   0.351   2.159
  279SOL     OW 2795   1.754   1.223   3.450
  279SOL    HW1 2796   1.845   1.184   3.437
  279SOL    HW2 2797   1.762   1.319   3.474
  280SOL     OW 2798   1.064   1.347   3.202
  280SOL    HW1 2799   0.984   1.324   3.257
  280SOL    HW2 2800   1.147   1.321   3.251
  281SOL     OW 2801   1.592   1.629   3.487
  281SOL    HW1 2802   1.619   1.663   3.397
  281SOL    HW2 2803   1.671   1.591   3.533
  282SOL     OW 2804   1.111   1.195   2.962
  282SOL    HW1 2805   1.071   1.239   3.043
  282SOL    HW2 2806   1.070   1.232   2.879
  283SOL     OW 2807   1.638   1.099   2.941
  283SOL    HW1 2808   1.643   1.180   3.000
  283SOL    HW2 2809   1.552   1.101   2.890
  284SOL     OW 2810   0.915   0.089   3.264
  284SOL    HW1 2811   0.940   0.069   3.169
  284SOL    HW2 2812   0.987   0.145   3.306
  285SOL     OW 2813   0.980   1.116   3.581
  285SOL    HW1 2814   0.881   1.122   3.591
  285SOL    HW2 2815   1.003   1.036   3.525
  286SOL     OW 2816   0.705   1.050   2.230
  286SOL    HW1 2817   0.691   1.057   2.329
  286SOL    HW2 2818   0.789   0.999   2.212
  287SOL     OW 2819   0.410   0.813   3.113
  287SOL    HW1 2820   0.496   0.825   3.163
  287SOL    HW2 2821   0.368   0.726   3.140
  288SOL     OW 2822   1.274   0.386   3.124
  288SOL    HW1 2823   1.295   0.460   3.188
  288SOL    HW2 2824   1.185   0.403   3.081
  289SOL     OW 2825   0.367   1.100   2.363
  289SOL    HW1 2826   0.360   1.183   2.307
  289SOL    HW2 2827   0.371   1.020   2.303
  290SOL     OW 2828   0.566   0.537   2.727
  290SOL    HW1 2829   0.578   0.603   2.653
  290SOL    HW2 2830   0.612   0.571   2.810
  291SOL     OW 2831   1.252   1.348   2.250
  291SOL    HW1 2832   1.302   1.425   2.290
  291SOL    HW2 2833   1.157   1.350   2.282
  292SOL     OW 2834   1.272   1.445   3.004
  292SOL    HW1 2835   1.319   1.458   3.091
  292SOL    HW2 2836   1.206   1.371   3.013
  293SOL     OW 2837   1.582   0.639   2.334
  293SOL    HW1 2838   1.551   0.700   2.407
  293SOL    HW2 2839   1.632   0.691   2.265
  294SOL     OW 2840   0.354   1.510   3.191
  294SOL    HW1 2841   0.333   1.466   3.104
  294SOL    HW2 2842   0.451   1.536   3.194
  295SOL     OW 2843   0.402   0.751   3.460
  295SOL    HW1 2844   0.470   0.806   3.413
  295SOL    HW2 2845   0.442   0.663   3.487
  296SOL     OW 2846   1.587   0.779   3.532
  296SOL    HW1 2847   1.495   0.817   3.527
  296SOL    HW2 2848   1.647   0.826   3.467
  297SOL     OW 2849   1.013   0.105   3.632
  297SOL    HW1 2850   1.019   0.190   3.580
  297SOL    HW2 2851   1.045   0.029   3.575
  298SOL     OW 2852   0.504   0.050   3.602
  298SOL    HW1 2853   0.462  -0.007   3.532
  298SOL    HW2 2854   0.438   0.119   3.634
  299SOL     OW 2855   0.573   0.870   2.891
  299SOL    HW1 2856   0.617   0.959   2.882
  299SOL    HW2 2857   0.510   0.870   2.968
  300SOL     OW 2858   1.360   0.862   2.907
  300SOL    HW1 2859   1.285   0.862   2.841
  300SOL    HW2 2860   1.397   0.770   2.916
  301SOL     OW 2861   1.209   0.525   2.137
  301SOL    HW1 2862   1.222   0.441   2.191
  301SOL    HW2 2863   1.180   0.599   2.197
  302SOL     OW 2864   0.732   0.634   2.926
  302SOL    HW1 2865   0.791   0.608   2.850
  302SOL    HW2 2866   0.704   0.730   2.915
  303SOL     OW 2867   1.728   0.935   3.716
  303SOL    HW1 2868   1.682   0.928   3.627
  303SOL    HW2 2869   1.666   0.979   3.782
  304SOL     OW 2870   0.307   0.063   2.480
  304SOL    HW1 2871   0.296   0.157   2.513
  304SOL    HW2 2872   0.302   0.000   2.557
  305SOL     OW 2873   1.622   0.367   2.236
  305SOL    HW1 2874   1.624   0.291   2.300
  305SOL    HW2 2875   1.574   0.444   2.276
  306SOL     OW 2876   1.023   0.766   2.828
  306SOL    HW1 2877   1.038   0.787   2.924
  306SOL    HW2 2878   0.993   0.671   2.819
  307SOL     OW 2879   0.980   1.573   3.562
  307SOL    HW1 2880   0.960   1.617   3.474
  307SOL    HW2 2881   1.019   1.482   3.546
  308SOL     OW 2882   1.859   1.518   3.467
  308SOL    HW1 2883   1.873   1.545   3.372
  308SOL    HW2 2884   1.942   1.540   3.520
  309SOL     OW 2885   0.350   0.898   3.666
  309SOL    HW1 2886   0.426   0.942   3.714
  309SOL    HW2 2887   0.385   0.851   3.584
  310SOL     OW 2888   1.540   0.274   1.987
  310SOL    HW1 2889   1.479   0.199   2.010
  310SOL    HW2 2890   1.562   0.326   2.070
  311SOL     OW 2891   1.303   0.838   1.904
  311SOL    HW1 2892   1.337   0.745   1.919
  311SOL    HW2 2893   1.321   0.865   1.809
  312SOL     OW 2894   1.068   1.333   2.711
  312SOL    HW1 2895   1.075   1.249   2.656
  312SOL    HW2 2896   1.130   1.402   2.675
  313SOL     OW 2897   0.319   0.810   2.811
  313SOL    HW1 2898   0.412   0.846   2.816
  313SOL    HW2 2899   0.313   0.725   2.863
  314SOL     OW 2900   1.138   0.380   3.540
  314SOL    HW1 2901   1.093   0.443   3.604
  314SOL    HW2 2902   1.231   0.411   3.523
  315SOL     OW 2903   1.160   0.207   3.339
  315SOL    HW1 2904   1.160   0.271   3.416
  315SOL    HW2 2905   1.188   0.255   3.256
  316SOL     OW 2906   0.504   1.568   2.772
  316SOL    HW1 2907   0.570   1.642   2.781
  316SOL    HW2 2908   0.548   1.489   2.730
  317SOL     OW 2909   1.002   0.796   3.100
  317SOL    HW1 2910   1.043   0.764   3.186
  317SOL    HW2 2911   0.906   0.769   3.097
  318SOL     OW 2912   1.369   0.950   3.522
  318SOL    HW1 2913   1.408   1.039   3.542
  318SOL    HW2 2914   1.379   0.930   3.425
  319SOL     OW 2915   0.815   0.572   2.187
  319SOL    HW1 2916   0.822   0.483   2.141
  319SOL    HW2 2917   0.721   0.606   2.179
  320SOL     OW 2918   1.657   0.604   3.068
  320SOL    HW1 2919   1.619   0.535   3.130
  320SOL    HW2 2920   1.739   0.568   3.024
  321SOL     OW 2921   0.671   0.464   3.131
  321SOL    HW1 2922   0.637   0.375   3.101
  321SOL    HW2 2923   0.697   0.518   3.051
  322SOL     OW 2924   0.930   1.678   3.327
  322SOL    HW1 2925   0.906   1.660   3.232
  322SOL    HW2 2926   0.960   1.772   3.337
  323SOL     OW 2927   0.473   0.500   2.053
  323SOL    HW1 2928   0.534   0.580   2.057
  323SOL    HW2 2929   0.378   0.531   2.060
  324SOL     OW 2930   1.347   1.059   3.096
  324SOL    HW1 2931   1.371   0.996   3.022
  324SOL    HW2 2932   1.257   1.099   3.078
  325SOL     OW 2933   1.302   0.855   2.171
  325SOL    HW1 2934   1.216   0.824   2.213
  325SOL    HW2 2935   1.298   0.841   2.072
  326SOL     OW 2936   1.759   1.747   3.016
  326SOL    HW1 2937   1.820   1.777   2.943
  326SOL    HW2 2938   1.721   1.658   2.994
  327SOL     OW 2939   1.252   1.731   2.990
  327SOL    HW1 2940   1.336   1.736   2.936
  327SOL    HW2 2941   1.229   1.635   3.008
  328SOL     OW 2942   0.688   1.662   3.578
  328SOL    HW1 2943   0.632   1.743   3.587
  328SOL    HW2 2944   0.740   1.666   3.492
  329SOL     OW 2945   1.726   0.135   2.385
  329SOL    HW1 2946   1.799   0.118   2.318
  329SOL    HW2 2947   1.695   0.048   2.423
  330SOL     OW 2948   1.388   1.573   2.339
  330SOL    HW1 2949   1.455   1.585   2.265
  330SOL    HW2 2950   1.348   1.662   2.362
  331SOL     OW 2951   0.130   1.794   3.713
  331SOL    HW1 2952   0.089   1.720   3.766
  331SOL    HW2 2953   0.194   1.845   3.771
  332SOL     OW 2954   1.280   0.927   2.534
  332SOL    HW1 2955   1.340   0.846   2.536
  332SOL    HW2 2956   1.320   0.996   2.474
  333SOL     OW 2957   0.830   1.273   3.284
  333SOL    HW1 2958   0.825   1.306   3.379
  333SOL    HW2 2959   0.744   1.292   3.238
  334SOL     OW 2960   0.672   1.616   2.016
  334SOL    HW1 2961   0.681   1.626   1.917
  334SOL    HW2 2962   0.632   1.527   2.037
  335SOL     OW 2963   1.650   1.720   3.256
  335SOL    HW1 2964   1.703   1.730   3.172
  335SOL    HW2 2965   1.623   1.810   3.290
  336SOL     OW 2966   1.841   0.175   2.825
  336SOL    HW1 2967   1.880   0.090   2.789
  336SOL    HW2 2968   1.743   0.177   2.806
  337SOL     OW 2969   0.263   0.326   2.582
  337SOL    HW1 2970   0.184   0.377   2.548
  337SOL    HW2 2971   0.254   0.311   2.680
  338SOL     OW 2972   1.194   1.612   1.893
  338SOL    HW1 2973   1.200   1.519   1.930
  338SOL    HW2 2974   1.135   1.612   1.813
  339SOL     OW 2975   0.822   1.002   3.234
  339SOL    HW1 2976   0.862   1.001   3.142
  339SOL    HW2 2977   0.832   1.094   3.274
  340SOL     OW 2978   0.916   0.910   2.153
  340SOL    HW1 2979   0.979   0.948   2.085
  340SOL    HW2 2980   0.956   0.827   2.192
  341SOL     OW 2981   1.504   1.607   1.906
  341SOL    HW1 2982   1.412   1.644   1.913
  341SOL    HW2 2983   1.542   1.627   1.816
  342SOL     OW 2984   0.372   1.288   3.352
  342SOL    HW1 2985   0.359   1.381   3.318
  342SOL    HW2 2986   0.288   1.236   3.339
  343SOL     OW 2987   1.614   1.292   3.151
  343SOL    HW1 2988   1.674   1.295   3.231
  343SOL    HW2 2989   1.539   1.356   3.164
  344SOL     OW 2990   1.039   1.098   2.558
  344SOL    HW1 2991   0.969   1.051   2.612
  344SOL    HW2 2992   1.098   1.030   2.515
  345SOL     OW 2993   1.014   0.236   2.833
  345SOL    HW1 2994   1.006   0.200   2.740
  345SOL    HW2 2995   1.012   0.160   2.898
  346SOL     OW 2996   0.590   1.487   2.353
  346SOL    HW1 2997   0.632   1.429   2.283
  346SOL    HW2 2998   0.546   1.566   2.309
  347SOL     OW 2999   1.709   0.385   3.243
  347SOL    HW1 3000   1.782   0.454   3.247
  347SOL    HW2 3001   1.737   0.310   3.184
  348SOL     OW 3002   0.255   1.348   2.152
  348SOL    HW1 3003   0.159   1.349   2.125
  348SOL    HW2 3004   0.267   1.401   2.236
  349SOL     OW 3005   0.672   0.203   3.351
  349SOL    HW1 3006   0.762   0.187   3.311
  349SOL    HW2 3007   0.680   0.208   3.450
  350SOL     OW 3008   1.440   0.856   3.260
  350SOL    HW1 3009   1.383   0.908   3.197
  350SOL    HW2 3010   1.536   0.868   3.236
  351SOL     OW 3011   1.183   1.335   1.981
  351SOL    HW1 3012   1.084   1.324   1.983
  351SOL    HW2 3013   1.217   1.350   2.074
  352SOL     OW 3014   0.613   0.842   3.293
  352SOL    HW1 3015   0.669   0.923   3.276
  352SOL    HW2 3016   0.672   0.762   3.296
  353SOL     OW 3017   1.493   1.767   2.821
  353SOL    HW1 3018   1.526   1.831   2.752
  353SOL    HW2 3019   1.559   1.761   2.896
  354SOL     OW 3020   0.716   0.565   3.570
  354SOL    HW1 3021   0.735   0.630   3.644
  354SOL    HW2 3022   0.776   0.485   3.579
  355SOL     OW 3023   1.450   1.220   3.495
  355SOL    HW1 3024   1.441   1.210   3.594
  355SOL    HW2 3025   1.546   1.213   3.469
  356SOL     OW 3026   0.390   1.741   3.422
  356SOL    HW1 3027   0.299   1.782   3.420
  356SOL    HW2 3028   0.383   1.647   3.454
  357SOL     OW 3029   1.674   0.883   3.116
  357SOL    HW1 3030   1.647   0.794   3.079
  357SOL    HW2 3031   1.675   0.951   3.043
  358SOL     OW 3032   1.225   0.325   2.311
  358SOL    HW1 3033   1.290   0.251   2.300
  358SOL    HW2 3034   1.245   0.375   2.395
  359SOL     OW 3035   0.594   0.745   2.514
  359SOL    HW1 3036   0.644   0.830   2.495
  359SOL    HW2 3037   0.506   0.747   2.466
  360SOL     OW 3038   1.777   0.342   3.504
  360SOL    HW1 3039   1.760   0.373   3.410
  360SOL    HW2 3040   1.693   0.305   3.542
  361SOL     OW 3041   1.730   0.934   3.379
  361SOL    HW1 3042   1.768   1.025   3.394
  361SOL    HW2 3043   1.722   0.917   3.280
  362SOL     OW 3044   0.859   1.374   1.878
  362SOL    HW1 3045   0.813   1.389   1.966
  362SOL    HW2 3046   0.903   1.459   1.848
  363SOL     OW 3047   0.661   1.790   2.815
  363SOL    HW1 3048   0.615   1.878   2.802
  363SOL    HW2 3049   0.760   1.802   2.808
  364SOL     OW 3050   1.408   1.851   3.582
  364SOL    HW1 3051   1.312   1.840   3.555
  364SOL    HW2 3052   1.464   1.784   3.534
  365SOL     OW 3053   0.859   0.956   2.723
  365SOL    HW1 3054   0.913   0.887   2.771
  365SOL    HW2 3055   0.827   1.025   2.789
  366SOL     OW 3056   1.083   0.984   1.949
  366SOL    HW1 3057   1.060   1.037   1.867
  366SOL    HW2 3058   1.164   0.928   1.930
  367SOL     OW 3059   1.861   1.569   2.713
  367SOL    HW1 3060   1.790   1.557   2.643
  367SOL    HW2 3061   1.862   1.490   2.773
  368SOL     OW 3062   0.672   1.391   3.486
  368SOL    HW1 3063   0.594   1.341   3.524
  368SOL    HW2 3064   0.669   1.486   3.517
  369SOL     OW 3065   1.824   0.192   3.089
  369SOL    HW1 3066   1.820   0.102   3.133
  369SOL    HW2 3067   1.827   0.181   2.990
  370SOL     OW 3068   0.428   0.424   2.382
  370SOL    HW1 3069   0.458   0.352   2.320
  370SOL    HW2 3070   0.389   0.384   2.465
  371SOL     OW 3071   1.705   1.487   2.966
  371SOL    HW1 3072   1.612   1.462   2.939
  371SOL    HW2 3073   1.731   1.437   3.048
  372SOL     OW 3074   0.812   1.586   2.549
  372SOL    HW1 3075   0.844   1.596   2.455
  372SOL    HW2 3076   0.733   1.524   2.551
  373SOL     OW 3077   1.424   0.214   2.974
  373SOL    HW1 3078   1.476   0.149   3.029
  373SOL    HW2 3079   1.375   0.277   3.035
  374SOL     OW 3080   1.001   0.034   3.016
  374SOL    HW1 3081   0.938  -0.038   2.985
  374SOL    HW2 3082   1.094  -0.002   3.016
  375SOL     OW 3083   0.770   1.330   2.163
  375SOL    HW1 3084   0.724   1.243   2.180
  375SOL    HW2 3085   0.861   1.327   2.204
  376SOL     OW 3086   0.618   1.567   3.146
  376SOL    HW1 3087   0.613   1.649   3.203
  376SOL    HW2 3088   0.707   1.564   3.101
  377SOL     OW 3089   1.352   0.052   2.030
  377SOL    HW1 3090   1.387   0.011   1.946
  377SOL    HW2 3091   1.262   0.014   2.050
  378SOL     OW 3092   1.300   0.453   2.553
  378SOL    HW1 3093   1.241   0.533   2.557
  378SOL    HW2 3094   1.315   0.418   2.646
  379SOL     OW 3095   1.593   0.221   2.744
  379SOL    HW1 3096   1.509   0.220   2.798
  379SOL    HW2 3097   1.595   0.304   2.688
  380SOL     OW 3098   0.875   1.646   2.199
  380SOL    HW1 3099   0.798   1.611   2.145
  380SOL    HW2 3100   0.843   1.717   2.261
  381SOL     OW 3101   0.019   0.368   4.371
  381SOL    HW1 3102  -0.063   0.411   4.410
  381SOL    HW2 3103  -0.009   0.295   4.308
  382SOL     OW 3104   0.569   1.275   4.889
  382SOL    HW1 3105   0.476   1.268   4.852
  382SOL    HW2 3106   0.580   1.364   4.933
  383SOL     OW 3107   1.555   1.511   4.427
  383SOL    HW1 3108   1.498   1.495   4.508
  383SOL    HW2 3109   1.496   1.521   4.347
  384SOL     OW 3110   1.743   0.618   4.580
  384SOL    HW1 3111   1.776   0.712   4.580
  384SOL    HW2 3112   1.794   0.564   4.646
  385SOL     OW 3113   1.135   0.703   4.441
  385SOL    HW1 3114   1.192   0.781   4.416
  385SOL    HW2 3115   1.075   0.729   4.517
  386SOL     OW 3116   1.755   0.607   3.955
  386SOL    HW1 3117   1.743   0.594   3.856
  386SOL    HW2 3118   1.725   0.526   4.004
  387SOL     OW 3119   0.768   1.144   4.747
  387SOL    HW1 3120   0.690   1.161   4.807
  387SOL    HW2 3121   0.802   1.231   4.711
  388SOL     OW 3122   0.850   0.798   5.547
  388SOL    HW1 3123   0.846   0.874   5.612
  388SOL    HW2 3124   0.872   0.834   5.456
  389SOL     OW 3125   0.685   1.012   4.389
  389SOL    HW1 3126   0.754   0.996   4.459
  389SOL    HW2 3127   0.612   1.069   4.427
  390SOL     OW 3128   0.686   1.161   5.527
  390SOL    HW1 3129   0.746   1.240   5.541
  390SOL    HW2 3130   0.600   1.192   5.486
  391SOL     OW 3131   0.335   1.435   4.785
  391SOL    HW1 3132   0.257   1.404   4.732
  391SOL    HW2 3133   0.393   1.493   4.728
  392SOL     OW 3134   1.460   1.505   5.063
  392SOL    HW1 3135   1.484   1.599   5.089
  392SOL    HW2 3136   1.444   1.451   5.145
  393SOL     OW 3137   0.438   0.392   5.223
  393SOL    HW1 3138   0.520   0.336   5.232
  393SOL    HW2 3139   0.357   0.334   5.227
  394SOL     OW 3140   1.603   0.447   4.461
  394SOL    HW1 3141   1.529   0.493   4.411
  394SOL    HW2 3142   1.654   0.515   4.514
  395SOL     OW 3143   1.127   1.341   5.414
  395SOL    HW1 3144   1.174   1.341   5.502
  395SOL    HW2 3145   1.079   1.254   5.403
  396SOL     OW 3146   0.620   1.786   5.163
  396SOL    HW1 3147   0.528   1.769   5.198
  396SOL    HW2 3148   0.648   1.878   5.189
  397SOL     OW 3149   0.606   0.964   3.847
  397SOL    HW1 3150   0.613   1.048   3.793
  397SOL    HW2 3151   0.652   0.977   3.935
  398SOL     OW 3152   1.594   0.114   5.204
  398SOL    HW1 3153   1.576   0.181   5.132
  398SOL    HW2 3154   1.591   0.160   5.293
  399SOL     OW 3155   1.842   1.767   4.083
  399SOL    HW1 3156   1.896   1.738   4.163
  399SOL    HW2 3157   1.872   1.857   4.054
  400SOL     OW 3158   1.689   0.922   4.336
  400SOL    HW1 3159   1.784   0.893   4.344
  400SOL    HW2 3160   1.681   0.987   4.261
  401SOL     OW 3161   1.641   1.108   4.156
  401SOL    HW1 3162   1.727   1.110   4.104
  401SOL    HW2 3163   1.655   1.155   4.244
  402SOL     OW 3164   0.613   1.365   4.450
  402SOL    HW1 3165   0.564   1.278   4.459
  402SOL    HW2 3166   0.590   1.408   4.363
  403SOL     OW 3167   1.293   1.228   5.147
  403SOL    HW1 3168   1.330   1.155   5.089
  403SOL    HW2 3169   1.345   1.233   5.232
  404SOL     OW 3170   0.809   0.004   4.226
  404SOL    HW1 3171   0.849   0.095   4.217
  404SOL    HW2 3172   0.709   0.012   4.232
  405SOL     OW 3173   1.525   0.999   3.914
  405SOL    HW1 3174   1.462   0.923   3.927
  405SOL    HW2 3175   1.573   1.017   4.000
  406SOL     OW 3176   1.187   1.792   5.340
  406SOL    HW1 3177   1.211   1.852   5.264
  406SOL    HW2 3178   1.194   1.697   5.310
  407SOL     OW 3179   0.317   0.251   5.525
  407SOL    HW1 3180   0.388   0.322   5.531
  407SOL    HW2 3181   0.229   0.290   5.553
  408SOL     OW 3182   1.466   1.417   4.677
  408SOL    HW1 3183   1.407   1.423   4.757
  408SOL    HW2 3184   1.451   1.329   4.631
  409SOL     OW 3185   1.667   1.714   4.296
  409SOL    HW1 3186   1.626   1.691   4.208
  409SOL    HW2 3187   1.649   1.640   4.361
  410SOL     OW 3188   0.598   0.729   3.994
  410SOL    HW1 3189   0.622   0.798   3.926
  410SOL    HW2 3190   0.520   0.762   4.048
  411SOL     OW 3191   1.281   0.345   4.668
  411SOL    HW1 3192   1.195   0.295   4.655
  411SOL    HW2 3193   1.343   0.291   4.724
  412SOL     OW 3194   1.576   1.662   4.031
  412SOL    HW1 3195   1.665   1.708   4.034
  412SOL    HW2 3196   1.555   1.638   3.936
  413SOL     OW 3197   0.807   0.605   5.189
  413SOL    HW1 3198   0.760   0.602   5.278
  413SOL    HW2 3199   0.756   0.550   5.123
  414SOL     OW 3200   1.394   0.469   5.398
  414SOL    HW1 3201   1.374   0.512   5.486
  414SOL    HW2 3202   1.472   0.407   5.407
  415SOL     OW 3203   0.973   0.890   5.296
  415SOL    HW1 3204   1.019   0.806   5.267
  415SOL    HW2 3205   0.917   0.924   5.221
  416SOL     OW 3206   0.991   0.410   4.966
  416SOL    HW1 3207   0.914   0.444   5.020
  416SOL    HW2 3208   0.957   0.359   4.887
  417SOL     OW 3209   1.041   0.701   4.153
  417SOL    HW1 3210   1.067   0.697   4.249
  417SOL    HW2 3211   0.956   0.650   4.139
  418SOL     OW 3212   0.865   0.348   3.919
  418SOL    HW1 3213   0.924   0.411   3.870
  418SOL    HW2 3214   0.884   0.254   3.890
  419SOL     OW 3215   1.719   0.585   5.555
  419SOL    HW1 3216   1.693   0.674   5.519
  419SOL    HW2 3217   1.717   0.517   5.482
  420SOL     OW 3218   1.362   1.144   4.269
  420SOL    HW1 3219   1.445   1.115   4.221
  420SOL    HW2 3220   1.313   1.211   4.213
  421SOL     OW 3221   0.550   0.196   4.609
  421SOL    HW1 3222   0.545   0.191   4.709
  421SOL    HW2 3223   0.552   0.292   4.580
  422SOL     OW 3224   1.008   1.456   4.201
  422SOL    HW1 3225   0.962   1.528   4.149
  422SOL    HW2 3226   1.004   1.476   4.299
  423SOL     OW 3227   0.351   1.801   4.577
  423SOL    HW1 3228   0.401   1.715   4.583
  423SOL    HW2 3229   0.416   1.878   4.574
  424SOL     OW 3230   1.795   1.066   4.597
  424SOL    HW1 3231   1.733   1.051   4.521
  424SOL    HW2 3232   1.743   1.077   4.682
  425SOL     OW 3233   1.227   1.550   5.230
  425SOL    HW1 3234   1.233   1.473   5.294
  425SOL    HW2 3235   1.175   1.524   5.150
  426SOL     OW 3236   0.321   0.943   3.966
  426SOL    HW1 3237   0.403   0.982   3.924
  426SOL    HW2 3238   0.294   0.861   3.917
  427SOL     OW 3239   1.458   0.735   4.452
  427SOL    HW1 3240   1.453   0.670   4.527
  427SOL    HW2 3241   1.538   0.794   4.465
  428SOL     OW 3242   0.461   1.266   5.451
  428SOL    HW1 3243   0.411   1.267   5.365
  428SOL    HW2 3244   0.398   1.248   5.527
  429SOL     OW 3245   1.111   1.776   3.961
  429SOL    HW1 3246   1.051   1.714   4.011
  429SOL    HW2 3247   1.142   1.732   3.876
  430SOL     OW 3248   1.632   1.377   3.805
  430SOL    HW1 3249   1.600   1.471   3.795
  430SOL    HW2 3250   1.556   1.314   3.793
  431SOL     OW 3251   0.464   1.743   4.047
  431SOL    HW1 3252   0.497   1.782   4.133
  431SOL    HW2 3253   0.540   1.736   3.982
  432SOL     OW 3254   1.400   0.107   4.150
  432SOL    HW1 3255   1.376   0.070   4.060
  432SOL    HW2 3256   1.499   0.123   4.154
  433SOL     OW 3257   0.940   1.698   4.628
  433SOL    HW1 3258   1.020   1.641   4.649
  433SOL    HW2 3259   0.891   1.658   4.551
  434SOL     OW 3260   0.382   0.700   4.204
  434SOL    HW1 3261   0.427   0.610   4.201
  434SOL    HW2 3262   0.288   0.689   4.237
  435SOL     OW 3263   1.547   0.222   5.453
  435SOL    HW1 3264   1.542   0.259   5.545
  435SOL    HW2 3265   1.475   0.153   5.441
  436SOL     OW 3266   0.614   0.122   3.841
  436SOL    HW1 3267   0.712   0.100   3.848
  436SOL    HW2 3268   0.583   0.105   3.748
  437SOL     OW 3269   0.781   0.264   5.473
  437SOL    HW1 3270   0.848   0.203   5.516
  437SOL    HW2 3271   0.708   0.283   5.538
  438SOL     OW 3272   0.888   1.514   4.919
  438SOL    HW1 3273   0.865   1.489   4.825
  438SOL    HW2 3274   0.949   1.445   4.958
  439SOL     OW 3275   1.351   0.590   5.157
  439SOL    HW1 3276   1.379   0.547   5.242
  439SOL    HW2 3277   1.376   0.686   5.158
  440SOL     OW 3278   0.803   1.402   4.648
  440SOL    HW1 3279   0.893   1.416   4.606
  440SOL    HW2 3280   0.732   1.404   4.577
  441SOL     OW 3281   0.922   0.503   4.623
  441SOL    HW1 3282   0.897   0.494   4.527
  441SOL    HW2 3283   0.970   0.421   4.654
  442SOL     OW 3284   0.539   0.064   4.236
  442SOL    HW1 3285   0.458   0.065   4.294
  442SOL    HW2 3286   0.542   0.147   4.181
  443SOL     OW 3287   1.434   1.188   3.765
  443SOL    HW1 3288   1.466   1.112   3.822
  443SOL    HW2 3289   1.342   1.215   3.795
  444SOL     OW 3290   0.297   0.035   3.895
  444SOL    HW1 3291   0.346   0.119   3.874
  444SOL    HW2 3292   0.359  -0.030   3.940
  445SOL     OW 3293   0.935   0.236   4.204
  445SOL    HW1 3294   0.887   0.277   4.126
  445SOL    HW2 3295   1.034   0.234   4.185
  446SOL     OW 3296   1.076   0.683   5.188
  446SOL    HW1 3297   0.996   0.622   5.191
  446SOL    HW2 3298   1.157   0.630   5.164
  447SOL     OW 3299   1.227   1.570   4.517
  447SOL    HW1 3300   1.248   1.644   4.452
  447SOL    HW2 3301   1.295   1.570   4.590
  448SOL     OW 3302   0.459   1.152   4.465
  448SOL    HW1 3303   0.388   1.125   4.530
  448SOL    HW2 3304   0.433   1.124   4.372
  449SOL     OW 3305   1.271   1.797   4.315
  449SOL    HW1 3306   1.315   1.861   4.251
  449SOL    HW2 3307   1.221   1.849   4.385
  450SOL     OW 3308   1.032   0.549   3.740
  450SOL    HW1 3309   0.991   0.631   3.701
  450SOL    HW2 3310   1.096   0.575   3.813
  451SOL     OW 3311   0.561   0.222   4.871
  451SOL    HW1 3312   0.599   0.138   4.908
  451SOL    HW2 3313   0.473   0.241   4.915
  452SOL     OW 3314   0.866   0.454   4.366
  452SOL    HW1 3315   0.834   0.526   4.304
  452SOL    HW2 3316   0.890   0.373   4.313
  453SOL     OW 3317   1.017   0.039   4.477
  453SOL    HW1 3318   0.945   0.044   4.408
  453SOL    HW2 3319   0.993  -0.030   4.546
  454SOL     OW 3320   1.429   1.173   4.591
  454SOL    HW1 3321   1.374   1.089   4.584
  454SOL    HW2 3322   1.455   1.202   4.499
  455SOL     OW 3323   1.466   0.590   4.716
  455SOL    HW1 3324   1.436   0.495   4.723
  455SOL    HW2 3325   1.539   0.606   4.782
  456SOL     OW 3326   1.857   0.833   4.101
  456SOL    HW1 3327   1.899   0.769   4.165
  456SOL    HW2 3328   1.819   0.782   4.023
  457SOL     OW 3329   0.488   1.385   3.898
  457SOL    HW1 3330   0.401   1.370   3.945
  457SOL    HW2 3331   0.471   1.411   3.803
  458SOL     OW 3332   1.664   1.280   4.381
  458SOL    HW1 3333   1.763   1.288   4.395
  458SOL    HW2 3334   1.619   1.364   4.412
  459SOL     OW 3335   1.390   0.575   3.802
  459SOL    HW1 3336   1.336   0.554   3.883
  459SOL    HW2 3337   1.481   0.534   3.811
  460SOL     OW 3338   0.527   0.256   4.052
  460SOL    HW1 3339   0.554   0.197   3.977
  460SOL    HW2 3340   0.527   0.351   4.021
  461SOL     OW 3341   1.754   1.223   5.312
  461SOL    HW1 3342   1.845   1.184   5.299
  461SOL    HW2 3343   1.762   1.319   5.336
  462SOL     OW 3344   1.064   1.347   5.064
  462SOL    HW1 3345   0.984   1.324   5.119
  462SOL    HW2 3346   1.147   1.321   5.113
  463SOL     OW 3347   1.592   1.629   5.349
  463SOL    HW1 3348   1.619   1.663   5.259
  463SOL    HW2 3349   1.671   1.591   5.395
  464SOL     OW 3350   1.111   1.195   4.824
  464SOL    HW1 3351   1.071   1.239   4.905
  464SOL    HW2 3352   1.070   1.232   4.741
  465SOL     OW 3353   1.638   1.099   4.803
  465SOL    HW1 3354   1.643   1.180   4.862
  465SOL    HW2 3355   1.552   1.101   4.752
  466SOL     OW 3356   0.915   0.089   5.126
  466SOL    HW1 3357   0.940   0.069   5.031
  466SOL    HW2 3358   0.987   0.145   5.168
  467SOL     OW 3359   0.980   1.116   5.443
  467SOL    HW1 3360   0.881   1.122   5.453
  467SOL    HW2 3361   1.003   1.036   5.387
  468SOL     OW 3362   0.705   1.050   4.092
  468SOL    HW1 3363   0.691   1.057   4.191
  468SOL    HW2 3364   0.789   0.999   4.074
  469SOL     OW 3365   0.410   0.813   4.975
  469SOL    HW1 3366   0.496   0.825   5.025
  469SOL    HW2 3367   0.368   0.726   5.002
  470SOL     OW 3368   1.274   0.386   4.986
  470SOL    HW1 3369   1.295   0.460   5.050
  470SOL    HW2 3370   1.185   0.403   4.943
  471SOL     OW 3371   0.367   1.100   4.225
  471SOL    HW1 3372   0.360   1.183   4.169
  471SOL    HW2 3373   0.371   1.020   4.165
  472SOL     OW 3374   0.566   0.537   4.589
  472SOL    HW1 3375   0.578   0.603   4.515
  472SOL    HW2 3376   0.612   0.571   4.672
  473SOL     OW 3377   1.252   1.348   4.112
  473SOL    HW1 3378   1.302   1.425   4.152
  473SOL    HW2 3379   1.157   1.350   4.144
  474SOL     OW 3380   1.272   1.445   4.866
  474SOL    HW1 3381   1.319   1.458   4.953
  474SOL    HW2 3382   1.206   1.371   4.875
  475SOL     OW 3383   1.582   0.639   4.196
  475SOL    HW1 3384   1.551   0.700   4.269
  475SOL    HW2 3385   1.632   0.691   4.127
  476SOL     OW 3386   0.354   1.510   5.053
  476SOL    HW1 3387   0.333   1.466   4.966
  476SOL    HW2 3388   0.451   1.536   5.056
  477SOL     OW 3389   0.402   0.751   5.322
  477SOL    HW1 3390   0.470   0.806   5.275
  477SOL    HW2 3391   0.442   0.663   5.349
  478SOL     OW 3392   1.587   0.779   5.394
  478SOL    HW1 3393   1.495   0.817   5.389
  478SOL    HW2 3394   1.647   0.826   5.329
  479SOL     OW 3395   1.013   0.105   5.494
  479SOL    HW1 3396   1.019   0.190   5.442
  479SOL    HW2 3397   1.045   0.029   5.437
  480SOL     OW 3398   0.504   0.050   5.464
  480SOL    HW1 3399   0.462  -0.007   5.394
  480SOL    HW2 3400   0.438   0.119   5.496
  481SOL     OW 3401   0.573   0.870   4.753
  481SOL    HW1 3402   0.617   0.959   4.744
  481SOL    HW2 3403   0.510   0.870   4.830
  482SOL     OW 3404   1.360   0.862   4.769
  482SOL    HW1 3405   1.285   0.862   4.703
  482SOL    HW2 3406   1.397   0.770   4.778
  483SOL     OW 3407   1.209   0.525   3.999
  483SOL    HW1 3408   1.222   0.441   4.053
  483SOL    HW2 3409   1.180   0.599   4.059
  484SOL     OW 3410   0.732   0.634   4.788
  484SOL    HW1 3411   0.791   0.608   4.712
  484SOL    HW2 3412   0.704   0.730   4.777
  485SOL     OW 3413   1.728   0.935   5.578
  485SOL    HW1 3414   1.682   0.928   5.489
  485SOL    HW2 3415   1.666   0.979   5.644
  486SOL     OW 3416   0.307   0.063   4.342
  486SOL    HW1 3417   0.296   0.157   4.375
  486SOL    HW2 3418   0.302   0.000   4.419
  487SOL     OW 3419   1.622   0.367   4.098
  487SOL    HW1 3420   1.624   0.291   4.162
  487SOL    HW2 3421   1.574   0.444   4.138
  488SOL     OW 3422   1.023   0.766   4.690
  488SOL    HW1 3423   1.038   0.787   4.786
  488SOL    HW2 3424   0.993   0.671   4.681
  489SOL     OW 3425   0.980   1.573   5.424
  489SOL    HW1 3426   0.960   1.617   5.336
  489SOL    HW2 3427   1.019   1.482   5.408
  490SOL     OW 3428   1.859   1.518   5.329
  490SOL    HW1 3429   1.873   1.545   5.234
  490SOL    HW2 3430   1.942   1.540   5.382
  491SOL     OW 3431   0.350   0.898   5.528
  491SOL    HW1 3432   0.426   0.942   5.576
  491SOL    HW2 3433   0.385   0.851   5.446
  492SOL     OW 3434   1.540   0.274   3.849
  492SOL    HW1 3435   1.479   0.199   3.872
  492SOL    HW2 3436   1.562   0.326   3.932
  493SOL     OW 3437   1.303   0.838   3.766
  493SOL    HW1 3438   1.337   0.745   3.781
  493SOL    HW2 3439   1.321   0.865   3.671
  494SOL     OW 3440   1.068   1.333   4.573
  494SOL    HW1 3441   1.075   1.249   4.518
  494SOL    HW2 3442   1.130   1.402   4.537
  495SOL     OW 3443   0.319   0.810   4.673
  495SOL    HW1 3444   0.412   0.846   4.678
  495SOL    HW2 3445   0.313   0.725   4.725
  496SOL     OW 3446   1.138   0.380   5.402
  496SOL    HW1 3447   1.093   0.443   5.466
  496SOL    HW2 3448   1.231   0.411   5.385
  497SOL     OW 3449   1.160   0.207   5.201
  497SOL    HW1 3450   1.160   0.271   5.278
  497SOL    HW2 3451   1.188   0.255   5.118
  498SOL     OW 3452   0.504   1.568   4.634
  498SOL    HW1 3453   0.570   1.642   4.643
  498SOL    HW2 3454   0.548   1.489   4.592
  499SOL     OW 3455   1.002   0.796   4.962
  499SOL    HW1 3456   1.043   0.764   5.048
  499SOL    HW2 3457   0.906   0.769   4.959
  500SOL     OW 3458   1.369   0.950   5.384
  500SOL    HW1 3459   1.408   1.039   5.404
  500SOL    HW2 3460   1.379   0.930   5.287
  501SOL     OW 3461   0.815   0.572   4.049
  501SOL    HW1 3462   0.822   0.483   4.003
  501SOL    HW2 3463   0.721   0.606   4.041
  502SOL     OW 3464   1.657   0.604   4.930
  502SOL    HW1 3465   1.619   0.535   4.992
  502SOL    HW2 3466   1.739   0.568   4.886
  503SOL     OW 3467   0.671   0.464   4.993
  503SOL    HW1 3468   0.637   0.375   4.963
  503SOL    HW2 3469   0.697   0.518   4.913
  504SOL     OW 3470   0.930   1.678   5.189
  504SOL    HW1 3471   0.906   1.660   5.094
  504SOL    HW2 3472   0.960   1.772   5.199
  505SOL     OW 3473   0.473   0.500   3.915
  505SOL    HW1 3474   0.534   0.580   3.919
  505SOL    HW2 3475   0.378   0.531   3.922
  506SOL     OW 3476   1.347   1.059   4.958
  506SOL    HW1 3477   1.371   0.996   4.884
  506SOL    HW2 3478   1.257   1.099   4.940
  507SOL     OW 3479   1.302   0.855   4.033
  507SOL    HW1 3480   1.216   0.824   4.075
  507SOL    HW2 3481   1.298   0.841   3.934
  508SOL     OW 3482   1.759   1.747   4.878
  508SOL    HW1 3483   1.820   1.777   4.805
  508SOL    HW2 3484   1.721   1.658   4.856
  509SOL     OW 3485   1.252   1.731   4.852
  509SOL    HW1 3486   1.336   1.736   4.798
  509SOL    HW2 3487   1.229   1.635   4.870
  510SOL     OW 3488   0.688   1.662   5.440
  510SOL    HW1 3489   0.632   1.743   5.449
  510SOL    HW2 3490   0.740   1.666   5.354
  511SOL     OW 3491   1.726   0.135   4.247
  511SOL    HW1 3492   1.799   0.118   4.180
  511SOL    HW2 3493   1.695   0.048   4.285
  512SOL     OW 3494   1.388   1.573   4.201
  512SOL    HW1 3495   1.455   1.585   4.127
  512SOL    HW2 3496   1.348   1.662   4.224
  513SOL     OW 3497   0.130   1.794   5.575
  513SOL    HW1 3498   0.089   1.720   5.628
  513SOL    HW2 3499   0.194   1.845   5.633
  514SOL     OW 3500   1.280   0.927   4.396
  514SOL    HW1 3501   1.340   0.846   4.398
  514SOL    HW2 3502   1.320   0.996   4.336
  515SOL     OW 3503   0.830   1.273   5.146
  515SOL    HW1 3504   0.825   1.306   5.241
  515SOL    HW2 3505   0.744   1.292   5.100
  516SOL     OW 3506   0.672   1.616   3.878
  516SOL    HW1 3507   0.681   1.626   3.779
  516SOL    HW2 3508   0.632   1.527   3.899
  517SOL     OW 3509   1.650   1.720   5.118
  517SOL    HW1 3510   1.703   1.730   5.034
  517SOL    HW2 3511   1.623   1.810   5.152
  518SOL     OW 3512   1.841   0.175   4.687
  518SOL    HW1 3513   1.880   0.090   4.651
  518SOL    HW2 3514   1.743   0.177   4.668
  519SOL     OW 3515   0.263   0.326   4.444
  519SOL    HW1 3516   0.184   0.377   4.410
  519SOL    HW2 3517   0.254   0.311   4.542
  520SOL     OW 3518   1.194   1.612   3.755
  520SOL    HW1 3519   1.200   1.519   3.792
  520SOL    HW2 3520   1.135   1.612   3.675
  521SOL     OW 3521   0.822   1.002   5.096
  521SOL    HW1 3522   0.862   1.001   5.004
  521SOL    HW2 3523   0.832   1.094   5.136
  522SOL     OW 3524   0.916   0.910   4.015
  522SOL    HW1 3525   0.979   0.948   3.947
  522SOL    HW2 3526   0.956   0.827   4.054
  523SOL     OW 3527   1.504   1.607   3.768
  523SOL    HW1 3528   1.412   1.644   3.775
  523SOL    HW2 3529   1.542   1.627   3.678
  524SOL     OW 3530   0.372   1.288   5.214
  524SOL    HW1 3531   0.359   1.381   5.180
  524SOL    HW2 3532   0.288   1.236   5.201
  525SOL     OW 3533   1.614   1.292   5.013
  525SOL    HW1 3534   1.674   1.295   5.093
  525SOL    HW2 3535   1.539   1.356   5.026
  526SOL     OW 3536   1.039   1.098   4.420
  526SOL    HW1 3537   0.969   1.051   4.474
  526SOL    HW2 3538   1.098   1.030   4.377
  527SOL     OW 3539   1.014   0.236   4.695
  527SOL    HW1 3540   1.006   0.200   4.602
  527SOL    HW2 3541   1.012   0.160   4.760
  528SOL     OW 3542   0.590   1.487   4.215
  528SOL    HW1 3543   0.632   1.429   4.145
  528SOL    HW2 3544   0.546   1.566   4.171
  529SOL     OW 3545   1.709   0.385   5.105
  529SOL    HW1 3546   1.782   0.454   5.109
  529SOL    HW2 3547   1.737   0.310   5.046
  530SOL     OW 3548   0.255   1.348   4.014
  530SOL    HW1 3549   0.159   1.349   3.987
  530SOL    HW2 3550   0.267   1.401   4.098
  531SOL     OW 3551   0.672   0.203   5.213
  531SOL    HW1 3552   0.762   0.187   5.173
  531SOL    HW2 3553   0.680   0.208   5.312
  532SOL     OW 3554   1.440   0.856   5.122
  532SOL    HW1 3555   1.383   0.908   5.059
  532SOL    HW2 3556   1.536   0.868   5.098
  533SOL     OW 3557   1.183   1.335   3.843
  533SOL    HW1 3558   1.084   1.324   3.845
  533SOL    HW2 3559   1.217   1.350   3.936
  534SOL     OW 3560   0.613   0.842   5.155
  534SOL    HW1 3561   0.669   0.923   5.138
  534SOL    HW2 3562   0.672   0.762   5.158
  535SOL     OW 3563   1.493   1.767   4.683
  535SOL    HW1 3564   1.526   1.831   4.614
  535SOL    HW2 3565   1.559   1.761   4.758
  536SOL     OW 3566   0.716   0.565   5.432
  536SOL    HW1 3567   0.735   0.630   5.506
  536SOL    HW2 3568   0.776   0.485   5.441
  537SOL     OW 3569   1.450   1.220   5.357
  537SOL    HW1 3570   1.441   1.210   5.456
  537SOL    HW2 3571   1.546   1.213   5.331
  538SOL     OW 3572   0.390   1.741   5.284
  538SOL    HW1 3573   0.299   1.782   5.282
  538SOL    HW2 3574   0.383   1.647   5.316
  539SOL     OW 3575   1.674   0.883   4.978
  539SOL    HW1 3576   1.647   0.794   4.941
  539SOL    HW2 3577   1.675   0.951   4.905
  540SOL     OW 3578   1.225   0.325   4.173
  540SOL    HW1 3579   1.290   0.251   4.162
  540SOL    HW2 3580   1.245   0.375   4.257
  541SOL     OW 3581   0.594   0.745   4.376
  541SOL    HW1 3582   0.644   0.830   4.357
  541SOL    HW2 3583   0.506   0.747   4.328
  542SOL     OW 3584   1.777   0.342   5.366
  542SOL    HW1 3585   1.760   0.373   5.272
  542SOL    HW2 3586   1.693   0.305   5.404
  543SOL     OW 3587   1.730   0.934   5.241
  543SOL    HW1 3588   1.768   1.025   5.256
  543SOL    HW2 3589   1.722   0.917   5.142
  544SOL     OW 3590   0.859   1.374   3.740
  544SOL    HW1 3591   0.813   1.389   3.828
  544SOL    HW2 3592   0.903   1.459   3.710
  545SOL     OW 3593   0.661   1.790   4.677
  545SOL    HW1 3594   0.615   1.878   4.664
  545SOL    HW2 3595   0.760   1.802   4.670
  546SOL     OW 3596   1.408   1.851   5.444
  546SOL    HW1 3597   1.312   1.840   5.417
  546SOL    HW2 3598   1.464   1.784   5.396
  547SOL     OW 3599   0.859   0.956   4.585
  547SOL    HW1 3600   0.913   0.887   4.633
  547SOL    HW2 3601   0.827   1.025   4.651
  548SOL     OW 3602   1.083   0.984   3.811
  548SOL    HW1 3603   1.060   1.037   3.729
  548SOL    HW2 3604   1.164   0.928   3.792
  549SOL     OW 3605   1.861   1.569   4.575
  549SOL    HW1 3606   1.790   1.557   4.505
  549SOL    HW2 3607   1.862   1.490   4.635
  550SOL     OW 3608   0.672   1.391   5.348
  550SOL    HW1 3609   0.594   1.341   5.386
  550SOL    HW2 3610   0.669   1.486   5.379
  551SOL     OW 3611   1.824   0.192   4.951
  551SOL    HW1 3612   1.820   0.102   4.995
  551SOL    HW2 3613   1.827   0.181   4.852
  552SOL     OW 3614   0.428   0.424   4.244
  552SOL    HW1 3615   0.458   0.352   4.182
  552SOL    HW2 3616   0.389   0.384   4.327
  553SOL     OW 3617   1.705   1.487   4.828
  553SOL    HW1 3618   1.612   1.462   4.801
  553SOL    HW2 3619   1.731   1.437   4.910
  554SOL     OW 3620   0.812   1.586   4.411
  554SOL    HW1 3621   0.844   1.596   4.317
  554SOL    HW2 3622   0.733   1.524   4.413
  555SOL     OW 3623   1.424   0.214   4.836
  555SOL    HW1 3624   1.476   0.149   4.891
  555SOL    HW2 3625   1.375   0.277   4.897
  556SOL     OW 3626   1.001   0.034   4.878
  556SOL    HW1 3627   0.938  -0.038   4.847
  556SOL    HW2 3628   1.094  -0.002   4.878
  557SOL     OW 3629   0.770   1.330   4.025
  557SOL    HW1 3630   0.724   1.243   4.042
  557SOL    HW2 3631   0.861   1.327   4.066
  558SOL     OW 3632   0.618   1.567   5.008
  558SOL    HW1 3633   0.613   1.649   5.065
  558SOL    HW2 3634   0.707   1.564   4.963
  559SOL     OW 3635   1.352   0.052   3.892
  559SOL    HW1 3636   1.387   0.011   3.808
  559SOL    HW2 3637   1.262   0.014   3.912
  560SOL     OW 3638   1.300   0.453   4.415
  560SOL    HW1 3639   1.241   0.533   4.419
  560SOL    HW2 3640   1.315   0.418   4.508
  561SOL     OW 3641   1.593   0.221   4.606
  561SOL    HW1 3642   1.509   0.220   4.660
  561SOL    HW2 3643   1.595   0.304   4.550
  562SOL     OW 3644   0.875   1.646   4.061
  562SOL    HW1 3645   0.798   1.611   4.007
  562SOL    HW2 3646   0.843   1.717   4.123
  563SOL     OW 3647   0.019   0.368   6.233
  563SOL    HW1 3648  -0.063   0.411   6.272
  563SOL    HW2 3649  -0.009   0.295   6.170
  564SOL     OW 3650   0.569   1.275   6.751
  564SOL    HW1 3651   0.476   1.268   6.714
  564SOL    HW2 3652   0.580   1.364   6.795
  565SOL     OW 3653   1.555   1.511   6.289
  565SOL    HW1 3654   1.498   1.495   6.370
  565SOL    HW2 3655   1.496   1.521   6.209
  566SOL     OW 3656   1.743   0.618   6.442
  566SOL    HW1 3657   1.776   0.712   6.442
  566SOL    HW2 3658   1.794   0.564   6.508
  567SOL     OW 3659   1.135   0.703   6.303
  567SOL    HW1 3660   1.192   0.781   6.278
  567SOL    HW2 3661   1.075   0.729   6.379
  568SOL     OW 3662   1.755   0.607   5.817
  568SOL    HW1 3663   1.743   0.594   5.718
  568SOL    HW2 3664   1.725   0.526   5.866
  569SOL     OW 3665   0.768   1.144   6.609
  569SOL    HW1 3666   0.690   1.161   6.669
  569SOL    HW2 3667   0.802   1.231   6.573
  570SOL     OW 3668   0.850   0.798   7.409
  570SOL    HW1 3669   0.846   0.874   7.474
  570SOL    HW2 3670   0.872   0.834   7.318
  571SOL     OW 3671   0.685   1.012   6.251
  571SOL    HW1 3672   0.754   0.996   6.321
  571SOL    HW2 3673   0.612   1.069   6.289
  572SOL     OW 3674   0.686   1.161   7.389
  572SOL    HW1 3675   0.746   1.240   7.403
  572SOL    HW2 3676   0.600   1.192   7.348
  573SOL     OW 3677   0.335   1.435   6.647
  573SOL    HW1 3678   0.257   1.404   6.594
  573SOL    HW2 3679   0.393   1.493   6.590
  574SOL     OW 3680   1.460   1.505   6.925
  574SOL    HW1 3681   1.484   1.599   6.951
  574SOL    HW2 3682   1.444   1.451   7.007
  575SOL     OW 3683   0.438   0.392   7.085
  575SOL    HW1 3684   0.520   0.336   7.094
  575SOL    HW2 3685   0.357   0.334   7.089
  576SOL     OW 3686   1.603   0.447   6.323
  576SOL    HW1 3687   1.529   0.493   6.273
  576SOL    HW2 3688   1.654   0.515   6.376
  577SOL     OW 3689   1.127   1.341   7.276
  577SOL    HW1 3690   1.174   1.341   7.364
  577SOL    HW2 3691   1.079   1.254   7.265
  578SOL     OW 3692   0.620   1.786   7.025
  578SOL    HW1 3693   0.528   1.769   7.060
  578SOL    HW2 3694   0.648   1.878   7.051
  579SOL     OW 3695   0.606   0.964   5.709
  579SOL    HW1 3696   0.613   1.048   5.655
  579SOL    HW2 3697   0.652   0.977   5.797
  580SOL     OW 3698   1.594   0.114   7.066
  580SOL    HW1 3699   1.576   0.181   6.994
  580SOL    HW2 3700   1.591   0.160   7.155
  581SOL     OW 3701   1.842   1.767   5.945
  581SOL    HW1 3702   1.896   1.738   6.025
  581SOL    HW2 3703   1.872   1.857   5.916
  582SOL     OW 3704   1.689   0.922   6.198
  582SOL    HW1 3705   1.784   0.893   6.206
  582SOL    HW2 3706   1.681   0.987   6.123
  583SOL     OW 3707   1.641   1.108   6.018
  583SOL    HW1 3708   1.727   1.110   5.966
  583SOL    HW2 3709   1.655   1.155   6.106
  584SOL     OW 3710   0.613   1.365   6.312
  584SOL    HW1 3711   0.564   1.278   6.321
  584SOL    HW2 3712   0.590   1.408   6.225
  585SOL     OW 3713   1.293   1.228   7.009
  585SOL    HW1 3714   1.330   1.155   6.951
  585SOL    HW2 3715   1.345   1.233   7.094
  586SOL     OW 3716   0.809   0.004   6.088
  586SOL    HW1 3717   0.849   0.095   6.079
  586SOL    HW2 3718   0.709   0.012   6.094
  587SOL     OW 3719   1.525   0.999   5.776
  587SOL    HW1 3720   1.462   0.923   5.789
  587SOL    HW2 3721   1.573   1.017   5.862
  588SOL     OW 3722   1.187   1.792   7.202
  588SOL    HW1 3723   1.211   1.852   7.126
  588SOL    HW2 3724   1.194   1.697   7.172
  589SOL     OW 3725   0.317   0.251   7.387
  589SOL    HW1 3726   0.388   0.322   7.393
  589SOL    HW2 3727   0.229   0.290   7.415
  590SOL     OW 3728   1.466   1.417   6.539
  590SOL    HW1 3729   1.407   1.423   6.619
  590SOL    HW2 3730   1.451   1.329   6.493
  591SOL     OW 3731   1.667   1.714   6.158
  591SOL    HW1 3732   1.626   1.691   6.070
  591SOL    HW2 3733   1.649   1.640   6.223
  592SOL     OW 3734   0.598   0.729   5.856
  592SOL    HW1 3735   0.622   0.798   5.788
  592SOL    HW2 3736   0.520   0.762   5.910
  593SOL     OW 3737   1.281   0.345   6.530
  593SOL    HW1 3738   1.195   0.295   6.517
  593SOL    HW2 3739   1.343   0.291   6.586
  594SOL     OW 3740   1.576   1.662   5.893
  594SOL    HW1 3741   1.665   1.708   5.896
  594SOL    HW2 3742   1.555   1.638   5.798
  595SOL     OW 3743   0.807   0.605   7.051
  595SOL    HW1 3744   0.760   0.602   7.140
  595SOL    HW2 3745   0.756   0.550   6.985
  596SOL     OW 3746   1.394   0.469   7.260
  596SOL    HW1 3747   1.374   0.512   7.348
  596SOL    HW2 3748   1.472   0.407   7.269
  597SOL     OW 3749   0.973   0.890   7.158
  597SOL    HW1 3750   1.019   0.806   7.129
  597SOL    HW2 3751   0.917   0.924   7.083
  598SOL     OW 3752   0.991   0.410   6.828
  598SOL    HW1 3753   0.914   0.444   6.882
  598SOL    HW2 3754   0.957   0.359   6.749
  599SOL     OW 3755   1.041   0.701   6.015
  599SOL    HW1 3756   1.067   0.697   6.111
  599SOL    HW2 3757   0.956   0.650   6.001
  600SOL     OW 3758   0.865   0.348   5.781
  600SOL    HW1 3759   0.924   0.411   5.732
  600SOL    HW2 3760   0.884   0.254   5.752
  601SOL     OW 3761   1.719   0.585   7.417
  601SOL    HW1 3762   1.693   0.674   7.381
  601SOL    HW2 3763   1.717   0.517   7.344
  602SOL     OW 3764   1.362   1.144   6.131
  602SOL    HW1 3765   1.445   1.115   6.083
  602SOL    HW2 3766   1.313   1.211   6.075
  603SOL     OW 3767   0.550   0.196   6.471
  603SOL    HW1 3768   0.545   0.191   6.571
  603SOL    HW2 3769   0.552   0.292   6.442
  604SOL     OW 3770   1.008   1.456   6.063
  604SOL    HW1 3771   0.962   1.528   6.011
  604SOL    HW2 3772   1.004   1.476   6.161
  605SOL     OW 3773   0.351   1.801   6.439
  605SOL    HW1 3774   0.401   1.715   6.445
  605SOL    HW2 3775   0.416   1.878   6.436
  606SOL     OW 3776   1.795   1.066   6.459
  606SOL    HW1 3777   1.733   1.051   6.383
  606SOL    HW2 3778   1.743   1.077   6.544
  607SOL     OW 3779   1.227   1.550   7.092
  607SOL    HW1 3780   1.233   1.473   7.156
  607SOL    HW2 3781   1.175   1.524   7.012
  608SOL     OW 3782   0.321   0.943   5.828
  608SOL    HW1 3783   0.403   0.982   5.786
  608SOL    HW2 3784   0.294   0.861   5.779
  609SOL     OW 3785   1.458   0.735   6.314
  609SOL    HW1 3786   1.453   0.670   6.389
  609SOL    HW2 3787   1.538   0.794   6.327
  610SOL     OW 3788   0.461   1.266   7.313
  610SOL    HW1 3789   0.411   1.267   7.227
  610SOL    HW2 3790   0.398   1.248   7.389
  611SOL     OW 3791   1.111   1.776   5.823
  611SOL    HW1 3792   1.051   1.714   5.873
  611SOL    HW2 3793   1.142   1.732   5.738
  612SOL     OW 3794   1.632   1.377   5.667
  612SOL    HW1 3795   1.600   1.471   5.657
  612SOL    HW2 3796   1.556   1.314   5.655
  613SOL     OW 3797   0.464   1.743   5.909
  613SOL    HW1 3798   0.497   1.782   5.995
  613SOL    HW2 3799   0.540   1.736   5.844
  614SOL     OW 3800   1.400   0.107   6.012
  614SOL    HW1 3801   1.376   0.070   5.922
  614SOL    HW2 3802   1.499   0.123   6.016
  615SOL     OW 3803   0.940   1.698   6.490
  615SOL    HW1 3804   1.020   1.641   6.511
  615SOL    HW2 3805   0.891   1.658   6.413
  616SOL     OW 3806   0.382   0.700   6.066
  616SOL    HW1 3807   0.427   0.610   6.063
  616SOL    HW2 3808   0.288   0.689   6.099
  617SOL     OW 3809   1.547   0.222   7.315
  617SOL    HW1 3810   1.542   0.259   7.407
  617SOL    HW2 3811   1.475   0.153   7.303
  618SOL     OW 3812   0.614   0.122   5.703
  618SOL    HW1 3813   0.712   0.100   5.710
  618SOL    HW2 3814   0.583   0.105   5.610
  619SOL     OW 3815   0.781   0.264   7.335
  619SOL    HW1 3816   0.848   0.203   7.378
  619SOL    HW2 3817   0.708   0.283   7.400
  620SOL     OW 3818   0.888   1.514   6.781
  620SOL    HW1 3819   0.865   1.489   6.687
  620SOL    HW2 3820   0.949   1.445   6.820
  621SOL     OW 3821   1.351   0.590   7.019
  621SOL    HW1 3822   1.379   0.547   7.104
  621SOL    HW2 3823   1.376   0.686   7.020
  622SOL     OW 3824   0.803   1.402   6.510
  622SOL    HW1 3825   0.893   1.416   6.468
  622SOL    HW2 3826   0.732   1.404   6.439
  623SOL     OW 3827   0.922   0.503   6.485
  623SOL    HW1 3828   0.897   0.494   6.389
  623SOL    HW2 3829   0.970   0.421   6.516
  624SOL     OW 3830   0.539   0.064   6.098
  624SOL    HW1 3831   0.458   0.065   6.156
  624SOL    HW2 3832   0.542   0.147   6.043
  625SOL     OW 3833   1.434   1.188   5.627
  625SOL    HW1 3834   1.466   1.112   5.684
  625SOL    HW2 3835   1.342   1.215   5.657
  626SOL     OW 3836   0.297   0.035   5.757
  626SOL    HW1 3837   0.346   0.119   5.736
  626SOL    HW2 3838   0.359  -0.030   5.802
  627SOL     OW 3839   0.935   0.236   6.066
  627SOL    HW1 3840   0.887   0.277   5.988
  627SOL    HW2 3841   1.034   0.234   6.047
  628SOL     OW 3842   1.076   0.683   7.050
  628SOL    HW1 3843   0.996   0.622   7.053
  628SOL    HW2 3844   1.157   0.630   7.026
  629SOL     OW 3845   1.227   1.570   6.379
  629SOL    HW1 3846   1.248   1.644   6.314
  629SOL    HW2 3847   1.295   1.570   6.452
  630SOL     OW 3848   0.459   1.152   6.327
  630SOL    HW1 3849   0.388   1.125   6.392
  630SOL    HW2 3850   0.433   1.124   6.234
  631SOL     OW 3851   1.271   1.797   6.177
  631SOL    HW1 3852   1.315   1.861   6.113
  631SOL    HW2 3853   1.221   1.849   6.247
  632SOL     OW 3854   1.032   0.549   5.602
  632SOL    HW1 3855   0.991   0.631   5.563
  632SOL    HW2 3856   1.096   0.575   5.675
  633SOL     OW 3857   0.561   0.222   6.733
  633SOL    HW1 3858   0.599   0.138   6.770
  633SOL    HW2 3859   0.473   0.241   6.777
  634SOL     OW 3860   0.866   0.454   6.228
  634SOL    HW1 3861   0.834   0.526   6.166
  634SOL    HW2 3862   0.890   0.373   6.175
  635SOL     OW 3863   1.017   0.039   6.339
  635SOL    HW1 3864   0.945   0.044   6.270
  635SOL    HW2 3865   0.993  -0.030   6.408
  636SOL     OW 3866   1.429   1.173   6.453
  636SOL    HW1 3867   1.374   1.089   6.446
  636SOL    HW2 3868   1.455   1.202   6.361
  637SOL     OW 3869   1.466   0.590   6.578
  637SOL    HW1 3870   1.436   0.495   6.585
  637SOL    HW2 3871   1.539   0.606   6.644
  638SOL     OW 3872   1.857   0.833   5.963
  638SOL    HW1 3873   1.899   0.769   6.027
  638SOL    HW2 3874   1.819   0.782   5.885
  639SOL     OW 3875   0.488   1.385   5.760
  639SOL    HW1 3876   0.401   1.370   5.807
  639SOL    HW2 3877   0.471   1.411   5.665
  640SOL     OW 3878   1.664   1.280   6.243
  640SOL    HW1 3879   1.763   1.288   6.257
  640SOL    HW2 3880   1.619   1.364   6.274
  641SOL     OW 3881   1.390   0.575   5.664
  641SOL    HW1 3882   1.336   0.554   5.745
  641SOL    HW2 3883   1.481   0.534   5.673
  642SOL     OW 3884   0.527   0.256   5.914
  642SOL    HW1 3885   0.554   0.197   5.839
  642SOL    HW2 3886   0.527   0.351   5.883
  643SOL     OW 3887   1.754   1.223   7.174
  643SOL    HW1 3888   1.845   1.184   7.161
  643SOL    HW2 3889   1.762   1.319   7.198
  644SOL     OW 3890   1.064   1.347   6.926
  644SOL    HW1 3891   0.984   1.324   6.981
  644SOL    HW2 3892   1.147   1.321   6.975
  645SOL     OW 3893   1.592   1.629   7.211
  645SOL    HW1 3894   1.619   1.663   7.121
  645SOL    HW2 3895   1.671   1.591   7.257
  646SOL     OW 3896   1.111   1.195   6.686
  646SOL    HW1 3897   1.071   1.239   6.767
  646SOL    HW2 3898   1.070   1.232   6.603
  647SOL     OW 3899   1.638   1.099   6.665
  647SOL    HW1 3900   1.643   1.180   6.724
  647SOL    HW2 3901   1.552   1.101   6.614
  648SOL     OW 3902   0.915   0.089   6.988
  648SOL    HW1 3903   0.940   0.069   6.893
  648SOL    HW2 3904   0.987   0.145   7.030
  649SOL     OW 3905   0.980   1.116   7.305
  649SOL    HW1 3906   0.881   1.122   7.315
  649SOL    HW2 3907   1.003   1.036   7.249
  650SOL     OW 3908   0.705   1.050   5.954
  650SOL    HW1 3909   0.691   1.057   6.053
  650SOL    HW2 3910   0.789   0.999   5.936
  651SOL     OW 3911   0.410   0.813   6.837
  651SOL    HW1 3912   0.496   0.825   6.887
  651SOL    HW2 3913   0.368   0.726   6.864
  652SOL     OW 3914   1.274   0.386   6.848
  652SOL    HW1 3915   1.295   0.460   6.912
  652SOL    HW2 3916   1.185   0.403   6.805
  653SOL     OW 3917   0.367   1.100   6.087
  653SOL    HW1 3918   0.360   1.183   6.031
  653SOL    HW2 3919   0.371   1.020   6.027
  654SOL     OW 3920   0.566   0.537   6.451
  654SOL    HW1 3921   0.578   0.603   6.377
  654SOL    HW2 3922   0.612   0.571   6.534
  655SOL     OW 3923   1.252   1.348   5.974
  655SOL    HW1 3924   1.302   1.425   6.014
  655SOL    HW2 3925   1.157   1.350   6.006
  656SOL     OW 3926   1.272   1.445   6.728
  656SOL    HW1 3927   1.319   1.458   6.815
  656SOL    HW2 3928   1.206   1.371   6.737
  657SOL     OW 3929   1.582   0.639   6.058
  657SOL    HW1 3930   1.551   0.700   6.131
  657SOL    HW2 3931   1.632   0.691   5.989
  658SOL     OW 3932   0.354   1.510   6.915
  658SOL    HW1 3933   0.333   1.466   6.828
  658SOL    HW2 3934   0.451   1.536   6.918
  659SOL     OW 3935   0.402   0.751   7.184
  659SOL    HW1 3936   0.470   0.806   7.137
  659SOL    HW2 3937   0.442   0.663   7.211
  660SOL     OW 3938   1.587   0.779   7.256
  660SOL    HW1 3939   1.495   0.817   7.251
  660SOL    HW2 3940   1.647   0.826   7.191
  661SOL     OW 3941   1.013   0.105   7.356
  661SOL    HW1 3942   1.019   0.190   7.304
  661SOL    HW2 3943   1.045   0.029   7.299
  662SOL     OW 3944   0.504   0.050   7.326
  662SOL    HW1 3945   0.462  -0.007   7.256
  662SOL    HW2 3946   0.438   0.119   7.358
  663SOL     OW 3947   0.573   0.870   6.615
  663SOL    HW1 3948   0.617   0.959   6.606
  663SOL    HW2 3949   0.510   0.870   6.692
  664SOL     OW 3950   1.360   0.862   6.631
  664SOL    HW1 3951   1.285   0.862   6.565
  664SOL    HW2 3952   1.397   0.770   6.640
  665SOL     OW 3953   1.209   0.525   5.861
  665SOL    HW1 3954   1.222   0.441   5.915
  665SOL    HW2 3955   1.180   0.599   5.921
  666SOL     OW 3956   0.732   0.634   6.650
  666SOL    HW1 3957   0.791   0.608   6.574
  666SOL    HW2 3958   0.704   0.730   6.639
  667SOL     OW 3959   1.728   0.935   7.440
  667SOL    HW1 3960   1.682   0.928   7.351
  667SOL    HW2 3961   1.666   0.979   7.506
  668SOL     OW 3962   0.307   0.063   6.204
  668SOL    HW1 3963   0.296   0.157   6.237
  668SOL    HW2 3964   0.302   0.000   6.281
  669SOL     OW 3965   1.622   0.367   5.960
  669SOL    HW1 3966   1.624   0.291   6.024
  669SOL    HW2 3967   1.574   0.444   6.000
  670SOL     OW 3968   1.023   0.766   6.552
  670SOL    HW1 3969   1.038   0.787   6.648
  670SOL    HW2 3970   0.993   0.671   6.543
  671SOL     OW 3971   0.980   1.573   7.286
  671SOL    HW1 3972   0.960   1.617   7.198
  671SOL    HW2 3973   1.019   1.482   7.270
  672SOL     OW 3974   1.859   1.518   7.191
  672SOL    HW1 3975   1.873   1.545   7.096
  672SOL    HW2 3976   1.942   1.540   7.244
  673SOL     OW 3977   0.350   0.898   7.390
  673SOL    HW1 3978   0.426   0.942   7.438
  673SOL    HW2 3979   0.385   0.851   7.308
  674SOL     OW 3980   1.540   0.274   5.711
  674SOL    HW1 3981   1.479   0.199   5.734
  674SOL    HW2 3982   1.562   0.326   5.794
  675SOL     OW 3983   1.303   0.838   5.628
  675SOL    HW1 3984   1.337   0.745   5.643
  675SOL    HW2 3985   1.321   0.865   5.533
  676SOL     OW 3986   1.068   1.333   6.435
  676SOL    HW1 3987   1.075   1.249   6.380
  676SOL    HW2 3988   1.130   1.402   6.399
  677SOL     OW 3989   0.319   0.810   6.535
  677SOL    HW1 3990   0.412   0.846   6.540
  677SOL    HW2 3991   0.313   0.725   6.587
  678SOL     OW 3992   1.138   0.380   7.264
  678SOL    HW1 3993   1.093   0.443   7.328
  678SOL    HW2 3994   1.231   0.411   7.247
  679SOL     OW 3995   1.160   0.207   7.063
  679SOL    HW1 3996   1.160   0.271   7.140
  679SOL    HW2 3997   1.188   0.255   6.980
  680SOL     OW 3998   0.504   1.568   6.496
  680SOL    HW1 3999   0.570   1.642   6.505
  680SOL    HW2 4000   0.548   1.489   6.454
  681SOL     OW 4001   1.002   0.796   6.824
  681SOL    HW1 4002   1.043   0.764   6.910
  681SOL    HW2 4003   0.906   0.769   6.821
  682SOL     OW 4004   1.369   0.950   7.246
  682SOL    HW1 4005   1.408   1.039   7.266
  682SOL    HW2 4006   1.379   0.930   7.149
  683SOL     OW 4007   0.815   0.572   5.911
  683SOL    HW1 4008   0.822   0.483   5.865
  683SOL    HW2 4009   0.721   0.606   5.903
  684SOL     OW 4010   1.657   0.604   6.792
  684SOL    HW1 4011   1.619   0.535   6.854
  684SOL    HW2 4012   1.739   0.568   6.748
  685SOL     OW 4013   0.671   0.464   6.855
  685SOL    HW1 4014   0.637   0.375   6.825
  685SOL    HW2 4015   0.697   0.518   6.775
  686SOL     OW 4016   0.930   1.678   7.051
  686SOL    HW1 4017   0.906   1.660   6.956
  686SOL    HW2 4018   0.960   1.772   7.061
  687SOL     OW 4019   0.473   0.500   5.777
  687SOL    HW1 4020   0.534   0.580   5.781
  687SOL    HW2 4021   0.378   0.531   5.784
  688SOL     OW 4022   1.347   1.059   6.820
  688SOL    HW1 4023   1.371   0.996   6.746
  688SOL    HW2 4024   1.257   1.099   6.802
  689SOL     OW 4025   1.302   0.855   5.895
  689SOL    HW1 4026   1.216   0.824   5.937
  689SOL    HW2 4027   1.298   0.841   5.796
  690SOL     OW 4028   1.759   1.747   6.740
  690SOL    HW1 4029   1.820   1.777   6.667
  690SOL    HW2 4030   1.721   1.658   6.718
  691SOL     OW 4031   1.252   1.731   6.714
  691SOL    HW1 4032   1.336   1.736   6.660
  691SOL    HW2 4033   1.229   1.635   6.732
  692SOL     OW 4034   0.688   1.662   7.302
  692SOL    HW1 4035   0.632   1.743   7.311
  692SOL    HW2 4036   0.740   1.666   7.216
  693SOL     OW 4037   1.726   0.135   6.109
  693SOL    HW1 4038   1.799   0.118   6.042
  693SOL    HW2 4039   1.695   0.048   6.147
  694SOL     OW 4040   1.388   1.573   6.063
  694SOL    HW1 4041   1.455   1.585   5.989
  694SOL    HW2 4042   1.348   1.662   6.086
  695SOL     OW 4043   0.130   1.794   7.437
  695SOL    HW1 4044   0.089   1.720   7.490
  695SOL    HW2 4045   0.194   1.845   7.495
  696SOL     OW 4046   1.280   0.927   6.258
  696SOL    HW1 4047   1.340   0.846   6.260
  696SOL    HW2 4048   1.320   0.996   6.198
  697SOL     OW 4049   0.830   1.273   7.008
  697SOL    HW1 4050   0.825   1.306   7.103
  697SOL    HW2 4051   0.744   1.292   6.962
  698SOL     OW 4052   0.672   1.616   5.740
  698SOL    HW1 4053   0.681   1.626   5.641
  698SOL    HW2 4054   0.632   1.527   5.761
  699SOL     OW 4055   1.650   1.720   6.980
  699SOL    HW1 4056   1.703   1.730   6.896
  699SOL    HW2 4057   1.623   1.810   7.014
  700SOL     OW 4058   1.841   0.175   6.549
  700SOL    HW1 4059   1.880   0.090   6.513
  700SOL    HW2 4060   1.743   0.177   6.530
  701SOL     OW 4061   0.263   0.326   6.306
  701SOL    HW1 4062   0.184   0.377   6.272
  701SOL    HW2 4063   0.254   0.311   6.404
  702SOL     OW 4064   1.194   1.612   5.617
  702SOL    HW1 4065   1.200   1.519   5.654
  702SOL    HW2 4066   1.135   1.612   5.537
  703SOL     OW 4067   0.822   1.002   6.958
  703SOL    HW1 4068   0.862   1.001   6.866
  703SOL    HW2 4069   0.832   1.094   6.998
  704SOL     OW 4070   0.916   0.910   5.877
  704SOL    HW1 4071   0.979   0.948   5.809
  704SOL    HW2 4072   0.956   0.827   5.916
  705SOL     OW 4073   1.504   1.607   5.630
  705SOL    HW1 4074   1.412   1.644   5.637
  705SOL    HW2 4075   1.542   1.627   5.540
  706SOL     OW 4076   0.372   1.288   7.076
  706SOL    HW1 4077   0.359   1.381   7.042
  706SOL    HW2 4078   0.288   1.236   7.063
  707SOL     OW 4079   1.614   1.292   6.875
  707SOL    HW1 4080   1.674   1.295   6.955
  707SOL    HW2 4081   1.539   1.356   6.888
  708SOL     OW 4082   1.039   1.098   6.282
  708SOL    HW1 4083   0.969   1.051   6.336
  708SOL    HW2 4084   1.098   1.030   6.239
  709SOL     OW 4085   1.014   0.236   6.557
  709SOL    HW1 4086   1.006   0.200   6.464
  709SOL    HW2 4087   1.012   0.160   6.622
  710SOL     OW 4088   0.590   1.487   6.077
  710SOL    HW1 4089   0.632   1.429   6.007
  710SOL    HW2 4090   0.546   1.566   6.033
  711SOL     OW 4091   1.709   0.385   6.967
  711SOL    HW1 4092   1.782   0.454   6.971
  711SOL    HW2 4093   1.737   0.310   6.908
  712SOL     OW 4094   0.255   1.348   5.876
  712SOL    HW1 4095   0.159   1.349   5.849
  712SOL    HW2 4096   0.267   1.401   5.960
  713SOL     OW 4097   0.672   0.203   7.075
  713SOL    HW1 4098   0.762   0.187   7.035
  713SOL    HW2 4099   0.680   0.208   7.174
  714SOL     OW 4100   1.440   0.856   6.984
  714SOL    HW1 4101   1.383   0.908   6.921
  714SOL    HW2 4102   1.536   0.868   6.960
  715SOL     OW 4103   1.183   1.335   5.705
  715SOL    HW1 4104   1.084   1.324   5.707
  715SOL    HW2 4105   1.217   1.350   5.798
  716SOL     OW 4106   0.613   0.842   7.017
  716SOL    HW1 4107   0.669   0.923   7.000
  716SOL    HW2 4108   0.672   0.762   7.020
  717SOL     OW 4109   1.493   1.767   6.545
  717SOL    HW1 4110   1.526   1.831   6.476
  717SOL    HW2 4111   1.559   1.761   6.620
  718SOL     OW 4112   0.716   0.565   7.294
  718SOL    HW1 4113   0.735   0.630   7.368
  718SOL    HW2 4114   0.776   0.485   7.303
  719SOL     OW 4115   1.450   1.220   7.219
  719SOL    HW1 4116   1.441   1.210   7.318
  719SOL    HW2 4117   1.546   1.213   7.193
  720SOL     OW 4118   0.390   1.741   7.146
  720SOL    HW1 4119   0.299   1.782   7.144
  720SOL    HW2 4120   0.383   1.647   7.178
  721SOL     OW 4121   1.674   0.883   6.840
  721SOL    HW1 4122   1.647   0.794   6.803
  721SOL    HW2 4123   1.675   0.951   6.767
  722SOL     OW 4124   1.225   0.325   6.035
  722SOL    HW1 4125   1.290   0.251   6.024
  722SOL    HW2 4126   1.245   0.375   6.119
  723SOL     OW 4127   0.594   0.745   6.238
  723SOL    HW1 4128   0.644   0.830   6.219
  723SOL    HW2 4129   0.506   0.747   6.190
  724SOL     OW 4130   1.777   0.342   7.228
  724SOL    HW1 4131   1.760   0.373   7.134
  724SOL    HW2 4132   1.693   0.305   7.266
  725SOL     OW 4133   1.730   0.934   7.103
  725SOL    HW1 4134   1.768   1.025   7.118
  725SOL    HW2 4135   1.722   0.917   7.004
  726SOL     OW 4136   0.859   1.374   5.602
  726SOL    HW1 4137   0.813   1.389   5.690
  726SOL    HW2 4138   0.903   1.459   5.572
  727SOL     OW 4139   0.661   1.790   6.539
  727SOL    HW1 4140   0.615   1.878   6.526
  727SOL    HW2 4141   0.760   1.802   6.532
  728SOL     OW 4142   1.408   1.851   7.306
  728SOL    HW1 4143   1.312   1.840   7.279
  728SOL    HW2 4144   1.464   1.784   7.258
  729SOL     OW 4145   0.859   0.956   6.447
  729SOL    HW1 4146   0.913   0.887   6.495
  729SOL    HW2 4147   0.827   1.025   6.513
  730SOL     OW 4148   1.083   0.984   5.673
  730SOL    HW1 4149   1.060   1.037   5.591
  730SOL    HW2 4150   1.164   0.928   5.654
  731SOL     OW 4151   1.861   1.569   6.437
  731SOL    HW1 4152   1.790   1.557   6.367
  731SOL    HW2 4153   1.862   1.490   6.497
  732SOL     OW 4154   0.672   1.391   7.210
  732SOL    HW1 4155   0.594   1.341   7.248
  732SOL    HW2 4156   0.669   1.486   7.241
  733SOL     OW 4157   1.824   0.192   6.813
  733SOL    HW1 4158   1.820   0.102   6.857
  733SOL    HW2 4159   1.827   0.181   6.714
  734SOL     OW 4160   0.428   0.424   6.106
  734SOL    HW1 4161   0.458   0.352   6.044
  734SOL    HW2 4162   0.389   0.384   6.189
  735SOL     OW 4163   1.705   1.487   6.690
  735SOL    HW1 4164   1.612   1.462   6.663
  735SOL    HW2 4165   1.731   1.437   6.772
  736SOL     OW 4166   0.812   1.586   6.273
  736SOL    HW1 4167   0.844   1.596   6.179
  736SOL    HW2 4168   0.733   1.524   6.275
  737SOL     OW 4169   1.424   0.214   6.698
  737SOL    HW1 4170   1.476   0.149   6.753
  737SOL    HW2 4171   1.375   0.277   6.759
  738SOL     OW 4172   1.001   0.034   6.740
  738SOL    HW1 4173   0.938  -0.038   6.709
  738SOL    HW2 4174   1.094  -0.002   6.740
  739SOL     OW 4175   0.770   1.330   5.887
  739SOL    HW1 4176   0.724   1.243   5.904
  739SOL    HW2 4177   0.861   1.327   5.928
  740SOL     OW 4178   0.618   1.567   6.870
  740SOL    HW1 4179   0.613   1.649   6.927
  740SOL    HW2 4180   0.707   1.564   6.825
  741SOL     OW 4181   1.352   0.052   5.754
  741SOL    HW1 4182   1.387   0.011   5.670
  741SOL    HW2 4183   1.262   0.014   5.774
  742SOL     OW 4184   1.300   0.453   6.277
  742SOL    HW1 4185   1.241   0.533   6.281
  742SOL    HW2 4186   1.315   0.418   6.370
  743SOL     OW 4187   1.593   0.221   6.468
  743SOL    HW1 4188   1.509   0.220   6.522
  743SOL    HW2 4189   1.595   0.304   6.412
  744SOL     OW 4190   0.875   1.646   5.923
  744SOL    HW1 4191   0.798   1.611   5.869
  744SOL    HW2 4192   0.843   1.717   5.985
  745SOL     OW 4193   0.019   0.368   8.095
  745SOL    HW1 4194  -0.063   0.411   8.134
  745SOL    HW2 4195  -0.009   0.295   8.032
  746SOL     OW 4196   0.569   1.275   8.613
  746SOL    HW1 4197   0.476   1.268   8.576
  746SOL    HW2 4198   0.580   1.364   8.657
  747SOL     OW 4199   1.555   1.511   8.151
  747SOL    HW1 4200   1.498   1.495   8.232
  747SOL    HW2 4201   1.496   1.521   8.071
  748SOL     OW 4202   1.743   0.618   8.304
  748SOL    HW1 4203   1.776   0.712   8.304
  748SOL    HW2 4204   1.794   0.564   8.370
  749SOL     OW 4205   1.135   0.703   8.165
  749SOL    HW1 4206   1.192   0.781   8.140
  749SOL    HW2 4207   1.075   0.729   8.241
  750SOL     OW 4208   1.755   0.607   7.679
  750SOL    HW1 4209   1.743   0.594   7.580
  750SOL    HW2 4210   1.725   0.526   7.728
  751SOL     OW 4211   0.768   1.144   8.471
  751SOL    HW1 4212   0.690   1.161   8.531
  751SOL    HW2 4213   0.802   1.231   8.435
  752SOL     OW 4214   0.685   1.012   8.113
  752SOL    HW1 4215   0.754   0.996   8.183
  752SOL    HW2 4216   0.612   1.069   8.151
  753SOL     OW 4217   0.335   1.435   8.509
  753SOL    HW1 4218   0.257   1.404   8.456
  753SOL    HW2 4219   0.393   1.493   8.452
  754SOL     OW 4220   1.460   1.505   8.787
  754SOL    HW1 4221   1.484   1.599   8.813
  754SOL    HW2 4222   1.444   1.451   8.869
  755SOL     OW 4223   0.438   0.392   8.947
  755SOL    HW1 4224   0.520   0.336   8.956
  755SOL    HW2 4225   0.357   0.334   8.951
  756SOL     OW 4226   1.603   0.447   8.185
  756SOL    HW1 4227   1.529   0.493   8.135
  756SOL    HW2 4228   1.654   0.515   8.238
  757SOL     OW 4229   0.620   1.786   8.887
  757SOL    HW1 4230   0.528   1.769   8.922
  757SOL    HW2 4231   0.648   1.878   8.913
  758SOL     OW 4232   0.606   0.964   7.571
  758SOL    HW1 4233   0.613   1.048   7.517
  758SOL    HW2 4234   0.652   0.977   7.659
  759SOL     OW 4235   1.594   0.114   8.928
  759SOL    HW1 4236   1.576   0.181   8.856
  759SOL    HW2 4237   1.591   0.160   9.017
  760SOL     OW 4238   1.842   1.767   7.807
  760SOL    HW1 4239   1.896   1.738   7.887
  760SOL    HW2 4240   1.872   1.857   7.778
  761SOL     OW 4241   1.689   0.922   8.060
  761SOL    HW1 4242   1.784   0.893   8.068
  761SOL    HW2 4243   1.681   0.987   7.985
  762SOL     OW 4244   1.641   1.108   7.880
  762SOL    HW1 4245   1.727   1.110   7.828
  762SOL    HW2 4246   1.655   1.155   7.968
  763SOL     OW 4247   0.613   1.365   8.174
  763SOL    HW1 4248   0.564   1.278   8.183
  763SOL    HW2 4249   0.590   1.408   8.087
  764SOL     OW 4250   0.809   0.004   7.950
  764SOL    HW1 4251   0.849   0.095   7.941
  764SOL    HW2 4252   0.709   0.012   7.956
  765SOL     OW 4253   1.525   0.999   7.638
  765SOL    HW1 4254   1.462   0.923   7.651
  765SOL    HW2 4255   1.573   1.017   7.724
  766SOL     OW 4256   1.466   1.417   8.401
  766SOL    HW1 4257   1.407   1.423   8.481
  766SOL    HW2 4258   1.451   1.329   8.355
  767SOL     OW 4259   1.667   1.714   8.020
  767SOL    HW1 4260   1.626   1.691   7.932
  767SOL    HW2 4261   1.649   1.640   8.085
  768SOL     OW 4262   0.598   0.729   7.718
  768SOL    HW1 4263   0.622   0.798   7.650
  768SOL    HW2 4264   0.520   0.762   7.772
  769SOL     OW 4265   1.281   0.345   8.392
  769SOL    HW1 4266   1.195   0.295   8.379
  769SOL    HW2 4267   1.343   0.291   8.448
  770SOL     OW 4268   1.576   1.662   7.755
  770SOL    HW1 4269   1.665   1.708   7.758
  770SOL    HW2 4270   1.555   1.638   7.660
  771SOL     OW 4271   0.807   0.605   8.913
  771SOL    HW1 4272   0.760   0.602   9.002
  771SOL    HW2 4273   0.756   0.550   8.847
  772SOL     OW 4274   0.991   0.410   8.690
  772SOL    HW1 4275   0.914   0.444   8.744
  772SOL    HW2 4276   0.957   0.359   8.611
  773SOL     OW 4277   1.041   0.701   7.877
  773SOL    HW1 4278   1.067   0.697   7.973
  773SOL    HW2 4279   0.956   0.650   7.863
  774SOL     OW 4280   0.865   0.348   7.643
  774SOL    HW1 4281   0.924   0.411   7.594
  774SOL    HW2 4282   0.884   0.254   7.614
  775SOL     OW 4283   1.362   1.144   7.993
  775SOL    HW1 4284   1.445   1.115   7.945
  775SOL    HW2 4285   1.313   1.211   7.937
  776SOL     OW 4286   0.550   0.196   8.333
  776SOL    HW1 4287   0.545   0.191   8.433
  776SOL    HW2 4288   0.552   0.292   8.304
  777SOL     OW 4289   1.008   1.456   7.925
  777SOL    HW1 4290   0.962   1.528   7.873
  777SOL    HW2 4291   1.004   1.476   8.023
  778SOL     OW 4292   0.351   1.801   8.301
  778SOL    HW1 4293   0.401   1.715   8.307
  778SOL    HW2 4294   0.416   1.878   8.298
  779SOL     OW 4295   1.795   1.066   8.321
  779SOL    HW1 4296   1.733   1.051   8.245
  779SOL    HW2 4297   1.743   1.077   8.406
  780SOL     OW 4298   0.321   0.943   7.690
  780SOL    HW1 4299   0.403   0.982   7.648
  780SOL    HW2 4300   0.294   0.861   7.641
  781SOL     OW 4301   1.458   0.735   8.176
  781SOL    HW1 4302   1.453   0.670   8.251
  781SOL    HW2 4303   1.538   0.794   8.189
  782SOL     OW 4304   1.111   1.776   7.685
  782SOL    HW1 4305   1.051   1.714   7.735
  782SOL    HW2 4306   1.142   1.732   7.600
  783SOL     OW 4307   1.632   1.377   7.529
  783SOL    HW1 4308   1.600   1.471   7.519
  783SOL    HW2 4309   1.556   1.314   7.517
  784SOL     OW 4310   0.464   1.743   7.771
  784SOL    HW1 4311   0.497   1.782   7.857
  784SOL    HW2 4312   0.540   1.736   7.706
  785SOL     OW 4313   1.400   0.107   7.874
  785SOL    HW1 4314   1.376   0.070   7.784
  785SOL    HW2 4315   1.499   0.123   7.878
  786SOL     OW 4316   0.940   1.698   8.352
  786SOL    HW1 4317   1.020   1.641   8.373
  786SOL    HW2 4318   0.891   1.658   8.275
  787SOL     OW 4319   0.382   0.700   7.928
  787SOL    HW1 4320   0.427   0.610   7.925
  787SOL    HW2 4321   0.288   0.689   7.961
  788SOL     OW 4322   0.614   0.122   7.565
  788SOL    HW1 4323   0.712   0.100   7.572
  788SOL    HW2 4324   0.583   0.105   7.472
  789SOL     OW 4325   0.888   1.514   8.643
  789SOL    HW1 4326   0.865   1.489   8.549
  789SOL    HW2 4327   0.949   1.445   8.682
  790SOL     OW 4328   0.803   1.402   8.372
  790SOL    HW1 4329   0.893   1.416   8.330
  790SOL    HW2 4330   0.732   1.404   8.301
  791SOL     OW 4331   0.922   0.503   8.347
  791SOL    HW1 4332   0.897   0.494   8.251
  791SOL    HW2 4333   0.970   0.421   8.378
  792SOL     OW 4334   0.539   0.064   7.960
  792SOL    HW1 4335   0.458   0.065   8.018
  792SOL    HW2 4336   0.542   0.147   7.905
  793SOL     OW 4337   1.434   1.188   7.489
  793SOL    HW1 4338   1.466   1.112   7.546
  793SOL    HW2 4339   1.342   1.215   7.519
  794SOL     OW 4340   0.297   0.035   7.619
  794SOL    HW1 4341   0.346   0.119   7.598
  794SOL    HW2 4342   0.359  -0.030   7.664
  795SOL     OW 4343   0.935   0.236   7.928
  795SOL    HW1 4344   0.887   0.277   7.850
  795SOL    HW2 4345   1.034   0.234   7.909
  796SOL     OW 4346   1.227   1.570   8.241
  796SOL    HW1 4347   1.248   1.644   8.176
  796SOL    HW2 4348   1.295   1.570   8.314
  797SOL     OW 4349   0.459   1.152   8.189
  797SOL    HW1 4350   0.388   1.125   8.254
  797SOL    HW2 4351   0.433   1.124   8.096
  798SOL     OW 4352   1.271   1.797   8.039
  798SOL    HW1 4353   1.315   1.861   7.975
  798SOL    HW2 4354   1.221   1.849   8.109
  799SOL     OW 4355   1.032   0.549   7.464
  799SOL    HW1 4356   0.991   0.631   7.425
  799SOL    HW2 4357   1.096   0.575   7.537
  800SOL     OW 4358   0.561   0.222   8.595
  800SOL    HW1 4359   0.599   0.138   8.632
  800SOL    HW2 4360   0.473   0.241   8.639
  801SOL     OW 4361   0.866   0.454   8.090
  801SOL    HW1 4362   0.834   0.526   8.028
  801SOL    HW2 4363   0.890   0.373   8.037
  802SOL     OW 4364   1.017   0.039   8.201
  802SOL    HW1 4365   0.945   0.044   8.132
  802SOL    HW2 4366   0.993  -0.030   8.270
  803SOL     OW 4367   1.429   1.173   8.315
  803SOL    HW1 4368   1.374   1.089   8.308
  803SOL    HW2 4369   1.455   1.202   8.223
  804SOL     OW 4370   1.466   0.590   8.440
  804SOL    HW1 4371   1.436   0.495   8.447
  804SOL    HW2 4372   1.539   0.606   8.506
  805SOL     OW 4373   1.857   0.833   7.825
  805SOL    HW1 4374   1.899   0.769   7.889
  805SOL    HW2 4375   1.819   0.782   7.747
  806SOL     OW 4376   0.488   1.385   7.622
  806SOL    HW1 4377   0.401   1.370   7.669
  806SOL    HW2 4378   0.471   1.411   7.527
  807SOL     OW 4379   1.664   1.280   8.105
  807SOL    HW1 4380   1.763   1.288   8.119
  807SOL    HW2 4381   1.619   1.364   8.136
  808SOL     OW 4382   1.390   0.575   7.526
  808SOL    HW1 4383   1.336   0.554   7.607
  808SOL    HW2 4384   1.481   0.534   7.535
  809SOL     OW 4385   0.527   0.256   7.776
  809SOL    HW1 4386   0.554   0.197   7.701
  809SOL    HW2 4387   0.527   0.351   7.745
  810SOL     OW 4388   1.064   1.347   8.788
  810SOL    HW1 4389   0.984   1.324   8.843
  810SOL    HW2 4390   1.147   1.321   8.837
  811SOL     OW 4391   1.111   1.195   8.548
  811SOL    HW1 4392   1.071   1.239   8.629
  811SOL    HW2 4393   1.070   1.232   8.465
  812SOL     OW 4394   1.638   1.099   8.527
  812SOL    HW1 4395   1.643   1.180   8.586
  812SOL    HW2 4396   1.552   1.101   8.476
  813SOL     OW 4397   0.915   0.089   8.850
  813SOL    HW1 4398   0.940   0.069   8.755
  813SOL    HW2 4399   0.987   0.145   8.892
  814SOL     OW 4400   0.705   1.050   7.816
  814SOL    HW1 4401   0.691   1.057   7.915
  814SOL    HW2 4402   0.789   0.999   7.798
  815SOL     OW 4403   0.410   0.813   8.699
  815SOL    HW1 4404   0.496   0.825   8.749
  815SOL    HW2 4405   0.368   0.726   8.726
  816SOL     OW 4406   1.274   0.386   8.710
  816SOL    HW1 4407   1.295   0.460   8.774
  816SOL    HW2 4408   1.185   0.403   8.667
  817SOL     OW 4409   0.367   1.100   7.949
  817SOL    HW1 4410   0.360   1.183   7.893
  817SOL    HW2 4411   0.371   1.020   7.889
  818SOL     OW 4412   0.566   0.537   8.313
  818SOL    HW1 4413   0.578   0.603   8.239
  818SOL    HW2 4414   0.612   0.571   8.396
  819SOL     OW 4415   1.252   1.348   7.836
  819SOL    HW1 4416   1.302   1.425   7.876
  819SOL    HW2 4417   1.157   1.350   7.868
  820SOL     OW 4418   1.272   1.445   8.590
  820SOL    HW1 4419   1.319   1.458   8.677
  820SOL    HW2 4420   1.206   1.371   8.599
  821SOL     OW 4421   1.582   0.639   7.920
  821SOL    HW1 4422   1.551   0.700   7.993
  821SOL    HW2 4423   1.632   0.691   7.851
  822SOL     OW 4424   0.354   1.510   8.777
  822SOL    HW1 4425   0.333   1.466   8.690
  822SOL    HW2 4426   0.451   1.536   8.780
  823SOL     OW 4427   0.402   0.751   0.046
  823SOL    HW1 4428   0.470   0.806  -0.001
  823SOL    HW2 4429   0.442   0.663   0.073
  824SOL     OW 4430   1.587   0.779   0.118
  824SOL    HW1 4431   1.495   0.817   0.113
  824SOL    HW2 4432   1.647   0.826   0.053
  825SOL     OW 4433   0.573   0.870   8.477
  825SOL    HW1 4434   0.617   0.959   8.468
  825SOL    HW2 4435   0.510   0.870   8.554
  826SOL     OW 4436   1.360   0.862   8.493
  826SOL    HW1 4437   1.285   0.862   8.427
  826SOL    HW2 4438   1.397   0.770   8.502
  827SOL     OW 4439   1.209   0.525   7.723
  827SOL    HW1 4440   1.222   0.441   7.777
  827SOL    HW2 4441   1.180   0.599   7.783
  828SOL     OW 4442   0.732   0.634   8.512
  828SOL    HW1 4443   0.791   0.608   8.436
  828SOL    HW2 4444   0.704   0.730   8.501
  829SOL     OW 4445   0.307   0.063   8.066
  829SOL    HW1 4446   0.296   0.157   8.099
  829SOL    HW2 4447   0.302   0.000   8.143
  830SOL     OW 4448   1.622   0.367   7.822
  830SOL    HW1 4449   1.624   0.291   7.886
  830SOL    HW2 4450   1.574   0.444   7.862
  831SOL     OW 4451   1.023   0.766   8.414
  831SOL    HW1 4452   1.038   0.787   8.510
  831SOL    HW2 4453   0.993   0.671   8.405
  832SOL     OW 4454   0.980   1.573   0.148
  832SOL    HW1 4455   0.960   1.617   0.060
  832SOL    HW2 4456   1.019   1.482   0.132
  833SOL     OW 4457   1.859   1.518   0.053
  833SOL    HW1 4458   1.873   1.545  -0.042
  833SOL    HW2 4459   1.942   1.540   0.106
  834SOL     OW 4460   1.540   0.274   7.573
  834SOL    HW1 4461   1.479   0.199   7.596
  834SOL    HW2 4462   1.562   0.326   7.656
  835SOL     OW 4463   1.303   0.838   7.490
  835SOL    HW1 4464   1.337   0.745   7.505
  835SOL    HW2 4465   1.321   0.865   7.395
  836SOL     OW 4466   1.068   1.333   8.297
  836SOL    HW1 4467   1.075   1.249   8.242
  836SOL    HW2 4468   1.130   1.402   8.261
  837SOL     OW 4469   0.319   0.810   8.397
  837SOL    HW1 4470   0.412   0.846   8.402
  837SOL    HW2 4471   0.313   0.725   8.449
  838SOL     OW 4472   1.138   0.380   0.126
  838SOL    HW1 4473   1.093   0.443   0.190
  838SOL    HW2 4474   1.231   0.411   0.109
  839SOL     OW 4475   1.160   0.207   8.925
  839SOL    HW1 4476   1.160   0.271   9.002
  839SOL    HW2 4477   1.188   0.255   8.842
  840SOL     OW 4478   0.504   1.568   8.358
  840SOL    HW1 4479   0.570   1.642   8.367
  840SOL    HW2 4480   0.548   1.489   8.316
  841SOL     OW 4481   1.002   0.796   8.686
  841SOL    HW1 4482   1.043   0.764   8.772
  841SOL    HW2 4483   0.906   0.769   8.683
  842SOL     OW 4484   0.815   0.572   7.773
  842SOL    HW1 4485   0.822   0.483   7.727
  842SOL    HW2 4486   0.721   0.606   7.765
  843SOL     OW 4487   1.657   0.604   8.654
  843SOL    HW1 4488   1.619   0.535   8.716
  843SOL    HW2 4489   1.739   0.568   8.610
  844SOL     OW 4490   0.671   0.464   8.717
  844SOL    HW1 4491   0.637   0.375   8.687
  844SOL    HW2 4492   0.697   0.518   8.637
  845SOL     OW 4493   0.930   1.678   8.913
  845SOL    HW1 4494   0.906   1.660   8.818
  845SOL    HW2 4495   0.960   1.772   8.923
  846SOL     OW 4496   0.473   0.500   7.639
  846SOL    HW1 4497   0.534   0.580   7.643
  846SOL    HW2 4498   0.378   0.531   7.646
  847SOL     OW 4499   1.347   1.059   8.682
  847SOL    HW1 4500   1.371   0.996   8.608
  847SOL    HW2 4501   1.257   1.099   8.664
  848SOL     OW 4502   1.302   0.855   7.757
  848SOL    HW1 4503   1.216   0.824   7.799
  848SOL    HW2 4504   1.298   0.841   7.658
  849SOL     OW 4505   1.759   1.747   8.602
  849SOL    HW1 4506   1.820   1.777   8.529
  849SOL    HW2 4507   1.721   1.658   8.580
  850SOL     OW 4508   1.252   1.731   8.576
  850SOL    HW1 4509   1.336   1.736   8.522
  850SOL    HW2 4510   1.229   1.635   8.594
  851SOL     OW 4511   1.726   0.135   7.971
  851SOL    HW1 4512   1.799   0.118   7.904
  851SOL    HW2 4513   1.695   0.048   8.009
  852SOL     OW 4514   1.388   1.573   7.925
  852SOL    HW1 4515   1.455   1.585   7.851
  852SOL    HW2 4516   1.348   1.662   7.948
  853SOL     OW 4517   1.280   0.927   8.120
  853SOL    HW1 4518   1.340   0.846   8.122
  853SOL    HW2 4519   1.320   0.996   8.060
  854SOL     OW 4520   0.672   1.616   7.602
  854SOL    HW1 4521   0.681   1.626   7.503
  854SOL    HW2 4522   0.632   1.527   7.623
  855SOL     OW 4523   1.650   1.720   8.842
  855SOL    HW1 4524   1.703   1.730   8.758
  855SOL    HW2 4525   1.623   1.810   8.876
  856SOL     OW 4526   1.841   0.175   8.411
  856SOL    HW1 4527   1.880   0.090   8.375
  856SOL    HW2 4528   1.743   0.177   8.392
  857SOL     OW 4529   0.263   0.326   8.168
  857SOL    HW1 4530   0.184   0.377   8.134
  857SOL    HW2 4531   0.254   0.311   8.266
  858SOL     OW 4532   1.194   1.612   7.479
  858SOL    HW1 4533   1.200   1.519   7.516
  858SOL    HW2 4534   1.135   1.612   7.399
  859SOL     OW 4535   0.822   1.002   8.820
  859SOL    HW1 4536   0.862   1.001   8.728
  859SOL    HW2 4537   0.832   1.094   8.860
  860SOL     OW 4538   0.916   0.910   7.739
  860SOL    HW1 4539   0.979   0.948   7.671
  860SOL    HW2 4540   0.956   0.827   7.778
  861SOL     OW 4541   1.504   1.607   7.492
  861SOL    HW1 4542   1.412   1.644   7.499
  861SOL    HW2 4543   1.542   1.627   7.402
  862SOL     OW 4544   0.372   1.288   8.938
  862SOL    HW1 4545   0.359   1.381   8.904
  862SOL    HW2 4546   0.288   1.236   8.925
  863SOL     OW 4547   1.614   1.292   8.737
  863SOL    HW1 4548   1.674   1.295   8.817
  863SOL    HW2 4549   1.539   1.356   8.750
  864SOL     OW 4550   1.039   1.098   8.144
  864SOL    HW1 4551   0.969   1.051   8.198
  864SOL    HW2 4552   1.098   1.030   8.101
  865SOL     OW 4553   1.014   0.236   8.419
  865SOL    HW1 4554   1.006   0.200   8.326
  865SOL    HW2 4555   1.012   0.160   8.484
  866SOL     OW 4556   0.590   1.487   7.939
  866SOL    HW1 4557   0.632   1.429   7.869
  866SOL    HW2 4558   0.546   1.566   7.895
  867SOL     OW 4559   1.709   0.385   8.829
  867SOL    HW1 4560   1.782   0.454   8.833
  867SOL    HW2 4561   1.737   0.310   8.770
  868SOL     OW 4562   0.255   1.348   7.738
  868SOL    HW1 4563   0.159   1.349   7.711
  868SOL    HW2 4564   0.267   1.401   7.822
  869SOL     OW 4565   1.440   0.856   8.846
  869SOL    HW1 4566   1.383   0.908   8.783
  869SOL    HW2 4567   1.536   0.868   8.822
  870SOL     OW 4568   1.183   1.335   7.567
  870SOL    HW1 4569   1.084   1.324   7.569
  870SOL    HW2 4570   1.217   1.350   7.660
  871SOL     OW 4571   0.613   0.842   8.879
  871SOL    HW1 4572   0.669   0.923   8.862
  871SOL    HW2 4573   0.672   0.762   8.882
  872SOL     OW 4574   1.493   1.767   8.407
  872SOL    HW1 4575   1.526   1.831   8.338
  872SOL    HW2 4576   1.559   1.761   8.482
  873SOL     OW 4577   0.390   1.741   0.008
  873SOL    HW1 4578   0.299   1.782   0.006
  873SOL    HW2 4579   0.383   1.647   0.040
  874SOL     OW 4580   1.674   0.883   8.702
  874SOL    HW1 4581   1.647   0.794   8.665
  874SOL    HW2 4582   1.675   0.951   8.629
  875SOL     OW 4583   1.225   0.325   7.897
  875SOL    HW1 4584   1.290   0.251   7.886
  875SOL    HW2 4585   1.245   0.375   7.981
  876SOL     OW 4586   0.594   0.745   8.100
  876SOL    HW1 4587   0.644   0.830   8.081
  876SOL    HW2 4588   0.506   0.747   8.052
  877SOL     OW 4589   1.777   0.342   0.090
  877SOL    HW1 4590   1.760   0.373  -0.004
  877SOL    HW2 4591   1.693   0.305   0.128
  878SOL     OW 4592   1.730   0.934   8.965
  878SOL    HW1 4593   1.768   1.025   8.980
  878SOL    HW2 4594   1.722   0.917   8.866
  879SOL     OW 4595   0.859   1.374   7.464
  879SOL    HW1 4596   0.813   1.389   7.552
  879SOL    HW2 4597   0.903   1.459   7.434
  880SOL     OW 4598   0.661   1.790   8.401
  880SOL    HW1 4599   0.615   1.878   8.388
  880SOL    HW2 4600   0.760   1.802   8.394
  881SOL     OW 4601   1.408   1.851   0.168
  881SOL    HW1 4602   1.312   1.840   0.141
  881SOL    HW2 4603   1.464   1.784   0.120
  882SOL     OW 4604   0.859   0.956   8.309
  882SOL    HW1 4605   0.913   0.887   8.357
  882SOL    HW2 4606   0.827   1.025   8.375
  883SOL     OW 4607   1.083   0.984   7.535
  883SOL    HW1 4608   1.060   1.037   7.453
  883SOL    HW2 4609   1.164   0.928   7.516
  884SOL     OW 4610   1.861   1.569   8.299
  884SOL    HW1 4611   1.790   1.557   8.229
  884SOL    HW2 4612   1.862   1.490   8.359
  885SOL     OW 4613   1.824   0.192   8.675
  885SOL    HW1 4614   1.820   0.102   8.719
  885SOL    HW2 4615   1.827   0.181   8.576
  886SOL     OW 4616   0.428   0.424   7.968
  886SOL    HW1 4617   0.458   0.352   7.906
  886SOL    HW2 4618   0.389   0.384   8.051
  887SOL     OW 4619   1.705   1.487   8.552
  887SOL    HW1 4620   1.612   1.462   8.525
  887SOL    HW2 4621   1.731   1.437   8.634
  888SOL     OW 4622   0.812   1.586   8.135
  888SOL    HW1 4623   0.844   1.596   8.041
  888SOL    HW2 4624   0.733   1.524   8.137
  889SOL     OW 4625   1.424   0.214   8.560
  889SOL    HW1 4626   1.476   0.149   8.615
  889SOL    HW2 4627   1.375   0.277   8.621
  890SOL     OW 4628   1.001   0.034   8.602
  890SOL    HW1 4629   0.938  -0.038   8.571
  890SOL    HW2 4630   1.094  -0.002   8.602
  891SOL     OW 4631   0.770   1.330   7.749
  891SOL    HW1 4632   0.724   1.243   7.766
  891SOL    HW2 4633   0.861   1.327   7.790
  892SOL     OW 4634   0.618   1.567   8.732
  892SOL    HW1 4635   0.613   1.649   8.789
  892SOL    HW2 4636   0.707   1.564   8.687
  893SOL     OW 4637   1.352   0.052   7.616
  893SOL    HW1 4638   1.387   0.011   7.532
  893SOL    HW2 4639   1.262   0.014   7.636
  894SOL     OW 4640   1.300   0.453   8.139
  894SOL    HW1 4641   1.241   0.533   8.143
  894SOL    HW2 4642   1.315   0.418   8.232
  895SOL     OW 4643   1.593   0.221   8.330
  895SOL    HW1 4644   1.509   0.220   8.384
  895SOL    HW2 4645   1.595   0.304   8.274
  896SOL     OW 4646   0.875   1.646   7.785
  896SOL    HW1 4647   0.798   1.611   7.731
  896SOL    HW2 4648   0.843   1.717   7.847
  897SOL     OW 4649   0.019   2.230   0.647
  897SOL    HW1 4650  -0.063   2.273   0.686
  897SOL    HW2 4651  -0.009   2.157   0.584
  898SOL     OW 4652   0.569   3.137   1.165
  898SOL    HW1 4653   0.476   3.130   1.128
  898SOL    HW2 4654   0.580   3.226   1.209
  899SOL     OW 4655   1.555   3.373   0.703
  899SOL    HW1 4656   1.498   3.357   0.784
  899SOL    HW2 4657   1.496   3.383   0.623
  900SOL     OW 4658   1.743   2.480   0.856
  900SOL    HW1 4659   1.776   2.574   0.856
  900SOL    HW2 4660   1.794   2.426   0.922
  901SOL     OW 4661   1.135   2.565   0.717
  901SOL    HW1 4662   1.192   2.643   0.692
  901SOL    HW2 4663   1.075   2.591   0.793
  902SOL     OW 4664   1.755   2.469   0.231
  902SOL    HW1 4665   1.743   2.456   0.132
  902SOL    HW2 4666   1.725   2.388   0.280
  903SOL     OW 4667   0.768   3.006   1.023
  903SOL    HW1 4668   0.690   3.023   1.083
  903SOL    HW2 4669   0.802   3.093   0.987
  904SOL     OW 4670   0.850   2.660   1.823
  904SOL    HW1 4671   0.846   2.736   1.888
  904SOL    HW2 4672   0.872   2.696   1.732
  905SOL     OW 4673   0.685   2.874   0.665
  905SOL    HW1 4674   0.754   2.858   0.735
  905SOL    HW2 4675   0.612   2.931   0.703
  906SOL     OW 4676   0.686   3.023   1.803
  906SOL    HW1 4677   0.746   3.102   1.817
  906SOL    HW2 4678   0.600   3.054   1.762
  907SOL     OW 4679   0.335   3.297   1.061
  907SOL    HW1 4680   0.257   3.266   1.008
  907SOL    HW2 4681   0.393   3.355   1.004
  908SOL     OW 4682   1.460   3.367   1.339
  908SOL    HW1 4683   1.484   3.461   1.365
  908SOL    HW2 4684   1.444   3.313   1.421
  909SOL     OW 4685   0.438   2.254   1.499
  909SOL    HW1 4686   0.520   2.198   1.508
  909SOL    HW2 4687   0.357   2.196   1.503
  910SOL     OW 4688   1.603   2.309   0.737
  910SOL    HW1 4689   1.529   2.355   0.687
  910SOL    HW2 4690   1.654   2.377   0.790
  911SOL     OW 4691   1.127   3.203   1.690
  911SOL    HW1 4692   1.174   3.203   1.778
  911SOL    HW2 4693   1.079   3.116   1.679
  912SOL     OW 4694   0.620   3.648   1.439
  912SOL    HW1 4695   0.528   3.631   1.474
  912SOL    HW2 4696   0.648   3.740   1.465
  913SOL     OW 4697   0.606   2.826   0.123
  913SOL    HW1 4698   0.613   2.910   0.069
  913SOL    HW2 4699   0.652   2.839   0.211
  914SOL     OW 4700   1.594   1.976   1.480
  914SOL    HW1 4701   1.576   2.043   1.408
  914SOL    HW2 4702   1.591   2.022   1.569
  915SOL     OW 4703   1.842   3.629   0.359
  915SOL    HW1 4704   1.896   3.600   0.439
  915SOL    HW2 4705   1.872   3.719   0.330
  916SOL     OW 4706   1.689   2.784   0.612
  916SOL    HW1 4707   1.784   2.755   0.620
  916SOL    HW2 4708   1.681   2.849   0.537
  917SOL     OW 4709   1.641   2.970   0.432
  917SOL    HW1 4710   1.727   2.972   0.380
  917SOL    HW2 4711   1.655   3.017   0.520
  918SOL     OW 4712   0.613   3.227   0.726
  918SOL    HW1 4713   0.564   3.140   0.735
  918SOL    HW2 4714   0.590   3.270   0.639
  919SOL     OW 4715   1.293   3.090   1.423
  919SOL    HW1 4716   1.330   3.017   1.365
  919SOL    HW2 4717   1.345   3.095   1.508
  920SOL     OW 4718   0.809   1.866   0.502
  920SOL    HW1 4719   0.849   1.957   0.493
  920SOL    HW2 4720   0.709   1.874   0.508
  921SOL     OW 4721   1.525   2.861   0.190
  921SOL    HW1 4722   1.462   2.785   0.203
  921SOL    HW2 4723   1.573   2.879   0.276
  922SOL     OW 4724   1.187   3.654   1.616
  922SOL    HW1 4725   1.211   3.714   1.540
  922SOL    HW2 4726   1.194   3.559   1.586
  923SOL     OW 4727   0.317   2.113   1.801
  923SOL    HW1 4728   0.388   2.184   1.807
  923SOL    HW2 4729   0.229   2.152   1.829
  924SOL     OW 4730   1.466   3.279   0.953
  924SOL    HW1 4731   1.407   3.285   1.033
  924SOL    HW2 4732   1.451   3.191   0.907
  925SOL     OW 4733   1.667   3.576   0.572
  925SOL    HW1 4734   1.626   3.553   0.484
  925SOL    HW2 4735   1.649   3.502   0.637
  926SOL     OW 4736   0.598   2.591   0.270
  926SOL    HW1 4737   0.622   2.660   0.202
  926SOL    HW2 4738   0.520   2.624   0.324
  927SOL     OW 4739   1.281   2.207   0.944
  927SOL    HW1 4740   1.195   2.157   0.931
  927SOL    HW2 4741   1.343   2.153   1.000
  928SOL     OW 4742   1.576   3.524   0.307
  928SOL    HW1 4743   1.665   3.570   0.310
  928SOL    HW2 4744   1.555   3.500   0.212
  929SOL     OW 4745   0.807   2.467   1.465
  929SOL    HW1 4746   0.760   2.464   1.554
  929SOL    HW2 4747   0.756   2.412   1.399
  930SOL     OW 4748   1.394   2.331   1.674
  930SOL    HW1 4749   1.374   2.374   1.762
  930SOL    HW2 4750   1.472   2.269   1.683
  931SOL     OW 4751   0.973   2.752   1.572
  931SOL    HW1 4752   1.019   2.668   1.543
  931SOL    HW2 4753   0.917   2.786   1.497
  932SOL     OW 4754   0.991   2.272   1.242
  932SOL    HW1 4755   0.914   2.306   1.296
  932SOL    HW2 4756   0.957   2.221   1.163
  933SOL     OW 4757   1.041   2.563   0.429
  933SOL    HW1 4758   1.067   2.559   0.525
  933SOL    HW2 4759   0.956   2.512   0.415
  934SOL     OW 4760   0.865   2.210   0.195
  934SOL    HW1 4761   0.924   2.273   0.146
  934SOL    HW2 4762   0.884   2.116   0.166
  935SOL     OW 4763   1.719   2.447   1.831
  935SOL    HW1 4764   1.693   2.536   1.795
  935SOL    HW2 4765   1.717   2.379   1.758
  936SOL     OW 4766   1.362   3.006   0.545
  936SOL    HW1 4767   1.445   2.977   0.497
  936SOL    HW2 4768   1.313   3.073   0.489
  937SOL     OW 4769   0.550   2.058   0.885
  937SOL    HW1 4770   0.545   2.053   0.985
  937SOL    HW2 4771   0.552   2.154   0.856
  938SOL     OW 4772   1.008   3.318   0.477
  938SOL    HW1 4773   0.962   3.390   0.425
  938SOL    HW2 4774   1.004   3.338   0.575
  939SOL     OW 4775   0.351   3.663   0.853
  939SOL    HW1 4776   0.401   3.577   0.859
  939SOL    HW2 4777   0.416   3.740   0.850
  940SOL     OW 4778   1.795   2.928   0.873
  940SOL    HW1 4779   1.733   2.913   0.797
  940SOL    HW2 4780   1.743   2.939   0.958
  941SOL     OW 4781   1.227   3.412   1.506
  941SOL    HW1 4782   1.233   3.335   1.570
  941SOL    HW2 4783   1.175   3.386   1.426
  942SOL     OW 4784   0.321   2.805   0.242
  942SOL    HW1 4785   0.403   2.844   0.200
  942SOL    HW2 4786   0.294   2.723   0.193
  943SOL     OW 4787   1.458   2.597   0.728
  943SOL    HW1 4788   1.453   2.532   0.803
  943SOL    HW2 4789   1.538   2.656   0.741
  944SOL     OW 4790   0.461   3.128   1.727
  944SOL    HW1 4791   0.411   3.129   1.641
  944SOL    HW2 4792   0.398   3.110   1.803
  945SOL     OW 4793   1.111   3.638   0.237
  945SOL    HW1 4794   1.051   3.576   0.287
  945SOL    HW2 4795   1.142   3.594   0.152
  946SOL     OW 4796   1.632   3.239   0.081
  946SOL    HW1 4797   1.600   3.333   0.071
  946SOL    HW2 4798   1.556   3.176   0.069
  947SOL     OW 4799   0.464   3.605   0.323
  947SOL    HW1 4800   0.497   3.644   0.409
  947SOL    HW2 4801   0.540   3.598   0.258
  948SOL     OW 4802   1.400   1.969   0.426
  948SOL    HW1 4803   1.376   1.932   0.336
  948SOL    HW2 4804   1.499   1.985   0.430
  949SOL     OW 4805   0.940   3.560   0.904
  949SOL    HW1 4806   1.020   3.503   0.925
  949SOL    HW2 4807   0.891   3.520   0.827
  950SOL     OW 4808   0.382   2.562   0.480
  950SOL    HW1 4809   0.427   2.472   0.477
  950SOL    HW2 4810   0.288   2.551   0.513
  951SOL     OW 4811   1.547   2.084   1.729
  951SOL    HW1 4812   1.542   2.121   1.821
  951SOL    HW2 4813   1.475   2.015   1.717
  952SOL     OW 4814   0.614   1.984   0.117
  952SOL    HW1 4815   0.712   1.962   0.124
  952SOL    HW2 4816   0.583   1.967   0.024
  953SOL     OW 4817   0.781   2.126   1.749
  953SOL    HW1 4818   0.848   2.065   1.792
  953SOL    HW2 4819   0.708   2.145   1.814
  954SOL     OW 4820   0.888   3.376   1.195
  954SOL    HW1 4821   0.865   3.351   1.101
  954SOL    HW2 4822   0.949   3.307   1.234
  955SOL     OW 4823   1.351   2.452   1.433
  955SOL    HW1 4824   1.379   2.409   1.518
  955SOL    HW2 4825   1.376   2.548   1.434
  956SOL     OW 4826   0.803   3.264   0.924
  956SOL    HW1 4827   0.893   3.278   0.882
  956SOL    HW2 4828   0.732   3.266   0.853
  957SOL     OW 4829   0.922   2.365   0.899
  957SOL    HW1 4830   0.897   2.356   0.803
  957SOL    HW2 4831   0.970   2.283   0.930
  958SOL     OW 4832   0.539   1.926   0.512
  958SOL    HW1 4833   0.458   1.927   0.570
  958SOL    HW2 4834   0.542   2.009   0.457
  959SOL     OW 4835   1.434   3.050   0.041
  959SOL    HW1 4836   1.466   2.974   0.098
  959SOL    HW2 4837   1.342   3.077   0.071
  960SOL     OW 4838   0.297   1.897   0.171
  960SOL    HW1 4839   0.346   1.981   0.150
  960SOL    HW2 4840   0.359   1.832   0.216
  961SOL     OW 4841   0.935   2.098   0.480
  961SOL    HW1 4842   0.887   2.139   0.402
  961SOL    HW2 4843   1.034   2.096   0.461
  962SOL     OW 4844   1.076   2.545   1.464
  962SOL    HW1 4845   0.996   2.484   1.467
  962SOL    HW2 4846   1.157   2.492   1.440
  963SOL     OW 4847   1.227   3.432   0.793
  963SOL    HW1 4848   1.248   3.506   0.728
  963SOL    HW2 4849   1.295   3.432   0.866
  964SOL     OW 4850   0.459   3.014   0.741
  964SOL    HW1 4851   0.388   2.987   0.806
  964SOL    HW2 4852   0.433   2.986   0.648
  965SOL     OW 4853   1.271   3.659   0.591
  965SOL    HW1 4854   1.315   3.723   0.527
  965SOL    HW2 4855   1.221   3.711   0.661
  966SOL     OW 4856   1.032   2.411   0.016
  966SOL    HW1 4857   0.991   2.493  -0.023
  966SOL    HW2 4858   1.096   2.437   0.089
  967SOL     OW 4859   0.561   2.084   1.147
  967SOL    HW1 4860   0.599   2.000   1.184
  967SOL    HW2 4861   0.473   2.103   1.191
  968SOL     OW 4862   0.866   2.316   0.642
  968SOL    HW1 4863   0.834   2.388   0.580
  968SOL    HW2 4864   0.890   2.235   0.589
  969SOL     OW 4865   1.017   1.901   0.753
  969SOL    HW1 4866   0.945   1.906   0.684
  969SOL    HW2 4867   0.993   1.832   0.822
  970SOL     OW 4868   1.429   3.035   0.867
  970SOL    HW1 4869   1.374   2.951   0.860
  970SOL    HW2 4870   1.455   3.064   0.775
  971SOL     OW 4871   1.466   2.452   0.992
  971SOL    HW1 4872   1.436   2.357   0.999
  971SOL    HW2 4873   1.539   2.468   1.058
  972SOL     OW 4874   1.857   2.695   0.377
  972SOL    HW1 4875   1.899   2.631   0.441
  972SOL    HW2 4876   1.819   2.644   0.299
  973SOL     OW 4877   0.488   3.247   0.174
  973SOL    HW1 4878   0.401   3.232   0.221
  973SOL    HW2 4879   0.471   3.273   0.079
  974SOL     OW 4880   1.664   3.142   0.657
  974SOL    HW1 4881   1.763   3.150   0.671
  974SOL    HW2 4882   1.619   3.226   0.688
  975SOL     OW 4883   1.390   2.437   0.078
  975SOL    HW1 4884   1.336   2.416   0.159
  975SOL    HW2 4885   1.481   2.396   0.087
  976SOL     OW 4886   0.527   2.118   0.328
  976SOL    HW1 4887   0.554   2.059   0.253
  976SOL    HW2 4888   0.527   2.213   0.297
  977SOL     OW 4889   1.754   3.085   1.588
  977SOL    HW1 4890   1.845   3.046   1.575
  977SOL    HW2 4891   1.762   3.181   1.612
  978SOL     OW 4892   1.064   3.209   1.340
  978SOL    HW1 4893   0.984   3.186   1.395
  978SOL    HW2 4894   1.147   3.183   1.389
  979SOL     OW 4895   1.592   3.491   1.625
  979SOL    HW1 4896   1.619   3.525   1.535
  979SOL    HW2 4897   1.671   3.453   1.671
  980SOL     OW 4898   1.111   3.057   1.100
  980SOL    HW1 4899   1.071   3.101   1.181
  980SOL    HW2 4900   1.070   3.094   1.017
  981SOL     OW 4901   1.638   2.961   1.079
  981SOL    HW1 4902   1.643   3.042   1.138
  981SOL    HW2 4903   1.552   2.963   1.028
  982SOL     OW 4904   0.915   1.951   1.402
  982SOL    HW1 4905   0.940   1.931   1.307
  982SOL    HW2 4906   0.987   2.007   1.444
  983SOL     OW 4907   0.980   2.978   1.719
  983SOL    HW1 4908   0.881   2.984   1.729
  983SOL    HW2 4909   1.003   2.898   1.663
  984SOL     OW 4910   0.705   2.912   0.368
  984SOL    HW1 4911   0.691   2.919   0.467
  984SOL    HW2 4912   0.789   2.861   0.350
  985SOL     OW 4913   0.410   2.675   1.251
  985SOL    HW1 4914   0.496   2.687   1.301
  985SOL    HW2 4915   0.368   2.588   1.278
  986SOL     OW 4916   1.274   2.248   1.262
  986SOL    HW1 4917   1.295   2.322   1.326
  986SOL    HW2 4918   1.185   2.265   1.219
  987SOL     OW 4919   0.367   2.962   0.501
  987SOL    HW1 4920   0.360   3.045   0.445
  987SOL    HW2 4921   0.371   2.882   0.441
  988SOL     OW 4922   0.566   2.399   0.865
  988SOL    HW1 4923   0.578   2.465   0.791
  988SOL    HW2 4924   0.612   2.433   0.948
  989SOL     OW 4925   1.252   3.210   0.388
  989SOL    HW1 4926   1.302   3.287   0.428
  989SOL    HW2 4927   1.157   3.212   0.420
  990SOL     OW 4928   1.272   3.307   1.142
  990SOL    HW1 4929   1.319   3.320   1.229
  990SOL    HW2 4930   1.206   3.233   1.151
  991SOL     OW 4931   1.582   2.501   0.472
  991SOL    HW1 4932   1.551   2.562   0.545
  991SOL    HW2 4933   1.632   2.553   0.403
  992SOL     OW 4934   0.354   3.372   1.329
  992SOL    HW1 4935   0.333   3.328   1.242
  992SOL    HW2 4936   0.451   3.398   1.332
  993SOL     OW 4937   0.402   2.613   1.598
  993SOL    HW1 4938   0.470   2.668   1.551
  993SOL    HW2 4939   0.442   2.525   1.625
  994SOL     OW 4940   1.587   2.641   1.670
  994SOL    HW1 4941   1.495   2.679   1.665
  994SOL    HW2 4942   1.647   2.688   1.605
  995SOL     OW 4943   1.013   1.967   1.770
  995SOL    HW1 4944   1.019   2.052   1.718
  995SOL    HW2 4945   1.045   1.891   1.713
  996SOL     OW 4946   0.504   1.912   1.740
  996SOL    HW1 4947   0.462   1.855   1.670
  996SOL    HW2 4948   0.438   1.981   1.772
  997SOL     OW 4949   0.573   2.732   1.029
  997SOL    HW1 4950   0.617   2.821   1.020
  997SOL    HW2 4951   0.510   2.732   1.106
  998SOL     OW 4952   1.360   2.724   1.045
  998SOL    HW1 4953   1.285   2.724   0.979
  998SOL    HW2 4954   1.397   2.632   1.054
  999SOL     OW 4955   1.209   2.387   0.275
  999SOL    HW1 4956   1.222   2.303   0.329
  999SOL    HW2 4957   1.180   2.461   0.335
 1000SOL     OW 4958   0.732   2.496   1.064
 1000SOL    HW1 4959   0.791   2.470   0.988
 1000SOL    HW2 4960   0.704   2.592   1.053
 1001SOL     OW 4961   1.728   2.797   1.854
 1001SOL    HW1 4962   1.682   2.790   1.765
 1001SOL    HW2 4963   1.666   2.841   1.920
 1002SOL     OW 4964   0.307   1.925   0.618
 1002SOL    HW1 4965   0.296   2.019   0.651
 1002SOL    HW2 4966   0.302   1.862   0.695
 1003SOL     OW 4967   1.622   2.229   0.374
 1003SOL    HW1 4968   1.624   2.153   0.438
 1003SOL    HW2 4969   1.574   2.306   0.414
 1004SOL     OW 4970   1.023   2.628   0.966
 1004SOL    HW1 4971   1.038   2.649   1.062
 1004SOL    HW2 4972   0.993   2.533   0.957
 1005SOL     OW 4973   0.980   3.435   1.700
 1005SOL    HW1 4974   0.960   3.479   1.612
 1005SOL    HW2 4975   1.019   3.344   1.684
 1006SOL     OW 4976   1.859   3.380   1.605
 1006SOL    HW1 4977   1.873   3.407   1.510
 1006SOL    HW2 4978   1.942   3.402   1.658
 1007SOL     OW 4979   0.350   2.760   1.804
 1007SOL    HW1 4980   0.426   2.804   1.852
 1007SOL    HW2 4981   0.385   2.713   1.722
 1008SOL     OW 4982   1.540   2.136   0.125
 1008SOL    HW1 4983   1.479   2.061   0.148
 1008SOL    HW2 4984   1.562   2.188   0.208
 1009SOL     OW 4985   1.303   2.700   0.042
 1009SOL    HW1 4986   1.337   2.607   0.057
 1009SOL    HW2 4987   1.321   2.727  -0.053
 1010SOL     OW 4988   1.068   3.195   0.849
 1010SOL    HW1 4989   1.075   3.111   0.794
 1010SOL    HW2 4990   1.130   3.264   0.813
 1011SOL     OW 4991   0.319   2.672   0.949
 1011SOL    HW1 4992   0.412   2.708   0.954
 1011SOL    HW2 4993   0.313   2.587   1.001
 1012SOL     OW 4994   1.138   2.242   1.678
 1012SOL    HW1 4995   1.093   2.305   1.742
 1012SOL    HW2 4996   1.231   2.273   1.661
 1013SOL     OW 4997   1.160   2.069   1.477
 1013SOL    HW1 4998   1.160   2.133   1.554
 1013SOL    HW2 4999   1.188   2.117   1.394
 1014SOL     OW 5000   0.504   3.430   0.910
 1014SOL    HW1 5001   0.570   3.504   0.919
 1014SOL    HW2 5002   0.548   3.351   0.868
 1015SOL     OW 5003   1.002   2.658   1.238
 1015SOL    HW1 5004   1.043   2.626   1.324
 1015SOL    HW2 5005   0.906   2.631   1.235
 1016SOL     OW 5006   1.369   2.812   1.660
 1016SOL    HW1 5007   1.408   2.901   1.680
 1016SOL    HW2 5008   1.379   2.792   1.563
 1017SOL     OW 5009   0.815   2.434   0.325
 1017SOL    HW1 5010   0.822   2.345   0.279
 1017SOL    HW2 5011   0.721   2.468   0.317
 1018SOL     OW 5012   1.657   2.466   1.206
 1018SOL    HW1 5013   1.619   2.397   1.268
 1018SOL    HW2 5014   1.739   2.430   1.162
 1019SOL     OW 5015   0.671   2.326   1.269
 1019SOL    HW1 5016   0.637   2.237   1.239
 1019SOL    HW2 5017   0.697   2.380   1.189
 1020SOL     OW 5018   0.930   3.540   1.465
 1020SOL    HW1 5019   0.906   3.522   1.370
 1020SOL    HW2 5020   0.960   3.634   1.475
 1021SOL     OW 5021   0.473   2.362   0.191
 1021SOL    HW1 5022   0.534   2.442   0.195
 1021SOL    HW2 5023   0.378   2.393   0.198
 1022SOL     OW 5024   1.347   2.921   1.234
 1022SOL    HW1 5025   1.371   2.858   1.160
 1022SOL    HW2 5026   1.257   2.961   1.216
 1023SOL     OW 5027   1.302   2.717   0.309
 1023SOL    HW1 5028   1.216   2.686   0.351
 1023SOL    HW2 5029   1.298   2.703   0.210
 1024SOL     OW 5030   1.759   3.609   1.154
 1024SOL    HW1 5031   1.820   3.639   1.081
 1024SOL    HW2 5032   1.721   3.520   1.132
 1025SOL     OW 5033   1.252   3.593   1.128
 1025SOL    HW1 5034   1.336   3.598   1.074
 1025SOL    HW2 5035   1.229   3.497   1.146
 1026SOL     OW 5036   0.688   3.524   1.716
 1026SOL    HW1 5037   0.632   3.605   1.725
 1026SOL    HW2 5038   0.740   3.528   1.630
 1027SOL     OW 5039   0.903   1.948   0.133
 1027SOL    HW1 5040   0.954   1.949   0.047
 1027SOL    HW2 5041   0.959   1.906   0.204
 1028SOL     OW 5042   1.726   1.997   0.523
 1028SOL    HW1 5043   1.799   1.980   0.456
 1028SOL    HW2 5044   1.695   1.910   0.561
 1029SOL     OW 5045   1.388   3.435   0.477
 1029SOL    HW1 5046   1.455   3.447   0.403
 1029SOL    HW2 5047   1.348   3.524   0.500
 1030SOL     OW 5048   0.130   3.656   1.851
 1030SOL    HW1 5049   0.089   3.582   1.904
 1030SOL    HW2 5050   0.194   3.707   1.909
 1031SOL     OW 5051   1.280   2.789   0.672
 1031SOL    HW1 5052   1.340   2.708   0.674
 1031SOL    HW2 5053   1.320   2.858   0.612
 1032SOL     OW 5054   0.830   3.135   1.422
 1032SOL    HW1 5055   0.825   3.168   1.517
 1032SOL    HW2 5056   0.744   3.154   1.376
 1033SOL     OW 5057   0.672   3.478   0.154
 1033SOL    HW1 5058   0.681   3.488   0.055
 1033SOL    HW2 5059   0.632   3.389   0.175
 1034SOL     OW 5060   1.650   3.582   1.394
 1034SOL    HW1 5061   1.703   3.592   1.310
 1034SOL    HW2 5062   1.623   3.672   1.428
 1035SOL     OW 5063   1.841   2.037   0.963
 1035SOL    HW1 5064   1.880   1.952   0.927
 1035SOL    HW2 5065   1.743   2.039   0.944
 1036SOL     OW 5066   0.263   2.188   0.720
 1036SOL    HW1 5067   0.184   2.239   0.686
 1036SOL    HW2 5068   0.254   2.173   0.818
 1037SOL     OW 5069   1.194   3.474   0.031
 1037SOL    HW1 5070   1.200   3.381   0.068
 1037SOL    HW2 5071   1.135   3.474  -0.049
 1038SOL     OW 5072   0.822   2.864   1.372
 1038SOL    HW1 5073   0.862   2.863   1.280
 1038SOL    HW2 5074   0.832   2.956   1.412
 1039SOL     OW 5075   0.916   2.772   0.291
 1039SOL    HW1 5076   0.979   2.810   0.223
 1039SOL    HW2 5077   0.956   2.689   0.330
 1040SOL     OW 5078   1.504   3.469   0.044
 1040SOL    HW1 5079   1.412   3.506   0.051
 1040SOL    HW2 5080   1.542   3.489  -0.046
 1041SOL     OW 5081   0.372   3.150   1.490
 1041SOL    HW1 5082   0.359   3.243   1.456
 1041SOL    HW2 5083   0.288   3.098   1.477
 1042SOL     OW 5084   1.614   3.154   1.289
 1042SOL    HW1 5085   1.674   3.157   1.369
 1042SOL    HW2 5086   1.539   3.218   1.302
 1043SOL     OW 5087   1.039   2.960   0.696
 1043SOL    HW1 5088   0.969   2.913   0.750
 1043SOL    HW2 5089   1.098   2.892   0.653
 1044SOL     OW 5090   1.014   2.098   0.971
 1044SOL    HW1 5091   1.006   2.062   0.878
 1044SOL    HW2 5092   1.012   2.022   1.036
 1045SOL     OW 5093   0.590   3.349   0.491
 1045SOL    HW1 5094   0.632   3.291   0.421
 1045SOL    HW2 5095   0.546   3.428   0.447
 1046SOL     OW 5096   1.709   2.247   1.381
 1046SOL    HW1 5097   1.782   2.316   1.385
 1046SOL    HW2 5098   1.737   2.172   1.322
 1047SOL     OW 5099   0.255   3.210   0.290
 1047SOL    HW1 5100   0.159   3.211   0.263
 1047SOL    HW2 5101   0.267   3.263   0.374
 1048SOL     OW 5102   0.672   2.065   1.489
 1048SOL    HW1 5103   0.762   2.049   1.449
 1048SOL    HW2 5104   0.680   2.070   1.588
 1049SOL     OW 5105   1.440   2.718   1.398
 1049SOL    HW1 5106   1.383   2.770   1.335
 1049SOL    HW2 5107   1.536   2.730   1.374
 1050SOL     OW 5108   1.183   3.197   0.119
 1050SOL    HW1 5109   1.084   3.186   0.121
 1050SOL    HW2 5110   1.217   3.212   0.212
 1051SOL     OW 5111   0.613   2.704   1.431
 1051SOL    HW1 5112   0.669   2.785   1.414
 1051SOL    HW2 5113   0.672   2.624   1.434
 1052SOL     OW 5114   1.493   3.629   0.959
 1052SOL    HW1 5115   1.526   3.693   0.890
 1052SOL    HW2 5116   1.559   3.623   1.034
 1053SOL     OW 5117   0.716   2.427   1.708
 1053SOL    HW1 5118   0.735   2.492   1.782
 1053SOL    HW2 5119   0.776   2.347   1.717
 1054SOL     OW 5120   1.450   3.082   1.633
 1054SOL    HW1 5121   1.441   3.072   1.732
 1054SOL    HW2 5122   1.546   3.075   1.607
 1055SOL     OW 5123   0.390   3.603   1.560
 1055SOL    HW1 5124   0.299   3.644   1.558
 1055SOL    HW2 5125   0.383   3.509   1.592
 1056SOL     OW 5126   1.674   2.745   1.254
 1056SOL    HW1 5127   1.647   2.656   1.217
 1056SOL    HW2 5128   1.675   2.813   1.181
 1057SOL     OW 5129   1.225   2.187   0.449
 1057SOL    HW1 5130   1.290   2.113   0.438
 1057SOL    HW2 5131   1.245   2.237   0.533
 1058SOL     OW 5132   0.594   2.607   0.652
 1058SOL    HW1 5133   0.644   2.692   0.633
 1058SOL    HW2 5134   0.506   2.609   0.604
 1059SOL     OW 5135   1.777   2.204   1.642
 1059SOL    HW1 5136   1.760   2.235   1.548
 1059SOL    HW2 5137   1.693   2.167   1.680
 1060SOL     OW 5138   1.730   2.796   1.517
 1060SOL    HW1 5139   1.768   2.887   1.532
 1060SOL    HW2 5140   1.722   2.779   1.418
 1061SOL     OW 5141   0.859   3.236   0.016
 1061SOL    HW1 5142   0.813   3.251   0.104
 1061SOL    HW2 5143   0.903   3.321  -0.014
 1062SOL     OW 5144   0.661   3.652   0.953
 1062SOL    HW1 5145   0.615   3.740   0.940
 1062SOL    HW2 5146   0.760   3.664   0.946
 1063SOL     OW 5147   1.408   3.713   1.720
 1063SOL    HW1 5148   1.312   3.702   1.693
 1063SOL    HW2 5149   1.464   3.646   1.672
 1064SOL     OW 5150   0.859   2.818   0.861
 1064SOL    HW1 5151   0.913   2.749   0.909
 1064SOL    HW2 5152   0.827   2.887   0.927
 1065SOL     OW 5153   1.083   2.846   0.087
 1065SOL    HW1 5154   1.060   2.899   0.005
 1065SOL    HW2 5155   1.164   2.790   0.068
 1066SOL     OW 5156   1.861   3.431   0.851
 1066SOL    HW1 5157   1.790   3.419   0.781
 1066SOL    HW2 5158   1.862   3.352   0.911
 1067SOL     OW 5159   0.672   3.253   1.624
 1067SOL    HW1 5160   0.594   3.203   1.662
 1067SOL    HW2 5161   0.669   3.348   1.655
 1068SOL     OW 5162   1.824   2.054   1.227
 1068SOL    HW1 5163   1.820   1.964   1.271
 1068SOL    HW2 5164   1.827   2.043   1.128
 1069SOL     OW 5165   0.428   2.286   0.520
 1069SOL    HW1 5166   0.458   2.214   0.458
 1069SOL    HW2 5167   0.389   2.246   0.603
 1070SOL     OW 5168   1.705   3.349   1.104
 1070SOL    HW1 5169   1.612   3.324   1.077
 1070SOL    HW2 5170   1.731   3.299   1.186
 1071SOL     OW 5171   0.812   3.448   0.687
 1071SOL    HW1 5172   0.844   3.458   0.593
 1071SOL    HW2 5173   0.733   3.386   0.689
 1072SOL     OW 5174   1.424   2.076   1.112
 1072SOL    HW1 5175   1.476   2.011   1.167
 1072SOL    HW2 5176   1.375   2.139   1.173
 1073SOL     OW 5177   1.001   1.896   1.154
 1073SOL    HW1 5178   0.938   1.824   1.123
 1073SOL    HW2 5179   1.094   1.860   1.154
 1074SOL     OW 5180   0.770   3.192   0.301
 1074SOL    HW1 5181   0.724   3.105   0.318
 1074SOL    HW2 5182   0.861   3.189   0.342
 1075SOL     OW 5183   0.618   3.429   1.284
 1075SOL    HW1 5184   0.613   3.511   1.341
 1075SOL    HW2 5185   0.707   3.426   1.239
 1076SOL     OW 5186   1.300   2.315   0.691
 1076SOL    HW1 5187   1.241   2.395   0.695
 1076SOL    HW2 5188   1.315   2.280   0.784
 1077SOL     OW 5189   1.593   2.083   0.882
 1077SOL    HW1 5190   1.509   2.082   0.936
 1077SOL    HW2 5191   1.595   2.166   0.826
 1078SOL     OW 5192   0.875   3.508   0.337
 1078SOL    HW1 5193   0.798   3.473   0.283
 1078SOL    HW2 5194   0.843   3.579   0.399
 1079SOL     OW 5195   0.019   2.230   2.509
 1079SOL    HW1 5196  -0.063   2.273   2.548
 1079SOL    HW2 5197  -0.009   2.157   2.446
 1080SOL     OW 5198   0.569   3.137   3.027
 1080SOL    HW1 5199   0.476   3.130   2.990
 1080SOL    HW2 5200   0.580   3.226   3.071
 1081SOL     OW 5201   1.555   3.373   2.565
 1081SOL    HW1 5202   1.498   3.357   2.646
 1081SOL    HW2 5203   1.496   3.383   2.485
 1082SOL     OW 5204   1.743   2.480   2.718
 1082SOL    HW1 5205   1.776   2.574   2.718
 1082SOL    HW2 5206   1.794   2.426   2.784
 1083SOL     OW 5207   1.135   2.565   2.579
 1083SOL    HW1 5208   1.192   2.643   2.554
 1083SOL    HW2 5209   1.075   2.591   2.655
 1084SOL     OW 5210   1.755   2.469   2.093
 1084SOL    HW1 5211   1.743   2.456   1.994
 1084SOL    HW2 5212   1.725   2.388   2.142
 1085SOL     OW 5213   0.768   3.006   2.885
 1085SOL    HW1 5214   0.690   3.023   2.945
 1085SOL    HW2 5215   0.802   3.093   2.849
 1086SOL     OW 5216   0.850   2.660   3.685
 1086SOL    HW1 5217   0.846   2.736   3.750
 1086SOL    HW2 5218   0.872   2.696   3.594
 1087SOL     OW 5219   0.685   2.874   2.527
 1087SOL    HW1 5220   0.754   2.858   2.597
 1087SOL    HW2 5221   0.612   2.931   2.565
 1088SOL     OW 5222   0.686   3.023   3.665
 1088SOL    HW1 5223   0.746   3.102   3.679
 1088SOL    HW2 5224   0.600   3.054   3.624
 1089SOL     OW 5225   0.335   3.297   2.923
 1089SOL    HW1 5226   0.257   3.266   2.870
 1089SOL    HW2 5227   0.393   3.355   2.866
 1090SOL     OW 5228   1.460   3.367   3.201
 1090SOL    HW1 5229   1.484   3.461   3.227
 1090SOL    HW2 5230   1.444   3.313   3.283
 1091SOL     OW 5231   0.438   2.254   3.361
 1091SOL    HW1 5232   0.520   2.198   3.370
 1091SOL    HW2 5233   0.357   2.196   3.365
 1092SOL     OW 5234   1.603   2.309   2.599
 1092SOL    HW1 5235   1.529   2.355   2.549
 1092SOL    HW2 5236   1.654   2.377   2.652
 1093SOL     OW 5237   1.127   3.203   3.552
 1093SOL    HW1 5238   1.174   3.203   3.640
 1093SOL    HW2 5239   1.079   3.116   3.541
 1094SOL     OW 5240   0.620   3.648   3.301
 1094SOL    HW1 5241   0.528   3.631   3.336
 1094SOL    HW2 5242   0.648   3.740   3.327
 1095SOL     OW 5243   0.606   2.826   1.985
 1095SOL    HW1 5244   0.613   2.910   1.931
 1095SOL    HW2 5245   0.652   2.839   2.073
 1096SOL     OW 5246   1.594   1.976   3.342
 1096SOL    HW1 5247   1.576   2.043   3.270
 1096SOL    HW2 5248   1.591   2.022   3.431
 1097SOL     OW 5249   1.842   3.629   2.221
 1097SOL    HW1 5250   1.896   3.600   2.301
 1097SOL    HW2 5251   1.872   3.719   2.192
 1098SOL     OW 5252   1.689   2.784   2.474
 1098SOL    HW1 5253   1.784   2.755   2.482
 1098SOL    HW2 5254   1.681   2.849   2.399
 1099SOL     OW 5255   1.641   2.970   2.294
 1099SOL    HW1 5256   1.727   2.972   2.242
 1099SOL    HW2 5257   1.655   3.017   2.382
 1100SOL     OW 5258   0.613   3.227   2.588
 1100SOL    HW1 5259   0.564   3.140   2.597
 1100SOL    HW2 5260   0.590   3.270   2.501
 1101SOL     OW 5261   1.293   3.090   3.285
 1101SOL    HW1 5262   1.330   3.017   3.227
 1101SOL    HW2 5263   1.345   3.095   3.370
 1102SOL     OW 5264   0.809   1.866   2.364
 1102SOL    HW1 5265   0.849   1.957   2.355
 1102SOL    HW2 5266   0.709   1.874   2.370
 1103SOL     OW 5267   1.525   2.861   2.052
 1103SOL    HW1 5268   1.462   2.785   2.065
 1103SOL    HW2 5269   1.573   2.879   2.138
 1104SOL     OW 5270   1.187   3.654   3.478
 1104SOL    HW1 5271   1.211   3.714   3.402
 1104SOL    HW2 5272   1.194   3.559   3.448
 1105SOL     OW 5273   0.317   2.113   3.663
 1105SOL    HW1 5274   0.388   2.184   3.669
 1105SOL    HW2 5275   0.229   2.152   3.691
 1106SOL     OW 5276   1.466   3.279   2.815
 1106SOL    HW1 5277   1.407   3.285   2.895
 1106SOL    HW2 5278   1.451   3.191   2.769
 1107SOL     OW 5279   1.667   3.576   2.434
 1107SOL    HW1 5280   1.626   3.553   2.346
 1107SOL    HW2 5281   1.649   3.502   2.499
 1108SOL     OW 5282   0.598   2.591   2.132
 1108SOL    HW1 5283   0.622   2.660   2.064
 1108SOL    HW2 5284   0.520   2.624   2.186
 1109SOL     OW 5285   1.281   2.207   2.806
 1109SOL    HW1 5286   1.195   2.157   2.793
 1109SOL    HW2 5287   1.343   2.153   2.862
 1110SOL     OW 5288   1.576   3.524   2.169
 1110SOL    HW1 5289   1.665   3.570   2.172
 1110SOL    HW2 5290   1.555   3.500   2.074
 1111SOL     OW 5291   0.807   2.467   3.327
 1111SOL    HW1 5292   0.760   2.464   3.416
 1111SOL    HW2 5293   0.756   2.412   3.261
 1112SOL     OW 5294   1.394   2.331   3.536
 1112SOL    HW1 5295   1.374   2.374   3.624
 1112SOL    HW2 5296   1.472   2.269   3.545
 1113SOL     OW 5297   0.973   2.752   3.434
 1113SOL    HW1 5298   1.019   2.668   3.405
 1113SOL    HW2 5299   0.917   2.786   3.359
 1114SOL     OW 5300   0.991   2.272   3.104
 1114SOL    HW1 5301   0.914   2.306   3.158
 1114SOL    HW2 5302   0.957   2.221   3.025
 1115SOL     OW 5303   1.041   2.563   2.291
 1115SOL    HW1 5304   1.067   2.559   2.387
 1115SOL    HW2 5305   0.956   2.512   2.277
 1116SOL     OW 5306   0.865   2.210   2.057
 1116SOL    HW1 5307   0.924   2.273   2.008
 1116SOL    HW2 5308   0.884   2.116   2.028
 1117SOL     OW 5309   1.719   2.447   3.693
 1117SOL    HW1 5310   1.693   2.536   3.657
 1117SOL    HW2 5311   1.717   2.379   3.620
 1118SOL     OW 5312   1.362   3.006   2.407
 1118SOL    HW1 5313   1.445   2.977   2.359
 1118SOL    HW2 5314   1.313   3.073   2.351
 1119SOL     OW 5315   0.550   2.058   2.747
 1119SOL    HW1 5316   0.545   2.053   2.847
 1119SOL    HW2 5317   0.552   2.154   2.718
 1120SOL     OW 5318   1.008   3.318   2.339
 1120SOL    HW1 5319   0.962   3.390   2.287
 1120SOL    HW2 5320   1.004   3.338   2.437
 1121SOL     OW 5321   0.351   3.663   2.715
 1121SOL    HW1 5322   0.401   3.577   2.721
 1121SOL    HW2 5323   0.416   3.740   2.712
 1122SOL     OW 5324   1.795   2.928   2.735
 1122SOL    HW1 5325   1.733   2.913   2.659
 1122SOL    HW2 5326   1.743   2.939   2.820
 1123SOL     OW 5327   1.227   3.412   3.368
 1123SOL    HW1 5328   1.233   3.335   3.432
 1123SOL    HW2 5329   1.175   3.386   3.288
 1124SOL     OW 5330   0.321   2.805   2.104
 1124SOL    HW1 5331   0.403   2.844   2.062
 1124SOL    HW2 5332   0.294   2.723   2.055
 1125SOL     OW 5333   1.458   2.597   2.590
 1125SOL    HW1 5334   1.453   2.532   2.665
 1125SOL    HW2 5335   1.538   2.656   2.603
 1126SOL     OW 5336   0.461   3.128   3.589
 1126SOL    HW1 5337   0.411   3.129   3.503
 1126SOL    HW2 5338   0.398   3.110   3.665
 1127SOL     OW 5339   1.111   3.638   2.099
 1127SOL    HW1 5340   1.051   3.576   2.149
 1127SOL    HW2 5341   1.142   3.594   2.014
 1128SOL     OW 5342   1.632   3.239   1.943
 1128SOL    HW1 5343   1.600   3.333   1.933
 1128SOL    HW2 5344   1.556   3.176   1.931
 1129SOL     OW 5345   0.464   3.605   2.185
 1129SOL    HW1 5346   0.497   3.644   2.271
 1129SOL    HW2 5347   0.540   3.598   2.120
 1130SOL     OW 5348   1.400   1.969   2.288
 1130SOL    HW1 5349   1.376   1.932   2.198
 1130SOL    HW2 5350   1.499   1.985   2.292
 1131SOL     OW 5351   0.940   3.560   2.766
 1131SOL    HW1 5352   1.020   3.503   2.787
 1131SOL    HW2 5353   0.891   3.520   2.689
 1132SOL     OW 5354   0.382   2.562   2.342
 1132SOL    HW1 5355   0.427   2.472   2.339
 1132SOL    HW2 5356   0.288   2.551   2.375
 1133SOL     OW 5357   1.547   2.084   3.591
 1133SOL    HW1 5358   1.542   2.121   3.683
 1133SOL    HW2 5359   1.475   2.015   3.579
 1134SOL     OW 5360   0.614   1.984   1.979
 1134SOL    HW1 5361   0.712   1.962   1.986
 1134SOL    HW2 5362   0.583   1.967   1.886
 1135SOL     OW 5363   0.781   2.126   3.611
 1135SOL    HW1 5364   0.848   2.065   3.654
 1135SOL    HW2 5365   0.708   2.145   3.676
 1136SOL     OW 5366   0.888   3.376   3.057
 1136SOL    HW1 5367   0.865   3.351   2.963
 1136SOL    HW2 5368   0.949   3.307   3.096
 1137SOL     OW 5369   1.351   2.452   3.295
 1137SOL    HW1 5370   1.379   2.409   3.380
 1137SOL    HW2 5371   1.376   2.548   3.296
 1138SOL     OW 5372   0.803   3.264   2.786
 1138SOL    HW1 5373   0.893   3.278   2.744
 1138SOL    HW2 5374   0.732   3.266   2.715
 1139SOL     OW 5375   0.922   2.365   2.761
 1139SOL    HW1 5376   0.897   2.356   2.665
 1139SOL    HW2 5377   0.970   2.283   2.792
 1140SOL     OW 5378   0.539   1.926   2.374
 1140SOL    HW1 5379   0.458   1.927   2.432
 1140SOL    HW2 5380   0.542   2.009   2.319
 1141SOL     OW 5381   1.434   3.050   1.903
 1141SOL    HW1 5382   1.466   2.974   1.960
 1141SOL    HW2 5383   1.342   3.077   1.933
 1142SOL     OW 5384   0.297   1.897   2.033
 1142SOL    HW1 5385   0.346   1.981   2.012
 1142SOL    HW2 5386   0.359   1.832   2.078
 1143SOL     OW 5387   0.935   2.098   2.342
 1143SOL    HW1 5388   0.887   2.139   2.264
 1143SOL    HW2 5389   1.034   2.096   2.323
 1144SOL     OW 5390   1.076   2.545   3.326
 1144SOL    HW1 5391   0.996   2.484   3.329
 1144SOL    HW2 5392   1.157   2.492   3.302
 1145SOL     OW 5393   1.227   3.432   2.655
 1145SOL    HW1 5394   1.248   3.506   2.590
 1145SOL    HW2 5395   1.295   3.432   2.728
 1146SOL     OW 5396   0.459   3.014   2.603
 1146SOL    HW1 5397   0.388   2.987   2.668
 1146SOL    HW2 5398   0.433   2.986   2.510
 1147SOL     OW 5399   1.271   3.659   2.453
 1147SOL    HW1 5400   1.315   3.723   2.389
 1147SOL    HW2 5401   1.221   3.711   2.523
 1148SOL     OW 5402   1.032   2.411   1.878
 1148SOL    HW1 5403   0.991   2.493   1.839
 1148SOL    HW2 5404   1.096   2.437   1.951
 1149SOL     OW 5405   0.561   2.084   3.009
 1149SOL    HW1 5406   0.599   2.000   3.046
 1149SOL    HW2 5407   0.473   2.103   3.053
 1150SOL     OW 5408   0.866   2.316   2.504
 1150SOL    HW1 5409   0.834   2.388   2.442
 1150SOL    HW2 5410   0.890   2.235   2.451
 1151SOL     OW 5411   1.017   1.901   2.615
 1151SOL    HW1 5412   0.945   1.906   2.546
 1151SOL    HW2 5413   0.993   1.832   2.684
 1152SOL     OW 5414   1.429   3.035   2.729
 1152SOL    HW1 5415   1.374   2.951   2.722
 1152SOL    HW2 5416   1.455   3.064   2.637
 1153SOL     OW 5417   1.466   2.452   2.854
 1153SOL    HW1 5418   1.436   2.357   2.861
 1153SOL    HW2 5419   1.539   2.468   2.920
 1154SOL     OW 5420   1.857   2.695   2.239
 1154SOL    HW1 5421   1.899   2.631   2.303
 1154SOL    HW2 5422   1.819   2.644   2.161
 1155SOL     OW 5423   0.488   3.247   2.036
 1155SOL    HW1 5424   0.401   3.232   2.083
 1155SOL    HW2 5425   0.471   3.273   1.941
 1156SOL     OW 5426   1.664   3.142   2.519
 1156SOL    HW1 5427   1.763   3.150   2.533
 1156SOL    HW2 5428   1.619   3.226   2.550
 1157SOL     OW 5429   1.390   2.437   1.940
 1157SOL    HW1 5430   1.336   2.416   2.021
 1157SOL    HW2 5431   1.481   2.396   1.949
 1158SOL     OW 5432   0.527   2.118   2.190
 1158SOL    HW1 5433   0.554   2.059   2.115
 1158SOL    HW2 5434   0.527   2.213   2.159
 1159SOL     OW 5435   1.754   3.085   3.450
 1159SOL    HW1 5436   1.845   3.046   3.437
 1159SOL    HW2 5437   1.762   3.181   3.474
 1160SOL     OW 5438   1.064   3.209   3.202
 1160SOL    HW1 5439   0.984   3.186   3.257
 1160SOL    HW2 5440   1.147   3.183   3.251
 1161SOL     OW 5441   1.592   3.491   3.487
 1161SOL    HW1 5442   1.619   3.525   3.397
 1161SOL    HW2 5443   1.671   3.453   3.533
 1162SOL     OW 5444   1.111   3.057   2.962
 1162SOL    HW1 5445   1.071   3.101   3.043
 1162SOL    HW2 5446   1.070   3.094   2.879
 1163SOL     OW 5447   1.638   2.961   2.941
 1163SOL    HW1 5448   1.643   3.042   3.000
 1163SOL    HW2 5449   1.552   2.963   2.890
 1164SOL     OW 5450   0.915   1.951   3.264
 1164SOL    HW1 5451   0.940   1.931   3.169
 1164SOL    HW2 5452   0.987   2.007   3.306
 1165SOL     OW 5453   0.980   2.978   3.581
 1165SOL    HW1 5454   0.881   2.984   3.591
 1165SOL    HW2 5455   1.003   2.898   3.525
 1166SOL     OW 5456   0.705   2.912   2.230
 1166SOL    HW1 5457   0.691   2.919   2.329
 1166SOL    HW2 5458   0.789   2.861   2.212
 1167SOL     OW 5459   0.410   2.675   3.113
 1167SOL    HW1 5460   0.496   2.687   3.163
 1167SOL    HW2 5461   0.368   2.588   3.140
 1168SOL     OW 5462   1.274   2.248   3.124
 1168SOL    HW1 5463   1.295   2.322   3.188
 1168SOL    HW2 5464   1.185   2.265   3.081
 1169SOL     OW 5465   0.367   2.962   2.363
 1169SOL    HW1 5466   0.360   3.045   2.307
 1169SOL    HW2 5467   0.371   2.882   2.303
 1170SOL     OW 5468   0.566   2.399   2.727
 1170SOL    HW1 5469   0.578   2.465   2.653
 1170SOL    HW2 5470   0.612   2.433   2.810
 1171SOL     OW 5471   1.252   3.210   2.250
 1171SOL    HW1 5472   1.302   3.287   2.290
 1171SOL    HW2 5473   1.157   3.212   2.282
 1172SOL     OW 5474   1.272   3.307   3.004
 1172SOL    HW1 5475   1.319   3.320   3.091
 1172SOL    HW2 5476   1.206   3.233   3.013
 1173SOL     OW 5477   1.582   2.501   2.334
 1173SOL    HW1 5478   1.551   2.562   2.407
 1173SOL    HW2 5479   1.632   2.553   2.265
 1174SOL     OW 5480   0.354   3.372   3.191
 1174SOL    HW1 5481   0.333   3.328   3.104
 1174SOL    HW2 5482   0.451   3.398   3.194
 1175SOL     OW 5483   0.402   2.613   3.460
 1175SOL    HW1 5484   0.470   2.668   3.413
 1175SOL    HW2 5485   0.442   2.525   3.487
 1176SOL     OW 5486   1.587   2.641   3.532
 1176SOL    HW1 5487   1.495   2.679   3.527
 1176SOL    HW2 5488   1.647   2.688   3.467
 1177SOL     OW 5489   1.013   1.967   3.632
 1177SOL    HW1 5490   1.019   2.052   3.580
 1177SOL    HW2 5491   1.045   1.891   3.575
 1178SOL     OW 5492   0.504   1.912   3.602
 1178SOL    HW1 5493   0.462   1.855   3.532
 1178SOL    HW2 5494   0.438   1.981   3.634
 1179SOL     OW 5495   0.573   2.732   2.891
 1179SOL    HW1 5496   0.617   2.821   2.882
 1179SOL    HW2 5497   0.510   2.732   2.968
 1180SOL     OW 5498   1.360   2.724   2.907
 1180SOL    HW1 5499   1.285   2.724   2.841
 1180SOL    HW2 5500   1.397   2.632   2.916
 1181SOL     OW 5501   1.209   2.387   2.137
 1181SOL    HW1 5502   1.222   2.303   2.191
 1181SOL    HW2 5503   1.180   2.461   2.197
 1182SOL     OW 5504   0.732   2.496   2.926
 1182SOL    HW1 5505   0.791   2.470   2.850
 1182SOL    HW2 5506   0.704   2.592   2.915
 1183SOL     OW 5507   1.728   2.797   3.716
 1183SOL    HW1 5508   1.682   2.790   3.627
 1183SOL    HW2 5509   1.666   2.841   3.782
 1184SOL     OW 5510   0.307   1.925   2.480
 1184SOL    HW1 5511   0.296   2.019   2.513
 1184SOL    HW2 5512   0.302   1.862   2.557
 1185SOL     OW 5513   1.622   2.229   2.236
 1185SOL    HW1 5514   1.624   2.153   2.300
 1185SOL    HW2 5515   1.574   2.306   2.276
 1186SOL     OW 5516   1.023   2.628   2.828
 1186SOL    HW1 5517   1.038   2.649   2.924
 1186SOL    HW2 5518   0.993   2.533   2.819
 1187SOL     OW 5519   0.980   3.435   3.562
 1187SOL    HW1 5520   0.960   3.479   3.474
 1187SOL    HW2 5521   1.019   3.344   3.546
 1188SOL     OW 5522   1.859   3.380   3.467
 1188SOL    HW1 5523   1.873   3.407   3.372
 1188SOL    HW2 5524   1.942   3.402   3.520
 1189SOL     OW 5525   0.350   2.760   3.666
 1189SOL    HW1 5526   0.426   2.804   3.714
 1189SOL    HW2 5527   0.385   2.713   3.584
 1190SOL     OW 5528   1.540   2.136   1.987
 1190SOL    HW1 5529   1.479   2.061   2.010
 1190SOL    HW2 5530   1.562   2.188   2.070
 1191SOL     OW 5531   1.303   2.700   1.904
 1191SOL    HW1 5532   1.337   2.607   1.919
 1191SOL    HW2 5533   1.321   2.727   1.809
 1192SOL     OW 5534   1.068   3.195   2.711
 1192SOL    HW1 5535   1.075   3.111   2.656
 1192SOL    HW2 5536   1.130   3.264   2.675
 1193SOL     OW 5537   0.319   2.672   2.811
 1193SOL    HW1 5538   0.412   2.708   2.816
 1193SOL    HW2 5539   0.313   2.587   2.863
 1194SOL     OW 5540   1.138   2.242   3.540
 1194SOL    HW1 5541   1.093   2.305   3.604
 1194SOL    HW2 5542   1.231   2.273   3.523
 1195SOL     OW 5543   1.160   2.069   3.339
 1195SOL    HW1 5544   1.160   2.133   3.416
 1195SOL    HW2 5545   1.188   2.117   3.256
 1196SOL     OW 5546   0.504   3.430   2.772
 1196SOL    HW1 5547   0.570   3.504   2.781
 1196SOL    HW2 5548   0.548   3.351   2.730
 1197SOL     OW 5549   1.002   2.658   3.100
 1197SOL    HW1 5550   1.043   2.626   3.186
 1197SOL    HW2 5551   0.906   2.631   3.097
 1198SOL     OW 5552   1.369   2.812   3.522
 1198SOL    HW1 5553   1.408   2.901   3.542
 1198SOL    HW2 5554   1.379   2.792   3.425
 1199SOL     OW 5555   0.815   2.434   2.187
 1199SOL    HW1 5556   0.822   2.345   2.141
 1199SOL    HW2 5557   0.721   2.468   2.179
 1200SOL     OW 5558   1.657   2.466   3.068
 1200SOL    HW1 5559   1.619   2.397   3.130
 1200SOL    HW2 5560   1.739   2.430   3.024
 1201SOL     OW 5561   0.671   2.326   3.131
 1201SOL    HW1 5562   0.637   2.237   3.101
 1201SOL    HW2 5563   0.697   2.380   3.051
 1202SOL     OW 5564   0.930   3.540   3.327
 1202SOL    HW1 5565   0.906   3.522   3.232
 1202SOL    HW2 5566   0.960   3.634   3.337
 1203SOL     OW 5567   0.473   2.362   2.053
 1203SOL    HW1 5568   0.534   2.442   2.057
 1203SOL    HW2 5569   0.378   2.393   2.060
 1204SOL     OW 5570   1.347   2.921   3.096
 1204SOL    HW1 5571   1.371   2.858   3.022
 1204SOL    HW2 5572   1.257   2.961   3.078
 1205SOL     OW 5573   1.302   2.717   2.171
 1205SOL    HW1 5574   1.216   2.686   2.213
 1205SOL    HW2 5575   1.298   2.703   2.072
 1206SOL     OW 5576   1.759   3.609   3.016
 1206SOL    HW1 5577   1.820   3.639   2.943
 1206SOL    HW2 5578   1.721   3.520   2.994
 1207SOL     OW 5579   1.252   3.593   2.990
 1207SOL    HW1 5580   1.336   3.598   2.936
 1207SOL    HW2 5581   1.229   3.497   3.008
 1208SOL     OW 5582   0.688   3.524   3.578
 1208SOL    HW1 5583   0.632   3.605   3.587
 1208SOL    HW2 5584   0.740   3.528   3.492
 1209SOL     OW 5585   0.903   1.948   1.995
 1209SOL    HW1 5586   0.954   1.949   1.909
 1209SOL    HW2 5587   0.959   1.906   2.066
 1210SOL     OW 5588   1.726   1.997   2.385
 1210SOL    HW1 5589   1.799   1.980   2.318
 1210SOL    HW2 5590   1.695   1.910   2.423
 1211SOL     OW 5591   1.388   3.435   2.339
 1211SOL    HW1 5592   1.455   3.447   2.265
 1211SOL    HW2 5593   1.348   3.524   2.362
 1212SOL     OW 5594   0.130   3.656   3.713
 1212SOL    HW1 5595   0.089   3.582   3.766
 1212SOL    HW2 5596   0.194   3.707   3.771
 1213SOL     OW 5597   1.280   2.789   2.534
 1213SOL    HW1 5598   1.340   2.708   2.536
 1213SOL    HW2 5599   1.320   2.858   2.474
 1214SOL     OW 5600   0.830   3.135   3.284
 1214SOL    HW1 5601   0.825   3.168   3.379
 1214SOL    HW2 5602   0.744   3.154   3.238
 1215SOL     OW 5603   0.672   3.478   2.016
 1215SOL    HW1 5604   0.681   3.488   1.917
 1215SOL    HW2 5605   0.632   3.389   2.037
 1216SOL     OW 5606   1.650   3.582   3.256
 1216SOL    HW1 5607   1.703   3.592   3.172
 1216SOL    HW2 5608   1.623   3.672   3.290
 1217SOL     OW 5609   1.841   2.037   2.825
 1217SOL    HW1 5610   1.880   1.952   2.789
 1217SOL    HW2 5611   1.743   2.039   2.806
 1218SOL     OW 5612   0.263   2.188   2.582
 1218SOL    HW1 5613   0.184   2.239   2.548
 1218SOL    HW2 5614   0.254   2.173   2.680
 1219SOL     OW 5615   1.194   3.474   1.893
 1219SOL    HW1 5616   1.200   3.381   1.930
 1219SOL    HW2 5617   1.135   3.474   1.813
 1220SOL     OW 5618   0.822   2.864   3.234
 1220SOL    HW1 5619   0.862   2.863   3.142
 1220SOL    HW2 5620   0.832   2.956   3.274
 1221SOL     OW 5621   0.916   2.772   2.153
 1221SOL    HW1 5622   0.979   2.810   2.085
 1221SOL    HW2 5623   0.956   2.689   2.192
 1222SOL     OW 5624   1.504   3.469   1.906
 1222SOL    HW1 5625   1.412   3.506   1.913
 1222SOL    HW2 5626   1.542   3.489   1.816
 1223SOL     OW 5627   0.372   3.150   3.352
 1223SOL    HW1 5628   0.359   3.243   3.318
 1223SOL    HW2 5629   0.288   3.098   3.339
 1224SOL     OW 5630   1.614   3.154   3.151
 1224SOL    HW1 5631   1.674   3.157   3.231
 1224SOL    HW2 5632   1.539   3.218   3.164
 1225SOL     OW 5633   1.039   2.960   2.558
 1225SOL    HW1 5634   0.969   2.913   2.612
 1225SOL    HW2 5635   1.098   2.892   2.515
 1226SOL     OW 5636   1.014   2.098   2.833
 1226SOL    HW1 5637   1.006   2.062   2.740
 1226SOL    HW2 5638   1.012   2.022   2.898
 1227SOL     OW 5639   0.590   3.349   2.353
 1227SOL    HW1 5640   0.632   3.291   2.283
 1227SOL    HW2 5641   0.546   3.428   2.309
 1228SOL     OW 5642   1.709   2.247   3.243
 1228SOL    HW1 5643   1.782   2.316   3.247
 1228SOL    HW2 5644   1.737   2.172   3.184
 1229SOL     OW 5645   0.255   3.210   2.152
 1229SOL    HW1 5646   0.159   3.211   2.125
 1229SOL    HW2 5647   0.267   3.263   2.236
 1230SOL     OW 5648   0.672   2.065   3.351
 1230SOL    HW1 5649   0.762   2.049   3.311
 1230SOL    HW2 5650   0.680   2.070   3.450
 1231SOL     OW 5651   1.440   2.718   3.260
 1231SOL    HW1 5652   1.383   2.770   3.197
 1231SOL    HW2 5653   1.536   2.730   3.236
 1232SOL     OW 5654   1.183   3.197   1.981
 1232SOL    HW1 5655   1.084   3.186   1.983
 1232SOL    HW2 5656   1.217   3.212   2.074
 1233SOL     OW 5657   0.613   2.704   3.293
 1233SOL    HW1 5658   0.669   2.785   3.276
 1233SOL    HW2 5659   0.672   2.624   3.296
 1234SOL     OW 5660   1.493   3.629   2.821
 1234SOL    HW1 5661   1.526   3.693   2.752
 1234SOL    HW2 5662   1.559   3.623   2.896
 1235SOL     OW 5663   0.716   2.427   3.570
 1235SOL    HW1 5664   0.735   2.492   3.644
 1235SOL    HW2 5665   0.776   2.347   3.579
 1236SOL     OW 5666   1.450   3.082   3.495
 1236SOL    HW1 5667   1.441   3.072   3.594
 1236SOL    HW2 5668   1.546   3.075   3.469
 1237SOL     OW 5669   0.390   3.603   3.422
 1237SOL    HW1 5670   0.299   3.644   3.420
 1237SOL    HW2 5671   0.383   3.509   3.454
 1238SOL     OW 5672   1.674   2.745   3.116
 1238SOL    HW1 5673   1.647   2.656   3.079
 1238SOL    HW2 5674   1.675   2.813   3.043
 1239SOL     OW 5675   1.225   2.187   2.311
 1239SOL    HW1 5676   1.290   2.113   2.300
 1239SOL    HW2 5677   1.245   2.237   2.395
 1240SOL     OW 5678   0.594   2.607   2.514
 1240SOL    HW1 5679   0.644   2.692   2.495
 1240SOL    HW2 5680   0.506   2.609   2.466
 1241SOL     OW 5681   1.777   2.204   3.504
 1241SOL    HW1 5682   1.760   2.235   3.410
 1241SOL    HW2 5683   1.693   2.167   3.542
 1242SOL     OW 5684   1.730   2.796   3.379
 1242SOL    HW1 5685   1.768   2.887   3.394
 1242SOL    HW2 5686   1.722   2.779   3.280
 1243SOL     OW 5687   0.859   3.236   1.878
 1243SOL    HW1 5688   0.813   3.251   1.966
 1243SOL    HW2 5689   0.903   3.321   1.848
 1244SOL     OW 5690   0.661   3.652   2.815
 1244SOL    HW1 5691   0.615   3.740   2.802
 1244SOL    HW2 5692   0.760   3.664   2.808
 1245SOL     OW 5693   1.408   3.713   3.582
 1245SOL    HW1 5694   1.312   3.702   3.555
 1245SOL    HW2 5695   1.464   3.646   3.534
 1246SOL     OW 5696   0.859   2.818   2.723
 1246SOL    HW1 5697   0.913   2.749   2.771
 1246SOL    HW2 5698   0.827   2.887   2.789
 1247SOL     OW 5699   1.083   2.846   1.949
 1247SOL    HW1 5700   1.060   2.899   1.867
 1247SOL    HW2 5701   1.164   2.790   1.930
 1248SOL     OW 5702   1.861   3.431   2.713
 1248SOL    HW1 5703   1.790   3.419   2.643
 1248SOL    HW2 5704   1.862   3.352   2.773
 1249SOL     OW 5705   0.672   3.253   3.486
 1249SOL    HW1 5706   0.594   3.203   3.524
 1249SOL    HW2 5707   0.669   3.348   3.517
 1250SOL     OW 5708   1.824   2.054   3.089
 1250SOL    HW1 5709   1.820   1.964   3.133
 1250SOL    HW2 5710   1.827   2.043   2.990
 1251SOL     OW 5711   0.428   2.286   2.382
 1251SOL    HW1 5712   0.458   2.214   2.320
 1251SOL    HW2 5713   0.389   2.246   2.465
 1252SOL     OW 5714   1.705   3.349   2.966
 1252SOL    HW1 5715   1.612   3.324   2.939
 1252SOL    HW2 5716   1.731   3.299   3.048
 1253SOL     OW 5717   0.812   3.448   2.549
 1253SOL    HW1 5718   0.844   3.458   2.455
 1253SOL    HW2 5719   0.733   3.386   2.551
 1254SOL     OW 5720   1.424   2.076   2.974
 1254SOL    HW1 5721   1.476   2.011   3.029
 1254SOL    HW2 5722   1.375   2.139   3.035
 1255SOL     OW 5723   1.001   1.896   3.016
 1255SOL    HW1 5724   0.938   1.824   2.985
 1255SOL    HW2 5725   1.094   1.860   3.016
 1256SOL     OW 5726   0.770   3.192   2.163
 1256SOL    HW1 5727   0.724   3.105   2.180
 1256SOL    HW2 5728   0.861   3.189   2.204
 1257SOL     OW 5729   0.618   3.429   3.146
 1257SOL    HW1 5730   0.613   3.511   3.203
 1257SOL    HW2 5731   0.707   3.426   3.101
 1258SOL     OW 5732   1.352   1.914   2.030
 1258SOL    HW1 5733   1.387   1.873   1.946
 1258SOL    HW2 5734   1.262   1.876   2.050
 1259SOL     OW 5735   1.300   2.315   2.553
 1259SOL    HW1 5736   1.241   2.395   2.557
 1259SOL    HW2 5737   1.315   2.280   2.646
 1260SOL     OW 5738   1.593   2.083   2.744
 1260SOL    HW1 5739   1.509   2.082   2.798
 1260SOL    HW2 5740   1.595   2.166   2.688
 1261SOL     OW 5741   0.875   3.508   2.199
 1261SOL    HW1 5742   0.798   3.473   2.145
 1261SOL    HW2 5743   0.843   3.579   2.261
 1262SOL     OW 5744   0.019   2.230   4.371
 1262SOL    HW1 5745  -0.063   2.273   4.410
 1262SOL    HW2 5746  -0.009   2.157   4.308
 1263SOL     OW 5747   0.569   3.137   4.889
 1263SOL    HW1 5748   0.476   3.130   4.852
 1263SOL    HW2 5749   0.580   3.226   4.933
 1264SOL     OW 5750   1.555   3.373   4.427
 1264SOL    HW1 5751   1.498   3.357   4.508
 1264SOL    HW2 5752   1.496   3.383   4.347
 1265SOL     OW 5753   1.743   2.480   4.580
 1265SOL    HW1 5754   1.776   2.574   4.580
 1265SOL    HW2 5755   1.794   2.426   4.646
 1266SOL     OW 5756   1.135   2.565   4.441
 1266SOL    HW1 5757   1.192   2.643   4.416
 1266SOL    HW2 5758   1.075   2.591   4.517
 1267SOL     OW 5759   1.755   2.469   3.955
 1267SOL    HW1 5760   1.743   2.456   3.856
 1267SOL    HW2 5761   1.725   2.388   4.004
 1268SOL     OW 5762   0.768   3.006   4.747
 1268SOL    HW1 5763   0.690   3.023   4.807
 1268SOL    HW2 5764   0.802   3.093   4.711
 1269SOL     OW 5765   0.850   2.660   5.547
 1269SOL    HW1 5766   0.846   2.736   5.612
 1269SOL    HW2 5767   0.872   2.696   5.456
 1270SOL     OW 5768   0.685   2.874   4.389
 1270SOL    HW1 5769   0.754   2.858   4.459
 1270SOL    HW2 5770   0.612   2.931   4.427
 1271SOL     OW 5771   0.686   3.023   5.527
 1271SOL    HW1 5772   0.746   3.102   5.541
 1271SOL    HW2 5773   0.600   3.054   5.486
 1272SOL     OW 5774   0.335   3.297   4.785
 1272SOL    HW1 5775   0.257   3.266   4.732
 1272SOL    HW2 5776   0.393   3.355   4.728
 1273SOL     OW 5777   1.460   3.367   5.063
 1273SOL    HW1 5778   1.484   3.461   5.089
 1273SOL    HW2 5779   1.444   3.313   5.145
 1274SOL     OW 5780   0.438   2.254   5.223
 1274SOL    HW1 5781   0.520   2.198   5.232
 1274SOL    HW2 5782   0.357   2.196   5.227
 1275SOL     OW 5783   1.603   2.309   4.461
 1275SOL    HW1 5784   1.529   2.355   4.411
 1275SOL    HW2 5785   1.654   2.377   4.514
 1276SOL     OW 5786   1.127   3.203   5.414
 1276SOL    HW1 5787   1.174   3.203   5.502
 1276SOL    HW2 5788   1.079   3.116   5.403
 1277SOL     OW 5789   0.620   3.648   5.163
 1277SOL    HW1 5790   0.528   3.631   5.198
 1277SOL    HW2 5791   0.648   3.740   5.189
 1278SOL     OW 5792   0.606   2.826   3.847
 1278SOL    HW1 5793   0.613   2.910   3.793
 1278SOL    HW2 5794   0.652   2.839   3.935
 1279SOL     OW 5795   1.594   1.976   5.204
 1279SOL    HW1 5796   1.576   2.043   5.132
 1279SOL    HW2 5797   1.591   2.022   5.293
 1280SOL     OW 5798   1.842   3.629   4.083
 1280SOL    HW1 5799   1.896   3.600   4.163
 1280SOL    HW2 5800   1.872   3.719   4.054
 1281SOL     OW 5801   1.689   2.784   4.336
 1281SOL    HW1 5802   1.784   2.755   4.344
 1281SOL    HW2 5803   1.681   2.849   4.261
 1282SOL     OW 5804   1.641   2.970   4.156
 1282SOL    HW1 5805   1.727   2.972   4.104
 1282SOL    HW2 5806   1.655   3.017   4.244
 1283SOL     OW 5807   0.613   3.227   4.450
 1283SOL    HW1 5808   0.564   3.140   4.459
 1283SOL    HW2 5809   0.590   3.270   4.363
 1284SOL     OW 5810   1.293   3.090   5.147
 1284SOL    HW1 5811   1.330   3.017   5.089
 1284SOL    HW2 5812   1.345   3.095   5.232
 1285SOL     OW 5813   0.809   1.866   4.226
 1285SOL    HW1 5814   0.849   1.957   4.217
 1285SOL    HW2 5815   0.709   1.874   4.232
 1286SOL     OW 5816   1.525   2.861   3.914
 1286SOL    HW1 5817   1.462   2.785   3.927
 1286SOL    HW2 5818   1.573   2.879   4.000
 1287SOL     OW 5819   1.187   3.654   5.340
 1287SOL    HW1 5820   1.211   3.714   5.264
 1287SOL    HW2 5821   1.194   3.559   5.310
 1288SOL     OW 5822   0.317   2.113   5.525
 1288SOL    HW1 5823   0.388   2.184   5.531
 1288SOL    HW2 5824   0.229   2.152   5.553
 1289SOL     OW 5825   1.466   3.279   4.677
 1289SOL    HW1 5826   1.407   3.285   4.757
 1289SOL    HW2 5827   1.451   3.191   4.631
 1290SOL     OW 5828   1.667   3.576   4.296
 1290SOL    HW1 5829   1.626   3.553   4.208
 1290SOL    HW2 5830   1.649   3.502   4.361
 1291SOL     OW 5831   0.598   2.591   3.994
 1291SOL    HW1 5832   0.622   2.660   3.926
 1291SOL    HW2 5833   0.520   2.624   4.048
 1292SOL     OW 5834   1.281   2.207   4.668
 1292SOL    HW1 5835   1.195   2.157   4.655
 1292SOL    HW2 5836   1.343   2.153   4.724
 1293SOL     OW 5837   1.576   3.524   4.031
 1293SOL    HW1 5838   1.665   3.570   4.034
 1293SOL    HW2 5839   1.555   3.500   3.936
 1294SOL     OW 5840   0.807   2.467   5.189
 1294SOL    HW1 5841   0.760   2.464   5.278
 1294SOL    HW2 5842   0.756   2.412   5.123
 1295SOL     OW 5843   1.394   2.331   5.398
 1295SOL    HW1 5844   1.374   2.374   5.486
 1295SOL    HW2 5845   1.472   2.269   5.407
 1296SOL     OW 5846   0.973   2.752   5.296
 1296SOL    HW1 5847   1.019   2.668   5.267
 1296SOL    HW2 5848   0.917   2.786   5.221
 1297SOL     OW 5849   0.991   2.272   4.966
 1297SOL    HW1 5850   0.914   2.306   5.020
 1297SOL    HW2 5851   0.957   2.221   4.887
 1298SOL     OW 5852   1.041   2.563   4.153
 1298SOL    HW1 5853   1.067   2.559   4.249
 1298SOL    HW2 5854   0.956   2.512   4.139
 1299SOL     OW 5855   0.865   2.210   3.919
 1299SOL    HW1 5856   0.924   2.273   3.870
 1299SOL    HW2 5857   0.884   2.116   3.890
 1300SOL     OW 5858   1.719   2.447   5.555
 1300SOL    HW1 5859   1.693   2.536   5.519
 1300SOL    HW2 5860   1.717   2.379   5.482
 1301SOL     OW 5861   1.362   3.006   4.269
 1301SOL    HW1 5862   1.445   2.977   4.221
 1301SOL    HW2 5863   1.313   3.073   4.213
 1302SOL     OW 5864   0.550   2.058   4.609
 1302SOL    HW1 5865   0.545   2.053   4.709
 1302SOL    HW2 5866   0.552   2.154   4.580
 1303SOL     OW 5867   1.008   3.318   4.201
 1303SOL    HW1 5868   0.962   3.390   4.149
 1303SOL    HW2 5869   1.004   3.338   4.299
 1304SOL     OW 5870   0.351   3.663   4.577
 1304SOL    HW1 5871   0.401   3.577   4.583
 1304SOL    HW2 5872   0.416   3.740   4.574
 1305SOL     OW 5873   1.795   2.928   4.597
 1305SOL    HW1 5874   1.733   2.913   4.521
 1305SOL    HW2 5875   1.743   2.939   4.682
 1306SOL     OW 5876   1.227   3.412   5.230
 1306SOL    HW1 5877   1.233   3.335   5.294
 1306SOL    HW2 5878   1.175   3.386   5.150
 1307SOL     OW 5879   0.321   2.805   3.966
 1307SOL    HW1 5880   0.403   2.844   3.924
 1307SOL    HW2 5881   0.294   2.723   3.917
 1308SOL     OW 5882   1.458   2.597   4.452
 1308SOL    HW1 5883   1.453   2.532   4.527
 1308SOL    HW2 5884   1.538   2.656   4.465
 1309SOL     OW 5885   0.461   3.128   5.451
 1309SOL    HW1 5886   0.411   3.129   5.365
 1309SOL    HW2 5887   0.398   3.110   5.527
 1310SOL     OW 5888   1.111   3.638   3.961
 1310SOL    HW1 5889   1.051   3.576   4.011
 1310SOL    HW2 5890   1.142   3.594   3.876
 1311SOL     OW 5891   1.632   3.239   3.805
 1311SOL    HW1 5892   1.600   3.333   3.795
 1311SOL    HW2 5893   1.556   3.176   3.793
 1312SOL     OW 5894   0.464   3.605   4.047
 1312SOL    HW1 5895   0.497   3.644   4.133
 1312SOL    HW2 5896   0.540   3.598   3.982
 1313SOL     OW 5897   1.400   1.969   4.150
 1313SOL    HW1 5898   1.376   1.932   4.060
 1313SOL    HW2 5899   1.499   1.985   4.154
 1314SOL     OW 5900   0.940   3.560   4.628
 1314SOL    HW1 5901   1.020   3.503   4.649
 1314SOL    HW2 5902   0.891   3.520   4.551
 1315SOL     OW 5903   0.382   2.562   4.204
 1315SOL    HW1 5904   0.427   2.472   4.201
 1315SOL    HW2 5905   0.288   2.551   4.237
 1316SOL     OW 5906   1.547   2.084   5.453
 1316SOL    HW1 5907   1.542   2.121   5.545
 1316SOL    HW2 5908   1.475   2.015   5.441
 1317SOL     OW 5909   0.614   1.984   3.841
 1317SOL    HW1 5910   0.712   1.962   3.848
 1317SOL    HW2 5911   0.583   1.967   3.748
 1318SOL     OW 5912   0.781   2.126   5.473
 1318SOL    HW1 5913   0.848   2.065   5.516
 1318SOL    HW2 5914   0.708   2.145   5.538
 1319SOL     OW 5915   0.888   3.376   4.919
 1319SOL    HW1 5916   0.865   3.351   4.825
 1319SOL    HW2 5917   0.949   3.307   4.958
 1320SOL     OW 5918   1.351   2.452   5.157
 1320SOL    HW1 5919   1.379   2.409   5.242
 1320SOL    HW2 5920   1.376   2.548   5.158
 1321SOL     OW 5921   0.803   3.264   4.648
 1321SOL    HW1 5922   0.893   3.278   4.606
 1321SOL    HW2 5923   0.732   3.266   4.577
 1322SOL     OW 5924   0.922   2.365   4.623
 1322SOL    HW1 5925   0.897   2.356   4.527
 1322SOL    HW2 5926   0.970   2.283   4.654
 1323SOL     OW 5927   0.539   1.926   4.236
 1323SOL    HW1 5928   0.458   1.927   4.294
 1323SOL    HW2 5929   0.542   2.009   4.181
 1324SOL     OW 5930   1.434   3.050   3.765
 1324SOL    HW1 5931   1.466   2.974   3.822
 1324SOL    HW2 5932   1.342   3.077   3.795
 1325SOL     OW 5933   0.297   1.897   3.895
 1325SOL    HW1 5934   0.346   1.981   3.874
 1325SOL    HW2 5935   0.359   1.832   3.940
 1326SOL     OW 5936   0.935   2.098   4.204
 1326SOL    HW1 5937   0.887   2.139   4.126
 1326SOL    HW2 5938   1.034   2.096   4.185
 1327SOL     OW 5939   1.076   2.545   5.188
 1327SOL    HW1 5940   0.996   2.484   5.191
 1327SOL    HW2 5941   1.157   2.492   5.164
 1328SOL     OW 5942   1.227   3.432   4.517
 1328SOL    HW1 5943   1.248   3.506   4.452
 1328SOL    HW2 5944   1.295   3.432   4.590
 1329SOL     OW 5945   0.459   3.014   4.465
 1329SOL    HW1 5946   0.388   2.987   4.530
 1329SOL    HW2 5947   0.433   2.986   4.372
 1330SOL     OW 5948   1.271   3.659   4.315
 1330SOL    HW1 5949   1.315   3.723   4.251
 1330SOL    HW2 5950   1.221   3.711   4.385
 1331SOL     OW 5951   1.032   2.411   3.740
 1331SOL    HW1 5952   0.991   2.493   3.701
 1331SOL    HW2 5953   1.096   2.437   3.813
 1332SOL     OW 5954   0.561   2.084   4.871
 1332SOL    HW1 5955   0.599   2.000   4.908
 1332SOL    HW2 5956   0.473   2.103   4.915
 1333SOL     OW 5957   0.866   2.316   4.366
 1333SOL    HW1 5958   0.834   2.388   4.304
 1333SOL    HW2 5959   0.890   2.235   4.313
 1334SOL     OW 5960   1.017   1.901   4.477
 1334SOL    HW1 5961   0.945   1.906   4.408
 1334SOL    HW2 5962   0.993   1.832   4.546
 1335SOL     OW 5963   1.429   3.035   4.591
 1335SOL    HW1 5964   1.374   2.951   4.584
 1335SOL    HW2 5965   1.455   3.064   4.499
 1336SOL     OW 5966   1.466   2.452   4.716
 1336SOL    HW1 5967   1.436   2.357   4.723
 1336SOL    HW2 5968   1.539   2.468   4.782
 1337SOL     OW 5969   1.857   2.695   4.101
 1337SOL    HW1 5970   1.899   2.631   4.165
 1337SOL    HW2 5971   1.819   2.644   4.023
 1338SOL     OW 5972   0.488   3.247   3.898
 1338SOL    HW1 5973   0.401   3.232   3.945
 1338SOL    HW2 5974   0.471   3.273   3.803
 1339SOL     OW 5975   1.664   3.142   4.381
 1339SOL    HW1 5976   1.763   3.150   4.395
 1339SOL    HW2 5977   1.619   3.226   4.412
 1340SOL     OW 5978   1.390   2.437   3.802
 1340SOL    HW1 5979   1.336   2.416   3.883
 1340SOL    HW2 5980   1.481   2.396   3.811
 1341SOL     OW 5981   0.527   2.118   4.052
 1341SOL    HW1 5982   0.554   2.059   3.977
 1341SOL    HW2 5983   0.527   2.213   4.021
 1342SOL     OW 5984   1.754   3.085   5.312
 1342SOL    HW1 5985   1.845   3.046   5.299
 1342SOL    HW2 5986   1.762   3.181   5.336
 1343SOL     OW 5987   1.064   3.209   5.064
 1343SOL    HW1 5988   0.984   3.186   5.119
 1343SOL    HW2 5989   1.147   3.183   5.113
 1344SOL     OW 5990   1.592   3.491   5.349
 1344SOL    HW1 5991   1.619   3.525   5.259
 1344SOL    HW2 5992   1.671   3.453   5.395
 1345SOL     OW 5993   1.111   3.057   4.824
 1345SOL    HW1 5994   1.071   3.101   4.905
 1345SOL    HW2 5995   1.070   3.094   4.741
 1346SOL     OW 5996   1.638   2.961   4.803
 1346SOL    HW1 5997   1.643   3.042   4.862
 1346SOL    HW2 5998   1.552   2.963   4.752
 1347SOL     OW 5999   0.915   1.951   5.126
 1347SOL    HW1 6000   0.940   1.931   5.031
 1347SOL    HW2 6001   0.987   2.007   5.168
 1348SOL     OW 6002   0.980   2.978   5.443
 1348SOL    HW1 6003   0.881   2.984   5.453
 1348SOL    HW2 6004   1.003   2.898   5.387
 1349SOL     OW 6005   0.705   2.912   4.092
 1349SOL    HW1 6006   0.691   2.919   4.191
 1349SOL    HW2 6007   0.789   2.861   4.074
 1350SOL     OW 6008   0.410   2.675   4.975
 1350SOL    HW1 6009   0.496   2.687   5.025
 1350SOL    HW2 6010   0.368   2.588   5.002
 1351SOL     OW 6011   1.274   2.248   4.986
 1351SOL    HW1 6012   1.295   2.322   5.050
 1351SOL    HW2 6013   1.185   2.265   4.943
 1352SOL     OW 6014   0.367   2.962   4.225
 1352SOL    HW1 6015   0.360   3.045   4.169
 1352SOL    HW2 6016   0.371   2.882   4.165
 1353SOL     OW 6017   0.566   2.399   4.589
 1353SOL    HW1 6018   0.578   2.465   4.515
 1353SOL    HW2 6019   0.612   2.433   4.672
 1354SOL     OW 6020   1.252   3.210   4.112
 1354SOL    HW1 6021   1.302   3.287   4.152
 1354SOL    HW2 6022   1.157   3.212   4.144
 1355SOL     OW 6023   1.272   3.307   4.866
 1355SOL    HW1 6024   1.319   3.320   4.953
 1355SOL    HW2 6025   1.206   3.233   4.875
 1356SOL     OW 6026   1.582   2.501   4.196
 1356SOL    HW1 6027   1.551   2.562   4.269
 1356SOL    HW2 6028   1.632   2.553   4.127
 1357SOL     OW 6029   0.354   3.372   5.053
 1357SOL    HW1 6030   0.333   3.328   4.966
 1357SOL    HW2 6031   0.451   3.398   5.056
 1358SOL     OW 6032   0.402   2.613   5.322
 1358SOL    HW1 6033   0.470   2.668   5.275
 1358SOL    HW2 6034   0.442   2.525   5.349
 1359SOL     OW 6035   1.587   2.641   5.394
 1359SOL    HW1 6036   1.495   2.679   5.389
 1359SOL    HW2 6037   1.647   2.688   5.329
 1360SOL     OW 6038   1.013   1.967   5.494
 1360SOL    HW1 6039   1.019   2.052   5.442
 1360SOL    HW2 6040   1.045   1.891   5.437
 1361SOL     OW 6041   0.504   1.912   5.464
 1361SOL    HW1 6042   0.462   1.855   5.394
 1361SOL    HW2 6043   0.438   1.981   5.496
 1362SOL     OW 6044   0.573   2.732   4.753
 1362SOL    HW1 6045   0.617   2.821   4.744
 1362SOL    HW2 6046   0.510   2.732   4.830
 1363SOL     OW 6047   1.360   2.724   4.769
 1363SOL    HW1 6048   1.285   2.724   4.703
 1363SOL    HW2 6049   1.397   2.632   4.778
 1364SOL     OW 6050   1.209   2.387   3.999
 1364SOL    HW1 6051   1.222   2.303   4.053
 1364SOL    HW2 6052   1.180   2.461   4.059
 1365SOL     OW 6053   0.732   2.496   4.788
 1365SOL    HW1 6054   0.791   2.470   4.712
 1365SOL    HW2 6055   0.704   2.592   4.777
 1366SOL     OW 6056   1.728   2.797   5.578
 1366SOL    HW1 6057   1.682   2.790   5.489
 1366SOL    HW2 6058   1.666   2.841   5.644
 1367SOL     OW 6059   0.307   1.925   4.342
 1367SOL    HW1 6060   0.296   2.019   4.375
 1367SOL    HW2 6061   0.302   1.862   4.419
 1368SOL     OW 6062   1.622   2.229   4.098
 1368SOL    HW1 6063   1.624   2.153   4.162
 1368SOL    HW2 6064   1.574   2.306   4.138
 1369SOL     OW 6065   1.023   2.628   4.690
 1369SOL    HW1 6066   1.038   2.649   4.786
 1369SOL    HW2 6067   0.993   2.533   4.681
 1370SOL     OW 6068   0.980   3.435   5.424
 1370SOL    HW1 6069   0.960   3.479   5.336
 1370SOL    HW2 6070   1.019   3.344   5.408
 1371SOL     OW 6071   1.859   3.380   5.329
 1371SOL    HW1 6072   1.873   3.407   5.234
 1371SOL    HW2 6073   1.942   3.402   5.382
 1372SOL     OW 6074   0.350   2.760   5.528
 1372SOL    HW1 6075   0.426   2.804   5.576
 1372SOL    HW2 6076   0.385   2.713   5.446
 1373SOL     OW 6077   1.540   2.136   3.849
 1373SOL    HW1 6078   1.479   2.061   3.872
 1373SOL    HW2 6079   1.562   2.188   3.932
 1374SOL     OW 6080   1.303   2.700   3.766
 1374SOL    HW1 6081   1.337   2.607   3.781
 1374SOL    HW2 6082   1.321   2.727   3.671
 1375SOL     OW 6083   1.068   3.195   4.573
 1375SOL    HW1 6084   1.075   3.111   4.518
 1375SOL    HW2 6085   1.130   3.264   4.537
 1376SOL     OW 6086   0.319   2.672   4.673
 1376SOL    HW1 6087   0.412   2.708   4.678
 1376SOL    HW2 6088   0.313   2.587   4.725
 1377SOL     OW 6089   1.138   2.242   5.402
 1377SOL    HW1 6090   1.093   2.305   5.466
 1377SOL    HW2 6091   1.231   2.273   5.385
 1378SOL     OW 6092   1.160   2.069   5.201
 1378SOL    HW1 6093   1.160   2.133   5.278
 1378SOL    HW2 6094   1.188   2.117   5.118
 1379SOL     OW 6095   0.504   3.430   4.634
 1379SOL    HW1 6096   0.570   3.504   4.643
 1379SOL    HW2 6097   0.548   3.351   4.592
 1380SOL     OW 6098   1.002   2.658   4.962
 1380SOL    HW1 6099   1.043   2.626   5.048
 1380SOL    HW2 6100   0.906   2.631   4.959
 1381SOL     OW 6101   1.369   2.812   5.384
 1381SOL    HW1 6102   1.408   2.901   5.404
 1381SOL    HW2 6103   1.379   2.792   5.287
 1382SOL     OW 6104   0.815   2.434   4.049
 1382SOL    HW1 6105   0.822   2.345   4.003
 1382SOL    HW2 6106   0.721   2.468   4.041
 1383SOL     OW 6107   1.657   2.466   4.930
 1383SOL    HW1 6108   1.619   2.397   4.992
 1383SOL    HW2 6109   1.739   2.430   4.886
 1384SOL     OW 6110   0.671   2.326   4.993
 1384SOL    HW1 6111   0.637   2.237   4.963
 1384SOL    HW2 6112   0.697   2.380   4.913
 1385SOL     OW 6113   0.930   3.540   5.189
 1385SOL    HW1 6114   0.906   3.522   5.094
 1385SOL    HW2 6115   0.960   3.634   5.199
 1386SOL     OW 6116   0.473   2.362   3.915
 1386SOL    HW1 6117   0.534   2.442   3.919
 1386SOL    HW2 6118   0.378   2.393   3.922
 1387SOL     OW 6119   1.347   2.921   4.958
 1387SOL    HW1 6120   1.371   2.858   4.884
 1387SOL    HW2 6121   1.257   2.961   4.940
 1388SOL     OW 6122   1.302   2.717   4.033
 1388SOL    HW1 6123   1.216   2.686   4.075
 1388SOL    HW2 6124   1.298   2.703   3.934
 1389SOL     OW 6125   1.759   3.609   4.878
 1389SOL    HW1 6126   1.820   3.639   4.805
 1389SOL    HW2 6127   1.721   3.520   4.856
 1390SOL     OW 6128   1.252   3.593   4.852
 1390SOL    HW1 6129   1.336   3.598   4.798
 1390SOL    HW2 6130   1.229   3.497   4.870
 1391SOL     OW 6131   0.688   3.524   5.440
 1391SOL    HW1 6132   0.632   3.605   5.449
 1391SOL    HW2 6133   0.740   3.528   5.354
 1392SOL     OW 6134   0.903   1.948   3.857
 1392SOL    HW1 6135   0.954   1.949   3.771
 1392SOL    HW2 6136   0.959   1.906   3.928
 1393SOL     OW 6137   1.726   1.997   4.247
 1393SOL    HW1 6138   1.799   1.980   4.180
 1393SOL    HW2 6139   1.695   1.910   4.285
 1394SOL     OW 6140   1.388   3.435   4.201
 1394SOL    HW1 6141   1.455   3.447   4.127
 1394SOL    HW2 6142   1.348   3.524   4.224
 1395SOL     OW 6143   0.130   3.656   5.575
 1395SOL    HW1 6144   0.089   3.582   5.628
 1395SOL    HW2 6145   0.194   3.707   5.633
 1396SOL     OW 6146   1.280   2.789   4.396
 1396SOL    HW1 6147   1.340   2.708   4.398
 1396SOL    HW2 6148   1.320   2.858   4.336
 1397SOL     OW 6149   0.830   3.135   5.146
 1397SOL    HW1 6150   0.825   3.168   5.241
 1397SOL    HW2 6151   0.744   3.154   5.100
 1398SOL     OW 6152   0.672   3.478   3.878
 1398SOL    HW1 6153   0.681   3.488   3.779
 1398SOL    HW2 6154   0.632   3.389   3.899
 1399SOL     OW 6155   1.650   3.582   5.118
 1399SOL    HW1 6156   1.703   3.592   5.034
 1399SOL    HW2 6157   1.623   3.672   5.152
 1400SOL     OW 6158   1.841   2.037   4.687
 1400SOL    HW1 6159   1.880   1.952   4.651
 1400SOL    HW2 6160   1.743   2.039   4.668
 1401SOL     OW 6161   0.263   2.188   4.444
 1401SOL    HW1 6162   0.184   2.239   4.410
 1401SOL    HW2 6163   0.254   2.173   4.542
 1402SOL     OW 6164   1.194   3.474   3.755
 1402SOL    HW1 6165   1.200   3.381   3.792
 1402SOL    HW2 6166   1.135   3.474   3.675
 1403SOL     OW 6167   0.822   2.864   5.096
 1403SOL    HW1 6168   0.862   2.863   5.004
 1403SOL    HW2 6169   0.832   2.956   5.136
 1404SOL     OW 6170   0.916   2.772   4.015
 1404SOL    HW1 6171   0.979   2.810   3.947
 1404SOL    HW2 6172   0.956   2.689   4.054
 1405SOL     OW 6173   1.504   3.469   3.768
 1405SOL    HW1 6174   1.412   3.506   3.775
 1405SOL    HW2 6175   1.542   3.489   3.678
 1406SOL     OW 6176   0.372   3.150   5.214
 1406SOL    HW1 6177   0.359   3.243   5.180
 1406SOL    HW2 6178   0.288   3.098   5.201
 1407SOL     OW 6179   1.614   3.154   5.013
 1407SOL    HW1 6180   1.674   3.157   5.093
 1407SOL    HW2 6181   1.539   3.218   5.026
 1408SOL     OW 6182   1.039   2.960   4.420
 1408SOL    HW1 6183   0.969   2.913   4.474
 1408SOL    HW2 6184   1.098   2.892   4.377
 1409SOL     OW 6185   1.014   2.098   4.695
 1409SOL    HW1 6186   1.006   2.062   4.602
 1409SOL    HW2 6187   1.012   2.022   4.760
 1410SOL     OW 6188   0.590   3.349   4.215
 1410SOL    HW1 6189   0.632   3.291   4.145
 1410SOL    HW2 6190   0.546   3.428   4.171
 1411SOL     OW 6191   1.709   2.247   5.105
 1411SOL    HW1 6192   1.782   2.316   5.109
 1411SOL    HW2 6193   1.737   2.172   5.046
 1412SOL     OW 6194   0.255   3.210   4.014
 1412SOL    HW1 6195   0.159   3.211   3.987
 1412SOL    HW2 6196   0.267   3.263   4.098
 1413SOL     OW 6197   0.672   2.065   5.213
 1413SOL    HW1 6198   0.762   2.049   5.173
 1413SOL    HW2 6199   0.680   2.070   5.312
 1414SOL     OW 6200   1.440   2.718   5.122
 1414SOL    HW1 6201   1.383   2.770   5.059
 1414SOL    HW2 6202   1.536   2.730   5.098
 1415SOL     OW 6203   1.183   3.197   3.843
 1415SOL    HW1 6204   1.084   3.186   3.845
 1415SOL    HW2 6205   1.217   3.212   3.936
 1416SOL     OW 6206   0.613   2.704   5.155
 1416SOL    HW1 6207   0.669   2.785   5.138
 1416SOL    HW2 6208   0.672   2.624   5.158
 1417SOL     OW 6209   1.493   3.629   4.683
 1417SOL    HW1 6210   1.526   3.693   4.614
 1417SOL    HW2 6211   1.559   3.623   4.758
 1418SOL     OW 6212   0.716   2.427   5.432
 1418SOL    HW1 6213   0.735   2.492   5.506
 1418SOL    HW2 6214   0.776   2.347   5.441
 1419SOL     OW 6215   1.450   3.082   5.357
 1419SOL    HW1 6216   1.441   3.072   5.456
 1419SOL    HW2 6217   1.546   3.075   5.331
 1420SOL     OW 6218   0.390   3.603   5.284
 1420SOL    HW1 6219   0.299   3.644   5.282
 1420SOL    HW2 6220   0.383   3.509   5.316
 1421SOL     OW 6221   1.674   2.745   4.978
 1421SOL    HW1 6222   1.647   2.656   4.941
 1421SOL    HW2 6223   1.675   2.813   4.905
 1422SOL     OW 6224   1.225   2.187   4.173
 1422SOL    HW1 6225   1.290   2.113   4.162
 1422SOL    HW2 6226   1.245   2.237   4.257
 1423SOL     OW 6227   0.594   2.607   4.376
 1423SOL    HW1 6228   0.644   2.692   4.357
 1423SOL    HW2 6229   0.506   2.609   4.328
 1424SOL     OW 6230   1.777   2.204   5.366
 1424SOL    HW1 6231   1.760   2.235   5.272
 1424SOL    HW2 6232   1.693   2.167   5.404
 1425SOL     OW 6233   1.730   2.796   5.241
 1425SOL    HW1 6234   1.768   2.887   5.256
 1425SOL    HW2 6235   1.722   2.779   5.142
 1426SOL     OW 6236   0.859   3.236   3.740
 1426SOL    HW1 6237   0.813   3.251   3.828
 1426SOL    HW2 6238   0.903   3.321   3.710
 1427SOL     OW 6239   0.661   3.652   4.677
 1427SOL    HW1 6240   0.615   3.740   4.664
 1427SOL    HW2 6241   0.760   3.664   4.670
 1428SOL     OW 6242   1.408   3.713   5.444
 1428SOL    HW1 6243   1.312   3.702   5.417
 1428SOL    HW2 6244   1.464   3.646   5.396
 1429SOL     OW 6245   0.859   2.818   4.585
 1429SOL    HW1 6246   0.913   2.749   4.633
 1429SOL    HW2 6247   0.827   2.887   4.651
 1430SOL     OW 6248   1.083   2.846   3.811
 1430SOL    HW1 6249   1.060   2.899   3.729
 1430SOL    HW2 6250   1.164   2.790   3.792
 1431SOL     OW 6251   1.861   3.431   4.575
 1431SOL    HW1 6252   1.790   3.419   4.505
 1431SOL    HW2 6253   1.862   3.352   4.635
 1432SOL     OW 6254   0.672   3.253   5.348
 1432SOL    HW1 6255   0.594   3.203   5.386
 1432SOL    HW2 6256   0.669   3.348   5.379
 1433SOL     OW 6257   1.824   2.054   4.951
 1433SOL    HW1 6258   1.820   1.964   4.995
 1433SOL    HW2 6259   1.827   2.043   4.852
 1434SOL     OW 6260   0.428   2.286   4.244
 1434SOL    HW1 6261   0.458   2.214   4.182
 1434SOL    HW2 6262   0.389   2.246   4.327
 1435SOL     OW 6263   1.705   3.349   4.828
 1435SOL    HW1 6264   1.612   3.324   4.801
 1435SOL    HW2 6265   1.731   3.299   4.910
 1436SOL     OW 6266   0.812   3.448   4.411
 1436SOL    HW1 6267   0.844   3.458   4.317
 1436SOL    HW2 6268   0.733   3.386   4.413
 1437SOL     OW 6269   1.424   2.076   4.836
 1437SOL    HW1 6270   1.476   2.011   4.891
 1437SOL    HW2 6271   1.375   2.139   4.897
 1438SOL     OW 6272   1.001   1.896   4.878
 1438SOL    HW1 6273   0.938   1.824   4.847
 1438SOL    HW2 6274   1.094   1.860   4.878
 1439SOL     OW 6275   0.770   3.192   4.025
 1439SOL    HW1 6276   0.724   3.105   4.042
 1439SOL    HW2 6277   0.861   3.189   4.066
 1440SOL     OW 6278   0.618   3.429   5.008
 1440SOL    HW1 6279   0.613   3.511   5.065
 1440SOL    HW2 6280   0.707   3.426   4.963
 1441SOL     OW 6281   1.352   1.914   3.892
 1441SOL    HW1 6282   1.387   1.873   3.808
 1441SOL    HW2 6283   1.262   1.876   3.912
 1442SOL     OW 6284   1.300   2.315   4.415
 1442SOL    HW1 6285   1.241   2.395   4.419
 1442SOL    HW2 6286   1.315   2.280   4.508
 1443SOL     OW 6287   1.593   2.083   4.606
 1443SOL    HW1 6288   1.509   2.082   4.660
 1443SOL    HW2 6289   1.595   2.166   4.550
 1444SOL     OW 6290   0.875   3.508   4.061
 1444SOL    HW1 6291   0.798   3.473   4.007
 1444SOL    HW2 6292   0.843   3.579   4.123
 1445SOL     OW 6293   0.019   2.230   6.233
 1445SOL    HW1 6294  -0.063   2.273   6.272
 1445SOL    HW2 6295  -0.009   2.157   6.170
 1446SOL     OW 6296   0.569   3.137   6.751
 1446SOL    HW1 6297   0.476   3.130   6.714
 1446SOL    HW2 6298   0.580   3.226   6.795
 1447SOL     OW 6299   1.555   3.373   6.289
 1447SOL    HW1 6300   1.498   3.357   6.370
 1447SOL    HW2 6301   1.496   3.383   6.209
 1448SOL     OW 6302   1.743   2.480   6.442
 1448SOL    HW1 6303   1.776   2.574   6.442
 1448SOL    HW2 6304   1.794   2.426   6.508
 1449SOL     OW 6305   1.135   2.565   6.303
 1449SOL    HW1 6306   1.192   2.643   6.278
 1449SOL    HW2 6307   1.075   2.591   6.379
 1450SOL     OW 6308   1.755   2.469   5.817
 1450SOL    HW1 6309   1.743   2.456   5.718
 1450SOL    HW2 6310   1.725   2.388   5.866
 1451SOL     OW 6311   0.768   3.006   6.609
 1451SOL    HW1 6312   0.690   3.023   6.669
 1451SOL    HW2 6313   0.802   3.093   6.573
 1452SOL     OW 6314   0.850   2.660   7.409
 1452SOL    HW1 6315   0.846   2.736   7.474
 1452SOL    HW2 6316   0.872   2.696   7.318
 1453SOL     OW 6317   0.685   2.874   6.251
 1453SOL    HW1 6318   0.754   2.858   6.321
 1453SOL    HW2 6319   0.612   2.931   6.289
 1454SOL     OW 6320   0.686   3.023   7.389
 1454SOL    HW1 6321   0.746   3.102   7.403
 1454SOL    HW2 6322   0.600   3.054   7.348
 1455SOL     OW 6323   0.335   3.297   6.647
 1455SOL    HW1 6324   0.257   3.266   6.594
 1455SOL    HW2 6325   0.393   3.355   6.590
 1456SOL     OW 6326   1.460   3.367   6.925
 1456SOL    HW1 6327   1.484   3.461   6.951
 1456SOL    HW2 6328   1.444   3.313   7.007
 1457SOL     OW 6329   0.438   2.254   7.085
 1457SOL    HW1 6330   0.520   2.198   7.094
 1457SOL    HW2 6331   0.357   2.196   7.089
 1458SOL     OW 6332   1.603   2.309   6.323
 1458SOL    HW1 6333   1.529   2.355   6.273
 1458SOL    HW2 6334   1.654   2.377   6.376
 1459SOL     OW 6335   1.127   3.203   7.276
 1459SOL    HW1 6336   1.174   3.203   7.364
 1459SOL    HW2 6337   1.079   3.116   7.265
 1460SOL     OW 6338   0.620   3.648   7.025
 1460SOL    HW1 6339   0.528   3.631   7.060
 1460SOL    HW2 6340   0.648   3.740   7.051
 1461SOL     OW 6341   0.606   2.826   5.709
 1461SOL    HW1 6342   0.613   2.910   5.655
 1461SOL    HW2 6343   0.652   2.839   5.797
 1462SOL     OW 6344   1.594   1.976   7.066
 1462SOL    HW1 6345   1.576   2.043   6.994
 1462SOL    HW2 6346   1.591   2.022   7.155
 1463SOL     OW 6347   1.842   3.629   5.945
 1463SOL    HW1 6348   1.896   3.600   6.025
 1463SOL    HW2 6349   1.872   3.719   5.916
 1464SOL     OW 6350   1.689   2.784   6.198
 1464SOL    HW1 6351   1.784   2.755   6.206
 1464SOL    HW2 6352   1.681   2.849   6.123
 1465SOL     OW 6353   1.641   2.970   6.018
 1465SOL    HW1 6354   1.727   2.972   5.966
 1465SOL    HW2 6355   1.655   3.017   6.106
 1466SOL     OW 6356   0.613   3.227   6.312
 1466SOL    HW1 6357   0.564   3.140   6.321
 1466SOL    HW2 6358   0.590   3.270   6.225
 1467SOL     OW 6359   1.293   3.090   7.009
 1467SOL    HW1 6360   1.330   3.017   6.951
 1467SOL    HW2 6361   1.345   3.095   7.094
 1468SOL     OW 6362   0.809   1.866   6.088
 1468SOL    HW1 6363   0.849   1.957   6.079
 1468SOL    HW2 6364   0.709   1.874   6.094
 1469SOL     OW 6365   1.525   2.861   5.776
 1469SOL    HW1 6366   1.462   2.785   5.789
 1469SOL    HW2 6367   1.573   2.879   5.862
 1470SOL     OW 6368   1.187   3.654   7.202
 1470SOL    HW1 6369   1.211   3.714   7.126
 1470SOL    HW2 6370   1.194   3.559   7.172
 1471SOL     OW 6371   0.317   2.113   7.387
 1471SOL    HW1 6372   0.388   2.184   7.393
 1471SOL    HW2 6373   0.229   2.152   7.415
 1472SOL     OW 6374   1.466   3.279   6.539
 1472SOL    HW1 6375   1.407   3.285   6.619
 1472SOL    HW2 6376   1.451   3.191   6.493
 1473SOL     OW 6377   1.667   3.576   6.158
 1473SOL    HW1 6378   1.626   3.553   6.070
 1473SOL    HW2 6379   1.649   3.502   6.223
 1474SOL     OW 6380   0.598   2.591   5.856
 1474SOL    HW1 6381   0.622   2.660   5.788
 1474SOL    HW2 6382   0.520   2.624   5.910
 1475SOL     OW 6383   1.281   2.207   6.530
 1475SOL    HW1 6384   1.195   2.157   6.517
 1475SOL    HW2 6385   1.343   2.153   6.586
 1476SOL     OW 6386   1.576   3.524   5.893
 1476SOL    HW1 6387   1.665   3.570   5.896
 1476SOL    HW2 6388   1.555   3.500   5.798
 1477SOL     OW 6389   0.807   2.467   7.051
 1477SOL    HW1 6390   0.760   2.464   7.140
 1477SOL    HW2 6391   0.756   2.412   6.985
 1478SOL     OW 6392   1.394   2.331   7.260
 1478SOL    HW1 6393   1.374   2.374   7.348
 1478SOL    HW2 6394   1.472   2.269   7.269
 1479SOL     OW 6395   0.973   2.752   7.158
 1479SOL    HW1 6396   1.019   2.668   7.129
 1479SOL    HW2 6397   0.917   2.786   7.083
 1480SOL     OW 6398   0.991   2.272   6.828
 1480SOL    HW1 6399   0.914   2.306   6.882
 1480SOL    HW2 6400   0.957   2.221   6.749
 1481SOL     OW 6401   1.041   2.563   6.015
 1481SOL    HW1 6402   1.067   2.559   6.111
 1481SOL    HW2 6403   0.956   2.512   6.001
 1482SOL     OW 6404   0.865   2.210   5.781
 1482SOL    HW1 6405   0.924   2.273   5.732
 1482SOL    HW2 6406   0.884   2.116   5.752
 1483SOL     OW 6407   1.719   2.447   7.417
 1483SOL    HW1 6408   1.693   2.536   7.381
 1483SOL    HW2 6409   1.717   2.379   7.344
 1484SOL     OW 6410   1.362   3.006   6.131
 1484SOL    HW1 6411   1.445   2.977   6.083
 1484SOL    HW2 6412   1.313   3.073   6.075
 1485SOL     OW 6413   0.550   2.058   6.471
 1485SOL    HW1 6414   0.545   2.053   6.571
 1485SOL    HW2 6415   0.552   2.154   6.442
 1486SOL     OW 6416   1.008   3.318   6.063
 1486SOL    HW1 6417   0.962   3.390   6.011
 1486SOL    HW2 6418   1.004   3.338   6.161
 1487SOL     OW 6419   0.351   3.663   6.439
 1487SOL    HW1 6420   0.401   3.577   6.445
 1487SOL    HW2 6421   0.416   3.740   6.436
 1488SOL     OW 6422   1.795   2.928   6.459
 1488SOL    HW1 6423   1.733   2.913   6.383
 1488SOL    HW2 6424   1.743   2.939   6.544
 1489SOL     OW 6425   1.227   3.412   7.092
 1489SOL    HW1 6426   1.233   3.335   7.156
 1489SOL    HW2 6427   1.175   3.386   7.012
 1490SOL     OW 6428   0.321   2.805   5.828
 1490SOL    HW1 6429   0.403   2.844   5.786
 1490SOL    HW2 6430   0.294   2.723   5.779
 1491SOL     OW 6431   1.458   2.597   6.314
 1491SOL    HW1 6432   1.453   2.532   6.389
 1491SOL    HW2 6433   1.538   2.656   6.327
 1492SOL     OW 6434   0.461   3.128   7.313
 1492SOL    HW1 6435   0.411   3.129   7.227
 1492SOL    HW2 6436   0.398   3.110   7.389
 1493SOL     OW 6437   1.111   3.638   5.823
 1493SOL    HW1 6438   1.051   3.576   5.873
 1493SOL    HW2 6439   1.142   3.594   5.738
 1494SOL     OW 6440   1.632   3.239   5.667
 1494SOL    HW1 6441   1.600   3.333   5.657
 1494SOL    HW2 6442   1.556   3.176   5.655
 1495SOL     OW 6443   0.464   3.605   5.909
 1495SOL    HW1 6444   0.497   3.644   5.995
 1495SOL    HW2 6445   0.540   3.598   5.844
 1496SOL     OW 6446   1.400   1.969   6.012
 1496SOL    HW1 6447   1.376   1.932   5.922
 1496SOL    HW2 6448   1.499   1.985   6.016
 1497SOL     OW 6449   0.940   3.560   6.490
 1497SOL    HW1 6450   1.020   3.503   6.511
 1497SOL    HW2 6451   0.891   3.520   6.413
 1498SOL     OW 6452   0.382   2.562   6.066
 1498SOL    HW1 6453   0.427   2.472   6.063
 1498SOL    HW2 6454   0.288   2.551   6.099
 1499SOL     OW 6455   1.547   2.084   7.315
 1499SOL    HW1 6456   1.542   2.121   7.407
 1499SOL    HW2 6457   1.475   2.015   7.303
 1500SOL     OW 6458   0.614   1.984   5.703
 1500SOL    HW1 6459   0.712   1.962   5.710
 1500SOL    HW2 6460   0.583   1.967   5.610
 1501SOL     OW 6461   0.781   2.126   7.335
 1501SOL    HW1 6462   0.848   2.065   7.378
 1501SOL    HW2 6463   0.708   2.145   7.400
 1502SOL     OW 6464   0.888   3.376   6.781
 1502SOL    HW1 6465   0.865   3.351   6.687
 1502SOL    HW2 6466   0.949   3.307   6.820
 1503SOL     OW 6467   1.351   2.452   7.019
 1503SOL    HW1 6468   1.379   2.409   7.104
 1503SOL    HW2 6469   1.376   2.548   7.020
 1504SOL     OW 6470   0.803   3.264   6.510
 1504SOL    HW1 6471   0.893   3.278   6.468
 1504SOL    HW2 6472   0.732   3.266   6.439
 1505SOL     OW 6473   0.922   2.365   6.485
 1505SOL    HW1 6474   0.897   2.356   6.389
 1505SOL    HW2 6475   0.970   2.283   6.516
 1506SOL     OW 6476   0.539   1.926   6.098
 1506SOL    HW1 6477   0.458   1.927   6.156
 1506SOL    HW2 6478   0.542   2.009   6.043
 1507SOL     OW 6479   1.434   3.050   5.627
 1507SOL    HW1 6480   1.466   2.974   5.684
 1507SOL    HW2 6481   1.342   3.077   5.657
 1508SOL     OW 6482   0.297   1.897   5.757
 1508SOL    HW1 6483   0.346   1.981   5.736
 1508SOL    HW2 6484   0.359   1.832   5.802
 1509SOL     OW 6485   0.935   2.098   6.066
 1509SOL    HW1 6486   0.887   2.139   5.988
 1509SOL    HW2 6487   1.034   2.096   6.047
 1510SOL     OW 6488   1.076   2.545   7.050
 1510SOL    HW1 6489   0.996   2.484   7.053
 1510SOL    HW2 6490   1.157   2.492   7.026
 1511SOL     OW 6491   1.227   3.432   6.379
 1511SOL    HW1 6492   1.248   3.506   6.314
 1511SOL    HW2 6493   1.295   3.432   6.452
 1512SOL     OW 6494   0.459   3.014   6.327
 1512SOL    HW1 6495   0.388   2.987   6.392
 1512SOL    HW2 6496   0.433   2.986   6.234
 1513SOL     OW 6497   1.271   3.659   6.177
 1513SOL    HW1 6498   1.315   3.723   6.113
 1513SOL    HW2 6499   1.221   3.711   6.247
 1514SOL     OW 6500   1.032   2.411   5.602
 1514SOL    HW1 6501   0.991   2.493   5.563
 1514SOL    HW2 6502   1.096   2.437   5.675
 1515SOL     OW 6503   0.561   2.084   6.733
 1515SOL    HW1 6504   0.599   2.000   6.770
 1515SOL    HW2 6505   0.473   2.103   6.777
 1516SOL     OW 6506   0.866   2.316   6.228
 1516SOL    HW1 6507   0.834   2.388   6.166
 1516SOL    HW2 6508   0.890   2.235   6.175
 1517SOL     OW 6509   1.017   1.901   6.339
 1517SOL    HW1 6510   0.945   1.906   6.270
 1517SOL    HW2 6511   0.993   1.832   6.408
 1518SOL     OW 6512   1.429   3.035   6.453
 1518SOL    HW1 6513   1.374   2.951   6.446
 1518SOL    HW2 6514   1.455   3.064   6.361
 1519SOL     OW 6515   1.466   2.452   6.578
 1519SOL    HW1 6516   1.436   2.357   6.585
 1519SOL    HW2 6517   1.539   2.468   6.644
 1520SOL     OW 6518   1.857   2.695   5.963
 1520SOL    HW1 6519   1.899   2.631   6.027
 1520SOL    HW2 6520   1.819   2.644   5.885
 1521SOL     OW 6521   0.488   3.247   5.760
 1521SOL    HW1 6522   0.401   3.232   5.807
 1521SOL    HW2 6523   0.471   3.273   5.665
 1522SOL     OW 6524   1.664   3.142   6.243
 1522SOL    HW1 6525   1.763   3.150   6.257
 1522SOL    HW2 6526   1.619   3.226   6.274
 1523SOL     OW 6527   1.390   2.437   5.664
 1523SOL    HW1 6528   1.336   2.416   5.745
 1523SOL    HW2 6529   1.481   2.396   5.673
 1524SOL     OW 6530   0.527   2.118   5.914
 1524SOL    HW1 6531   0.554   2.059   5.839
 1524SOL    HW2 6532   0.527   2.213   5.883
 1525SOL     OW 6533   1.754   3.085   7.174
 1525SOL    HW1 6534   1.845   3.046   7.161
 1525SOL    HW2 6535   1.762   3.181   7.198
 1526SOL     OW 6536   1.064   3.209   6.926
 1526SOL    HW1 6537   0.984   3.186   6.981
 1526SOL    HW2 6538   1.147   3.183   6.975
 1527SOL     OW 6539   1.592   3.491   7.211
 1527SOL    HW1 6540   1.619   3.525   7.121
 1527SOL    HW2 6541   1.671   3.453   7.257
 1528SOL     OW 6542   1.111   3.057   6.686
 1528SOL    HW1 6543   1.071   3.101   6.767
 1528SOL    HW2 6544   1.070   3.094   6.603
 1529SOL     OW 6545   1.638   2.961   6.665
 1529SOL    HW1 6546   1.643   3.042   6.724
 1529SOL    HW2 6547   1.552   2.963   6.614
 1530SOL     OW 6548   0.915   1.951   6.988
 1530SOL    HW1 6549   0.940   1.931   6.893
 1530SOL    HW2 6550   0.987   2.007   7.030
 1531SOL     OW 6551   0.980   2.978   7.305
 1531SOL    HW1 6552   0.881   2.984   7.315
 1531SOL    HW2 6553   1.003   2.898   7.249
 1532SOL     OW 6554   0.705   2.912   5.954
 1532SOL    HW1 6555   0.691   2.919   6.053
 1532SOL    HW2 6556   0.789   2.861   5.936
 1533SOL     OW 6557   0.410   2.675   6.837
 1533SOL    HW1 6558   0.496   2.687   6.887
 1533SOL    HW2 6559   0.368   2.588   6.864
 1534SOL     OW 6560   1.274   2.248   6.848
 1534SOL    HW1 6561   1.295   2.322   6.912
 1534SOL    HW2 6562   1.185   2.265   6.805
 1535SOL     OW 6563   0.367   2.962   6.087
 1535SOL    HW1 6564   0.360   3.045   6.031
 1535SOL    HW2 6565   0.371   2.882   6.027
 1536SOL     OW 6566   0.566   2.399   6.451
 1536SOL    HW1 6567   0.578   2.465   6.377
 1536SOL    HW2 6568   0.612   2.433   6.534
 1537SOL     OW 6569   1.252   3.210   5.974
 1537SOL    HW1 6570   1.302   3.287   6.014
 1537SOL    HW2 6571   1.157   3.212   6.006
 1538SOL     OW 6572   1.272   3.307   6.728
 1538SOL    HW1 6573   1.319   3.320   6.815
 1538SOL    HW2 6574   1.206   3.233   6.737
 1539SOL     OW 6575   1.582   2.501   6.058
 1539SOL    HW1 6576   1.551   2.562   6.131
 1539SOL    HW2 6577   1.632   2.553   5.989
 1540SOL     OW 6578   0.354   3.372   6.915
 1540SOL    HW1 6579   0.333   3.328   6.828
 1540SOL    HW2 6580   0.451   3.398   6.918
 1541SOL     OW 6581   0.402   2.613   7.184
 1541SOL    HW1 6582   0.470   2.668   7.137
 1541SOL    HW2 6583   0.442   2.525   7.211
 1542SOL     OW 6584   1.587   2.641   7.256
 1542SOL    HW1 6585   1.495   2.679   7.251
 1542SOL    HW2 6586   1.647   2.688   7.191
 1543SOL     OW 6587   1.013   1.967   7.356
 1543SOL    HW1 6588   1.019   2.052   7.304
 1543SOL    HW2 6589   1.045   1.891   7.299
 1544SOL     OW 6590   0.504   1.912   7.326
 1544SOL    HW1 6591   0.462   1.855   7.256
 1544SOL    HW2 6592   0.438   1.981   7.358
 1545SOL     OW 6593   0.573   2.732   6.615
 1545SOL    HW1 6594   0.617   2.821   6.606
 1545SOL    HW2 6595   0.510   2.732   6.692
 1546SOL     OW 6596   1.360   2.724   6.631
 1546SOL    HW1 6597   1.285   2.724   6.565
 1546SOL    HW2 6598   1.397   2.632   6.640
 1547SOL     OW 6599   1.209   2.387   5.861
 1547SOL    HW1 6600   1.222   2.303   5.915
 1547SOL    HW2 6601   1.180   2.461   5.921
 1548SOL     OW 6602   0.732   2.496   6.650
 1548SOL    HW1 6603   0.791   2.470   6.574
 1548SOL    HW2 6604   0.704   2.592   6.639
 1549SOL     OW 6605   1.728   2.797   7.440
 1549SOL    HW1 6606   1.682   2.790   7.351
 1549SOL    HW2 6607   1.666   2.841   7.506
 1550SOL     OW 6608   0.307   1.925   6.204
 1550SOL    HW1 6609   0.296   2.019   6.237
 1550SOL    HW2 6610   0.302   1.862   6.281
 1551SOL     OW 6611   1.622   2.229   5.960
 1551SOL    HW1 6612   1.624   2.153   6.024
 1551SOL    HW2 6613   1.574   2.306   6.000
 1552SOL     OW 6614   1.023   2.628   6.552
 1552SOL    HW1 6615   1.038   2.649   6.648
 1552SOL    HW2 6616   0.993   2.533   6.543
 1553SOL     OW 6617   0.980   3.435   7.286
 1553SOL    HW1 6618   0.960   3.479   7.198
 1553SOL    HW2 6619   1.019   3.344   7.270
 1554SOL     OW 6620   1.859   3.380   7.191
 1554SOL    HW1 6621   1.873   3.407   7.096
 1554SOL    HW2 6622   1.942   3.402   7.244
 1555SOL     OW 6623   0.350   2.760   7.390
 1555SOL    HW1 6624   0.426   2.804   7.438
 1555SOL    HW2 6625   0.385   2.713   7.308
 1556SOL     OW 6626   1.540   2.136   5.711
 1556SOL    HW1 6627   1.479   2.061   5.734
 1556SOL    HW2 6628   1.562   2.188   5.794
 1557SOL     OW 6629   1.303   2.700   5.628
 1557SOL    HW1 6630   1.337   2.607   5.643
 1557SOL    HW2 6631   1.321   2.727   5.533
 1558SOL     OW 6632   1.068   3.195   6.435
 1558SOL    HW1 6633   1.075   3.111   6.380
 1558SOL    HW2 6634   1.130   3.264   6.399
 1559SOL     OW 6635   0.319   2.672   6.535
 1559SOL    HW1 6636   0.412   2.708   6.540
 1559SOL    HW2 6637   0.313   2.587   6.587
 1560SOL     OW 6638   1.138   2.242   7.264
 1560SOL    HW1 6639   1.093   2.305   7.328
 1560SOL    HW2 6640   1.231   2.273   7.247
 1561SOL     OW 6641   1.160   2.069   7.063
 1561SOL    HW1 6642   1.160   2.133   7.140
 1561SOL    HW2 6643   1.188   2.117   6.980
 1562SOL     OW 6644   0.504   3.430   6.496
 1562SOL    HW1 6645   0.570   3.504   6.505
 1562SOL    HW2 6646   0.548   3.351   6.454
 1563SOL     OW 6647   1.002   2.658   6.824
 1563SOL    HW1 6648   1.043   2.626   6.910
 1563SOL    HW2 6649   0.906   2.631   6.821
 1564SOL     OW 6650   1.369   2.812   7.246
 1564SOL    HW1 6651   1.408   2.901   7.266
 1564SOL    HW2 6652   1.379   2.792   7.149
 1565SOL     OW 6653   0.815   2.434   5.911
 1565SOL    HW1 6654   0.822   2.345   5.865
 1565SOL    HW2 6655   0.721   2.468   5.903
 1566SOL     OW 6656   1.657   2.466   6.792
 1566SOL    HW1 6657   1.619   2.397   6.854
 1566SOL    HW2 6658   1.739   2.430   6.748
 1567SOL     OW 6659   0.671   2.326   6.855
 1567SOL    HW1 6660   0.637   2.237   6.825
 1567SOL    HW2 6661   0.697   2.380   6.775
 1568SOL     OW 6662   0.930   3.540   7.051
 1568SOL    HW1 6663   0.906   3.522   6.956
 1568SOL    HW2 6664   0.960   3.634   7.061
 1569SOL     OW 6665   0.473   2.362   5.777
 1569SOL    HW1 6666   0.534   2.442   5.781
 1569SOL    HW2 6667   0.378   2.393   5.784
 1570SOL     OW 6668   1.347   2.921   6.820
 1570SOL    HW1 6669   1.371   2.858   6.746
 1570SOL    HW2 6670   1.257   2.961   6.802
 1571SOL     OW 6671   1.302   2.717   5.895
 1571SOL    HW1 6672   1.216   2.686   5.937
 1571SOL    HW2 6673   1.298   2.703   5.796
 1572SOL     OW 6674   1.759   3.609   6.740
 1572SOL    HW1 6675   1.820   3.639   6.667
 1572SOL    HW2 6676   1.721   3.520   6.718
 1573SOL     OW 6677   1.252   3.593   6.714
 1573SOL    HW1 6678   1.336   3.598   6.660
 1573SOL    HW2 6679   1.229   3.497   6.732
 1574SOL     OW 6680   0.688   3.524   7.302
 1574SOL    HW1 6681   0.632   3.605   7.311
 1574SOL    HW2 6682   0.740   3.528   7.216
 1575SOL     OW 6683   0.903   1.948   5.719
 1575SOL    HW1 6684   0.954   1.949   5.633
 1575SOL    HW2 6685   0.959   1.906   5.790
 1576SOL     OW 6686   1.726   1.997   6.109
 1576SOL    HW1 6687   1.799   1.980   6.042
 1576SOL    HW2 6688   1.695   1.910   6.147
 1577SOL     OW 6689   1.388   3.435   6.063
 1577SOL    HW1 6690   1.455   3.447   5.989
 1577SOL    HW2 6691   1.348   3.524   6.086
 1578SOL     OW 6692   0.130   3.656   7.437
 1578SOL    HW1 6693   0.089   3.582   7.490
 1578SOL    HW2 6694   0.194   3.707   7.495
 1579SOL     OW 6695   1.280   2.789   6.258
 1579SOL    HW1 6696   1.340   2.708   6.260
 1579SOL    HW2 6697   1.320   2.858   6.198
 1580SOL     OW 6698   0.830   3.135   7.008
 1580SOL    HW1 6699   0.825   3.168   7.103
 1580SOL    HW2 6700   0.744   3.154   6.962
 1581SOL     OW 6701   0.672   3.478   5.740
 1581SOL    HW1 6702   0.681   3.488   5.641
 1581SOL    HW2 6703   0.632   3.389   5.761
 1582SOL     OW 6704   1.650   3.582   6.980
 1582SOL    HW1 6705   1.703   3.592   6.896
 1582SOL    HW2 6706   1.623   3.672   7.014
 1583SOL     OW 6707   1.841   2.037   6.549
 1583SOL    HW1 6708   1.880   1.952   6.513
 1583SOL    HW2 6709   1.743   2.039   6.530
 1584SOL     OW 6710   0.263   2.188   6.306
 1584SOL    HW1 6711   0.184   2.239   6.272
 1584SOL    HW2 6712   0.254   2.173   6.404
 1585SOL     OW 6713   1.194   3.474   5.617
 1585SOL    HW1 6714   1.200   3.381   5.654
 1585SOL    HW2 6715   1.135   3.474   5.537
 1586SOL     OW 6716   0.822   2.864   6.958
 1586SOL    HW1 6717   0.862   2.863   6.866
 1586SOL    HW2 6718   0.832   2.956   6.998
 1587SOL     OW 6719   0.916   2.772   5.877
 1587SOL    HW1 6720   0.979   2.810   5.809
 1587SOL    HW2 6721   0.956   2.689   5.916
 1588SOL     OW 6722   1.504   3.469   5.630
 1588SOL    HW1 6723   1.412   3.506   5.637
 1588SOL    HW2 6724   1.542   3.489   5.540
 1589SOL     OW 6725   0.372   3.150   7.076
 1589SOL    HW1 6726   0.359   3.243   7.042
 1589SOL    HW2 6727   0.288   3.098   7.063
 1590SOL     OW 6728   1.614   3.154   6.875
 1590SOL    HW1 6729   1.674   3.157   6.955
 1590SOL    HW2 6730   1.539   3.218   6.888
 1591SOL     OW 6731   1.039   2.960   6.282
 1591SOL    HW1 6732   0.969   2.913   6.336
 1591SOL    HW2 6733   1.098   2.892   6.239
 1592SOL     OW 6734   1.014   2.098   6.557
 1592SOL    HW1 6735   1.006   2.062   6.464
 1592SOL    HW2 6736   1.012   2.022   6.622
 1593SOL     OW 6737   0.590   3.349   6.077
 1593SOL    HW1 6738   0.632   3.291   6.007
 1593SOL    HW2 6739   0.546   3.428   6.033
 1594SOL     OW 6740   1.709   2.247   6.967
 1594SOL    HW1 6741   1.782   2.316   6.971
 1594SOL    HW2 6742   1.737   2.172   6.908
 1595SOL     OW 6743   0.255   3.210   5.876
 1595SOL    HW1 6744   0.159   3.211   5.849
 1595SOL    HW2 6745   0.267   3.263   5.960
 1596SOL     OW 6746   0.672   2.065   7.075
 1596SOL    HW1 6747   0.762   2.049   7.035
 1596SOL    HW2 6748   0.680   2.070   7.174
 1597SOL     OW 6749   1.440   2.718   6.984
 1597SOL    HW1 6750   1.383   2.770   6.921
 1597SOL    HW2 6751   1.536   2.730   6.960
 1598SOL     OW 6752   1.183   3.197   5.705
 1598SOL    HW1 6753   1.084   3.186   5.707
 1598SOL    HW2 6754   1.217   3.212   5.798
 1599SOL     OW 6755   0.613   2.704   7.017
 1599SOL    HW1 6756   0.669   2.785   7.000
 1599SOL    HW2 6757   0.672   2.624   7.020
 1600SOL     OW 6758   1.493   3.629   6.545
 1600SOL    HW1 6759   1.526   3.693   6.476
 1600SOL    HW2 6760   1.559   3.623   6.620
 1601SOL     OW 6761   0.716   2.427   7.294
 1601SOL    HW1 6762   0.735   2.492   7.368
 1601SOL    HW2 6763   0.776   2.347   7.303
 1602SOL     OW 6764   1.450   3.082   7.219
 1602SOL    HW1 6765   1.441   3.072   7.318
 1602SOL    HW2 6766   1.546   3.075   7.193
 1603SOL     OW 6767   0.390   3.603   7.146
 1603SOL    HW1 6768   0.299   3.644   7.144
 1603SOL    HW2 6769   0.383   3.509   7.178
 1604SOL     OW 6770   1.674   2.745   6.840
 1604SOL    HW1 6771   1.647   2.656   6.803
 1604SOL    HW2 6772   1.675   2.813   6.767
 1605SOL     OW 6773   1.225   2.187   6.035
 1605SOL    HW1 6774   1.290   2.113   6.024
 1605SOL    HW2 6775   1.245   2.237   6.119
 1606SOL     OW 6776   0.594   2.607   6.238
 1606SOL    HW1 6777   0.644   2.692   6.219
 1606SOL    HW2 6778   0.506   2.609   6.190
 1607SOL     OW 6779   1.777   2.204   7.228
 1607SOL    HW1 6780   1.760   2.235   7.134
 1607SOL    HW2 6781   1.693   2.167   7.266
 1608SOL     OW 6782   1.730   2.796   7.103
 1608SOL    HW1 6783   1.768   2.887   7.118
 1608SOL    HW2 6784   1.722   2.779   7.004
 1609SOL     OW 6785   0.859   3.236   5.602
 1609SOL    HW1 6786   0.813   3.251   5.690
 1609SOL    HW2 6787   0.903   3.321   5.572
 1610SOL     OW 6788   0.661   3.652   6.539
 1610SOL    HW1 6789   0.615   3.740   6.526
 1610SOL    HW2 6790   0.760   3.664   6.532
 1611SOL     OW 6791   1.408   3.713   7.306
 1611SOL    HW1 6792   1.312   3.702   7.279
 1611SOL    HW2 6793   1.464   3.646   7.258
 1612SOL     OW 6794   0.859   2.818   6.447
 1612SOL    HW1 6795   0.913   2.749   6.495
 1612SOL    HW2 6796   0.827   2.887   6.513
 1613SOL     OW 6797   1.083   2.846   5.673
 1613SOL    HW1 6798   1.060   2.899   5.591
 1613SOL    HW2 6799   1.164   2.790   5.654
 1614SOL     OW 6800   1.861   3.431   6.437
 1614SOL    HW1 6801   1.790   3.419   6.367
 1614SOL    HW2 6802   1.862   3.352   6.497
 1615SOL     OW 6803   0.672   3.253   7.210
 1615SOL    HW1 6804   0.594   3.203   7.248
 1615SOL    HW2 6805   0.669   3.348   7.241
 1616SOL     OW 6806   1.824   2.054   6.813
 1616SOL    HW1 6807   1.820   1.964   6.857
 1616SOL    HW2 6808   1.827   2.043   6.714
 1617SOL     OW 6809   0.428   2.286   6.106
 1617SOL    HW1 6810   0.458   2.214   6.044
 1617SOL    HW2 6811   0.389   2.246   6.189
 1618SOL     OW 6812   1.705   3.349   6.690
 1618SOL    HW1 6813   1.612   3.324   6.663
 1618SOL    HW2 6814   1.731   3.299   6.772
 1619SOL     OW 6815   0.812   3.448   6.273
 1619SOL    HW1 6816   0.844   3.458   6.179
 1619SOL    HW2 6817   0.733   3.386   6.275
 1620SOL     OW 6818   1.424   2.076   6.698
 1620SOL    HW1 6819   1.476   2.011   6.753
 1620SOL    HW2 6820   1.375   2.139   6.759
 1621SOL     OW 6821   1.001   1.896   6.740
 1621SOL    HW1 6822   0.938   1.824   6.709
 1621SOL    HW2 6823   1.094   1.860   6.740
 1622SOL     OW 6824   0.770   3.192   5.887
 1622SOL    HW1 6825   0.724   3.105   5.904
 1622SOL    HW2 6826   0.861   3.189   5.928
 1623SOL     OW 6827   0.618   3.429   6.870
 1623SOL    HW1 6828   0.613   3.511   6.927
 1623SOL    HW2 6829   0.707   3.426   6.825
 1624SOL     OW 6830   1.352   1.914   5.754
 1624SOL    HW1 6831   1.387   1.873   5.670
 1624SOL    HW2 6832   1.262   1.876   5.774
 1625SOL     OW 6833   1.300   2.315   6.277
 1625SOL    HW1 6834   1.241   2.395   6.281
 1625SOL    HW2 6835   1.315   2.280   6.370
 1626SOL     OW 6836   1.593   2.083   6.468
 1626SOL    HW1 6837   1.509   2.082   6.522
 1626SOL    HW2 6838   1.595   2.166   6.412
 1627SOL     OW 6839   0.875   3.508   5.923
 1627SOL    HW1 6840   0.798   3.473   5.869
 1627SOL    HW2 6841   0.843   3.579   5.985
 1628SOL     OW 6842   0.019   2.230   8.095
 1628SOL    HW1 6843  -0.063   2.273   8.134
 1628SOL    HW2 6844  -0.009   2.157   8.032
 1629SOL     OW 6845   0.569   3.137   8.613
 1629SOL    HW1 6846   0.476   3.130   8.576
 1629SOL    HW2 6847   0.580   3.226   8.657
 1630SOL     OW 6848   1.555   3.373   8.151
 1630SOL    HW1 6849   1.498   3.357   8.232
 1630SOL    HW2 6850   1.496   3.383   8.071
 1631SOL     OW 6851   1.743   2.480   8.304
 1631SOL    HW1 6852   1.776   2.574   8.304
 1631SOL    HW2 6853   1.794   2.426   8.370
 1632SOL     OW 6854   1.135   2.565   8.165
 1632SOL    HW1 6855   1.192   2.643   8.140
 1632SOL    HW2 6856   1.075   2.591   8.241
 1633SOL     OW 6857   1.755   2.469   7.679
 1633SOL    HW1 6858   1.743   2.456   7.580
 1633SOL    HW2 6859   1.725   2.388   7.728
 1634SOL     OW 6860   0.768   3.006   8.471
 1634SOL    HW1 6861   0.690   3.023   8.531
 1634SOL    HW2 6862   0.802   3.093   8.435
 1635SOL     OW 6863   0.685   2.874   8.113
 1635SOL    HW1 6864   0.754   2.858   8.183
 1635SOL    HW2 6865   0.612   2.931   8.151
 1636SOL     OW 6866   0.335   3.297   8.509
 1636SOL    HW1 6867   0.257   3.266   8.456
 1636SOL    HW2 6868   0.393   3.355   8.452
 1637SOL     OW 6869   1.460   3.367   8.787
 1637SOL    HW1 6870   1.484   3.461   8.813
 1637SOL    HW2 6871   1.444   3.313   8.869
 1638SOL     OW 6872   0.438   2.254   8.947
 1638SOL    HW1 6873   0.520   2.198   8.956
 1638SOL    HW2 6874   0.357   2.196   8.951
 1639SOL     OW 6875   1.603   2.309   8.185
 1639SOL    HW1 6876   1.529   2.355   8.135
 1639SOL    HW2 6877   1.654   2.377   8.238
 1640SOL     OW 6878   0.620   3.648   8.887
 1640SOL    HW1 6879   0.528   3.631   8.922
 1640SOL    HW2 6880   0.648   3.740   8.913
 1641SOL     OW 6881   0.606   2.826   7.571
 1641SOL    HW1 6882   0.613   2.910   7.517
 1641SOL    HW2 6883   0.652   2.839   7.659
 1642SOL     OW 6884   1.594   1.976   8.928
 1642SOL    HW1 6885   1.576   2.043   8.856
 1642SOL    HW2 6886   1.591   2.022   9.017
 1643SOL     OW 6887   1.842   3.629   7.807
 1643SOL    HW1 6888   1.896   3.600   7.887
 1643SOL    HW2 6889   1.872   3.719   7.778
 1644SOL     OW 6890   1.689   2.784   8.060
 1644SOL    HW1 6891   1.784   2.755   8.068
 1644SOL    HW2 6892   1.681   2.849   7.985
 1645SOL     OW 6893   1.641   2.970   7.880
 1645SOL    HW1 6894   1.727   2.972   7.828
 1645SOL    HW2 6895   1.655   3.017   7.968
 1646SOL     OW 6896   0.613   3.227   8.174
 1646SOL    HW1 6897   0.564   3.140   8.183
 1646SOL    HW2 6898   0.590   3.270   8.087
 1647SOL     OW 6899   0.809   1.866   7.950
 1647SOL    HW1 6900   0.849   1.957   7.941
 1647SOL    HW2 6901   0.709   1.874   7.956
 1648SOL     OW 6902   1.525   2.861   7.638
 1648SOL    HW1 6903   1.462   2.785   7.651
 1648SOL    HW2 6904   1.573   2.879   7.724
 1649SOL     OW 6905   1.466   3.279   8.401
 1649SOL    HW1 6906   1.407   3.285   8.481
 1649SOL    HW2 6907   1.451   3.191   8.355
 1650SOL     OW 6908   1.667   3.576   8.020
 1650SOL    HW1 6909   1.626   3.553   7.932
 1650SOL    HW2 6910   1.649   3.502   8.085
 1651SOL     OW 6911   0.598   2.591   7.718
 1651SOL    HW1 6912   0.622   2.660   7.650
 1651SOL    HW2 6913   0.520   2.624   7.772
 1652SOL     OW 6914   1.281   2.207   8.392
 1652SOL    HW1 6915   1.195   2.157   8.379
 1652SOL    HW2 6916   1.343   2.153   8.448
 1653SOL     OW 6917   1.576   3.524   7.755
 1653SOL    HW1 6918   1.665   3.570   7.758
 1653SOL    HW2 6919   1.555   3.500   7.660
 1654SOL     OW 6920   0.807   2.467   8.913
 1654SOL    HW1 6921   0.760   2.464   9.002
 1654SOL    HW2 6922   0.756   2.412   8.847
 1655SOL     OW 6923   0.991   2.272   8.690
 1655SOL    HW1 6924   0.914   2.306   8.744
 1655SOL    HW2 6925   0.957   2.221   8.611
 1656SOL     OW 6926   1.041   2.563   7.877
 1656SOL    HW1 6927   1.067   2.559   7.973
 1656SOL    HW2 6928   0.956   2.512   7.863
 1657SOL     OW 6929   0.865   2.210   7.643
 1657SOL    HW1 6930   0.924   2.273   7.594
 1657SOL    HW2 6931   0.884   2.116   7.614
 1658SOL     OW 6932   1.362   3.006   7.993
 1658SOL    HW1 6933   1.445   2.977   7.945
 1658SOL    HW2 6934   1.313   3.073   7.937
 1659SOL     OW 6935   0.550   2.058   8.333
 1659SOL    HW1 6936   0.545   2.053   8.433
 1659SOL    HW2 6937   0.552   2.154   8.304
 1660SOL     OW 6938   1.008   3.318   7.925
 1660SOL    HW1 6939   0.962   3.390   7.873
 1660SOL    HW2 6940   1.004   3.338   8.023
 1661SOL     OW 6941   0.351   3.663   8.301
 1661SOL    HW1 6942   0.401   3.577   8.307
 1661SOL    HW2 6943   0.416   3.740   8.298
 1662SOL     OW 6944   1.795   2.928   8.321
 1662SOL    HW1 6945   1.733   2.913   8.245
 1662SOL    HW2 6946   1.743   2.939   8.406
 1663SOL     OW 6947   0.321   2.805   7.690
 1663SOL    HW1 6948   0.403   2.844   7.648
 1663SOL    HW2 6949   0.294   2.723   7.641
 1664SOL     OW 6950   1.458   2.597   8.176
 1664SOL    HW1 6951   1.453   2.532   8.251
 1664SOL    HW2 6952   1.538   2.656   8.189
 1665SOL     OW 6953   1.111   3.638   7.685
 1665SOL    HW1 6954   1.051   3.576   7.735
 1665SOL    HW2 6955   1.142   3.594   7.600
 1666SOL     OW 6956   1.632   3.239   7.529
 1666SOL    HW1 6957   1.600   3.333   7.519
 1666SOL    HW2 6958   1.556   3.176   7.517
 1667SOL     OW 6959   0.464   3.605   7.771
 1667SOL    HW1 6960   0.497   3.644   7.857
 1667SOL    HW2 6961   0.540   3.598   7.706
 1668SOL     OW 6962   1.400   1.969   7.874
 1668SOL    HW1 6963   1.376   1.932   7.784
 1668SOL    HW2 6964   1.499   1.985   7.878
 1669SOL     OW 6965   0.940   3.560   8.352
 1669SOL    HW1 6966   1.020   3.503   8.373
 1669SOL    HW2 6967   0.891   3.520   8.275
 1670SOL     OW 6968   0.382   2.562   7.928
 1670SOL    HW1 6969   0.427   2.472   7.925
 1670SOL    HW2 6970   0.288   2.551   7.961
 1671SOL     OW 6971   0.614   1.984   7.565
 1671SOL    HW1 6972   0.712   1.962   7.572
 1671SOL    HW2 6973   0.583   1.967   7.472
 1672SOL     OW 6974   0.888   3.376   8.643
 1672SOL    HW1 6975   0.865   3.351   8.549
 1672SOL    HW2 6976   0.949   3.307   8.682
 1673SOL     OW 6977   0.803   3.264   8.372
 1673SOL    HW1 6978   0.893   3.278   8.330
 1673SOL    HW2 6979   0.732   3.266   8.301
 1674SOL     OW 6980   0.922   2.365   8.347
 1674SOL    HW1 6981   0.897   2.356   8.251
 1674SOL    HW2 6982   0.970   2.283   8.378
 1675SOL     OW 6983   0.539   1.926   7.960
 1675SOL    HW1 6984   0.458   1.927   8.018
 1675SOL    HW2 6985   0.542   2.009   7.905
 1676SOL     OW 6986   1.434   3.050   7.489
 1676SOL    HW1 6987   1.466   2.974   7.546
 1676SOL    HW2 6988   1.342   3.077   7.519
 1677SOL     OW 6989   0.297   1.897   7.619
 1677SOL    HW1 6990   0.346   1.981   7.598
 1677SOL    HW2 6991   0.359   1.832   7.664
 1678SOL     OW 6992   0.935   2.098   7.928
 1678SOL    HW1 6993   0.887   2.139   7.850
 1678SOL    HW2 6994   1.034   2.096   7.909
 1679SOL     OW 6995   1.227   3.432   8.241
 1679SOL    HW1 6996   1.248   3.506   8.176
 1679SOL    HW2 6997   1.295   3.432   8.314
 1680SOL     OW 6998   0.459   3.014   8.189
 1680SOL    HW1 6999   0.388   2.987   8.254
 1680SOL    HW2 7000   0.433   2.986   8.096
 1681SOL     OW 7001   1.271   3.659   8.039
 1681SOL    HW1 7002   1.315   3.723   7.975
 1681SOL    HW2 7003   1.221   3.711   8.109
 1682SOL     OW 7004   1.032   2.411   7.464
 1682SOL    HW1 7005   0.991   2.493   7.425
 1682SOL    HW2 7006   1.096   2.437   7.537
 1683SOL     OW 7007   0.561   2.084   8.595
 1683SOL    HW1 7008   0.599   2.000   8.632
 1683SOL    HW2 7009   0.473   2.103   8.639
 1684SOL     OW 7010   0.866   2.316   8.090
 1684SOL    HW1 7011   0.834   2.388   8.028
 1684SOL    HW2 7012   0.890   2.235   8.037
 1685SOL     OW 7013   1.017   1.901   8.201
 1685SOL    HW1 7014   0.945   1.906   8.132
 1685SOL    HW2 7015   0.993   1.832   8.270
 1686SOL     OW 7016   1.429   3.035   8.315
 1686SOL    HW1 7017   1.374   2.951   8.308
 1686SOL    HW2 7018   1.455   3.064   8.223
 1687SOL     OW 7019   1.466   2.452   8.440
 1687SOL    HW1 7020   1.436   2.357   8.447
 1687SOL    HW2 7021   1.539   2.468   8.506
 1688SOL     OW 7022   1.857   2.695   7.825
 1688SOL    HW1 7023   1.899   2.631   7.889
 1688SOL    HW2 7024   1.819   2.644   7.747
 1689SOL     OW 7025   0.488   3.247   7.622
 1689SOL    HW1 7026   0.401   3.232   7.669
 1689SOL    HW2 7027   0.471   3.273   7.527
 1690SOL     OW 7028   1.664   3.142   8.105
 1690SOL    HW1 7029   1.763   3.150   8.119
 1690SOL    HW2 7030   1.619   3.226   8.136
 1691SOL     OW 7031   1.390   2.437   7.526
 1691SOL    HW1 7032   1.336   2.416   7.607
 1691SOL    HW2 7033   1.481   2.396   7.535
 1692SOL     OW 7034   0.527   2.118   7.776
 1692SOL    HW1 7035   0.554   2.059   7.701
 1692SOL    HW2 7036   0.527   2.213   7.745
 1693SOL     OW 7037   1.064   3.209   8.788
 1693SOL    HW1 7038   0.984   3.186   8.843
 1693SOL    HW2 7039   1.147   3.183   8.837
 1694SOL     OW 7040   1.111   3.057   8.548
 1694SOL    HW1 7041   1.071   3.101   8.629
 1694SOL    HW2 7042   1.070   3.094   8.465
 1695SOL     OW 7043   1.638   2.961   8.527
 1695SOL    HW1 7044   1.643   3.042   8.586
 1695SOL    HW2 7045   1.552   2.963   8.476
 1696SOL     OW 7046   0.915   1.951   8.850
 1696SOL    HW1 7047   0.940   1.931   8.755
 1696SOL    HW2 7048   0.987   2.007   8.892
 1697SOL     OW 7049   0.705   2.912   7.816
 1697SOL    HW1 7050   0.691   2.919   7.915
 1697SOL    HW2 7051   0.789   2.861   7.798
 1698SOL     OW 7052   0.410   2.675   8.699
 1698SOL    HW1 7053   0.496   2.687   8.749
 1698SOL    HW2 7054   0.368   2.588   8.726
 1699SOL     OW 7055   1.274   2.248   8.710
 1699SOL    HW1 7056   1.295   2.322   8.774
 1699SOL    HW2 7057   1.185   2.265   8.667
 1700SOL     OW 7058   0.367   2.962   7.949
 1700SOL    HW1 7059   0.360   3.045   7.893
 1700SOL    HW2 7060   0.371   2.882   7.889
 1701SOL     OW 7061   0.566   2.399   8.313
 1701SOL    HW1 7062   0.578   2.465   8.239
 1701SOL    HW2 7063   0.612   2.433   8.396
 1702SOL     OW 7064   1.252   3.210   7.836
 1702SOL    HW1 7065   1.302   3.287   7.876
 1702SOL    HW2 7066   1.157   3.212   7.868
 1703SOL     OW 7067   1.272   3.307   8.590
 1703SOL    HW1 7068   1.319   3.320   8.677
 1703SOL    HW2 7069   1.206   3.233   8.599
 1704SOL     OW 7070   1.582   2.501   7.920
 1704SOL    HW1 7071   1.551   2.562   7.993
 1704SOL    HW2 7072   1.632   2.553   7.851
 1705SOL     OW 7073   0.354   3.372   8.777
 1705SOL    HW1 7074   0.333   3.328   8.690
 1705SOL    HW2 7075   0.451   3.398   8.780
 1706SOL     OW 7076   0.402   2.613   0.046
 1706SOL    HW1 7077   0.470   2.668  -0.001
 1706SOL    HW2 7078   0.442   2.525   0.073
 1707SOL     OW 7079   1.587   2.641   0.118
 1707SOL    HW1 7080   1.495   2.679   0.113
 1707SOL    HW2 7081   1.647   2.688   0.053
 1708SOL     OW 7082   0.573   2.732   8.477
 1708SOL    HW1 7083   0.617   2.821   8.468
 1708SOL    HW2 7084   0.510   2.732   8.554
 1709SOL     OW 7085   1.360   2.724   8.493
 1709SOL    HW1 7086   1.285   2.724   8.427
 1709SOL    HW2 7087   1.397   2.632   8.502
 1710SOL     OW 7088   1.209   2.387   7.723
 1710SOL    HW1 7089   1.222   2.303   7.777
 1710SOL    HW2 7090   1.180   2.461   7.783
 1711SOL     OW 7091   0.732   2.496   8.512
 1711SOL    HW1 7092   0.791   2.470   8.436
 1711SOL    HW2 7093   0.704   2.592   8.501
 1712SOL     OW 7094   0.307   1.925   8.066
 1712SOL    HW1 7095   0.296   2.019   8.099
 1712SOL    HW2 7096   0.302   1.862   8.143
 1713SOL     OW 7097   1.622   2.229   7.822
 1713SOL    HW1 7098   1.624   2.153   7.886
 1713SOL    HW2 7099   1.574   2.306   7.862
 1714SOL     OW 7100   1.023   2.628   8.414
 1714SOL    HW1 7101   1.038   2.649   8.510
 1714SOL    HW2 7102   0.993   2.533   8.405
 1715SOL     OW 7103   0.980   3.435   0.148
 1715SOL    HW1 7104   0.960   3.479   0.060
 1715SOL    HW2 7105   1.019   3.344   0.132
 1716SOL     OW 7106   1.859   3.380   0.053
 1716SOL    HW1 7107   1.873   3.407  -0.042
 1716SOL    HW2 7108   1.942   3.402   0.106
 1717SOL     OW 7109   1.540   2.136   7.573
 1717SOL    HW1 7110   1.479   2.061   7.596
 1717SOL    HW2 7111   1.562   2.188   7.656
 1718SOL     OW 7112   1.303   2.700   7.490
 1718SOL    HW1 7113   1.337   2.607   7.505
 1718SOL    HW2 7114   1.321   2.727   7.395
 1719SOL     OW 7115   1.068   3.195   8.297
 1719SOL    HW1 7116   1.075   3.111   8.242
 1719SOL    HW2 7117   1.130   3.264   8.261
 1720SOL     OW 7118   0.319   2.672   8.397
 1720SOL    HW1 7119   0.412   2.708   8.402
 1720SOL    HW2 7120   0.313   2.587   8.449
 1721SOL     OW 7121   1.138   2.242   0.126
 1721SOL    HW1 7122   1.093   2.305   0.190
 1721SOL    HW2 7123   1.231   2.273   0.109
 1722SOL     OW 7124   1.160   2.069   8.925
 1722SOL    HW1 7125   1.160   2.133   9.002
 1722SOL    HW2 7126   1.188   2.117   8.842
 1723SOL     OW 7127   0.504   3.430   8.358
 1723SOL    HW1 7128   0.570   3.504   8.367
 1723SOL    HW2 7129   0.548   3.351   8.316
 1724SOL     OW 7130   1.002   2.658   8.686
 1724SOL    HW1 7131   1.043   2.626   8.772
 1724SOL    HW2 7132   0.906   2.631   8.683
 1725SOL     OW 7133   0.815   2.434   7.773
 1725SOL    HW1 7134   0.822   2.345   7.727
 1725SOL    HW2 7135   0.721   2.468   7.765
 1726SOL     OW 7136   1.657   2.466   8.654
 1726SOL    HW1 7137   1.619   2.397   8.716
 1726SOL    HW2 7138   1.739   2.430   8.610
 1727SOL     OW 7139   0.671   2.326   8.717
 1727SOL    HW1 7140   0.637   2.237   8.687
 1727SOL    HW2 7141   0.697   2.380   8.637
 1728SOL     OW 7142   0.930   3.540   8.913
 1728SOL    HW1 7143   0.906   3.522   8.818
 1728SOL    HW2 7144   0.960   3.634   8.923
 1729SOL     OW 7145   0.473   2.362   7.639
 1729SOL    HW1 7146   0.534   2.442   7.643
 1729SOL    HW2 7147   0.378   2.393   7.646
 1730SOL     OW 7148   1.347   2.921   8.682
 1730SOL    HW1 7149   1.371   2.858   8.608
 1730SOL    HW2 7150   1.257   2.961   8.664
 1731SOL     OW 7151   1.302   2.717   7.757
 1731SOL    HW1 7152   1.216   2.686   7.799
 1731SOL    HW2 7153   1.298   2.703   7.658
 1732SOL     OW 7154   1.759   3.609   8.602
 1732SOL    HW1 7155   1.820   3.639   8.529
 1732SOL    HW2 7156   1.721   3.520   8.580
 1733SOL     OW 7157   1.252   3.593   8.576
 1733SOL    HW1 7158   1.336   3.598   8.522
 1733SOL    HW2 7159   1.229   3.497   8.594
 1734SOL     OW 7160   0.903   1.948   7.581
 1734SOL    HW1 7161   0.954   1.949   7.495
 1734SOL    HW2 7162   0.959   1.906   7.652
 1735SOL     OW 7163   1.726   1.997   7.971
 1735SOL    HW1 7164   1.799   1.980   7.904
 1735SOL    HW2 7165   1.695   1.910   8.009
 1736SOL     OW 7166   1.388   3.435   7.925
 1736SOL    HW1 7167   1.455   3.447   7.851
 1736SOL    HW2 7168   1.348   3.524   7.948
 1737SOL     OW 7169   1.280   2.789   8.120
 1737SOL    HW1 7170   1.340   2.708   8.122
 1737SOL    HW2 7171   1.320   2.858   8.060
 1738SOL     OW 7172   0.672   3.478   7.602
 1738SOL    HW1 7173   0.681   3.488   7.503
 1738SOL    HW2 7174   0.632   3.389   7.623
 1739SOL     OW 7175   1.650   3.582   8.842
 1739SOL    HW1 7176   1.703   3.592   8.758
 1739SOL    HW2 7177   1.623   3.672   8.876
 1740SOL     OW 7178   1.841   2.037   8.411
 1740SOL    HW1 7179   1.880   1.952   8.375
 1740SOL    HW2 7180   1.743   2.039   8.392
 1741SOL     OW 7181   0.263   2.188   8.168
 1741SOL    HW1 7182   0.184   2.239   8.134
 1741SOL    HW2 7183   0.254   2.173   8.266
 1742SOL     OW 7184   1.194   3.474   7.479
 1742SOL    HW1 7185   1.200   3.381   7.516
 1742SOL    HW2 7186   1.135   3.474   7.399
 1743SOL     OW 7187   0.822   2.864   8.820
 1743SOL    HW1 7188   0.862   2.863   8.728
 1743SOL    HW2 7189   0.832   2.956   8.860
 1744SOL     OW 7190   0.916   2.772   7.739
 1744SOL    HW1 7191   0.979   2.810   7.671
 1744SOL    HW2 7192   0.956   2.689   7.778
 1745SOL     OW 7193   1.504   3.469   7.492
 1745SOL    HW1 7194   1.412   3.506   7.499
 1745SOL    HW2 7195   1.542   3.489   7.402
 1746SOL     OW 7196   0.372   3.150   8.938
 1746SOL    HW1 7197   0.359   3.243   8.904
 1746SOL    HW2 7198   0.288   3.098   8.925
 1747SOL     OW 7199   1.614   3.154   8.737
 1747SOL    HW1 7200   1.674   3.157   8.817
 1747SOL    HW2 7201   1.539   3.218   8.750
 1748SOL     OW 7202   1.039   2.960   8.144
 1748SOL    HW1 7203   0.969   2.913   8.198
 1748SOL    HW2 7204   1.098   2.892   8.101
 1749SOL     OW 7205   1.014   2.098   8.419
 1749SOL    HW1 7206   1.006   2.062   8.326
 1749SOL    HW2 7207   1.012   2.022   8.484
 1750SOL     OW 7208   0.590   3.349   7.939
 1750SOL    HW1 7209   0.632   3.291   7.869
 1750SOL    HW2 7210   0.546   3.428   7.895
 1751SOL     OW 7211   1.709   2.247   8.829
 1751SOL    HW1 7212   1.782   2.316   8.833
 1751SOL    HW2 7213   1.737   2.172   8.770
 1752SOL     OW 7214   0.255   3.210   7.738
 1752SOL    HW1 7215   0.159   3.211   7.711
 1752SOL    HW2 7216   0.267   3.263   7.822
 1753SOL     OW 7217   1.440   2.718   8.846
 1753SOL    HW1 7218   1.383   2.770   8.783
 1753SOL    HW2 7219   1.536   2.730   8.822
 1754SOL     OW 7220   1.183   3.197   7.567
 1754SOL    HW1 7221   1.084   3.186   7.569
 1754SOL    HW2 7222   1.217   3.212   7.660
 1755SOL     OW 7223   0.613   2.704   8.879
 1755SOL    HW1 7224   0.669   2.785   8.862
 1755SOL    HW2 7225   0.672   2.624   8.882
 1756SOL     OW 7226   1.493   3.629   8.407
 1756SOL    HW1 7227   1.526   3.693   8.338
 1756SOL    HW2 7228   1.559   3.623   8.482
 1757SOL     OW 7229   0.390   3.603   0.008
 1757SOL    HW1 7230   0.299   3.644   0.006
 1757SOL    HW2 7231   0.383   3.509   0.040
 1758SOL     OW 7232   1.674   2.745   8.702
 1758SOL    HW1 7233   1.647   2.656   8.665
 1758SOL    HW2 7234   1.675   2.813   8.629
 1759SOL     OW 7235   1.225   2.187   7.897
 1759SOL    HW1 7236   1.290   2.113   7.886
 1759SOL    HW2 7237   1.245   2.237   7.981
 1760SOL     OW 7238   0.594   2.607   8.100
 1760SOL    HW1 7239   0.644   2.692   8.081
 1760SOL    HW2 7240   0.506   2.609   8.052
 1761SOL     OW 7241   1.777   2.204   0.090
 1761SOL    HW1 7242   1.760   2.235  -0.004
 1761SOL    HW2 7243   1.693   2.167   0.128
 1762SOL     OW 7244   1.730   2.796   8.965
 1762SOL    HW1 7245   1.768   2.887   8.980
 1762SOL    HW2 7246   1.722   2.779   8.866
 1763SOL     OW 7247   0.859   3.236   7.464
 1763SOL    HW1 7248   0.813   3.251   7.552
 1763SOL    HW2 7249   0.903   3.321   7.434
 1764SOL     OW 7250   0.661   3.652   8.401
 1764SOL    HW1 7251   0.615   3.740   8.388
 1764SOL    HW2 7252   0.760   3.664   8.394
 1765SOL     OW 7253   1.408   3.713   0.168
 1765SOL    HW1 7254   1.312   3.702   0.141
 1765SOL    HW2 7255   1.464   3.646   0.120
 1766SOL     OW 7256   0.859   2.818   8.309
 1766SOL    HW1 7257   0.913   2.749   8.357
 1766SOL    HW2 7258   0.827   2.887   8.375
 1767SOL     OW 7259   1.083   2.846   7.535
 1767SOL    HW1 7260   1.060   2.899   7.453
 1767SOL    HW2 7261   1.164   2.790   7.516
 1768SOL     OW 7262   1.861   3.431   8.299
 1768SOL    HW1 7263   1.790   3.419   8.229
 1768SOL    HW2 7264   1.862   3.352   8.359
 1769SOL     OW 7265   1.824   2.054   8.675
 1769SOL    HW1 7266   1.820   1.964   8.719
 1769SOL    HW2 7267   1.827   2.043   8.576
 1770SOL     OW 7268   0.428   2.286   7.968
 1770SOL    HW1 7269   0.458   2.214   7.906
 1770SOL    HW2 7270   0.389   2.246   8.051
 1771SOL     OW 7271   1.705   3.349   8.552
 1771SOL    HW1 7272   1.612   3.324   8.525
 1771SOL    HW2 7273   1.731   3.299   8.634
 1772SOL     OW 7274   0.812   3.448   8.135
 1772SOL    HW1 7275   0.844   3.458   8.041
 1772SOL    HW2 7276   0.733   3.386   8.137
 1773SOL     OW 7277   1.424   2.076   8.560
 1773SOL    HW1 7278   1.476   2.011   8.615
 1773SOL    HW2 7279   1.375   2.139   8.621
 1774SOL     OW 7280   1.001   1.896   8.602
 1774SOL    HW1 7281   0.938   1.824   8.571
 1774SOL    HW2 7282   1.094   1.860   8.602
 1775SOL     OW 7283   0.770   3.192   7.749
 1775SOL    HW1 7284   0.724   3.105   7.766
 1775SOL    HW2 7285   0.861   3.189   7.790
 1776SOL     OW 7286   0.618   3.429   8.732
 1776SOL    HW1 7287   0.613   3.511   8.789
 1776SOL    HW2 7288   0.707   3.426   8.687
 1777SOL     OW 7289   1.352   1.914   7.616
 1777SOL    HW1 7290   1.387   1.873   7.532
 1777SOL    HW2 7291   1.262   1.876   7.636
 1778SOL     OW 7292   1.300   2.315   8.139
 1778SOL    HW1 7293   1.241   2.395   8.143
 1778SOL    HW2 7294   1.315   2.280   8.232
 1779SOL     OW 7295   1.593   2.083   8.330
 1779SOL    HW1 7296   1.509   2.082   8.384
 1779SOL    HW2 7297   1.595   2.166   8.274
 1780SOL     OW 7298   0.875   3.508   7.785
 1780SOL    HW1 7299   0.798   3.473   7.731
 1780SOL    HW2 7300   0.843   3.579   7.847
 1781SOL     OW 7301   0.019   4.092   0.647
 1781SOL    HW1 7302  -0.063   4.135   0.686
 1781SOL    HW2 7303  -0.009   4.019   0.584
 1782SOL     OW 7304   0.569   4.999   1.165
 1782SOL    HW1 7305   0.476   4.992   1.128
 1782SOL    HW2 7306   0.580   5.088   1.209
 1783SOL     OW 7307   1.555   5.235   0.703
 1783SOL    HW1 7308   1.498   5.219   0.784
 1783SOL    HW2 7309   1.496   5.245   0.623
 1784SOL     OW 7310   1.743   4.342   0.856
 1784SOL    HW1 7311   1.776   4.436   0.856
 1784SOL    HW2 7312   1.794   4.288   0.922
 1785SOL     OW 7313   1.135   4.427   0.717
 1785SOL    HW1 7314   1.192   4.505   0.692
 1785SOL    HW2 7315   1.075   4.453   0.793
 1786SOL     OW 7316   1.755   4.331   0.231
 1786SOL    HW1 7317   1.743   4.318   0.132
 1786SOL    HW2 7318   1.725   4.250   0.280
 1787SOL     OW 7319   0.768   4.868   1.023
 1787SOL    HW1 7320   0.690   4.885   1.083
 1787SOL    HW2 7321   0.802   4.955   0.987
 1788SOL     OW 7322   0.850   4.522   1.823
 1788SOL    HW1 7323   0.846   4.598   1.888
 1788SOL    HW2 7324   0.872   4.558   1.732
 1789SOL     OW 7325   0.685   4.736   0.665
 1789SOL    HW1 7326   0.754   4.720   0.735
 1789SOL    HW2 7327   0.612   4.793   0.703
 1790SOL     OW 7328   0.686   4.885   1.803
 1790SOL    HW1 7329   0.746   4.964   1.817
 1790SOL    HW2 7330   0.600   4.916   1.762
 1791SOL     OW 7331   0.335   5.159   1.061
 1791SOL    HW1 7332   0.257   5.128   1.008
 1791SOL    HW2 7333   0.393   5.217   1.004
 1792SOL     OW 7334   1.460   5.229   1.339
 1792SOL    HW1 7335   1.484   5.323   1.365
 1792SOL    HW2 7336   1.444   5.175   1.421
 1793SOL     OW 7337   0.438   4.116   1.499
 1793SOL    HW1 7338   0.520   4.060   1.508
 1793SOL    HW2 7339   0.357   4.058   1.503
 1794SOL     OW 7340   1.603   4.171   0.737
 1794SOL    HW1 7341   1.529   4.217   0.687
 1794SOL    HW2 7342   1.654   4.239   0.790
 1795SOL     OW 7343   1.127   5.065   1.690
 1795SOL    HW1 7344   1.174   5.065   1.778
 1795SOL    HW2 7345   1.079   4.978   1.679
 1796SOL     OW 7346   0.620   5.510   1.439
 1796SOL    HW1 7347   0.528   5.493   1.474
 1796SOL    HW2 7348   0.648   5.602   1.465
 1797SOL     OW 7349   0.606   4.688   0.123
 1797SOL    HW1 7350   0.613   4.772   0.069
 1797SOL    HW2 7351   0.652   4.701   0.211
 1798SOL     OW 7352   1.594   3.838   1.480
 1798SOL    HW1 7353   1.576   3.905   1.408
 1798SOL    HW2 7354   1.591   3.884   1.569
 1799SOL     OW 7355   1.842   5.491   0.359
 1799SOL    HW1 7356   1.896   5.462   0.439
 1799SOL    HW2 7357   1.872   5.581   0.330
 1800SOL     OW 7358   1.689   4.646   0.612
 1800SOL    HW1 7359   1.784   4.617   0.620
 1800SOL    HW2 7360   1.681   4.711   0.537
 1801SOL     OW 7361   1.641   4.832   0.432
 1801SOL    HW1 7362   1.727   4.834   0.380
 1801SOL    HW2 7363   1.655   4.879   0.520
 1802SOL     OW 7364   0.613   5.089   0.726
 1802SOL    HW1 7365   0.564   5.002   0.735
 1802SOL    HW2 7366   0.590   5.132   0.639
 1803SOL     OW 7367   1.293   4.952   1.423
 1803SOL    HW1 7368   1.330   4.879   1.365
 1803SOL    HW2 7369   1.345   4.957   1.508
 1804SOL     OW 7370   0.809   3.728   0.502
 1804SOL    HW1 7371   0.849   3.819   0.493
 1804SOL    HW2 7372   0.709   3.736   0.508
 1805SOL     OW 7373   1.525   4.723   0.190
 1805SOL    HW1 7374   1.462   4.647   0.203
 1805SOL    HW2 7375   1.573   4.741   0.276
 1806SOL     OW 7376   1.187   5.516   1.616
 1806SOL    HW1 7377   1.211   5.576   1.540
 1806SOL    HW2 7378   1.194   5.421   1.586
 1807SOL     OW 7379   0.317   3.975   1.801
 1807SOL    HW1 7380   0.388   4.046   1.807
 1807SOL    HW2 7381   0.229   4.014   1.829
 1808SOL     OW 7382   1.466   5.141   0.953
 1808SOL    HW1 7383   1.407   5.147   1.033
 1808SOL    HW2 7384   1.451   5.053   0.907
 1809SOL     OW 7385   1.667   5.438   0.572
 1809SOL    HW1 7386   1.626   5.415   0.484
 1809SOL    HW2 7387   1.649   5.364   0.637
 1810SOL     OW 7388   0.598   4.453   0.270
 1810SOL    HW1 7389   0.622   4.522   0.202
 1810SOL    HW2 7390   0.520   4.486   0.324
 1811SOL     OW 7391   1.281   4.069   0.944
 1811SOL    HW1 7392   1.195   4.019   0.931
 1811SOL    HW2 7393   1.343   4.015   1.000
 1812SOL     OW 7394   1.576   5.386   0.307
 1812SOL    HW1 7395   1.665   5.432   0.310
 1812SOL    HW2 7396   1.555   5.362   0.212
 1813SOL     OW 7397   0.807   4.329   1.465
 1813SOL    HW1 7398   0.760   4.326   1.554
 1813SOL    HW2 7399   0.756   4.274   1.399
 1814SOL     OW 7400   1.394   4.193   1.674
 1814SOL    HW1 7401   1.374   4.236   1.762
 1814SOL    HW2 7402   1.472   4.131   1.683
 1815SOL     OW 7403   0.973   4.614   1.572
 1815SOL    HW1 7404   1.019   4.530   1.543
 1815SOL    HW2 7405   0.917   4.648   1.497
 1816SOL     OW 7406   0.991   4.134   1.242
 1816SOL    HW1 7407   0.914   4.168   1.296
 1816SOL    HW2 7408   0.957   4.083   1.163
 1817SOL     OW 7409   1.041   4.425   0.429
 1817SOL    HW1 7410   1.067   4.421   0.525
 1817SOL    HW2 7411   0.956   4.374   0.415
 1818SOL     OW 7412   0.865   4.072   0.195
 1818SOL    HW1 7413   0.924   4.135   0.146
 1818SOL    HW2 7414   0.884   3.978   0.166
 1819SOL     OW 7415   1.719   4.309   1.831
 1819SOL    HW1 7416   1.693   4.398   1.795
 1819SOL    HW2 7417   1.717   4.241   1.758
 1820SOL     OW 7418   1.362   4.868   0.545
 1820SOL    HW1 7419   1.445   4.839   0.497
 1820SOL    HW2 7420   1.313   4.935   0.489
 1821SOL     OW 7421   0.550   3.920   0.885
 1821SOL    HW1 7422   0.545   3.915   0.985
 1821SOL    HW2 7423   0.552   4.016   0.856
 1822SOL     OW 7424   1.008   5.180   0.477
 1822SOL    HW1 7425   0.962   5.252   0.425
 1822SOL    HW2 7426   1.004   5.200   0.575
 1823SOL     OW 7427   0.351   5.525   0.853
 1823SOL    HW1 7428   0.401   5.439   0.859
 1823SOL    HW2 7429   0.416   5.602   0.850
 1824SOL     OW 7430   1.795   4.790   0.873
 1824SOL    HW1 7431   1.733   4.775   0.797
 1824SOL    HW2 7432   1.743   4.801   0.958
 1825SOL     OW 7433   1.227   5.274   1.506
 1825SOL    HW1 7434   1.233   5.197   1.570
 1825SOL    HW2 7435   1.175   5.248   1.426
 1826SOL     OW 7436   0.321   4.667   0.242
 1826SOL    HW1 7437   0.403   4.706   0.200
 1826SOL    HW2 7438   0.294   4.585   0.193
 1827SOL     OW 7439   1.458   4.459   0.728
 1827SOL    HW1 7440   1.453   4.394   0.803
 1827SOL    HW2 7441   1.538   4.518   0.741
 1828SOL     OW 7442   0.461   4.990   1.727
 1828SOL    HW1 7443   0.411   4.991   1.641
 1828SOL    HW2 7444   0.398   4.972   1.803
 1829SOL     OW 7445   1.111   5.500   0.237
 1829SOL    HW1 7446   1.051   5.438   0.287
 1829SOL    HW2 7447   1.142   5.456   0.152
 1830SOL     OW 7448   1.632   5.101   0.081
 1830SOL    HW1 7449   1.600   5.195   0.071
 1830SOL    HW2 7450   1.556   5.038   0.069
 1831SOL     OW 7451   0.464   5.467   0.323
 1831SOL    HW1 7452   0.497   5.506   0.409
 1831SOL    HW2 7453   0.540   5.460   0.258
 1832SOL     OW 7454   1.400   3.831   0.426
 1832SOL    HW1 7455   1.376   3.794   0.336
 1832SOL    HW2 7456   1.499   3.847   0.430
 1833SOL     OW 7457   0.940   5.422   0.904
 1833SOL    HW1 7458   1.020   5.365   0.925
 1833SOL    HW2 7459   0.891   5.382   0.827
 1834SOL     OW 7460   0.382   4.424   0.480
 1834SOL    HW1 7461   0.427   4.334   0.477
 1834SOL    HW2 7462   0.288   4.413   0.513
 1835SOL     OW 7463   1.547   3.946   1.729
 1835SOL    HW1 7464   1.542   3.983   1.821
 1835SOL    HW2 7465   1.475   3.877   1.717
 1836SOL     OW 7466   0.614   3.846   0.117
 1836SOL    HW1 7467   0.712   3.824   0.124
 1836SOL    HW2 7468   0.583   3.829   0.024
 1837SOL     OW 7469   0.781   3.988   1.749
 1837SOL    HW1 7470   0.848   3.927   1.792
 1837SOL    HW2 7471   0.708   4.007   1.814
 1838SOL     OW 7472   0.888   5.238   1.195
 1838SOL    HW1 7473   0.865   5.213   1.101
 1838SOL    HW2 7474   0.949   5.169   1.234
 1839SOL     OW 7475   1.351   4.314   1.433
 1839SOL    HW1 7476   1.379   4.271   1.518
 1839SOL    HW2 7477   1.376   4.410   1.434
 1840SOL     OW 7478   0.803   5.126   0.924
 1840SOL    HW1 7479   0.893   5.140   0.882
 1840SOL    HW2 7480   0.732   5.128   0.853
 1841SOL     OW 7481   0.922   4.227   0.899
 1841SOL    HW1 7482   0.897   4.218   0.803
 1841SOL    HW2 7483   0.970   4.145   0.930
 1842SOL     OW 7484   0.539   3.788   0.512
 1842SOL    HW1 7485   0.458   3.789   0.570
 1842SOL    HW2 7486   0.542   3.871   0.457
 1843SOL     OW 7487   1.434   4.912   0.041
 1843SOL    HW1 7488   1.466   4.836   0.098
 1843SOL    HW2 7489   1.342   4.939   0.071
 1844SOL     OW 7490   0.297   3.759   0.171
 1844SOL    HW1 7491   0.346   3.843   0.150
 1844SOL    HW2 7492   0.359   3.694   0.216
 1845SOL     OW 7493   0.935   3.960   0.480
 1845SOL    HW1 7494   0.887   4.001   0.402
 1845SOL    HW2 7495   1.034   3.958   0.461
 1846SOL     OW 7496   1.076   4.407   1.464
 1846SOL    HW1 7497   0.996   4.346   1.467
 1846SOL    HW2 7498   1.157   4.354   1.440
 1847SOL     OW 7499   1.227   5.294   0.793
 1847SOL    HW1 7500   1.248   5.368   0.728
 1847SOL    HW2 7501   1.295   5.294   0.866
 1848SOL     OW 7502   0.459   4.876   0.741
 1848SOL    HW1 7503   0.388   4.849   0.806
 1848SOL    HW2 7504   0.433   4.848   0.648
 1849SOL     OW 7505   1.271   5.521   0.591
 1849SOL    HW1 7506   1.315   5.585   0.527
 1849SOL    HW2 7507   1.221   5.573   0.661
 1850SOL     OW 7508   1.032   4.273   0.016
 1850SOL    HW1 7509   0.991   4.355  -0.023
 1850SOL    HW2 7510   1.096   4.299   0.089
 1851SOL     OW 7511   0.561   3.946   1.147
 1851SOL    HW1 7512   0.599   3.862   1.184
 1851SOL    HW2 7513   0.473   3.965   1.191
 1852SOL     OW 7514   0.866   4.178   0.642
 1852SOL    HW1 7515   0.834   4.250   0.580
 1852SOL    HW2 7516   0.890   4.097   0.589
 1853SOL     OW 7517   1.017   3.763   0.753
 1853SOL    HW1 7518   0.945   3.768   0.684
 1853SOL    HW2 7519   0.993   3.694   0.822
 1854SOL     OW 7520   1.429   4.897   0.867
 1854SOL    HW1 7521   1.374   4.813   0.860
 1854SOL    HW2 7522   1.455   4.926   0.775
 1855SOL     OW 7523   1.466   4.314   0.992
 1855SOL    HW1 7524   1.436   4.219   0.999
 1855SOL    HW2 7525   1.539   4.330   1.058
 1856SOL     OW 7526   1.857   4.557   0.377
 1856SOL    HW1 7527   1.899   4.493   0.441
 1856SOL    HW2 7528   1.819   4.506   0.299
 1857SOL     OW 7529   0.488   5.109   0.174
 1857SOL    HW1 7530   0.401   5.094   0.221
 1857SOL    HW2 7531   0.471   5.135   0.079
 1858SOL     OW 7532   1.664   5.004   0.657
 1858SOL    HW1 7533   1.763   5.012   0.671
 1858SOL    HW2 7534   1.619   5.088   0.688
 1859SOL     OW 7535   1.390   4.299   0.078
 1859SOL    HW1 7536   1.336   4.278   0.159
 1859SOL    HW2 7537   1.481   4.258   0.087
 1860SOL     OW 7538   0.527   3.980   0.328
 1860SOL    HW1 7539   0.554   3.921   0.253
 1860SOL    HW2 7540   0.527   4.075   0.297
 1861SOL     OW 7541   1.754   4.947   1.588
 1861SOL    HW1 7542   1.845   4.908   1.575
 1861SOL    HW2 7543   1.762   5.043   1.612
 1862SOL     OW 7544   1.064   5.071   1.340
 1862SOL    HW1 7545   0.984   5.048   1.395
 1862SOL    HW2 7546   1.147   5.045   1.389
 1863SOL     OW 7547   1.592   5.353   1.625
 1863SOL    HW1 7548   1.619   5.387   1.535
 1863SOL    HW2 7549   1.671   5.315   1.671
 1864SOL     OW 7550   1.111   4.919   1.100
 1864SOL    HW1 7551   1.071   4.963   1.181
 1864SOL    HW2 7552   1.070   4.956   1.017
 1865SOL     OW 7553   1.638   4.823   1.079
 1865SOL    HW1 7554   1.643   4.904   1.138
 1865SOL    HW2 7555   1.552   4.825   1.028
 1866SOL     OW 7556   0.915   3.813   1.402
 1866SOL    HW1 7557   0.940   3.793   1.307
 1866SOL    HW2 7558   0.987   3.869   1.444
 1867SOL     OW 7559   0.980   4.840   1.719
 1867SOL    HW1 7560   0.881   4.846   1.729
 1867SOL    HW2 7561   1.003   4.760   1.663
 1868SOL     OW 7562   0.705   4.774   0.368
 1868SOL    HW1 7563   0.691   4.781   0.467
 1868SOL    HW2 7564   0.789   4.723   0.350
 1869SOL     OW 7565   0.410   4.537   1.251
 1869SOL    HW1 7566   0.496   4.549   1.301
 1869SOL    HW2 7567   0.368   4.450   1.278
 1870SOL     OW 7568   1.274   4.110   1.262
 1870SOL    HW1 7569   1.295   4.184   1.326
 1870SOL    HW2 7570   1.185   4.127   1.219
 1871SOL     OW 7571   0.367   4.824   0.501
 1871SOL    HW1 7572   0.360   4.907   0.445
 1871SOL    HW2 7573   0.371   4.744   0.441
 1872SOL     OW 7574   0.566   4.261   0.865
 1872SOL    HW1 7575   0.578   4.327   0.791
 1872SOL    HW2 7576   0.612   4.295   0.948
 1873SOL     OW 7577   1.252   5.072   0.388
 1873SOL    HW1 7578   1.302   5.149   0.428
 1873SOL    HW2 7579   1.157   5.074   0.420
 1874SOL     OW 7580   1.272   5.169   1.142
 1874SOL    HW1 7581   1.319   5.182   1.229
 1874SOL    HW2 7582   1.206   5.095   1.151
 1875SOL     OW 7583   1.582   4.363   0.472
 1875SOL    HW1 7584   1.551   4.424   0.545
 1875SOL    HW2 7585   1.632   4.415   0.403
 1876SOL     OW 7586   0.354   5.234   1.329
 1876SOL    HW1 7587   0.333   5.190   1.242
 1876SOL    HW2 7588   0.451   5.260   1.332
 1877SOL     OW 7589   0.402   4.475   1.598
 1877SOL    HW1 7590   0.470   4.530   1.551
 1877SOL    HW2 7591   0.442   4.387   1.625
 1878SOL     OW 7592   1.587   4.503   1.670
 1878SOL    HW1 7593   1.495   4.541   1.665
 1878SOL    HW2 7594   1.647   4.550   1.605
 1879SOL     OW 7595   1.013   3.829   1.770
 1879SOL    HW1 7596   1.019   3.914   1.718
 1879SOL    HW2 7597   1.045   3.753   1.713
 1880SOL     OW 7598   0.504   3.774   1.740
 1880SOL    HW1 7599   0.462   3.717   1.670
 1880SOL    HW2 7600   0.438   3.843   1.772
 1881SOL     OW 7601   0.573   4.594   1.029
 1881SOL    HW1 7602   0.617   4.683   1.020
 1881SOL    HW2 7603   0.510   4.594   1.106
 1882SOL     OW 7604   1.360   4.586   1.045
 1882SOL    HW1 7605   1.285   4.586   0.979
 1882SOL    HW2 7606   1.397   4.494   1.054
 1883SOL     OW 7607   1.209   4.249   0.275
 1883SOL    HW1 7608   1.222   4.165   0.329
 1883SOL    HW2 7609   1.180   4.323   0.335
 1884SOL     OW 7610   0.732   4.358   1.064
 1884SOL    HW1 7611   0.791   4.332   0.988
 1884SOL    HW2 7612   0.704   4.454   1.053
 1885SOL     OW 7613   1.728   4.659   1.854
 1885SOL    HW1 7614   1.682   4.652   1.765
 1885SOL    HW2 7615   1.666   4.703   1.920
 1886SOL     OW 7616   0.307   3.787   0.618
 1886SOL    HW1 7617   0.296   3.881   0.651
 1886SOL    HW2 7618   0.302   3.724   0.695
 1887SOL     OW 7619   1.622   4.091   0.374
 1887SOL    HW1 7620   1.624   4.015   0.438
 1887SOL    HW2 7621   1.574   4.168   0.414
 1888SOL     OW 7622   1.023   4.490   0.966
 1888SOL    HW1 7623   1.038   4.511   1.062
 1888SOL    HW2 7624   0.993   4.395   0.957
 1889SOL     OW 7625   0.980   5.297   1.700
 1889SOL    HW1 7626   0.960   5.341   1.612
 1889SOL    HW2 7627   1.019   5.206   1.684
 1890SOL     OW 7628   1.859   5.242   1.605
 1890SOL    HW1 7629   1.873   5.269   1.510
 1890SOL    HW2 7630   1.942   5.264   1.658
 1891SOL     OW 7631   0.350   4.622   1.804
 1891SOL    HW1 7632   0.426   4.666   1.852
 1891SOL    HW2 7633   0.385   4.575   1.722
 1892SOL     OW 7634   1.540   3.998   0.125
 1892SOL    HW1 7635   1.479   3.923   0.148
 1892SOL    HW2 7636   1.562   4.050   0.208
 1893SOL     OW 7637   1.303   4.562   0.042
 1893SOL    HW1 7638   1.337   4.469   0.057
 1893SOL    HW2 7639   1.321   4.589  -0.053
 1894SOL     OW 7640   1.068   5.057   0.849
 1894SOL    HW1 7641   1.075   4.973   0.794
 1894SOL    HW2 7642   1.130   5.126   0.813
 1895SOL     OW 7643   0.319   4.534   0.949
 1895SOL    HW1 7644   0.412   4.570   0.954
 1895SOL    HW2 7645   0.313   4.449   1.001
 1896SOL     OW 7646   1.138   4.104   1.678
 1896SOL    HW1 7647   1.093   4.167   1.742
 1896SOL    HW2 7648   1.231   4.135   1.661
 1897SOL     OW 7649   1.160   3.931   1.477
 1897SOL    HW1 7650   1.160   3.995   1.554
 1897SOL    HW2 7651   1.188   3.979   1.394
 1898SOL     OW 7652   0.504   5.292   0.910
 1898SOL    HW1 7653   0.570   5.366   0.919
 1898SOL    HW2 7654   0.548   5.213   0.868
 1899SOL     OW 7655   1.002   4.520   1.238
 1899SOL    HW1 7656   1.043   4.488   1.324
 1899SOL    HW2 7657   0.906   4.493   1.235
 1900SOL     OW 7658   1.369   4.674   1.660
 1900SOL    HW1 7659   1.408   4.763   1.680
 1900SOL    HW2 7660   1.379   4.654   1.563
 1901SOL     OW 7661   0.815   4.296   0.325
 1901SOL    HW1 7662   0.822   4.207   0.279
 1901SOL    HW2 7663   0.721   4.330   0.317
 1902SOL     OW 7664   1.657   4.328   1.206
 1902SOL    HW1 7665   1.619   4.259   1.268
 1902SOL    HW2 7666   1.739   4.292   1.162
 1903SOL     OW 7667   0.671   4.188   1.269
 1903SOL    HW1 7668   0.637   4.099   1.239
 1903SOL    HW2 7669   0.697   4.242   1.189
 1904SOL     OW 7670   0.930   5.402   1.465
 1904SOL    HW1 7671   0.906   5.384   1.370
 1904SOL    HW2 7672   0.960   5.496   1.475
 1905SOL     OW 7673   0.473   4.224   0.191
 1905SOL    HW1 7674   0.534   4.304   0.195
 1905SOL    HW2 7675   0.378   4.255   0.198
 1906SOL     OW 7676   1.347   4.783   1.234
 1906SOL    HW1 7677   1.371   4.720   1.160
 1906SOL    HW2 7678   1.257   4.823   1.216
 1907SOL     OW 7679   1.302   4.579   0.309
 1907SOL    HW1 7680   1.216   4.548   0.351
 1907SOL    HW2 7681   1.298   4.565   0.210
 1908SOL     OW 7682   1.759   5.471   1.154
 1908SOL    HW1 7683   1.820   5.501   1.081
 1908SOL    HW2 7684   1.721   5.382   1.132
 1909SOL     OW 7685   1.252   5.455   1.128
 1909SOL    HW1 7686   1.336   5.460   1.074
 1909SOL    HW2 7687   1.229   5.359   1.146
 1910SOL     OW 7688   0.688   5.386   1.716
 1910SOL    HW1 7689   0.632   5.467   1.725
 1910SOL    HW2 7690   0.740   5.390   1.630
 1911SOL     OW 7691   0.903   3.810   0.133
 1911SOL    HW1 7692   0.954   3.811   0.047
 1911SOL    HW2 7693   0.959   3.768   0.204
 1912SOL     OW 7694   1.726   3.859   0.523
 1912SOL    HW1 7695   1.799   3.842   0.456
 1912SOL    HW2 7696   1.695   3.772   0.561
 1913SOL     OW 7697   1.388   5.297   0.477
 1913SOL    HW1 7698   1.455   5.309   0.403
 1913SOL    HW2 7699   1.348   5.386   0.500
 1914SOL     OW 7700   0.130   5.518   1.851
 1914SOL    HW1 7701   0.089   5.444   1.904
 1914SOL    HW2 7702   0.194   5.569   1.909
 1915SOL     OW 7703   1.280   4.651   0.672
 1915SOL    HW1 7704   1.340   4.570   0.674
 1915SOL    HW2 7705   1.320   4.720   0.612
 1916SOL     OW 7706   0.830   4.997   1.422
 1916SOL    HW1 7707   0.825   5.030   1.517
 1916SOL    HW2 7708   0.744   5.016   1.376
 1917SOL     OW 7709   0.672   5.340   0.154
 1917SOL    HW1 7710   0.681   5.350   0.055
 1917SOL    HW2 7711   0.632   5.251   0.175
 1918SOL     OW 7712   1.650   5.444   1.394
 1918SOL    HW1 7713   1.703   5.454   1.310
 1918SOL    HW2 7714   1.623   5.534   1.428
 1919SOL     OW 7715   1.841   3.899   0.963
 1919SOL    HW1 7716   1.880   3.814   0.927
 1919SOL    HW2 7717   1.743   3.901   0.944
 1920SOL     OW 7718   0.263   4.050   0.720
 1920SOL    HW1 7719   0.184   4.101   0.686
 1920SOL    HW2 7720   0.254   4.035   0.818
 1921SOL     OW 7721   1.194   5.336   0.031
 1921SOL    HW1 7722   1.200   5.243   0.068
 1921SOL    HW2 7723   1.135   5.336  -0.049
 1922SOL     OW 7724   0.822   4.726   1.372
 1922SOL    HW1 7725   0.862   4.725   1.280
 1922SOL    HW2 7726   0.832   4.818   1.412
 1923SOL     OW 7727   0.916   4.634   0.291
 1923SOL    HW1 7728   0.979   4.672   0.223
 1923SOL    HW2 7729   0.956   4.551   0.330
 1924SOL     OW 7730   1.504   5.331   0.044
 1924SOL    HW1 7731   1.412   5.368   0.051
 1924SOL    HW2 7732   1.542   5.351  -0.046
 1925SOL     OW 7733   0.372   5.012   1.490
 1925SOL    HW1 7734   0.359   5.105   1.456
 1925SOL    HW2 7735   0.288   4.960   1.477
 1926SOL     OW 7736   1.614   5.016   1.289
 1926SOL    HW1 7737   1.674   5.019   1.369
 1926SOL    HW2 7738   1.539   5.080   1.302
 1927SOL     OW 7739   1.039   4.822   0.696
 1927SOL    HW1 7740   0.969   4.775   0.750
 1927SOL    HW2 7741   1.098   4.754   0.653
 1928SOL     OW 7742   1.014   3.960   0.971
 1928SOL    HW1 7743   1.006   3.924   0.878
 1928SOL    HW2 7744   1.012   3.884   1.036
 1929SOL     OW 7745   0.590   5.211   0.491
 1929SOL    HW1 7746   0.632   5.153   0.421
 1929SOL    HW2 7747   0.546   5.290   0.447
 1930SOL     OW 7748   1.709   4.109   1.381
 1930SOL    HW1 7749   1.782   4.178   1.385
 1930SOL    HW2 7750   1.737   4.034   1.322
 1931SOL     OW 7751   0.255   5.072   0.290
 1931SOL    HW1 7752   0.159   5.073   0.263
 1931SOL    HW2 7753   0.267   5.125   0.374
 1932SOL     OW 7754   0.672   3.927   1.489
 1932SOL    HW1 7755   0.762   3.911   1.449
 1932SOL    HW2 7756   0.680   3.932   1.588
 1933SOL     OW 7757   1.440   4.580   1.398
 1933SOL    HW1 7758   1.383   4.632   1.335
 1933SOL    HW2 7759   1.536   4.592   1.374
 1934SOL     OW 7760   1.183   5.059   0.119
 1934SOL    HW1 7761   1.084   5.048   0.121
 1934SOL    HW2 7762   1.217   5.074   0.212
 1935SOL     OW 7763   0.613   4.566   1.431
 1935SOL    HW1 7764   0.669   4.647   1.414
 1935SOL    HW2 7765   0.672   4.486   1.434
 1936SOL     OW 7766   1.493   5.491   0.959
 1936SOL    HW1 7767   1.526   5.555   0.890
 1936SOL    HW2 7768   1.559   5.485   1.034
 1937SOL     OW 7769   0.716   4.289   1.708
 1937SOL    HW1 7770   0.735   4.354   1.782
 1937SOL    HW2 7771   0.776   4.209   1.717
 1938SOL     OW 7772   1.450   4.944   1.633
 1938SOL    HW1 7773   1.441   4.934   1.732
 1938SOL    HW2 7774   1.546   4.937   1.607
 1939SOL     OW 7775   0.390   5.465   1.560
 1939SOL    HW1 7776   0.299   5.506   1.558
 1939SOL    HW2 7777   0.383   5.371   1.592
 1940SOL     OW 7778   1.674   4.607   1.254
 1940SOL    HW1 7779   1.647   4.518   1.217
 1940SOL    HW2 7780   1.675   4.675   1.181
 1941SOL     OW 7781   1.225   4.049   0.449
 1941SOL    HW1 7782   1.290   3.975   0.438
 1941SOL    HW2 7783   1.245   4.099   0.533
 1942SOL     OW 7784   0.594   4.469   0.652
 1942SOL    HW1 7785   0.644   4.554   0.633
 1942SOL    HW2 7786   0.506   4.471   0.604
 1943SOL     OW 7787   1.777   4.066   1.642
 1943SOL    HW1 7788   1.760   4.097   1.548
 1943SOL    HW2 7789   1.693   4.029   1.680
 1944SOL     OW 7790   1.730   4.658   1.517
 1944SOL    HW1 7791   1.768   4.749   1.532
 1944SOL    HW2 7792   1.722   4.641   1.418
 1945SOL     OW 7793   0.859   5.098   0.016
 1945SOL    HW1 7794   0.813   5.113   0.104
 1945SOL    HW2 7795   0.903   5.183  -0.014
 1946SOL     OW 7796   0.661   5.514   0.953
 1946SOL    HW1 7797   0.615   5.602   0.940
 1946SOL    HW2 7798   0.760   5.526   0.946
 1947SOL     OW 7799   1.408   5.575   1.720
 1947SOL    HW1 7800   1.312   5.564   1.693
 1947SOL    HW2 7801   1.464   5.508   1.672
 1948SOL     OW 7802   0.859   4.680   0.861
 1948SOL    HW1 7803   0.913   4.611   0.909
 1948SOL    HW2 7804   0.827   4.749   0.927
 1949SOL     OW 7805   1.083   4.708   0.087
 1949SOL    HW1 7806   1.060   4.761   0.005
 1949SOL    HW2 7807   1.164   4.652   0.068
 1950SOL     OW 7808   1.861   5.293   0.851
 1950SOL    HW1 7809   1.790   5.281   0.781
 1950SOL    HW2 7810   1.862   5.214   0.911
 1951SOL     OW 7811   0.672   5.115   1.624
 1951SOL    HW1 7812   0.594   5.065   1.662
 1951SOL    HW2 7813   0.669   5.210   1.655
 1952SOL     OW 7814   1.824   3.916   1.227
 1952SOL    HW1 7815   1.820   3.826   1.271
 1952SOL    HW2 7816   1.827   3.905   1.128
 1953SOL     OW 7817   0.428   4.148   0.520
 1953SOL    HW1 7818   0.458   4.076   0.458
 1953SOL    HW2 7819   0.389   4.108   0.603
 1954SOL     OW 7820   1.705   5.211   1.104
 1954SOL    HW1 7821   1.612   5.186   1.077
 1954SOL    HW2 7822   1.731   5.161   1.186
 1955SOL     OW 7823   0.812   5.310   0.687
 1955SOL    HW1 7824   0.844   5.320   0.593
 1955SOL    HW2 7825   0.733   5.248   0.689
 1956SOL     OW 7826   1.424   3.938   1.112
 1956SOL    HW1 7827   1.476   3.873   1.167
 1956SOL    HW2 7828   1.375   4.001   1.173
 1957SOL     OW 7829   1.001   3.758   1.154
 1957SOL    HW1 7830   0.938   3.686   1.123
 1957SOL    HW2 7831   1.094   3.722   1.154
 1958SOL     OW 7832   0.770   5.054   0.301
 1958SOL    HW1 7833   0.724   4.967   0.318
 1958SOL    HW2 7834   0.861   5.051   0.342
 1959SOL     OW 7835   0.618   5.291   1.284
 1959SOL    HW1 7836   0.613   5.373   1.341
 1959SOL    HW2 7837   0.707   5.288   1.239
 1960SOL     OW 7838   1.300   4.177   0.691
 1960SOL    HW1 7839   1.241   4.257   0.695
 1960SOL    HW2 7840   1.315   4.142   0.784
 1961SOL     OW 7841   1.593   3.945   0.882
 1961SOL    HW1 7842   1.509   3.944   0.936
 1961SOL    HW2 7843   1.595   4.028   0.826
 1962SOL     OW 7844   0.875   5.370   0.337
 1962SOL    HW1 7845   0.798   5.335   0.283
 1962SOL    HW2 7846   0.843   5.441   0.399
 1963SOL     OW 7847   0.019   4.092   2.509
 1963SOL    HW1 7848  -0.063   4.135   2.548
 1963SOL    HW2 7849  -0.009   4.019   2.446
 1964SOL     OW 7850   0.569   4.999   3.027
 1964SOL    HW1 7851   0.476   4.992   2.990
 1964SOL    HW2 7852   0.580   5.088   3.071
 1965SOL     OW 7853   1.555   5.235   2.565
 1965SOL    HW1 7854   1.498   5.219   2.646
 1965SOL    HW2 7855   1.496   5.245   2.485
 1966SOL     OW 7856   1.743   4.342   2.718
 1966SOL    HW1 7857   1.776   4.436   2.718
 1966SOL    HW2 7858   1.794   4.288   2.784
 1967SOL     OW 7859   1.135   4.427   2.579
 1967SOL    HW1 7860   1.192   4.505   2.554
 1967SOL    HW2 7861   1.075   4.453   2.655
 1968SOL     OW 7862   1.755   4.331   2.093
 1968SOL    HW1 7863   1.743   4.318   1.994
 1968SOL    HW2 7864   1.725   4.250   2.142
 1969SOL     OW 7865   0.768   4.868   2.885
 1969SOL    HW1 7866   0.690   4.885   2.945
 1969SOL    HW2 7867   0.802   4.955   2.849
 1970SOL     OW 7868   0.850   4.522   3.685
 1970SOL    HW1 7869   0.846   4.598   3.750
 1970SOL    HW2 7870   0.872   4.558   3.594
 1971SOL     OW 7871   0.685   4.736   2.527
 1971SOL    HW1 7872   0.754   4.720   2.597
 1971SOL    HW2 7873   0.612   4.793   2.565
 1972SOL     OW 7874   0.686   4.885   3.665
 1972SOL    HW1 7875   0.746   4.964   3.679
 1972SOL    HW2 7876   0.600   4.916   3.624
 1973SOL     OW 7877   0.335   5.159   2.923
 1973SOL    HW1 7878   0.257   5.128   2.870
 1973SOL    HW2 7879   0.393   5.217   2.866
 1974SOL     OW 7880   1.460   5.229   3.201
 1974SOL    HW1 7881   1.484   5.323   3.227
 1974SOL    HW2 7882   1.444   5.175   3.283
 1975SOL     OW 7883   0.438   4.116   3.361
 1975SOL    HW1 7884   0.520   4.060   3.370
 1975SOL    HW2 7885   0.357   4.058   3.365
 1976SOL     OW 7886   1.603   4.171   2.599
 1976SOL    HW1 7887   1.529   4.217   2.549
 1976SOL    HW2 7888   1.654   4.239   2.652
 1977SOL     OW 7889   1.127   5.065   3.552
 1977SOL    HW1 7890   1.174   5.065   3.640
 1977SOL    HW2 7891   1.079   4.978   3.541
 1978SOL     OW 7892   0.620   5.510   3.301
 1978SOL    HW1 7893   0.528   5.493   3.336
 1978SOL    HW2 7894   0.648   5.602   3.327
 1979SOL     OW 7895   0.606   4.688   1.985
 1979SOL    HW1 7896   0.613   4.772   1.931
 1979SOL    HW2 7897   0.652   4.701   2.073
 1980SOL     OW 7898   1.594   3.838   3.342
 1980SOL    HW1 7899   1.576   3.905   3.270
 1980SOL    HW2 7900   1.591   3.884   3.431
 1981SOL     OW 7901   1.842   5.491   2.221
 1981SOL    HW1 7902   1.896   5.462   2.301
 1981SOL    HW2 7903   1.872   5.581   2.192
 1982SOL     OW 7904   1.689   4.646   2.474
 1982SOL    HW1 7905   1.784   4.617   2.482
 1982SOL    HW2 7906   1.681   4.711   2.399
 1983SOL     OW 7907   1.641   4.832   2.294
 1983SOL    HW1 7908   1.727   4.834   2.242
 1983SOL    HW2 7909   1.655   4.879   2.382
 1984SOL     OW 7910   0.613   5.089   2.588
 1984SOL    HW1 7911   0.564   5.002   2.597
 1984SOL    HW2 7912   0.590   5.132   2.501
 1985SOL     OW 7913   1.293   4.952   3.285
 1985SOL    HW1 7914   1.330   4.879   3.227
 1985SOL    HW2 7915   1.345   4.957   3.370
 1986SOL     OW 7916   0.809   3.728   2.364
 1986SOL    HW1 7917   0.849   3.819   2.355
 1986SOL    HW2 7918   0.709   3.736   2.370
 1987SOL     OW 7919   1.525   4.723   2.052
 1987SOL    HW1 7920   1.462   4.647   2.065
 1987SOL    HW2 7921   1.573   4.741   2.138
 1988SOL     OW 7922   1.187   5.516   3.478
 1988SOL    HW1 7923   1.211   5.576   3.402
 1988SOL    HW2 7924   1.194   5.421   3.448
 1989SOL     OW 7925   0.317   3.975   3.663
 1989SOL    HW1 7926   0.388   4.046   3.669
 1989SOL    HW2 7927   0.229   4.014   3.691
 1990SOL     OW 7928   1.466   5.141   2.815
 1990SOL    HW1 7929   1.407   5.147   2.895
 1990SOL    HW2 7930   1.451   5.053   2.769
 1991SOL     OW 7931   1.667   5.438   2.434
 1991SOL    HW1 7932   1.626   5.415   2.346
 1991SOL    HW2 7933   1.649   5.364   2.499
 1992SOL     OW 7934   0.598   4.453   2.132
 1992SOL    HW1 7935   0.622   4.522   2.064
 1992SOL    HW2 7936   0.520   4.486   2.186
 1993SOL     OW 7937   1.281   4.069   2.806
 1993SOL    HW1 7938   1.195   4.019   2.793
 1993SOL    HW2 7939   1.343   4.015   2.862
 1994SOL     OW 7940   0.807   4.329   3.327
 1994SOL    HW1 7941   0.760   4.326   3.416
 1994SOL    HW2 7942   0.756   4.274   3.261
 1995SOL     OW 7943   1.394   4.193   3.536
 1995SOL    HW1 7944   1.374   4.236   3.624
 1995SOL    HW2 7945   1.472   4.131   3.545
 1996SOL     OW 7946   0.973   4.614   3.434
 1996SOL    HW1 7947   1.019   4.530   3.405
 1996SOL    HW2 7948   0.917   4.648   3.359
 1997SOL     OW 7949   0.991   4.134   3.104
 1997SOL    HW1 7950   0.914   4.168   3.158
 1997SOL    HW2 7951   0.957   4.083   3.025
 1998SOL     OW 7952   1.041   4.425   2.291
 1998SOL    HW1 7953   1.067   4.421   2.387
 1998SOL    HW2 7954   0.956   4.374   2.277
 1999SOL     OW 7955   0.865   4.072   2.057
 1999SOL    HW1 7956   0.924   4.135   2.008
 1999SOL    HW2 7957   0.884   3.978   2.028
 2000SOL     OW 7958   1.719   4.309   3.693
 2000SOL    HW1 7959   1.693   4.398   3.657
 2000SOL    HW2 7960   1.717   4.241   3.620
 2001SOL     OW 7961   1.362   4.868   2.407
 2001SOL    HW1 7962   1.445   4.839   2.359
 2001SOL    HW2 7963   1.313   4.935   2.351
 2002SOL     OW 7964   0.550   3.920   2.747
 2002SOL    HW1 7965   0.545   3.915   2.847
 2002SOL    HW2 7966   0.552   4.016   2.718
 2003SOL     OW 7967   1.008   5.180   2.339
 2003SOL    HW1 7968   0.962   5.252   2.287
 2003SOL    HW2 7969   1.004   5.200   2.437
 2004SOL     OW 7970   0.351   5.525   2.715
 2004SOL    HW1 7971   0.401   5.439   2.721
 2004SOL    HW2 7972   0.416   5.602   2.712
 2005SOL     OW 7973   1.795   4.790   2.735
 2005SOL    HW1 7974   1.733   4.775   2.659
 2005SOL    HW2 7975   1.743   4.801   2.820
 2006SOL     OW 7976   1.227   5.274   3.368
 2006SOL    HW1 7977   1.233   5.197   3.432
 2006SOL    HW2 7978   1.175   5.248   3.288
 2007SOL     OW 7979   0.321   4.667   2.104
 2007SOL    HW1 7980   0.403   4.706   2.062
 2007SOL    HW2 7981   0.294   4.585   2.055
 2008SOL     OW 7982   1.458   4.459   2.590
 2008SOL    HW1 7983   1.453   4.394   2.665
 2008SOL    HW2 7984   1.538   4.518   2.603
 2009SOL     OW 7985   0.461   4.990   3.589
 2009SOL    HW1 7986   0.411   4.991   3.503
 2009SOL    HW2 7987   0.398   4.972   3.665
 2010SOL     OW 7988   1.632   5.101   1.943
 2010SOL    HW1 7989   1.600   5.195   1.933
 2010SOL    HW2 7990   1.556   5.038   1.931
 2011SOL     OW 7991   0.464   5.467   2.185
 2011SOL    HW1 7992   0.497   5.506   2.271
 2011SOL    HW2 7993   0.540   5.460   2.120
 2012SOL     OW 7994   1.400   3.831   2.288
 2012SOL    HW1 7995   1.376   3.794   2.198
 2012SOL    HW2 7996   1.499   3.847   2.292
 2013SOL     OW 7997   0.940   5.422   2.766
 2013SOL    HW1 7998   1.020   5.365   2.787
 2013SOL    HW2 7999   0.891   5.382   2.689
 2014SOL     OW 8000   0.382   4.424   2.342
 2014SOL    HW1 8001   0.427   4.334   2.339
 2014SOL    HW2 8002   0.288   4.413   2.375
 2015SOL     OW 8003   1.547   3.946   3.591
 2015SOL    HW1 8004   1.542   3.983   3.683
 2015SOL    HW2 8005   1.475   3.877   3.579
 2016SOL     OW 8006   0.614   3.846   1.979
 2016SOL    HW1 8007   0.712   3.824   1.986
 2016SOL    HW2 8008   0.583   3.829   1.886
 2017SOL     OW 8009   0.781   3.988   3.611
 2017SOL    HW1 8010   0.848   3.927   3.654
 2017SOL    HW2 8011   0.708   4.007   3.676
 2018SOL     OW 8012   0.888   5.238   3.057
 2018SOL    HW1 8013   0.865   5.213   2.963
 2018SOL    HW2 8014   0.949   5.169   3.096
 2019SOL     OW 8015   1.351   4.314   3.295
 2019SOL    HW1 8016   1.379   4.271   3.380
 2019SOL    HW2 8017   1.376   4.410   3.296
 2020SOL     OW 8018   0.803   5.126   2.786
 2020SOL    HW1 8019   0.893   5.140   2.744
 2020SOL    HW2 8020   0.732   5.128   2.715
 2021SOL     OW 8021   0.922   4.227   2.761
 2021SOL    HW1 8022   0.897   4.218   2.665
 2021SOL    HW2 8023   0.970   4.145   2.792
 2022SOL     OW 8024   0.539   3.788   2.374
 2022SOL    HW1 8025   0.458   3.789   2.432
 2022SOL    HW2 8026   0.542   3.871   2.319
 2023SOL     OW 8027   1.434   4.912   1.903
 2023SOL    HW1 8028   1.466   4.836   1.960
 2023SOL    HW2 8029   1.342   4.939   1.933
 2024SOL     OW 8030   0.297   3.759   2.033
 2024SOL    HW1 8031   0.346   3.843   2.012
 2024SOL    HW2 8032   0.359   3.694   2.078
 2025SOL     OW 8033   0.935   3.960   2.342
 2025SOL    HW1 8034   0.887   4.001   2.264
 2025SOL    HW2 8035   1.034   3.958   2.323
 2026SOL     OW 8036   1.076   4.407   3.326
 2026SOL    HW1 8037   0.996   4.346   3.329
 2026SOL    HW2 8038   1.157   4.354   3.302
 2027SOL     OW 8039   1.227   5.294   2.655
 2027SOL    HW1 8040   1.248   5.368   2.590
 2027SOL    HW2 8041   1.295   5.294   2.728
 2028SOL     OW 8042   0.459   4.876   2.603
 2028SOL    HW1 8043   0.388   4.849   2.668
 2028SOL    HW2 8044   0.433   4.848   2.510
 2029SOL     OW 8045   1.271   5.521   2.453
 2029SOL    HW1 8046   1.315   5.585   2.389
 2029SOL    HW2 8047   1.221   5.573   2.523
 2030SOL     OW 8048   1.032   4.273   1.878
 2030SOL    HW1 8049   0.991   4.355   1.839
 2030SOL    HW2 8050   1.096   4.299   1.951
 2031SOL     OW 8051   0.561   3.946   3.009
 2031SOL    HW1 8052   0.599   3.862   3.046
 2031SOL    HW2 8053   0.473   3.965   3.053
 2032SOL     OW 8054   0.866   4.178   2.504
 2032SOL    HW1 8055   0.834   4.250   2.442
 2032SOL    HW2 8056   0.890   4.097   2.451
 2033SOL     OW 8057   1.017   3.763   2.615
 2033SOL    HW1 8058   0.945   3.768   2.546
 2033SOL    HW2 8059   0.993   3.694   2.684
 2034SOL     OW 8060   1.429   4.897   2.729
 2034SOL    HW1 8061   1.374   4.813   2.722
 2034SOL    HW2 8062   1.455   4.926   2.637
 2035SOL     OW 8063   1.466   4.314   2.854
 2035SOL    HW1 8064   1.436   4.219   2.861
 2035SOL    HW2 8065   1.539   4.330   2.920
 2036SOL     OW 8066   1.857   4.557   2.239
 2036SOL    HW1 8067   1.899   4.493   2.303
 2036SOL    HW2 8068   1.819   4.506   2.161
 2037SOL     OW 8069   0.488   5.109   2.036
 2037SOL    HW1 8070   0.401   5.094   2.083
 2037SOL    HW2 8071   0.471   5.135   1.941
 2038SOL     OW 8072   1.664   5.004   2.519
 2038SOL    HW1 8073   1.763   5.012   2.533
 2038SOL    HW2 8074   1.619   5.088   2.550
 2039SOL     OW 8075   1.390   4.299   1.940
 2039SOL    HW1 8076   1.336   4.278   2.021
 2039SOL    HW2 8077   1.481   4.258   1.949
 2040SOL     OW 8078   0.527   3.980   2.190
 2040SOL    HW1 8079   0.554   3.921   2.115
 2040SOL    HW2 8080   0.527   4.075   2.159
 2041SOL     OW 8081   1.754   4.947   3.450
 2041SOL    HW1 8082   1.845   4.908   3.437
 2041SOL    HW2 8083   1.762   5.043   3.474
 2042SOL     OW 8084   1.064   5.071   3.202
 2042SOL    HW1 8085   0.984   5.048   3.257
 2042SOL    HW2 8086   1.147   5.045   3.251
 2043SOL     OW 8087   1.592   5.353   3.487
 2043SOL    HW1 8088   1.619   5.387   3.397
 2043SOL    HW2 8089   1.671   5.315   3.533
 2044SOL     OW 8090   1.111   4.919   2.962
 2044SOL    HW1 8091   1.071   4.963   3.043
 2044SOL    HW2 8092   1.070   4.956   2.879
 2045SOL     OW 8093   1.638   4.823   2.941
 2045SOL    HW1 8094   1.643   4.904   3.000
 2045SOL    HW2 8095   1.552   4.825   2.890
 2046SOL     OW 8096   0.915   3.813   3.264
 2046SOL    HW1 8097   0.940   3.793   3.169
 2046SOL    HW2 8098   0.987   3.869   3.306
 2047SOL     OW 8099   0.980   4.840   3.581
 2047SOL    HW1 8100   0.881   4.846   3.591
 2047SOL    HW2 8101   1.003   4.760   3.525
 2048SOL     OW 8102   0.705   4.774   2.230
 2048SOL    HW1 8103   0.691   4.781   2.329
 2048SOL    HW2 8104   0.789   4.723   2.212
 2049SOL     OW 8105   0.410   4.537   3.113
 2049SOL    HW1 8106   0.496   4.549   3.163
 2049SOL    HW2 8107   0.368   4.450   3.140
 2050SOL     OW 8108   1.274   4.110   3.124
 2050SOL    HW1 8109   1.295   4.184   3.188
 2050SOL    HW2 8110   1.185   4.127   3.081
 2051SOL     OW 8111   0.367   4.824   2.363
 2051SOL    HW1 8112   0.360   4.907   2.307
 2051SOL    HW2 8113   0.371   4.744   2.303
 2052SOL     OW 8114   0.566   4.261   2.727
 2052SOL    HW1 8115   0.578   4.327   2.653
 2052SOL    HW2 8116   0.612   4.295   2.810
 2053SOL     OW 8117   1.252   5.072   2.250
 2053SOL    HW1 8118   1.302   5.149   2.290
 2053SOL    HW2 8119   1.157   5.074   2.282
 2054SOL     OW 8120   1.272   5.169   3.004
 2054SOL    HW1 8121   1.319   5.182   3.091
 2054SOL    HW2 8122   1.206   5.095   3.013
 2055SOL     OW 8123   1.582   4.363   2.334
 2055SOL    HW1 8124   1.551   4.424   2.407
 2055SOL    HW2 8125   1.632   4.415   2.265
 2056SOL     OW 8126   0.354   5.234   3.191
 2056SOL    HW1 8127   0.333   5.190   3.104
 2056SOL    HW2 8128   0.451   5.260   3.194
 2057SOL     OW 8129   0.402   4.475   3.460
 2057SOL    HW1 8130   0.470   4.530   3.413
 2057SOL    HW2 8131   0.442   4.387   3.487
 2058SOL     OW 8132   1.587   4.503   3.532
 2058SOL    HW1 8133   1.495   4.541   3.527
 2058SOL    HW2 8134   1.647   4.550   3.467
 2059SOL     OW 8135   1.013   3.829   3.632
 2059SOL    HW1 8136   1.019   3.914   3.580
 2059SOL    HW2 8137   1.045   3.753   3.575
 2060SOL     OW 8138   0.504   3.774   3.602
 2060SOL    HW1 8139   0.462   3.717   3.532
 2060SOL    HW2 8140   0.438   3.843   3.634
 2061SOL     OW 8141   0.573   4.594   2.891
 2061SOL    HW1 8142   0.617   4.683   2.882
 2061SOL    HW2 8143   0.510   4.594   2.968
 2062SOL     OW 8144   1.360   4.586   2.907
 2062SOL    HW1 8145   1.285   4.586   2.841
 2062SOL    HW2 8146   1.397   4.494   2.916
 2063SOL     OW 8147   1.209   4.249   2.137
 2063SOL    HW1 8148   1.222   4.165   2.191
 2063SOL    HW2 8149   1.180   4.323   2.197
 2064SOL     OW 8150   0.732   4.358   2.926
 2064SOL    HW1 8151   0.791   4.332   2.850
 2064SOL    HW2 8152   0.704   4.454   2.915
 2065SOL     OW 8153   1.728   4.659   3.716
 2065SOL    HW1 8154   1.682   4.652   3.627
 2065SOL    HW2 8155   1.666   4.703   3.782
 2066SOL     OW 8156   0.307   3.787   2.480
 2066SOL    HW1 8157   0.296   3.881   2.513
 2066SOL    HW2 8158   0.302   3.724   2.557
 2067SOL     OW 8159   1.622   4.091   2.236
 2067SOL    HW1 8160   1.624   4.015   2.300
 2067SOL    HW2 8161   1.574   4.168   2.276
 2068SOL     OW 8162   1.023   4.490   2.828
 2068SOL    HW1 8163   1.038   4.511   2.924
 2068SOL    HW2 8164   0.993   4.395   2.819
 2069SOL     OW 8165   0.980   5.297   3.562
 2069SOL    HW1 8166   0.960   5.341   3.474
 2069SOL    HW2 8167   1.019   5.206   3.546
 2070SOL     OW 8168   1.859   5.242   3.467
 2070SOL    HW1 8169   1.873   5.269   3.372
 2070SOL    HW2 8170   1.942   5.264   3.520
 2071SOL     OW 8171   0.350   4.622   3.666
 2071SOL    HW1 8172   0.426   4.666   3.714
 2071SOL    HW2 8173   0.385   4.575   3.584
 2072SOL     OW 8174   1.540   3.998   1.987
 2072SOL    HW1 8175   1.479   3.923   2.010
 2072SOL    HW2 8176   1.562   4.050   2.070
 2073SOL     OW 8177   1.303   4.562   1.904
 2073SOL    HW1 8178   1.337   4.469   1.919
 2073SOL    HW2 8179   1.321   4.589   1.809
 2074SOL     OW 8180   1.068   5.057   2.711
 2074SOL    HW1 8181   1.075   4.973   2.656
 2074SOL    HW2 8182   1.130   5.126   2.675
 2075SOL     OW 8183   0.319   4.534   2.811
 2075SOL    HW1 8184   0.412   4.570   2.816
 2075SOL    HW2 8185   0.313   4.449   2.863
 2076SOL     OW 8186   1.138   4.104   3.540
 2076SOL    HW1 8187   1.093   4.167   3.604
 2076SOL    HW2 8188   1.231   4.135   3.523
 2077SOL     OW 8189   1.160   3.931   3.339
 2077SOL    HW1 8190   1.160   3.995   3.416
 2077SOL    HW2 8191   1.188   3.979   3.256
 2078SOL     OW 8192   0.504   5.292   2.772
 2078SOL    HW1 8193   0.570   5.366   2.781
 2078SOL    HW2 8194   0.548   5.213   2.730
 2079SOL     OW 8195   1.002   4.520   3.100
 2079SOL    HW1 8196   1.043   4.488   3.186
 2079SOL    HW2 8197   0.906   4.493   3.097
 2080SOL     OW 8198   1.369   4.674   3.522
 2080SOL    HW1 8199   1.408   4.763   3.542
 2080SOL    HW2 8200   1.379   4.654   3.425
 2081SOL     OW 8201   0.815   4.296   2.187
 2081SOL    HW1 8202   0.822   4.207   2.141
 2081SOL    HW2 8203   0.721   4.330   2.179
 2082SOL     OW 8204   1.657   4.328   3.068
 2082SOL    HW1 8205   1.619   4.259   3.130
 2082SOL    HW2 8206   1.739   4.292   3.024
 2083SOL     OW 8207   0.671   4.188   3.131
 2083SOL    HW1 8208   0.637   4.099   3.101
 2083SOL    HW2 8209   0.697   4.242   3.051
 2084SOL     OW 8210   0.930   5.402   3.327
 2084SOL    HW1 8211   0.906   5.384   3.232
 2084SOL    HW2 8212   0.960   5.496   3.337
 2085SOL     OW 8213   0.473   4.224   2.053
 2085SOL    HW1 8214   0.534   4.304   2.057
 2085SOL    HW2 8215   0.378   4.255   2.060
 2086SOL     OW 8216   1.347   4.783   3.096
 2086SOL    HW1 8217   1.371   4.720   3.022
 2086SOL    HW2 8218   1.257   4.823   3.078
 2087SOL     OW 8219   1.302   4.579   2.171
 2087SOL    HW1 8220   1.216   4.548   2.213
 2087SOL    HW2 8221   1.298   4.565   2.072
 2088SOL     OW 8222   1.759   5.471   3.016
 2088SOL    HW1 8223   1.820   5.501   2.943
 2088SOL    HW2 8224   1.721   5.382   2.994
 2089SOL     OW 8225   1.252   5.455   2.990
 2089SOL    HW1 8226   1.336   5.460   2.936
 2089SOL    HW2 8227   1.229   5.359   3.008
 2090SOL     OW 8228   0.688   5.386   3.578
 2090SOL    HW1 8229   0.632   5.467   3.587
 2090SOL    HW2 8230   0.740   5.390   3.492
 2091SOL     OW 8231   0.903   3.810   1.995
 2091SOL    HW1 8232   0.954   3.811   1.909
 2091SOL    HW2 8233   0.959   3.768   2.066
 2092SOL     OW 8234   1.726   3.859   2.385
 2092SOL    HW1 8235   1.799   3.842   2.318
 2092SOL    HW2 8236   1.695   3.772   2.423
 2093SOL     OW 8237   1.388   5.297   2.339
 2093SOL    HW1 8238   1.455   5.309   2.265
 2093SOL    HW2 8239   1.348   5.386   2.362
 2094SOL     OW 8240   0.130   5.518   3.713
 2094SOL    HW1 8241   0.089   5.444   3.766
 2094SOL    HW2 8242   0.194   5.569   3.771
 2095SOL     OW 8243   1.280   4.651   2.534
 2095SOL    HW1 8244   1.340   4.570   2.536
 2095SOL    HW2 8245   1.320   4.720   2.474
 2096SOL     OW 8246   0.830   4.997   3.284
 2096SOL    HW1 8247   0.825   5.030   3.379
 2096SOL    HW2 8248   0.744   5.016   3.238
 2097SOL     OW 8249   0.672   5.340   2.016
 2097SOL    HW1 8250   0.681   5.350   1.917
 2097SOL    HW2 8251   0.632   5.251   2.037
 2098SOL     OW 8252   1.650   5.444   3.256
 2098SOL    HW1 8253   1.703   5.454   3.172
 2098SOL    HW2 8254   1.623   5.534   3.290
 2099SOL     OW 8255   1.841   3.899   2.825
 2099SOL    HW1 8256   1.880   3.814   2.789
 2099SOL    HW2 8257   1.743   3.901   2.806
 2100SOL     OW 8258   0.263   4.050   2.582
 2100SOL    HW1 8259   0.184   4.101   2.548
 2100SOL    HW2 8260   0.254   4.035   2.680
 2101SOL     OW 8261   0.822   4.726   3.234
 2101SOL    HW1 8262   0.862   4.725   3.142
 2101SOL    HW2 8263   0.832   4.818   3.274
 2102SOL     OW 8264   0.916   4.634   2.153
 2102SOL    HW1 8265   0.979   4.672   2.085
 2102SOL    HW2 8266   0.956   4.551   2.192
 2103SOL     OW 8267   1.504   5.331   1.906
 2103SOL    HW1 8268   1.412   5.368   1.913
 2103SOL    HW2 8269   1.542   5.351   1.816
 2104SOL     OW 8270   0.372   5.012   3.352
 2104SOL    HW1 8271   0.359   5.105   3.318
 2104SOL    HW2 8272   0.288   4.960   3.339
 2105SOL     OW 8273   1.614   5.016   3.151
 2105SOL    HW1 8274   1.674   5.019   3.231
 2105SOL    HW2 8275   1.539   5.080   3.164
 2106SOL     OW 8276   1.039   4.822   2.558
 2106SOL    HW1 8277   0.969   4.775   2.612
 2106SOL    HW2 8278   1.098   4.754   2.515
 2107SOL     OW 8279   1.014   3.960   2.833
 2107SOL    HW1 8280   1.006   3.924   2.740
 2107SOL    HW2 8281   1.012   3.884   2.898
 2108SOL     OW 8282   0.590   5.211   2.353
 2108SOL    HW1 8283   0.632   5.153   2.283
 2108SOL    HW2 8284   0.546   5.290   2.309
 2109SOL     OW 8285   1.709   4.109   3.243
 2109SOL    HW1 8286   1.782   4.178   3.247
 2109SOL    HW2 8287   1.737   4.034   3.184
 2110SOL     OW 8288   0.255   5.072   2.152
 2110SOL    HW1 8289   0.159   5.073   2.125
 2110SOL    HW2 8290   0.267   5.125   2.236
 2111SOL     OW 8291   0.672   3.927   3.351
 2111SOL    HW1 8292   0.762   3.911   3.311
 2111SOL    HW2 8293   0.680   3.932   3.450
 2112SOL     OW 8294   1.440   4.580   3.260
 2112SOL    HW1 8295   1.383   4.632   3.197
 2112SOL    HW2 8296   1.536   4.592   3.236
 2113SOL     OW 8297   0.613   4.566   3.293
 2113SOL    HW1 8298   0.669   4.647   3.276
 2113SOL    HW2 8299   0.672   4.486   3.296
 2114SOL     OW 8300   1.493   5.491   2.821
 2114SOL    HW1 8301   1.526   5.555   2.752
 2114SOL    HW2 8302   1.559   5.485   2.896
 2115SOL     OW 8303   0.716   4.289   3.570
 2115SOL    HW1 8304   0.735   4.354   3.644
 2115SOL    HW2 8305   0.776   4.209   3.579
 2116SOL     OW 8306   1.450   4.944   3.495
 2116SOL    HW1 8307   1.441   4.934   3.594
 2116SOL    HW2 8308   1.546   4.937   3.469
 2117SOL     OW 8309   0.390   5.465   3.422
 2117SOL    HW1 8310   0.299   5.506   3.420
 2117SOL    HW2 8311   0.383   5.371   3.454
 2118SOL     OW 8312   1.674   4.607   3.116
 2118SOL    HW1 8313   1.647   4.518   3.079
 2118SOL    HW2 8314   1.675   4.675   3.043
 2119SOL     OW 8315   1.225   4.049   2.311
 2119SOL    HW1 8316   1.290   3.975   2.300
 2119SOL    HW2 8317   1.245   4.099   2.395
 2120SOL     OW 8318   0.594   4.469   2.514
 2120SOL    HW1 8319   0.644   4.554   2.495
 2120SOL    HW2 8320   0.506   4.471   2.466
 2121SOL     OW 8321   1.777   4.066   3.504
 2121SOL    HW1 8322   1.760   4.097   3.410
 2121SOL    HW2 8323   1.693   4.029   3.542
 2122SOL     OW 8324   1.730   4.658   3.379
 2122SOL    HW1 8325   1.768   4.749   3.394
 2122SOL    HW2 8326   1.722   4.641   3.280
 2123SOL     OW 8327   0.859   5.098   1.878
 2123SOL    HW1 8328   0.813   5.113   1.966
 2123SOL    HW2 8329   0.903   5.183   1.848
 2124SOL     OW 8330   0.661   5.514   2.815
 2124SOL    HW1 8331   0.615   5.602   2.802
 2124SOL    HW2 8332   0.760   5.526   2.808
 2125SOL     OW 8333   1.408   5.575   3.582
 2125SOL    HW1 8334   1.312   5.564   3.555
 2125SOL    HW2 8335   1.464   5.508   3.534
 2126SOL     OW 8336   0.859   4.680   2.723
 2126SOL    HW1 8337   0.913   4.611   2.771
 2126SOL    HW2 8338   0.827   4.749   2.789
 2127SOL     OW 8339   1.083   4.708   1.949
 2127SOL    HW1 8340   1.060   4.761   1.867
 2127SOL    HW2 8341   1.164   4.652   1.930
 2128SOL     OW 8342   1.861   5.293   2.713
 2128SOL    HW1 8343   1.790   5.281   2.643
 2128SOL    HW2 8344   1.862   5.214   2.773
 2129SOL     OW 8345   0.672   5.115   3.486
 2129SOL    HW1 8346   0.594   5.065   3.524
 2129SOL    HW2 8347   0.669   5.210   3.517
 2130SOL     OW 8348   1.824   3.916   3.089
 2130SOL    HW1 8349   1.820   3.826   3.133
 2130SOL    HW2 8350   1.827   3.905   2.990
 2131SOL     OW 8351   0.428   4.148   2.382
 2131SOL    HW1 8352   0.458   4.076   2.320
 2131SOL    HW2 8353   0.389   4.108   2.465
 2132SOL     OW 8354   1.705   5.211   2.966
 2132SOL    HW1 8355   1.612   5.186   2.939
 2132SOL    HW2 8356   1.731   5.161   3.048
 2133SOL     OW 8357   0.812   5.310   2.549
 2133SOL    HW1 8358   0.844   5.320   2.455
 2133SOL    HW2 8359   0.733   5.248   2.551
 2134SOL     OW 8360   1.424   3.938   2.974
 2134SOL    HW1 8361   1.476   3.873   3.029
 2134SOL    HW2 8362   1.375   4.001   3.035
 2135SOL     OW 8363   1.001   3.758   3.016
 2135SOL    HW1 8364   0.938   3.686   2.985
 2135SOL    HW2 8365   1.094   3.722   3.016
 2136SOL     OW 8366   0.770   5.054   2.163
 2136SOL    HW1 8367   0.724   4.967   2.180
 2136SOL    HW2 8368   0.861   5.051   2.204
 2137SOL     OW 8369   0.618   5.291   3.146
 2137SOL    HW1 8370   0.613   5.373   3.203
 2137SOL    HW2 8371   0.707   5.288   3.101
 2138SOL     OW 8372   1.352   3.776   2.030
 2138SOL    HW1 8373   1.387   3.735   1.946
 2138SOL    HW2 8374   1.262   3.738   2.050
 2139SOL     OW 8375   1.300   4.177   2.553
 2139SOL    HW1 8376   1.241   4.257   2.557
 2139SOL    HW2 8377   1.315   4.142   2.646
 2140SOL     OW 8378   1.593   3.945   2.744
 2140SOL    HW1 8379   1.509   3.944   2.798
 2140SOL    HW2 8380   1.595   4.028   2.688
 2141SOL     OW 8381   0.875   5.370   2.199
 2141SOL    HW1 8382   0.798   5.335   2.145
 2141SOL    HW2 8383   0.843   5.441   2.261
 2142SOL     OW 8384   0.019   4.092   4.371
 2142SOL    HW1 8385  -0.063   4.135   4.410
 2142SOL    HW2 8386  -0.009   4.019   4.308
 2143SOL     OW 8387   0.569   4.999   4.889
 2143SOL    HW1 8388   0.476   4.992   4.852
 2143SOL    HW2 8389   0.580   5.088   4.933
 2144SOL     OW 8390   1.555   5.235   4.427
 2144SOL    HW1 8391   1.498   5.219   4.508
 2144SOL    HW2 8392   1.496   5.245   4.347
 2145SOL     OW 8393   1.743   4.342   4.580
 2145SOL    HW1 8394   1.776   4.436   4.580
 2145SOL    HW2 8395   1.794   4.288   4.646
 2146SOL     OW 8396   1.135   4.427   4.441
 2146SOL    HW1 8397   1.192   4.505   4.416
 2146SOL    HW2 8398   1.075   4.453   4.517
 2147SOL     OW 8399   1.755   4.331   3.955
 2147SOL    HW1 8400   1.743   4.318   3.856
 2147SOL    HW2 8401   1.725   4.250   4.004
 2148SOL     OW 8402   0.768   4.868   4.747
 2148SOL    HW1 8403   0.690   4.885   4.807
 2148SOL    HW2 8404   0.802   4.955   4.711
 2149SOL     OW 8405   0.850   4.522   5.547
 2149SOL    HW1 8406   0.846   4.598   5.612
 2149SOL    HW2 8407   0.872   4.558   5.456
 2150SOL     OW 8408   0.685   4.736   4.389
 2150SOL    HW1 8409   0.754   4.720   4.459
 2150SOL    HW2 8410   0.612   4.793   4.427
 2151SOL     OW 8411   0.686   4.885   5.527
 2151SOL    HW1 8412   0.746   4.964   5.541
 2151SOL    HW2 8413   0.600   4.916   5.486
 2152SOL     OW 8414   0.335   5.159   4.785
 2152SOL    HW1 8415   0.257   5.128   4.732
 2152SOL    HW2 8416   0.393   5.217   4.728
 2153SOL     OW 8417   1.460   5.229   5.063
 2153SOL    HW1 8418   1.484   5.323   5.089
 2153SOL    HW2 8419   1.444   5.175   5.145
 2154SOL     OW 8420   0.438   4.116   5.223
 2154SOL    HW1 8421   0.520   4.060   5.232
 2154SOL    HW2 8422   0.357   4.058   5.227
 2155SOL     OW 8423   1.603   4.171   4.461
 2155SOL    HW1 8424   1.529   4.217   4.411
 2155SOL    HW2 8425   1.654   4.239   4.514
 2156SOL     OW 8426   1.127   5.065   5.414
 2156SOL    HW1 8427   1.174   5.065   5.502
 2156SOL    HW2 8428   1.079   4.978   5.403
 2157SOL     OW 8429   0.620   5.510   5.163
 2157SOL    HW1 8430   0.528   5.493   5.198
 2157SOL    HW2 8431   0.648   5.602   5.189
 2158SOL     OW 8432   0.606   4.688   3.847
 2158SOL    HW1 8433   0.613   4.772   3.793
 2158SOL    HW2 8434   0.652   4.701   3.935
 2159SOL     OW 8435   1.594   3.838   5.204
 2159SOL    HW1 8436   1.576   3.905   5.132
 2159SOL    HW2 8437   1.591   3.884   5.293
 2160SOL     OW 8438   1.842   5.491   4.083
 2160SOL    HW1 8439   1.896   5.462   4.163
 2160SOL    HW2 8440   1.872   5.581   4.054
 2161SOL     OW 8441   1.689   4.646   4.336
 2161SOL    HW1 8442   1.784   4.617   4.344
 2161SOL    HW2 8443   1.681   4.711   4.261
 2162SOL     OW 8444   1.641   4.832   4.156
 2162SOL    HW1 8445   1.727   4.834   4.104
 2162SOL    HW2 8446   1.655   4.879   4.244
 2163SOL     OW 8447   0.613   5.089   4.450
 2163SOL    HW1 8448   0.564   5.002   4.459
 2163SOL    HW2 8449   0.590   5.132   4.363
 2164SOL     OW 8450   1.293   4.952   5.147
 2164SOL    HW1 8451   1.330   4.879   5.089
 2164SOL    HW2 8452   1.345   4.957   5.232
 2165SOL     OW 8453   0.809   3.728   4.226
 2165SOL    HW1 8454   0.849   3.819   4.217
 2165SOL    HW2 8455   0.709   3.736   4.232
 2166SOL     OW 8456   1.525   4.723   3.914
 2166SOL    HW1 8457   1.462   4.647   3.927
 2166SOL    HW2 8458   1.573   4.741   4.000
 2167SOL     OW 8459   1.187   5.516   5.340
 2167SOL    HW1 8460   1.211   5.576   5.264
 2167SOL    HW2 8461   1.194   5.421   5.310
 2168SOL     OW 8462   0.317   3.975   5.525
 2168SOL    HW1 8463   0.388   4.046   5.531
 2168SOL    HW2 8464   0.229   4.014   5.553
 2169SOL     OW 8465   1.466   5.141   4.677
 2169SOL    HW1 8466   1.407   5.147   4.757
 2169SOL    HW2 8467   1.451   5.053   4.631
 2170SOL     OW 8468   1.667   5.438   4.296
 2170SOL    HW1 8469   1.626   5.415   4.208
 2170SOL    HW2 8470   1.649   5.364   4.361
 2171SOL     OW 8471   0.598   4.453   3.994
 2171SOL    HW1 8472   0.622   4.522   3.926
 2171SOL    HW2 8473   0.520   4.486   4.048
 2172SOL     OW 8474   1.281   4.069   4.668
 2172SOL    HW1 8475   1.195   4.019   4.655
 2172SOL    HW2 8476   1.343   4.015   4.724
 2173SOL     OW 8477   1.576   5.386   4.031
 2173SOL    HW1 8478   1.665   5.432   4.034
 2173SOL    HW2 8479   1.555   5.362   3.936
 2174SOL     OW 8480   0.807   4.329   5.189
 2174SOL    HW1 8481   0.760   4.326   5.278
 2174SOL    HW2 8482   0.756   4.274   5.123
 2175SOL     OW 8483   1.394   4.193   5.398
 2175SOL    HW1 8484   1.374   4.236   5.486
 2175SOL    HW2 8485   1.472   4.131   5.407
 2176SOL     OW 8486   0.973   4.614   5.296
 2176SOL    HW1 8487   1.019   4.530   5.267
 2176SOL    HW2 8488   0.917   4.648   5.221
 2177SOL     OW 8489   0.991   4.134   4.966
 2177SOL    HW1 8490   0.914   4.168   5.020
 2177SOL    HW2 8491   0.957   4.083   4.887
 2178SOL     OW 8492   1.041   4.425   4.153
 2178SOL    HW1 8493   1.067   4.421   4.249
 2178SOL    HW2 8494   0.956   4.374   4.139
 2179SOL     OW 8495   0.865   4.072   3.919
 2179SOL    HW1 8496   0.924   4.135   3.870
 2179SOL    HW2 8497   0.884   3.978   3.890
 2180SOL     OW 8498   1.719   4.309   5.555
 2180SOL    HW1 8499   1.693   4.398   5.519
 2180SOL    HW2 8500   1.717   4.241   5.482
 2181SOL     OW 8501   1.362   4.868   4.269
 2181SOL    HW1 8502   1.445   4.839   4.221
 2181SOL    HW2 8503   1.313   4.935   4.213
 2182SOL     OW 8504   0.550   3.920   4.609
 2182SOL    HW1 8505   0.545   3.915   4.709
 2182SOL    HW2 8506   0.552   4.016   4.580
 2183SOL     OW 8507   1.008   5.180   4.201
 2183SOL    HW1 8508   0.962   5.252   4.149
 2183SOL    HW2 8509   1.004   5.200   4.299
 2184SOL     OW 8510   0.351   5.525   4.577
 2184SOL    HW1 8511   0.401   5.439   4.583
 2184SOL    HW2 8512   0.416   5.602   4.574
 2185SOL     OW 8513   1.795   4.790   4.597
 2185SOL    HW1 8514   1.733   4.775   4.521
 2185SOL    HW2 8515   1.743   4.801   4.682
 2186SOL     OW 8516   1.227   5.274   5.230
 2186SOL    HW1 8517   1.233   5.197   5.294
 2186SOL    HW2 8518   1.175   5.248   5.150
 2187SOL     OW 8519   0.321   4.667   3.966
 2187SOL    HW1 8520   0.403   4.706   3.924
 2187SOL    HW2 8521   0.294   4.585   3.917
 2188SOL     OW 8522   1.458   4.459   4.452
 2188SOL    HW1 8523   1.453   4.394   4.527
 2188SOL    HW2 8524   1.538   4.518   4.465
 2189SOL     OW 8525   0.461   4.990   5.451
 2189SOL    HW1 8526   0.411   4.991   5.365
 2189SOL    HW2 8527   0.398   4.972   5.527
 2190SOL     OW 8528   1.111   5.500   3.961
 2190SOL    HW1 8529   1.051   5.438   4.011
 2190SOL    HW2 8530   1.142   5.456   3.876
 2191SOL     OW 8531   1.632   5.101   3.805
 2191SOL    HW1 8532   1.600   5.195   3.795
 2191SOL    HW2 8533   1.556   5.038   3.793
 2192SOL     OW 8534   0.464   5.467   4.047
 2192SOL    HW1 8535   0.497   5.506   4.133
 2192SOL    HW2 8536   0.540   5.460   3.982
 2193SOL     OW 8537   1.400   3.831   4.150
 2193SOL    HW1 8538   1.376   3.794   4.060
 2193SOL    HW2 8539   1.499   3.847   4.154
 2194SOL     OW 8540   0.940   5.422   4.628
 2194SOL    HW1 8541   1.020   5.365   4.649
 2194SOL    HW2 8542   0.891   5.382   4.551
 2195SOL     OW 8543   0.382   4.424   4.204
 2195SOL    HW1 8544   0.427   4.334   4.201
 2195SOL    HW2 8545   0.288   4.413   4.237
 2196SOL     OW 8546   1.547   3.946   5.453
 2196SOL    HW1 8547   1.542   3.983   5.545
 2196SOL    HW2 8548   1.475   3.877   5.441
 2197SOL     OW 8549   0.614   3.846   3.841
 2197SOL    HW1 8550   0.712   3.824   3.848
 2197SOL    HW2 8551   0.583   3.829   3.748
 2198SOL     OW 8552   0.781   3.988   5.473
 2198SOL    HW1 8553   0.848   3.927   5.516
 2198SOL    HW2 8554   0.708   4.007   5.538
 2199SOL     OW 8555   0.888   5.238   4.919
 2199SOL    HW1 8556   0.865   5.213   4.825
 2199SOL    HW2 8557   0.949   5.169   4.958
 2200SOL     OW 8558   1.351   4.314   5.157
 2200SOL    HW1 8559   1.379   4.271   5.242
 2200SOL    HW2 8560   1.376   4.410   5.158
 2201SOL     OW 8561   0.803   5.126   4.648
 2201SOL    HW1 8562   0.893   5.140   4.606
 2201SOL    HW2 8563   0.732   5.128   4.577
 2202SOL     OW 8564   0.922   4.227   4.623
 2202SOL    HW1 8565   0.897   4.218   4.527
 2202SOL    HW2 8566   0.970   4.145   4.654
 2203SOL     OW 8567   0.539   3.788   4.236
 2203SOL    HW1 8568   0.458   3.789   4.294
 2203SOL    HW2 8569   0.542   3.871   4.181
 2204SOL     OW 8570   1.434   4.912   3.765
 2204SOL    HW1 8571   1.466   4.836   3.822
 2204SOL    HW2 8572   1.342   4.939   3.795
 2205SOL     OW 8573   0.297   3.759   3.895
 2205SOL    HW1 8574   0.346   3.843   3.874
 2205SOL    HW2 8575   0.359   3.694   3.940
 2206SOL     OW 8576   0.935   3.960   4.204
 2206SOL    HW1 8577   0.887   4.001   4.126
 2206SOL    HW2 8578   1.034   3.958   4.185
 2207SOL     OW 8579   1.076   4.407   5.188
 2207SOL    HW1 8580   0.996   4.346   5.191
 2207SOL    HW2 8581   1.157   4.354   5.164
 2208SOL     OW 8582   1.227   5.294   4.517
 2208SOL    HW1 8583   1.248   5.368   4.452
 2208SOL    HW2 8584   1.295   5.294   4.590
 2209SOL     OW 8585   0.459   4.876   4.465
 2209SOL    HW1 8586   0.388   4.849   4.530
 2209SOL    HW2 8587   0.433   4.848   4.372
 2210SOL     OW 8588   1.271   5.521   4.315
 2210SOL    HW1 8589   1.315   5.585   4.251
 2210SOL    HW2 8590   1.221   5.573   4.385
 2211SOL     OW 8591   1.032   4.273   3.740
 2211SOL    HW1 8592   0.991   4.355   3.701
 2211SOL    HW2 8593   1.096   4.299   3.813
 2212SOL     OW 8594   0.561   3.946   4.871
 2212SOL    HW1 8595   0.599   3.862   4.908
 2212SOL    HW2 8596   0.473   3.965   4.915
 2213SOL     OW 8597   0.866   4.178   4.366
 2213SOL    HW1 8598   0.834   4.250   4.304
 2213SOL    HW2 8599   0.890   4.097   4.313
 2214SOL     OW 8600   1.017   3.763   4.477
 2214SOL    HW1 8601   0.945   3.768   4.408
 2214SOL    HW2 8602   0.993   3.694   4.546
 2215SOL     OW 8603   1.429   4.897   4.591
 2215SOL    HW1 8604   1.374   4.813   4.584
 2215SOL    HW2 8605   1.455   4.926   4.499
 2216SOL     OW 8606   1.466   4.314   4.716
 2216SOL    HW1 8607   1.436   4.219   4.723
 2216SOL    HW2 8608   1.539   4.330   4.782
 2217SOL     OW 8609   1.857   4.557   4.101
 2217SOL    HW1 8610   1.899   4.493   4.165
 2217SOL    HW2 8611   1.819   4.506   4.023
 2218SOL     OW 8612   0.488   5.109   3.898
 2218SOL    HW1 8613   0.401   5.094   3.945
 2218SOL    HW2 8614   0.471   5.135   3.803
 2219SOL     OW 8615   1.664   5.004   4.381
 2219SOL    HW1 8616   1.763   5.012   4.395
 2219SOL    HW2 8617   1.619   5.088   4.412
 2220SOL     OW 8618   1.390   4.299   3.802
 2220SOL    HW1 8619   1.336   4.278   3.883
 2220SOL    HW2 8620   1.481   4.258   3.811
 2221SOL     OW 8621   0.527   3.980   4.052
 2221SOL    HW1 8622   0.554   3.921   3.977
 2221SOL    HW2 8623   0.527   4.075   4.021
 2222SOL     OW 8624   1.754   4.947   5.312
 2222SOL    HW1 8625   1.845   4.908   5.299
 2222SOL    HW2 8626   1.762   5.043   5.336
 2223SOL     OW 8627   1.064   5.071   5.064
 2223SOL    HW1 8628   0.984   5.048   5.119
 2223SOL    HW2 8629   1.147   5.045   5.113
 2224SOL     OW 8630   1.592   5.353   5.349
 2224SOL    HW1 8631   1.619   5.387   5.259
 2224SOL    HW2 8632   1.671   5.315   5.395
 2225SOL     OW 8633   1.111   4.919   4.824
 2225SOL    HW1 8634   1.071   4.963   4.905
 2225SOL    HW2 8635   1.070   4.956   4.741
 2226SOL     OW 8636   1.638   4.823   4.803
 2226SOL    HW1 8637   1.643   4.904   4.862
 2226SOL    HW2 8638   1.552   4.825   4.752
 2227SOL     OW 8639   0.915   3.813   5.126
 2227SOL    HW1 8640   0.940   3.793   5.031
 2227SOL    HW2 8641   0.987   3.869   5.168
 2228SOL     OW 8642   0.980   4.840   5.443
 2228SOL    HW1 8643   0.881   4.846   5.453
 2228SOL    HW2 8644   1.003   4.760   5.387
 2229SOL     OW 8645   0.705   4.774   4.092
 2229SOL    HW1 8646   0.691   4.781   4.191
 2229SOL    HW2 8647   0.789   4.723   4.074
 2230SOL     OW 8648   0.410   4.537   4.975
 2230SOL    HW1 8649   0.496   4.549   5.025
 2230SOL    HW2 8650   0.368   4.450   5.002
 2231SOL     OW 8651   1.274   4.110   4.986
 2231SOL    HW1 8652   1.295   4.184   5.050
 2231SOL    HW2 8653   1.185   4.127   4.943
 2232SOL     OW 8654   0.367   4.824   4.225
 2232SOL    HW1 8655   0.360   4.907   4.169
 2232SOL    HW2 8656   0.371   4.744   4.165
 2233SOL     OW 8657   0.566   4.261   4.589
 2233SOL    HW1 8658   0.578   4.327   4.515
 2233SOL    HW2 8659   0.612   4.295   4.672
 2234SOL     OW 8660   1.252   5.072   4.112
 2234SOL    HW1 8661   1.302   5.149   4.152
 2234SOL    HW2 8662   1.157   5.074   4.144
 2235SOL     OW 8663   1.272   5.169   4.866
 2235SOL    HW1 8664   1.319   5.182   4.953
 2235SOL    HW2 8665   1.206   5.095   4.875
 2236SOL     OW 8666   1.582   4.363   4.196
 2236SOL    HW1 8667   1.551   4.424   4.269
 2236SOL    HW2 8668   1.632   4.415   4.127
 2237SOL     OW 8669   0.354   5.234   5.053
 2237SOL    HW1 8670   0.333   5.190   4.966
 2237SOL    HW2 8671   0.451   5.260   5.056
 2238SOL     OW 8672   0.402   4.475   5.322
 2238SOL    HW1 8673   0.470   4.530   5.275
 2238SOL    HW2 8674   0.442   4.387   5.349
 2239SOL     OW 8675   1.587   4.503   5.394
 2239SOL    HW1 8676   1.495   4.541   5.389
 2239SOL    HW2 8677   1.647   4.550   5.329
 2240SOL     OW 8678   1.013   3.829   5.494
 2240SOL    HW1 8679   1.019   3.914   5.442
 2240SOL    HW2 8680   1.045   3.753   5.437
 2241SOL     OW 8681   0.504   3.774   5.464
 2241SOL    HW1 8682   0.462   3.717   5.394
 2241SOL    HW2 8683   0.438   3.843   5.496
 2242SOL     OW 8684   0.573   4.594   4.753
 2242SOL    HW1 8685   0.617   4.683   4.744
 2242SOL    HW2 8686   0.510   4.594   4.830
 2243SOL     OW 8687   1.360   4.586   4.769
 2243SOL    HW1 8688   1.285   4.586   4.703
 2243SOL    HW2 8689   1.397   4.494   4.778
 2244SOL     OW 8690   1.209   4.249   3.999
 2244SOL    HW1 8691   1.222   4.165   4.053
 2244SOL    HW2 8692   1.180   4.323   4.059
 2245SOL     OW 8693   0.732   4.358   4.788
 2245SOL    HW1 8694   0.791   4.332   4.712
 2245SOL    HW2 8695   0.704   4.454   4.777
 2246SOL     OW 8696   1.728   4.659   5.578
 2246SOL    HW1 8697   1.682   4.652   5.489
 2246SOL    HW2 8698   1.666   4.703   5.644
 2247SOL     OW 8699   0.307   3.787   4.342
 2247SOL    HW1 8700   0.296   3.881   4.375
 2247SOL    HW2 8701   0.302   3.724   4.419
 2248SOL     OW 8702   1.622   4.091   4.098
 2248SOL    HW1 8703   1.624   4.015   4.162
 2248SOL    HW2 8704   1.574   4.168   4.138
 2249SOL     OW 8705   1.023   4.490   4.690
 2249SOL    HW1 8706   1.038   4.511   4.786
 2249SOL    HW2 8707   0.993   4.395   4.681
 2250SOL     OW 8708   0.980   5.297   5.424
 2250SOL    HW1 8709   0.960   5.341   5.336
 2250SOL    HW2 8710   1.019   5.206   5.408
 2251SOL     OW 8711   1.859   5.242   5.329
 2251SOL    HW1 8712   1.873   5.269   5.234
 2251SOL    HW2 8713   1.942   5.264   5.382
 2252SOL     OW 8714   0.350   4.622   5.528
 2252SOL    HW1 8715   0.426   4.666   5.576
 2252SOL    HW2 8716   0.385   4.575   5.446
 2253SOL     OW 8717   1.540   3.998   3.849
 2253SOL    HW1 8718   1.479   3.923   3.872
 2253SOL    HW2 8719   1.562   4.050   3.932
 2254SOL     OW 8720   1.303   4.562   3.766
 2254SOL    HW1 8721   1.337   4.469   3.781
 2254SOL    HW2 8722   1.321   4.589   3.671
 2255SOL     OW 8723   1.068   5.057   4.573
 2255SOL    HW1 8724   1.075   4.973   4.518
 2255SOL    HW2 8725   1.130   5.126   4.537
 2256SOL     OW 8726   0.319   4.534   4.673
 2256SOL    HW1 8727   0.412   4.570   4.678
 2256SOL    HW2 8728   0.313   4.449   4.725
 2257SOL     OW 8729   1.138   4.104   5.402
 2257SOL    HW1 8730   1.093   4.167   5.466
 2257SOL    HW2 8731   1.231   4.135   5.385
 2258SOL     OW 8732   1.160   3.931   5.201
 2258SOL    HW1 8733   1.160   3.995   5.278
 2258SOL    HW2 8734   1.188   3.979   5.118
 2259SOL     OW 8735   0.504   5.292   4.634
 2259SOL    HW1 8736   0.570   5.366   4.643
 2259SOL    HW2 8737   0.548   5.213   4.592
 2260SOL     OW 8738   1.002   4.520   4.962
 2260SOL    HW1 8739   1.043   4.488   5.048
 2260SOL    HW2 8740   0.906   4.493   4.959
 2261SOL     OW 8741   1.369   4.674   5.384
 2261SOL    HW1 8742   1.408   4.763   5.404
 2261SOL    HW2 8743   1.379   4.654   5.287
 2262SOL     OW 8744   0.815   4.296   4.049
 2262SOL    HW1 8745   0.822   4.207   4.003
 2262SOL    HW2 8746   0.721   4.330   4.041
 2263SOL     OW 8747   1.657   4.328   4.930
 2263SOL    HW1 8748   1.619   4.259   4.992
 2263SOL    HW2 8749   1.739   4.292   4.886
 2264SOL     OW 8750   0.671   4.188   4.993
 2264SOL    HW1 8751   0.637   4.099   4.963
 2264SOL    HW2 8752   0.697   4.242   4.913
 2265SOL     OW 8753   0.930   5.402   5.189
 2265SOL    HW1 8754   0.906   5.384   5.094
 2265SOL    HW2 8755   0.960   5.496   5.199
 2266SOL     OW 8756   0.473   4.224   3.915
 2266SOL    HW1 8757   0.534   4.304   3.919
 2266SOL    HW2 8758   0.378   4.255   3.922
 2267SOL     OW 8759   1.347   4.783   4.958
 2267SOL    HW1 8760   1.371   4.720   4.884
 2267SOL    HW2 8761   1.257   4.823   4.940
 2268SOL     OW 8762   1.302   4.579   4.033
 2268SOL    HW1 8763   1.216   4.548   4.075
 2268SOL    HW2 8764   1.298   4.565   3.934
 2269SOL     OW 8765   1.759   5.471   4.878
 2269SOL    HW1 8766   1.820   5.501   4.805
 2269SOL    HW2 8767   1.721   5.382   4.856
 2270SOL     OW 8768   1.252   5.455   4.852
 2270SOL    HW1 8769   1.336   5.460   4.798
 2270SOL    HW2 8770   1.229   5.359   4.870
 2271SOL     OW 8771   0.688   5.386   5.440
 2271SOL    HW1 8772   0.632   5.467   5.449
 2271SOL    HW2 8773   0.740   5.390   5.354
 2272SOL     OW 8774   0.903   3.810   3.857
 2272SOL    HW1 8775   0.954   3.811   3.771
 2272SOL    HW2 8776   0.959   3.768   3.928
 2273SOL     OW 8777   1.726   3.859   4.247
 2273SOL    HW1 8778   1.799   3.842   4.180
 2273SOL    HW2 8779   1.695   3.772   4.285
 2274SOL     OW 8780   1.388   5.297   4.201
 2274SOL    HW1 8781   1.455   5.309   4.127
 2274SOL    HW2 8782   1.348   5.386   4.224
 2275SOL     OW 8783   0.130   5.518   5.575
 2275SOL    HW1 8784   0.089   5.444   5.628
 2275SOL    HW2 8785   0.194   5.569   5.633
 2276SOL     OW 8786   1.280   4.651   4.396
 2276SOL    HW1 8787   1.340   4.570   4.398
 2276SOL    HW2 8788   1.320   4.720   4.336
 2277SOL     OW 8789   0.830   4.997   5.146
 2277SOL    HW1 8790   0.825   5.030   5.241
 2277SOL    HW2 8791   0.744   5.016   5.100
 2278SOL     OW 8792   0.672   5.340   3.878
 2278SOL    HW1 8793   0.681   5.350   3.779
 2278SOL    HW2 8794   0.632   5.251   3.899
 2279SOL     OW 8795   1.650   5.444   5.118
 2279SOL    HW1 8796   1.703   5.454   5.034
 2279SOL    HW2 8797   1.623   5.534   5.152
 2280SOL     OW 8798   1.841   3.899   4.687
 2280SOL    HW1 8799   1.880   3.814   4.651
 2280SOL    HW2 8800   1.743   3.901   4.668
 2281SOL     OW 8801   0.263   4.050   4.444
 2281SOL    HW1 8802   0.184   4.101   4.410
 2281SOL    HW2 8803   0.254   4.035   4.542
 2282SOL     OW 8804   1.194   5.336   3.755
 2282SOL    HW1 8805   1.200   5.243   3.792
 2282SOL    HW2 8806   1.135   5.336   3.675
 2283SOL     OW 8807   0.822   4.726   5.096
 2283SOL    HW1 8808   0.862   4.725   5.004
 2283SOL    HW2 8809   0.832   4.818   5.136
 2284SOL     OW 8810   0.916   4.634   4.015
 2284SOL    HW1 8811   0.979   4.672   3.947
 2284SOL    HW2 8812   0.956   4.551   4.054
 2285SOL     OW 8813   1.504   5.331   3.768
 2285SOL    HW1 8814   1.412   5.368   3.775
 2285SOL    HW2 8815   1.542   5.351   3.678
 2286SOL     OW 8816   0.372   5.012   5.214
 2286SOL    HW1 8817   0.359   5.105   5.180
 2286SOL    HW2 8818   0.288   4.960   5.201
 2287SOL     OW 8819   1.614   5.016   5.013
 2287SOL    HW1 8820   1.674   5.019   5.093
 2287SOL    HW2 8821   1.539   5.080   5.026
 2288SOL     OW 8822   1.039   4.822   4.420
 2288SOL    HW1 8823   0.969   4.775   4.474
 2288SOL    HW2 8824   1.098   4.754   4.377
 2289SOL     OW 8825   1.014   3.960   4.695
 2289SOL    HW1 8826   1.006   3.924   4.602
 2289SOL    HW2 8827   1.012   3.884   4.760
 2290SOL     OW 8828   0.590   5.211   4.215
 2290SOL    HW1 8829   0.632   5.153   4.145
 2290SOL    HW2 8830   0.546   5.290   4.171
 2291SOL     OW 8831   1.709   4.109   5.105
 2291SOL    HW1 8832   1.782   4.178   5.109
 2291SOL    HW2 8833   1.737   4.034   5.046
 2292SOL     OW 8834   0.255   5.072   4.014
 2292SOL    HW1 8835   0.159   5.073   3.987
 2292SOL    HW2 8836   0.267   5.125   4.098
 2293SOL     OW 8837   0.672   3.927   5.213
 2293SOL    HW1 8838   0.762   3.911   5.173
 2293SOL    HW2 8839   0.680   3.932   5.312
 2294SOL     OW 8840   1.440   4.580   5.122
 2294SOL    HW1 8841   1.383   4.632   5.059
 2294SOL    HW2 8842   1.536   4.592   5.098
 2295SOL     OW 8843   1.183   5.059   3.843
 2295SOL    HW1 8844   1.084   5.048   3.845
 2295SOL    HW2 8845   1.217   5.074   3.936
 2296SOL     OW 8846   0.613   4.566   5.155
 2296SOL    HW1 8847   0.669   4.647   5.138
 2296SOL    HW2 8848   0.672   4.486   5.158
 2297SOL     OW 8849   1.493   5.491   4.683
 2297SOL    HW1 8850   1.526   5.555   4.614
 2297SOL    HW2 8851   1.559   5.485   4.758
 2298SOL     OW 8852   0.716   4.289   5.432
 2298SOL    HW1 8853   0.735   4.354   5.506
 2298SOL    HW2 8854   0.776   4.209   5.441
 2299SOL     OW 8855   1.450   4.944   5.357
 2299SOL    HW1 8856   1.441   4.934   5.456
 2299SOL    HW2 8857   1.546   4.937   5.331
 2300SOL     OW 8858   0.390   5.465   5.284
 2300SOL    HW1 8859   0.299   5.506   5.282
 2300SOL    HW2 8860   0.383   5.371   5.316
 2301SOL     OW 8861   1.674   4.607   4.978
 2301SOL    HW1 8862   1.647   4.518   4.941
 2301SOL    HW2 8863   1.675   4.675   4.905
 2302SOL     OW 8864   1.225   4.049   4.173
 2302SOL    HW1 8865   1.290   3.975   4.162
 2302SOL    HW2 8866   1.245   4.099   4.257
 2303SOL     OW 8867   0.594   4.469   4.376
 2303SOL    HW1 8868   0.644   4.554   4.357
 2303SOL    HW2 8869   0.506   4.471   4.328
 2304SOL     OW 8870   1.777   4.066   5.366
 2304SOL    HW1 8871   1.760   4.097   5.272
 2304SOL    HW2 8872   1.693   4.029   5.404
 2305SOL     OW 8873   1.730   4.658   5.241
 2305SOL    HW1 8874   1.768   4.749   5.256
 2305SOL    HW2 8875   1.722   4.641   5.142
 2306SOL     OW 8876   0.859   5.098   3.740
 2306SOL    HW1 8877   0.813   5.113   3.828
 2306SOL    HW2 8878   0.903   5.183   3.710
 2307SOL     OW 8879   0.661   5.514   4.677
 2307SOL    HW1 8880   0.615   5.602   4.664
 2307SOL    HW2 8881   0.760   5.526   4.670
 2308SOL     OW 8882   1.408   5.575   5.444
 2308SOL    HW1 8883   1.312   5.564   5.417
 2308SOL    HW2 8884   1.464   5.508   5.396
 2309SOL     OW 8885   0.859   4.680   4.585
 2309SOL    HW1 8886   0.913   4.611   4.633
 2309SOL    HW2 8887   0.827   4.749   4.651
 2310SOL     OW 8888   1.083   4.708   3.811
 2310SOL    HW1 8889   1.060   4.761   3.729
 2310SOL    HW2 8890   1.164   4.652   3.792
 2311SOL     OW 8891   1.861   5.293   4.575
 2311SOL    HW1 8892   1.790   5.281   4.505
 2311SOL    HW2 8893   1.862   5.214   4.635
 2312SOL     OW 8894   0.672   5.115   5.348
 2312SOL    HW1 8895   0.594   5.065   5.386
 2312SOL    HW2 8896   0.669   5.210   5.379
 2313SOL     OW 8897   1.824   3.916   4.951
 2313SOL    HW1 8898   1.820   3.826   4.995
 2313SOL    HW2 8899   1.827   3.905   4.852
 2314SOL     OW 8900   0.428   4.148   4.244
 2314SOL    HW1 8901   0.458   4.076   4.182
 2314SOL    HW2 8902   0.389   4.108   4.327
 2315SOL     OW 8903   1.705   5.211   4.828
 2315SOL    HW1 8904   1.612   5.186   4.801
 2315SOL    HW2 8905   1.731   5.161   4.910
 2316SOL     OW 8906   0.812   5.310   4.411
 2316SOL    HW1 8907   0.844   5.320   4.317
 2316SOL    HW2 8908   0.733   5.248   4.413
 2317SOL     OW 8909   1.424   3.938   4.836
 2317SOL    HW1 8910   1.476   3.873   4.891
 2317SOL    HW2 8911   1.375   4.001   4.897
 2318SOL     OW 8912   1.001   3.758   4.878
 2318SOL    HW1 8913   0.938   3.686   4.847
 2318SOL    HW2 8914   1.094   3.722   4.878
 2319SOL     OW 8915   0.770   5.054   4.025
 2319SOL    HW1 8916   0.724   4.967   4.042
 2319SOL    HW2 8917   0.861   5.051   4.066
 2320SOL     OW 8918   0.618   5.291   5.008
 2320SOL    HW1 8919   0.613   5.373   5.065
 2320SOL    HW2 8920   0.707   5.288   4.963
 2321SOL     OW 8921   1.352   3.776   3.892
 2321SOL    HW1 8922   1.387   3.735   3.808
 2321SOL    HW2 8923   1.262   3.738   3.912
 2322SOL     OW 8924   1.300   4.177   4.415
 2322SOL    HW1 8925   1.241   4.257   4.419
 2322SOL    HW2 8926   1.315   4.142   4.508
 2323SOL     OW 8927   1.593   3.945   4.606
 2323SOL    HW1 8928   1.509   3.944   4.660
 2323SOL    HW2 8929   1.595   4.028   4.550
 2324SOL     OW 8930   0.875   5.370   4.061
 2324SOL    HW1 8931   0.798   5.335   4.007
 2324SOL    HW2 8932   0.843   5.441   4.123
 2325SOL     OW 8933   0.019   4.092   6.233
 2325SOL    HW1 8934  -0.063   4.135   6.272
 2325SOL    HW2 8935  -0.009   4.019   6.170
 2326SOL     OW 8936   0.569   4.999   6.751
 2326SOL    HW1 8937   0.476   4.992   6.714
 2326SOL    HW2 8938   0.580   5.088   6.795
 2327SOL     OW 8939   1.555   5.235   6.289
 2327SOL    HW1 8940   1.498   5.219   6.370
 2327SOL    HW2 8941   1.496   5.245   6.209
 2328SOL     OW 8942   1.743   4.342   6.442
 2328SOL    HW1 8943   1.776   4.436   6.442
 2328SOL    HW2 8944   1.794   4.288   6.508
 2329SOL     OW 8945   1.135   4.427   6.303
 2329SOL    HW1 8946   1.192   4.505   6.278
 2329SOL    HW2 8947   1.075   4.453   6.379
 2330SOL     OW 8948   1.755   4.331   5.817
 2330SOL    HW1 8949   1.743   4.318   5.718
 2330SOL    HW2 8950   1.725   4.250   5.866
 2331SOL     OW 8951   0.768   4.868   6.609
 2331SOL    HW1 8952   0.690   4.885   6.669
 2331SOL    HW2 8953   0.802   4.955   6.573
 2332SOL     OW 8954   0.850   4.522   7.409
 2332SOL    HW1 8955   0.846   4.598   7.474
 2332SOL    HW2 8956   0.872   4.558   7.318
 2333SOL     OW 8957   0.685   4.736   6.251
 2333SOL    HW1 8958   0.754   4.720   6.321
 2333SOL    HW2 8959   0.612   4.793   6.289
 2334SOL     OW 8960   0.686   4.885   7.389
 2334SOL    HW1 8961   0.746   4.964   7.403
 2334SOL    HW2 8962   0.600   4.916   7.348
 2335SOL     OW 8963   0.335   5.159   6.647
 2335SOL    HW1 8964   0.257   5.128   6.594
 2335SOL    HW2 8965   0.393   5.217   6.590
 2336SOL     OW 8966   1.460   5.229   6.925
 2336SOL    HW1 8967   1.484   5.323   6.951
 2336SOL    HW2 8968   1.444   5.175   7.007
 2337SOL     OW 8969   0.438   4.116   7.085
 2337SOL    HW1 8970   0.520   4.060   7.094
 2337SOL    HW2 8971   0.357   4.058   7.089
 2338SOL     OW 8972   1.603   4.171   6.323
 2338SOL    HW1 8973   1.529   4.217   6.273
 2338SOL    HW2 8974   1.654   4.239   6.376
 2339SOL     OW 8975   1.127   5.065   7.276
 2339SOL    HW1 8976   1.174   5.065   7.364
 2339SOL    HW2 8977   1.079   4.978   7.265
 2340SOL     OW 8978   0.620   5.510   7.025
 2340SOL    HW1 8979   0.528   5.493   7.060
 2340SOL    HW2 8980   0.648   5.602   7.051
 2341SOL     OW 8981   0.606   4.688   5.709
 2341SOL    HW1 8982   0.613   4.772   5.655
 2341SOL    HW2 8983   0.652   4.701   5.797
 2342SOL     OW 8984   1.594   3.838   7.066
 2342SOL    HW1 8985   1.576   3.905   6.994
 2342SOL    HW2 8986   1.591   3.884   7.155
 2343SOL     OW 8987   1.842   5.491   5.945
 2343SOL    HW1 8988   1.896   5.462   6.025
 2343SOL    HW2 8989   1.872   5.581   5.916
 2344SOL     OW 8990   1.689   4.646   6.198
 2344SOL    HW1 8991   1.784   4.617   6.206
 2344SOL    HW2 8992   1.681   4.711   6.123
 2345SOL     OW 8993   1.641   4.832   6.018
 2345SOL    HW1 8994   1.727   4.834   5.966
 2345SOL    HW2 8995   1.655   4.879   6.106
 2346SOL     OW 8996   0.613   5.089   6.312
 2346SOL    HW1 8997   0.564   5.002   6.321
 2346SOL    HW2 8998   0.590   5.132   6.225
 2347SOL     OW 8999   1.293   4.952   7.009
 2347SOL    HW1 9000   1.330   4.879   6.951
 2347SOL    HW2 9001   1.345   4.957   7.094
 2348SOL     OW 9002   0.809   3.728   6.088
 2348SOL    HW1 9003   0.849   3.819   6.079
 2348SOL    HW2 9004   0.709   3.736   6.094
 2349SOL     OW 9005   1.525   4.723   5.776
 2349SOL    HW1 9006   1.462   4.647   5.789
 2349SOL    HW2 9007   1.573   4.741   5.862
 2350SOL     OW 9008   1.187   5.516   7.202
 2350SOL    HW1 9009   1.211   5.576   7.126
 2350SOL    HW2 9010   1.194   5.421   7.172
 2351SOL     OW 9011   0.317   3.975   7.387
 2351SOL    HW1 9012   0.388   4.046   7.393
 2351SOL    HW2 9013   0.229   4.014   7.415
 2352SOL     OW 9014   1.466   5.141   6.539
 2352SOL    HW1 9015   1.407   5.147   6.619
 2352SOL    HW2 9016   1.451   5.053   6.493
 2353SOL     OW 9017   1.667   5.438   6.158
 2353SOL    HW1 9018   1.626   5.415   6.070
 2353SOL    HW2 9019   1.649   5.364   6.223
 2354SOL     OW 9020   0.598   4.453   5.856
 2354SOL    HW1 9021   0.622   4.522   5.788
 2354SOL    HW2 9022   0.520   4.486   5.910
 2355SOL     OW 9023   1.281   4.069   6.530
 2355SOL    HW1 9024   1.195   4.019   6.517
 2355SOL    HW2 9025   1.343   4.015   6.586
 2356SOL     OW 9026   1.576   5.386   5.893
 2356SOL    HW1 9027   1.665   5.432   5.896
 2356SOL    HW2 9028   1.555   5.362   5.798
 2357SOL     OW 9029   0.807   4.329   7.051
 2357SOL    HW1 9030   0.760   4.326   7.140
 2357SOL    HW2 9031   0.756   4.274   6.985
 2358SOL     OW 9032   1.394   4.193   7.260
 2358SOL    HW1 9033   1.374   4.236   7.348
 2358SOL    HW2 9034   1.472   4.131   7.269
 2359SOL     OW 9035   0.973   4.614   7.158
 2359SOL    HW1 9036   1.019   4.530   7.129
 2359SOL    HW2 9037   0.917   4.648   7.083
 2360SOL     OW 9038   0.991   4.134   6.828
 2360SOL    HW1 9039   0.914   4.168   6.882
 2360SOL    HW2 9040   0.957   4.083   6.749
 2361SOL     OW 9041   1.041   4.425   6.015
 2361SOL    HW1 9042   1.067   4.421   6.111
 2361SOL    HW2 9043   0.956   4.374   6.001
 2362SOL     OW 9044   0.865   4.072   5.781
 2362SOL    HW1 9045   0.924   4.135   5.732
 2362SOL    HW2 9046   0.884   3.978   5.752
 2363SOL     OW 9047   1.719   4.309   7.417
 2363SOL    HW1 9048   1.693   4.398   7.381
 2363SOL    HW2 9049   1.717   4.241   7.344
 2364SOL     OW 9050   1.362   4.868   6.131
 2364SOL    HW1 9051   1.445   4.839   6.083
 2364SOL    HW2 9052   1.313   4.935   6.075
 2365SOL     OW 9053   0.550   3.920   6.471
 2365SOL    HW1 9054   0.545   3.915   6.571
 2365SOL    HW2 9055   0.552   4.016   6.442
 2366SOL     OW 9056   1.008   5.180   6.063
 2366SOL    HW1 9057   0.962   5.252   6.011
 2366SOL    HW2 9058   1.004   5.200   6.161
 2367SOL     OW 9059   0.351   5.525   6.439
 2367SOL    HW1 9060   0.401   5.439   6.445
 2367SOL    HW2 9061   0.416   5.602   6.436
 2368SOL     OW 9062   1.795   4.790   6.459
 2368SOL    HW1 9063   1.733   4.775   6.383
 2368SOL    HW2 9064   1.743   4.801   6.544
 2369SOL     OW 9065   1.227   5.274   7.092
 2369SOL    HW1 9066   1.233   5.197   7.156
 2369SOL    HW2 9067   1.175   5.248   7.012
 2370SOL     OW 9068   0.321   4.667   5.828
 2370SOL    HW1 9069   0.403   4.706   5.786
 2370SOL    HW2 9070   0.294   4.585   5.779
 2371SOL     OW 9071   1.458   4.459   6.314
 2371SOL    HW1 9072   1.453   4.394   6.389
 2371SOL    HW2 9073   1.538   4.518   6.327
 2372SOL     OW 9074   0.461   4.990   7.313
 2372SOL    HW1 9075   0.411   4.991   7.227
 2372SOL    HW2 9076   0.398   4.972   7.389
 2373SOL     OW 9077   1.111   5.500   5.823
 2373SOL    HW1 9078   1.051   5.438   5.873
 2373SOL    HW2 9079   1.142   5.456   5.738
 2374SOL     OW 9080   1.632   5.101   5.667
 2374SOL    HW1 9081   1.600   5.195   5.657
 2374SOL    HW2 9082   1.556   5.038   5.655
 2375SOL     OW 9083   0.464   5.467   5.909
 2375SOL    HW1 9084   0.497   5.506   5.995
 2375SOL    HW2 9085   0.540   5.460   5.844
 2376SOL     OW 9086   1.400   3.831   6.012
 2376SOL    HW1 9087   1.376   3.794   5.922
 2376SOL    HW2 9088   1.499   3.847   6.016
 2377SOL     OW 9089   0.940   5.422   6.490
 2377SOL    HW1 9090   1.020   5.365   6.511
 2377SOL    HW2 9091   0.891   5.382   6.413
 2378SOL     OW 9092   0.382   4.424   6.066
 2378SOL    HW1 9093   0.427   4.334   6.063
 2378SOL    HW2 9094   0.288   4.413   6.099
 2379SOL     OW 9095   1.547   3.946   7.315
 2379SOL    HW1 9096   1.542   3.983   7.407
 2379SOL    HW2 9097   1.475   3.877   7.303
 2380SOL     OW 9098   0.614   3.846   5.703
 2380SOL    HW1 9099   0.712   3.824   5.710
 2380SOL    HW2 9100   0.583   3.829   5.610
 2381SOL     OW 9101   0.781   3.988   7.335
 2381SOL    HW1 9102   0.848   3.927   7.378
 2381SOL    HW2 9103   0.708   4.007   7.400
 2382SOL     OW 9104   0.888   5.238   6.781
 2382SOL    HW1 9105   0.865   5.213   6.687
 2382SOL    HW2 9106   0.949   5.169   6.820
 2383SOL     OW 9107   1.351   4.314   7.019
 2383SOL    HW1 9108   1.379   4.271   7.104
 2383SOL    HW2 9109   1.376   4.410   7.020
 2384SOL     OW 9110   0.803   5.126   6.510
 2384SOL    HW1 9111   0.893   5.140   6.468
 2384SOL    HW2 9112   0.732   5.128   6.439
 2385SOL     OW 9113   0.922   4.227   6.485
 2385SOL    HW1 9114   0.897   4.218   6.389
 2385SOL    HW2 9115   0.970   4.145   6.516
 2386SOL     OW 9116   0.539   3.788   6.098
 2386SOL    HW1 9117   0.458   3.789   6.156
 2386SOL    HW2 9118   0.542   3.871   6.043
 2387SOL     OW 9119   1.434   4.912   5.627
 2387SOL    HW1 9120   1.466   4.836   5.684
 2387SOL    HW2 9121   1.342   4.939   5.657
 2388SOL     OW 9122   0.297   3.759   5.757
 2388SOL    HW1 9123   0.346   3.843   5.736
 2388SOL    HW2 9124   0.359   3.694   5.802
 2389SOL     OW 9125   0.935   3.960   6.066
 2389SOL    HW1 9126   0.887   4.001   5.988
 2389SOL    HW2 9127   1.034   3.958   6.047
 2390SOL     OW 9128   1.076   4.407   7.050
 2390SOL    HW1 9129   0.996   4.346   7.053
 2390SOL    HW2 9130   1.157   4.354   7.026
 2391SOL     OW 9131   1.227   5.294   6.379
 2391SOL    HW1 9132   1.248   5.368   6.314
 2391SOL    HW2 9133   1.295   5.294   6.452
 2392SOL     OW 9134   0.459   4.876   6.327
 2392SOL    HW1 9135   0.388   4.849   6.392
 2392SOL    HW2 9136   0.433   4.848   6.234
 2393SOL     OW 9137   1.271   5.521   6.177
 2393SOL    HW1 9138   1.315   5.585   6.113
 2393SOL    HW2 9139   1.221   5.573   6.247
 2394SOL     OW 9140   1.032   4.273   5.602
 2394SOL    HW1 9141   0.991   4.355   5.563
 2394SOL    HW2 9142   1.096   4.299   5.675
 2395SOL     OW 9143   0.561   3.946   6.733
 2395SOL    HW1 9144   0.599   3.862   6.770
 2395SOL    HW2 9145   0.473   3.965   6.777
 2396SOL     OW 9146   0.866   4.178   6.228
 2396SOL    HW1 9147   0.834   4.250   6.166
 2396SOL    HW2 9148   0.890   4.097   6.175
 2397SOL     OW 9149   1.017   3.763   6.339
 2397SOL    HW1 9150   0.945   3.768   6.270
 2397SOL    HW2 9151   0.993   3.694   6.408
 2398SOL     OW 9152   1.429   4.897   6.453
 2398SOL    HW1 9153   1.374   4.813   6.446
 2398SOL    HW2 9154   1.455   4.926   6.361
 2399SOL     OW 9155   1.466   4.314   6.578
 2399SOL    HW1 9156   1.436   4.219   6.585
 2399SOL    HW2 9157   1.539   4.330   6.644
 2400SOL     OW 9158   1.857   4.557   5.963
 2400SOL    HW1 9159   1.899   4.493   6.027
 2400SOL    HW2 9160   1.819   4.506   5.885
 2401SOL     OW 9161   0.488   5.109   5.760
 2401SOL    HW1 9162   0.401   5.094   5.807
 2401SOL    HW2 9163   0.471   5.135   5.665
 2402SOL     OW 9164   1.664   5.004   6.243
 2402SOL    HW1 9165   1.763   5.012   6.257
 2402SOL    HW2 9166   1.619   5.088   6.274
 2403SOL     OW 9167   1.390   4.299   5.664
 2403SOL    HW1 9168   1.336   4.278   5.745
 2403SOL    HW2 9169   1.481   4.258   5.673
 2404SOL     OW 9170   0.527   3.980   5.914
 2404SOL    HW1 9171   0.554   3.921   5.839
 2404SOL    HW2 9172   0.527   4.075   5.883
 2405SOL     OW 9173   1.754   4.947   7.174
 2405SOL    HW1 9174   1.845   4.908   7.161
 2405SOL    HW2 9175   1.762   5.043   7.198
 2406SOL     OW 9176   1.064   5.071   6.926
 2406SOL    HW1 9177   0.984   5.048   6.981
 2406SOL    HW2 9178   1.147   5.045   6.975
 2407SOL     OW 9179   1.592   5.353   7.211
 2407SOL    HW1 9180   1.619   5.387   7.121
 2407SOL    HW2 9181   1.671   5.315   7.257
 2408SOL     OW 9182   1.111   4.919   6.686
 2408SOL    HW1 9183   1.071   4.963   6.767
 2408SOL    HW2 9184   1.070   4.956   6.603
 2409SOL     OW 9185   1.638   4.823   6.665
 2409SOL    HW1 9186   1.643   4.904   6.724
 2409SOL    HW2 9187   1.552   4.825   6.614
 2410SOL     OW 9188   0.915   3.813   6.988
 2410SOL    HW1 9189   0.940   3.793   6.893
 2410SOL    HW2 9190   0.987   3.869   7.030
 2411SOL     OW 9191   0.980   4.840   7.305
 2411SOL    HW1 9192   0.881   4.846   7.315
 2411SOL    HW2 9193   1.003   4.760   7.249
 2412SOL     OW 9194   0.705   4.774   5.954
 2412SOL    HW1 9195   0.691   4.781   6.053
 2412SOL    HW2 9196   0.789   4.723   5.936
 2413SOL     OW 9197   0.410   4.537   6.837
 2413SOL    HW1 9198   0.496   4.549   6.887
 2413SOL    HW2 9199   0.368   4.450   6.864
 2414SOL     OW 9200   1.274   4.110   6.848
 2414SOL    HW1 9201   1.295   4.184   6.912
 2414SOL    HW2 9202   1.185   4.127   6.805
 2415SOL     OW 9203   0.367   4.824   6.087
 2415SOL    HW1 9204   0.360   4.907   6.031
 2415SOL    HW2 9205   0.371   4.744   6.027
 2416SOL     OW 9206   0.566   4.261   6.451
 2416SOL    HW1 9207   0.578   4.327   6.377
 2416SOL    HW2 9208   0.612   4.295   6.534
 2417SOL     OW 9209   1.252   5.072   5.974
 2417SOL    HW1 9210   1.302   5.149   6.014
 2417SOL    HW2 9211   1.157   5.074   6.006
 2418SOL     OW 9212   1.272   5.169   6.728
 2418SOL    HW1 9213   1.319   5.182   6.815
 2418SOL    HW2 9214   1.206   5.095   6.737
 2419SOL     OW 9215   1.582   4.363   6.058
 2419SOL    HW1 9216   1.551   4.424   6.131
 2419SOL    HW2 9217   1.632   4.415   5.989
 2420SOL     OW 9218   0.354   5.234   6.915
 2420SOL    HW1 9219   0.333   5.190   6.828
 2420SOL    HW2 9220   0.451   5.260   6.918
 2421SOL     OW 9221   0.402   4.475   7.184
 2421SOL    HW1 9222   0.470   4.530   7.137
 2421SOL    HW2 9223   0.442   4.387   7.211
 2422SOL     OW 9224   1.587   4.503   7.256
 2422SOL    HW1 9225   1.495   4.541   7.251
 2422SOL    HW2 9226   1.647   4.550   7.191
 2423SOL     OW 9227   1.013   3.829   7.356
 2423SOL    HW1 9228   1.019   3.914   7.304
 2423SOL    HW2 9229   1.045   3.753   7.299
 2424SOL     OW 9230   0.504   3.774   7.326
 2424SOL    HW1 9231   0.462   3.717   7.256
 2424SOL    HW2 9232   0.438   3.843   7.358
 2425SOL     OW 9233   0.573   4.594   6.615
 2425SOL    HW1 9234   0.617   4.683   6.606
 2425SOL    HW2 9235   0.510   4.594   6.692
 2426SOL     OW 9236   1.360   4.586   6.631
 2426SOL    HW1 9237   1.285   4.586   6.565
 2426SOL    HW2 9238   1.397   4.494   6.640
 2427SOL     OW 9239   1.209   4.249   5.861
 2427SOL    HW1 9240   1.222   4.165   5.915
 2427SOL    HW2 9241   1.180   4.323   5.921
 2428SOL     OW 9242   0.732   4.358   6.650
 2428SOL    HW1 9243   0.791   4.332   6.574
 2428SOL    HW2 9244   0.704   4.454   6.639
 2429SOL     OW 9245   1.728   4.659   7.440
 2429SOL    HW1 9246   1.682   4.652   7.351
 2429SOL    HW2 9247   1.666   4.703   7.506
 2430SOL     OW 9248   0.307   3.787   6.204
 2430SOL    HW1 9249   0.296   3.881   6.237
 2430SOL    HW2 9250   0.302   3.724   6.281
 2431SOL     OW 9251   1.622   4.091   5.960
 2431SOL    HW1 9252   1.624   4.015   6.024
 2431SOL    HW2 9253   1.574   4.168   6.000
 2432SOL     OW 9254   1.023   4.490   6.552
 2432SOL    HW1 9255   1.038   4.511   6.648
 2432SOL    HW2 9256   0.993   4.395   6.543
 2433SOL     OW 9257   0.980   5.297   7.286
 2433SOL    HW1 9258   0.960   5.341   7.198
 2433SOL    HW2 9259   1.019   5.206   7.270
 2434SOL     OW 9260   1.859   5.242   7.191
 2434SOL    HW1 9261   1.873   5.269   7.096
 2434SOL    HW2 9262   1.942   5.264   7.244
 2435SOL     OW 9263   0.350   4.622   7.390
 2435SOL    HW1 9264   0.426   4.666   7.438
 2435SOL    HW2 9265   0.385   4.575   7.308
 2436SOL     OW 9266   1.540   3.998   5.711
 2436SOL    HW1 9267   1.479   3.923   5.734
 2436SOL    HW2 9268   1.562   4.050   5.794
 2437SOL     OW 9269   1.303   4.562   5.628
 2437SOL    HW1 9270   1.337   4.469   5.643
 2437SOL    HW2 9271   1.321   4.589   5.533
 2438SOL     OW 9272   1.068   5.057   6.435
 2438SOL    HW1 9273   1.075   4.973   6.380
 2438SOL    HW2 9274   1.130   5.126   6.399
 2439SOL     OW 9275   0.319   4.534   6.535
 2439SOL    HW1 9276   0.412   4.570   6.540
 2439SOL    HW2 9277   0.313   4.449   6.587
 2440SOL     OW 9278   1.138   4.104   7.264
 2440SOL    HW1 9279   1.093   4.167   7.328
 2440SOL    HW2 9280   1.231   4.135   7.247
 2441SOL     OW 9281   1.160   3.931   7.063
 2441SOL    HW1 9282   1.160   3.995   7.140
 2441SOL    HW2 9283   1.188   3.979   6.980
 2442SOL     OW 9284   0.504   5.292   6.496
 2442SOL    HW1 9285   0.570   5.366   6.505
 2442SOL    HW2 9286   0.548   5.213   6.454
 2443SOL     OW 9287   1.002   4.520   6.824
 2443SOL    HW1 9288   1.043   4.488   6.910
 2443SOL    HW2 9289   0.906   4.493   6.821
 2444SOL     OW 9290   1.369   4.674   7.246
 2444SOL    HW1 9291   1.408   4.763   7.266
 2444SOL    HW2 9292   1.379   4.654   7.149
 2445SOL     OW 9293   0.815   4.296   5.911
 2445SOL    HW1 9294   0.822   4.207   5.865
 2445SOL    HW2 9295   0.721   4.330   5.903
 2446SOL     OW 9296   1.657   4.328   6.792
 2446SOL    HW1 9297   1.619   4.259   6.854
 2446SOL    HW2 9298   1.739   4.292   6.748
 2447SOL     OW 9299   0.671   4.188   6.855
 2447SOL    HW1 9300   0.637   4.099   6.825
 2447SOL    HW2 9301   0.697   4.242   6.775
 2448SOL     OW 9302   0.930   5.402   7.051
 2448SOL    HW1 9303   0.906   5.384   6.956
 2448SOL    HW2 9304   0.960   5.496   7.061
 2449SOL     OW 9305   0.473   4.224   5.777
 2449SOL    HW1 9306   0.534   4.304   5.781
 2449SOL    HW2 9307   0.378   4.255   5.784
 2450SOL     OW 9308   1.347   4.783   6.820
 2450SOL    HW1 9309   1.371   4.720   6.746
 2450SOL    HW2 9310   1.257   4.823   6.802
 2451SOL     OW 9311   1.302   4.579   5.895
 2451SOL    HW1 9312   1.216   4.548   5.937
 2451SOL    HW2 9313   1.298   4.565   5.796
 2452SOL     OW 9314   1.759   5.471   6.740
 2452SOL    HW1 9315   1.820   5.501   6.667
 2452SOL    HW2 9316   1.721   5.382   6.718
 2453SOL     OW 9317   1.252   5.455   6.714
 2453SOL    HW1 9318   1.336   5.460   6.660
 2453SOL    HW2 9319   1.229   5.359   6.732
 2454SOL     OW 9320   0.688   5.386   7.302
 2454SOL    HW1 9321   0.632   5.467   7.311
 2454SOL    HW2 9322   0.740   5.390   7.216
 2455SOL     OW 9323   0.903   3.810   5.719
 2455SOL    HW1 9324   0.954   3.811   5.633
 2455SOL    HW2 9325   0.959   3.768   5.790
 2456SOL     OW 9326   1.726   3.859   6.109
 2456SOL    HW1 9327   1.799   3.842   6.042
 2456SOL    HW2 9328   1.695   3.772   6.147
 2457SOL     OW 9329   1.388   5.297   6.063
 2457SOL    HW1 9330   1.455   5.309   5.989
 2457SOL    HW2 9331   1.348   5.386   6.086
 2458SOL     OW 9332   0.130   5.518   7.437
 2458SOL    HW1 9333   0.089   5.444   7.490
 2458SOL    HW2 9334   0.194   5.569   7.495
 2459SOL     OW 9335   1.280   4.651   6.258
 2459SOL    HW1 9336   1.340   4.570   6.260
 2459SOL    HW2 9337   1.320   4.720   6.198
 2460SOL     OW 9338   0.830   4.997   7.008
 2460SOL    HW1 9339   0.825   5.030   7.103
 2460SOL    HW2 9340   0.744   5.016   6.962
 2461SOL     OW 9341   0.672   5.340   5.740
 2461SOL    HW1 9342   0.681   5.350   5.641
 2461SOL    HW2 9343   0.632   5.251   5.761
 2462SOL     OW 9344   1.650   5.444   6.980
 2462SOL    HW1 9345   1.703   5.454   6.896
 2462SOL    HW2 9346   1.623   5.534   7.014
 2463SOL     OW 9347   1.841   3.899   6.549
 2463SOL    HW1 9348   1.880   3.814   6.513
 2463SOL    HW2 9349   1.743   3.901   6.530
 2464SOL     OW 9350   0.263   4.050   6.306
 2464SOL    HW1 9351   0.184   4.101   6.272
 2464SOL    HW2 9352   0.254   4.035   6.404
 2465SOL     OW 9353   1.194   5.336   5.617
 2465SOL    HW1 9354   1.200   5.243   5.654
 2465SOL    HW2 9355   1.135   5.336   5.537
 2466SOL     OW 9356   0.822   4.726   6.958
 2466SOL    HW1 9357   0.862   4.725   6.866
 2466SOL    HW2 9358   0.832   4.818   6.998
 2467SOL     OW 9359   0.916   4.634   5.877
 2467SOL    HW1 9360   0.979   4.672   5.809
 2467SOL    HW2 9361   0.956   4.551   5.916
 2468SOL     OW 9362   1.504   5.331   5.630
 2468SOL    HW1 9363   1.412   5.368   5.637
 2468SOL    HW2 9364   1.542   5.351   5.540
 2469SOL     OW 9365   0.372   5.012   7.076
 2469SOL    HW1 9366   0.359   5.105   7.042
 2469SOL    HW2 9367   0.288   4.960   7.063
 2470SOL     OW 9368   1.614   5.016   6.875
 2470SOL    HW1 9369   1.674   5.019   6.955
 2470SOL    HW2 9370   1.539   5.080   6.888
 2471SOL     OW 9371   1.039   4.822   6.282
 2471SOL    HW1 9372   0.969   4.775   6.336
 2471SOL    HW2 9373   1.098   4.754   6.239
 2472SOL     OW 9374   1.014   3.960   6.557
 2472SOL    HW1 9375   1.006   3.924   6.464
 2472SOL    HW2 9376   1.012   3.884   6.622
 2473SOL     OW 9377   0.590   5.211   6.077
 2473SOL    HW1 9378   0.632   5.153   6.007
 2473SOL    HW2 9379   0.546   5.290   6.033
 2474SOL     OW 9380   1.709   4.109   6.967
 2474SOL    HW1 9381   1.782   4.178   6.971
 2474SOL    HW2 9382   1.737   4.034   6.908
 2475SOL     OW 9383   0.255   5.072   5.876
 2475SOL    HW1 9384   0.159   5.073   5.849
 2475SOL    HW2 9385   0.267   5.125   5.960
 2476SOL     OW 9386   0.672   3.927   7.075
 2476SOL    HW1 9387   0.762   3.911   7.035
 2476SOL    HW2 9388   0.680   3.932   7.174
 2477SOL     OW 9389   1.440   4.580   6.984
 2477SOL    HW1 9390   1.383   4.632   6.921
 2477SOL    HW2 9391   1.536   4.592   6.960
 2478SOL     OW 9392   1.183   5.059   5.705
 2478SOL    HW1 9393   1.084   5.048   5.707
 2478SOL    HW2 9394   1.217   5.074   5.798
 2479SOL     OW 9395   0.613   4.566   7.017
 2479SOL    HW1 9396   0.669   4.647   7.000
 2479SOL    HW2 9397   0.672   4.486   7.020
 2480SOL     OW 9398   1.493   5.491   6.545
 2480SOL    HW1 9399   1.526   5.555   6.476
 2480SOL    HW2 9400   1.559   5.485   6.620
 2481SOL     OW 9401   0.716   4.289   7.294
 2481SOL    HW1 9402   0.735   4.354   7.368
 2481SOL    HW2 9403   0.776   4.209   7.303
 2482SOL     OW 9404   1.450   4.944   7.219
 2482SOL    HW1 9405   1.441   4.934   7.318
 2482SOL    HW2 9406   1.546   4.937   7.193
 2483SOL     OW 9407   0.390   5.465   7.146
 2483SOL    HW1 9408   0.299   5.506   7.144
 2483SOL    HW2 9409   0.383   5.371   7.178
 2484SOL     OW 9410   1.674   4.607   6.840
 2484SOL    HW1 9411   1.647   4.518   6.803
 2484SOL    HW2 9412   1.675   4.675   6.767
 2485SOL     OW 9413   1.225   4.049   6.035
 2485SOL    HW1 9414   1.290   3.975   6.024
 2485SOL    HW2 9415   1.245   4.099   6.119
 2486SOL     OW 9416   0.594   4.469   6.238
 2486SOL    HW1 9417   0.644   4.554   6.219
 2486SOL    HW2 9418   0.506   4.471   6.190
 2487SOL     OW 9419   1.777   4.066   7.228
 2487SOL    HW1 9420   1.760   4.097   7.134
 2487SOL    HW2 9421   1.693   4.029   7.266
 2488SOL     OW 9422   1.730   4.658   7.103
 2488SOL    HW1 9423   1.768   4.749   7.118
 2488SOL    HW2 9424   1.722   4.641   7.004
 2489SOL     OW 9425   0.859   5.098   5.602
 2489SOL    HW1 9426   0.813   5.113   5.690
 2489SOL    HW2 9427   0.903   5.183   5.572
 2490SOL     OW 9428   0.661   5.514   6.539
 2490SOL    HW1 9429   0.615   5.602   6.526
 2490SOL    HW2 9430   0.760   5.526   6.532
 2491SOL     OW 9431   1.408   5.575   7.306
 2491SOL    HW1 9432   1.312   5.564   7.279
 2491SOL    HW2 9433   1.464   5.508   7.258
 2492SOL     OW 9434   0.859   4.680   6.447
 2492SOL    HW1 9435   0.913   4.611   6.495
 2492SOL    HW2 9436   0.827   4.749   6.513
 2493SOL     OW 9437   1.083   4.708   5.673
 2493SOL    HW1 9438   1.060   4.761   5.591
 2493SOL    HW2 9439   1.164   4.652   5.654
 2494SOL     OW 9440   1.861   5.293   6.437
 2494SOL    HW1 9441   1.790   5.281   6.367
 2494SOL    HW2 9442   1.862   5.214   6.497
 2495SOL     OW 9443   0.672   5.115   7.210
 2495SOL    HW1 9444   0.594   5.065   7.248
 2495SOL    HW2 9445   0.669   5.210   7.241
 2496SOL     OW 9446   1.824   3.916   6.813
 2496SOL    HW1 9447   1.820   3.826   6.857
 2496SOL    HW2 9448   1.827   3.905   6.714
 2497SOL     OW 9449   0.428   4.148   6.106
 2497SOL    HW1 9450   0.458   4.076   6.044
 2497SOL    HW2 9451   0.389   4.108   6.189
 2498SOL     OW 9452   1.705   5.211   6.690
 2498SOL    HW1 9453   1.612   5.186   6.663
 2498SOL    HW2 9454   1.731   5.161   6.772
 2499SOL     OW 9455   0.812   5.310   6.273
 2499SOL    HW1 9456   0.844   5.320   6.179
 2499SOL    HW2 9457   0.733   5.248   6.275
 2500SOL     OW 9458   1.424   3.938   6.698
 2500SOL    HW1 9459   1.476   3.873   6.753
 2500SOL    HW2 9460   1.375   4.001   6.759
 2501SOL     OW 9461   1.001   3.758   6.740
 2501SOL    HW1 9462   0.938   3.686   6.709
 2501SOL    HW2 9463   1.094   3.722   6.740
 2502SOL     OW 9464   0.770   5.054   5.887
 2502SOL    HW1 9465   0.724   4.967   5.904
 2502SOL    HW2 9466   0.861   5.051   5.928
 2503SOL     OW 9467   0.618   5.291   6.870
 2503SOL    HW1 9468   0.613   5.373   6.927
 2503SOL    HW2 9469   0.707   5.288   6.825
 2504SOL     OW 9470   1.352   3.776   5.754
 2504SOL    HW1 9471   1.387   3.735   5.670
 2504SOL    HW2 9472   1.262   3.738   5.774
 2505SOL     OW 9473   1.300   4.177   6.277
 2505SOL    HW1 9474   1.241   4.257   6.281
 2505SOL    HW2 9475   1.315   4.142   6.370
 2506SOL     OW 9476   1.593   3.945   6.468
 2506SOL    HW1 9477   1.509   3.944   6.522
 2506SOL    HW2 9478   1.595   4.028   6.412
 2507SOL     OW 9479   0.875   5.370   5.923
 2507SOL    HW1 9480   0.798   5.335   5.869
 2507SOL    HW2 9481   0.843   5.441   5.985
 2508SOL     OW 9482   0.019   4.092   8.095
 2508SOL    HW1 9483  -0.063   4.135   8.134
 2508SOL    HW2 9484  -0.009   4.019   8.032
 2509SOL     OW 9485   0.569   4.999   8.613
 2509SOL    HW1 9486   0.476   4.992   8.576
 2509SOL    HW2 9487   0.580   5.088   8.657
 2510SOL     OW 9488   1.555   5.235   8.151
 2510SOL    HW1 9489   1.498   5.219   8.232
 2510SOL    HW2 9490   1.496   5.245   8.071
 2511SOL     OW 9491   1.743   4.342   8.304
 2511SOL    HW1 9492   1.776   4.436   8.304
 2511SOL    HW2 9493   1.794   4.288   8.370
 2512SOL     OW 9494   1.135   4.427   8.165
 2512SOL    HW1 9495   1.192   4.505   8.140
 2512SOL    HW2 9496   1.075   4.453   8.241
 2513SOL     OW 9497   1.755   4.331   7.679
 2513SOL    HW1 9498   1.743   4.318   7.580
 2513SOL    HW2 9499   1.725   4.250   7.728
 2514SOL     OW 9500   0.768   4.868   8.471
 2514SOL    HW1 9501   0.690   4.885   8.531
 2514SOL    HW2 9502   0.802   4.955   8.435
 2515SOL     OW 9503   0.685   4.736   8.113
 2515SOL    HW1 9504   0.754   4.720   8.183
 2515SOL    HW2 9505   0.612   4.793   8.151
 2516SOL     OW 9506   0.335   5.159   8.509
 2516SOL    HW1 9507   0.257   5.128   8.456
 2516SOL    HW2 9508   0.393   5.217   8.452
 2517SOL     OW 9509   1.460   5.229   8.787
 2517SOL    HW1 9510   1.484   5.323   8.813
 2517SOL    HW2 9511   1.444   5.175   8.869
 2518SOL     OW 9512   0.438   4.116   8.947
 2518SOL    HW1 9513   0.520   4.060   8.956
 2518SOL    HW2 9514   0.357   4.058   8.951
 2519SOL     OW 9515   1.603   4.171   8.185
 2519SOL    HW1 9516   1.529   4.217   8.135
 2519SOL    HW2 9517   1.654   4.239   8.238
 2520SOL     OW 9518   0.620   5.510   8.887
 2520SOL    HW1 9519   0.528   5.493   8.922
 2520SOL    HW2 9520   0.648   5.602   8.913
 2521SOL     OW 9521   0.606   4.688   7.571
 2521SOL    HW1 9522   0.613   4.772   7.517
 2521SOL    HW2 9523   0.652   4.701   7.659
 2522SOL     OW 9524   1.594   3.838   8.928
 2522SOL    HW1 9525   1.576   3.905   8.856
 2522SOL    HW2 9526   1.591   3.884   9.017
 2523SOL     OW 9527   1.842   5.491   7.807
 2523SOL    HW1 9528   1.896   5.462   7.887
 2523SOL    HW2 9529   1.872   5.581   7.778
 2524SOL     OW 9530   1.689   4.646   8.060
 2524SOL    HW1 9531   1.784   4.617   8.068
 2524SOL    HW2 9532   1.681   4.711   7.985
 2525SOL     OW 9533   1.641   4.832   7.880
 2525SOL    HW1 9534   1.727   4.834   7.828
 2525SOL    HW2 9535   1.655   4.879   7.968
 2526SOL     OW 9536   0.613   5.089   8.174
 2526SOL    HW1 9537   0.564   5.002   8.183
 2526SOL    HW2 9538   0.590   5.132   8.087
 2527SOL     OW 9539   0.809   3.728   7.950
 2527SOL    HW1 9540   0.849   3.819   7.941
 2527SOL    HW2 9541   0.709   3.736   7.956
 2528SOL     OW 9542   1.525   4.723   7.638
 2528SOL    HW1 9543   1.462   4.647   7.651
 2528SOL    HW2 9544   1.573   4.741   7.724
 2529SOL     OW 9545   1.466   5.141   8.401
 2529SOL    HW1 9546   1.407   5.147   8.481
 2529SOL    HW2 9547   1.451   5.053   8.355
 2530SOL     OW 9548   1.667   5.438   8.020
 2530SOL    HW1 9549   1.626   5.415   7.932
 2530SOL    HW2 9550   1.649   5.364   8.085
 2531SOL     OW 9551   0.598   4.453   7.718
 2531SOL    HW1 9552   0.622   4.522   7.650
 2531SOL    HW2 9553   0.520   4.486   7.772
 2532SOL     OW 9554   1.281   4.069   8.392
 2532SOL    HW1 9555   1.195   4.019   8.379
 2532SOL    HW2 9556   1.343   4.015   8.448
 2533SOL     OW 9557   1.576   5.386   7.755
 2533SOL    HW1 9558   1.665   5.432   7.758
 2533SOL    HW2 9559   1.555   5.362   7.660
 2534SOL     OW 9560   0.807   4.329   8.913
 2534SOL    HW1 9561   0.760   4.326   9.002
 2534SOL    HW2 9562   0.756   4.274   8.847
 2535SOL     OW 9563   0.991   4.134   8.690
 2535SOL    HW1 9564   0.914   4.168   8.744
 2535SOL    HW2 9565   0.957   4.083   8.611
 2536SOL     OW 9566   1.041   4.425   7.877
 2536SOL    HW1 9567   1.067   4.421   7.973
 2536SOL    HW2 9568   0.956   4.374   7.863
 2537SOL     OW 9569   0.865   4.072   7.643
 2537SOL    HW1 9570   0.924   4.135   7.594
 2537SOL    HW2 9571   0.884   3.978   7.614
 2538SOL     OW 9572   1.362   4.868   7.993
 2538SOL    HW1 9573   1.445   4.839   7.945
 2538SOL    HW2 9574   1.313   4.935   7.937
 2539SOL     OW 9575   0.550   3.920   8.333
 2539SOL    HW1 9576   0.545   3.915   8.433
 2539SOL    HW2 9577   0.552   4.016   8.304
 2540SOL     OW 9578   1.008   5.180   7.925
 2540SOL    HW1 9579   0.962   5.252   7.873
 2540SOL    HW2 9580   1.004   5.200   8.023
 2541SOL     OW 9581   0.351   5.525   8.301
 2541SOL    HW1 9582   0.401   5.439   8.307
 2541SOL    HW2 9583   0.416   5.602   8.298
 2542SOL     OW 9584   1.795   4.790   8.321
 2542SOL    HW1 9585   1.733   4.775   8.245
 2542SOL    HW2 9586   1.743   4.801   8.406
 2543SOL     OW 9587   0.321   4.667   7.690
 2543SOL    HW1 9588   0.403   4.706   7.648
 2543SOL    HW2 9589   0.294   4.585   7.641
 2544SOL     OW 9590   1.458   4.459   8.176
 2544SOL    HW1 9591   1.453   4.394   8.251
 2544SOL    HW2 9592   1.538   4.518   8.189
 2545SOL     OW 9593   1.111   5.500   7.685
 2545SOL    HW1 9594   1.051   5.438   7.735
 2545SOL    HW2 9595   1.142   5.456   7.600
 2546SOL     OW 9596   1.632   5.101   7.529
 2546SOL    HW1 9597   1.600   5.195   7.519
 2546SOL    HW2 9598   1.556   5.038   7.517
 2547SOL     OW 9599   0.464   5.467   7.771
 2547SOL    HW1 9600   0.497   5.506   7.857
 2547SOL    HW2 9601   0.540   5.460   7.706
 2548SOL     OW 9602   1.400   3.831   7.874
 2548SOL    HW1 9603   1.376   3.794   7.784
 2548SOL    HW2 9604   1.499   3.847   7.878
 2549SOL     OW 9605   0.940   5.422   8.352
 2549SOL    HW1 9606   1.020   5.365   8.373
 2549SOL    HW2 9607   0.891   5.382   8.275
 2550SOL     OW 9608   0.382   4.424   7.928
 2550SOL    HW1 9609   0.427   4.334   7.925
 2550SOL    HW2 9610   0.288   4.413   7.961
 2551SOL     OW 9611   0.614   3.846   7.565
 2551SOL    HW1 9612   0.712   3.824   7.572
 2551SOL    HW2 9613   0.583   3.829   7.472
 2552SOL     OW 9614   0.888   5.238   8.643
 2552SOL    HW1 9615   0.865   5.213   8.549
 2552SOL    HW2 9616   0.949   5.169   8.682
 2553SOL     OW 9617   0.803   5.126   8.372
 2553SOL    HW1 9618   0.893   5.140   8.330
 2553SOL    HW2 9619   0.732   5.128   8.301
 2554SOL     OW 9620   0.922   4.227   8.347
 2554SOL    HW1 9621   0.897   4.218   8.251
 2554SOL    HW2 9622   0.970   4.145   8.378
 2555SOL     OW 9623   0.539   3.788   7.960
 2555SOL    HW1 9624   0.458   3.789   8.018
 2555SOL    HW2 9625   0.542   3.871   7.905
 2556SOL     OW 9626   1.434   4.912   7.489
 2556SOL    HW1 9627   1.466   4.836   7.546
 2556SOL    HW2 9628   1.342   4.939   7.519
 2557SOL     OW 9629   0.297   3.759   7.619
 2557SOL    HW1 9630   0.346   3.843   7.598
 2557SOL    HW2 9631   0.359   3.694   7.664
 2558SOL     OW 9632   0.935   3.960   7.928
 2558SOL    HW1 9633   0.887   4.001   7.850
 2558SOL    HW2 9634   1.034   3.958   7.909
 2559SOL     OW 9635   1.227   5.294   8.241
 2559SOL    HW1 9636   1.248   5.368   8.176
 2559SOL    HW2 9637   1.295   5.294   8.314
 2560SOL     OW 9638   0.459   4.876   8.189
 2560SOL    HW1 9639   0.388   4.849   8.254
 2560SOL    HW2 9640   0.433   4.848   8.096
 2561SOL     OW 9641   1.271   5.521   8.039
 2561SOL    HW1 9642   1.315   5.585   7.975
 2561SOL    HW2 9643   1.221   5.573   8.109
 2562SOL     OW 9644   1.032   4.273   7.464
 2562SOL    HW1 9645   0.991   4.355   7.425
 2562SOL    HW2 9646   1.096   4.299   7.537
 2563SOL     OW 9647   0.561   3.946   8.595
 2563SOL    HW1 9648   0.599   3.862   8.632
 2563SOL    HW2 9649   0.473   3.965   8.639
 2564SOL     OW 9650   0.866   4.178   8.090
 2564SOL    HW1 9651   0.834   4.250   8.028
 2564SOL    HW2 9652   0.890   4.097   8.037
 2565SOL     OW 9653   1.017   3.763   8.201
 2565SOL    HW1 9654   0.945   3.768   8.132
 2565SOL    HW2 9655   0.993   3.694   8.270
 2566SOL     OW 9656   1.429   4.897   8.315
 2566SOL    HW1 9657   1.374   4.813   8.308
 2566SOL    HW2 9658   1.455   4.926   8.223
 2567SOL     OW 9659   1.466   4.314   8.440
 2567SOL    HW1 9660   1.436   4.219   8.447
 2567SOL    HW2 9661   1.539   4.330   8.506
 2568SOL     OW 9662   1.857   4.557   7.825
 2568SOL    HW1 9663   1.899   4.493   7.889
 2568SOL    HW2 9664   1.819   4.506   7.747
 2569SOL     OW 9665   0.488   5.109   7.622
 2569SOL    HW1 9666   0.401   5.094   7.669
 2569SOL    HW2 9667   0.471   5.135   7.527
 2570SOL     OW 9668   1.664   5.004   8.105
 2570SOL    HW1 9669   1.763   5.012   8.119
 2570SOL    HW2 9670   1.619   5.088   8.136
 2571SOL     OW 9671   1.390   4.299   7.526
 2571SOL    HW1 9672   1.336   4.278   7.607
 2571SOL    HW2 9673   1.481   4.258   7.535
 2572SOL     OW 9674   0.527   3.980   7.776
 2572SOL    HW1 9675   0.554   3.921   7.701
 2572SOL    HW2 9676   0.527   4.075   7.745
 2573SOL     OW 9677   1.064   5.071   8.788
 2573SOL    HW1 9678   0.984   5.048   8.843
 2573SOL    HW2 9679   1.147   5.045   8.837
 2574SOL     OW 9680   1.111   4.919   8.548
 2574SOL    HW1 9681   1.071   4.963   8.629
 2574SOL    HW2 9682   1.070   4.956   8.465
 2575SOL     OW 9683   1.638   4.823   8.527
 2575SOL    HW1 9684   1.643   4.904   8.586
 2575SOL    HW2 9685   1.552   4.825   8.476
 2576SOL     OW 9686   0.915   3.813   8.850
 2576SOL    HW1 9687   0.940   3.793   8.755
 2576SOL    HW2 9688   0.987   3.869   8.892
 2577SOL     OW 9689   0.705   4.774   7.816
 2577SOL    HW1 9690   0.691   4.781   7.915
 2577SOL    HW2 9691   0.789   4.723   7.798
 2578SOL     OW 9692   0.410   4.537   8.699
 2578SOL    HW1 9693   0.496   4.549   8.749
 2578SOL    HW2 9694   0.368   4.450   8.726
 2579SOL     OW 9695   1.274   4.110   8.710
 2579SOL    HW1 9696   1.295   4.184   8.774
 2579SOL    HW2 9697   1.185   4.127   8.667
 2580SOL     OW 9698   0.367   4.824   7.949
 2580SOL    HW1 9699   0.360   4.907   7.893
 2580SOL    HW2 9700   0.371   4.744   7.889
 2581SOL     OW 9701   0.566   4.261   8.313
 2581SOL    HW1 9702   0.578   4.327   8.239
 2581SOL    HW2 9703   0.612   4.295   8.396
 2582SOL     OW 9704   1.252   5.072   7.836
 2582SOL    HW1 9705   1.302   5.149   7.876
 2582SOL    HW2 9706   1.157   5.074   7.868
 2583SOL     OW 9707   1.272   5.169   8.590
 2583SOL    HW1 9708   1.319   5.182   8.677
 2583SOL    HW2 9709   1.206   5.095   8.599
 2584SOL     OW 9710   1.582   4.363   7.920
 2584SOL    HW1 9711   1.551   4.424   7.993
 2584SOL    HW2 9712   1.632   4.415   7.851
 2585SOL     OW 9713   0.354   5.234   8.777
 2585SOL    HW1 9714   0.333   5.190   8.690
 2585SOL    HW2 9715   0.451   5.260   8.780
 2586SOL     OW 9716   0.402   4.475   0.046
 2586SOL    HW1 9717   0.470   4.530  -0.001
 2586SOL    HW2 9718   0.442   4.387   0.073
 2587SOL     OW 9719   1.587   4.503   0.118
 2587SOL    HW1 9720   1.495   4.541   0.113
 2587SOL    HW2 9721   1.647   4.550   0.053
 2588SOL     OW 9722   0.573   4.594   8.477
 2588SOL    HW1 9723   0.617   4.683   8.468
 2588SOL    HW2 9724   0.510   4.594   8.554
 2589SOL     OW 9725   1.360   4.586   8.493
 2589SOL    HW1 9726   1.285   4.586   8.427
 2589SOL    HW2 9727   1.397   4.494   8.502
 2590SOL     OW 9728   1.209   4.249   7.723
 2590SOL    HW1 9729   1.222   4.165   7.777
 2590SOL    HW2 9730   1.180   4.323   7.783
 2591SOL     OW 9731   0.732   4.358   8.512
 2591SOL    HW1 9732   0.791   4.332   8.436
 2591SOL    HW2 9733   0.704   4.454   8.501
 2592SOL     OW 9734   0.307   3.787   8.066
 2592SOL    HW1 9735   0.296   3.881   8.099
 2592SOL    HW2 9736   0.302   3.724   8.143
 2593SOL     OW 9737   1.622   4.091   7.822
 2593SOL    HW1 9738   1.624   4.015   7.886
 2593SOL    HW2 9739   1.574   4.168   7.862
 2594SOL     OW 9740   1.023   4.490   8.414
 2594SOL    HW1 9741   1.038   4.511   8.510
 2594SOL    HW2 9742   0.993   4.395   8.405
 2595SOL     OW 9743   0.980   5.297   0.148
 2595SOL    HW1 9744   0.960   5.341   0.060
 2595SOL    HW2 9745   1.019   5.206   0.132
 2596SOL     OW 9746   1.859   5.242   0.053
 2596SOL    HW1 9747   1.873   5.269  -0.042
 2596SOL    HW2 9748   1.942   5.264   0.106
 2597SOL     OW 9749   1.540   3.998   7.573
 2597SOL    HW1 9750   1.479   3.923   7.596
 2597SOL    HW2 9751   1.562   4.050   7.656
 2598SOL     OW 9752   1.303   4.562   7.490
 2598SOL    HW1 9753   1.337   4.469   7.505
 2598SOL    HW2 9754   1.321   4.589   7.395
 2599SOL     OW 9755   1.068   5.057   8.297
 2599SOL    HW1 9756   1.075   4.973   8.242
 2599SOL    HW2 9757   1.130   5.126   8.261
 2600SOL     OW 9758   0.319   4.534   8.397
 2600SOL    HW1 9759   0.412   4.570   8.402
 2600SOL    HW2 9760   0.313   4.449   8.449
 2601SOL     OW 9761   1.138   4.104   0.126
 2601SOL    HW1 9762   1.093   4.167   0.190
 2601SOL    HW2 9763   1.231   4.135   0.109
 2602SOL     OW 9764   1.160   3.931   8.925
 2602SOL    HW1 9765   1.160   3.995   9.002
 2602SOL    HW2 9766   1.188   3.979   8.842
 2603SOL     OW 9767   0.504   5.292   8.358
 2603SOL    HW1 9768   0.570   5.366   8.367
 2603SOL    HW2 9769   0.548   5.213   8.316
 2604SOL     OW 9770   1.002   4.520   8.686
 2604SOL    HW1 9771   1.043   4.488   8.772
 2604SOL    HW2 9772   0.906   4.493   8.683
 2605SOL     OW 9773   0.815   4.296   7.773
 2605SOL    HW1 9774   0.822   4.207   7.727
 2605SOL    HW2 9775   0.721   4.330   7.765
 2606SOL     OW 9776   1.657   4.328   8.654
 2606SOL    HW1 9777   1.619   4.259   8.716
 2606SOL    HW2 9778   1.739   4.292   8.610
 2607SOL     OW 9779   0.671   4.188   8.717
 2607SOL    HW1 9780   0.637   4.099   8.687
 2607SOL    HW2 9781   0.697   4.242   8.637
 2608SOL     OW 9782   0.930   5.402   8.913
 2608SOL    HW1 9783   0.906   5.384   8.818
 2608SOL    HW2 9784   0.960   5.496   8.923
 2609SOL     OW 9785   0.473   4.224   7.639
 2609SOL    HW1 9786   0.534   4.304   7.643
 2609SOL    HW2 9787   0.378   4.255   7.646
 2610SOL     OW 9788   1.347   4.783   8.682
 2610SOL    HW1 9789   1.371   4.720   8.608
 2610SOL    HW2 9790   1.257   4.823   8.664
 2611SOL     OW 9791   1.302   4.579   7.757
 2611SOL    HW1 9792   1.216   4.548   7.799
 2611SOL    HW2 9793   1.298   4.565   7.658
 2612SOL     OW 9794   1.759   5.471   8.602
 2612SOL    HW1 9795   1.820   5.501   8.529
 2612SOL    HW2 9796   1.721   5.382   8.580
 2613SOL     OW 9797   1.252   5.455   8.576
 2613SOL    HW1 9798   1.336   5.460   8.522
 2613SOL    HW2 9799   1.229   5.359   8.594
 2614SOL     OW 9800   0.903   3.810   7.581
 2614SOL    HW1 9801   0.954   3.811   7.495
 2614SOL    HW2 9802   0.959   3.768   7.652
 2615SOL     OW 9803   1.726   3.859   7.971
 2615SOL    HW1 9804   1.799   3.842   7.904
 2615SOL    HW2 9805   1.695   3.772   8.009
 2616SOL     OW 9806   1.388   5.297   7.925
 2616SOL    HW1 9807   1.455   5.309   7.851
 2616SOL    HW2 9808   1.348   5.386   7.948
 2617SOL     OW 9809   1.280   4.651   8.120
 2617SOL    HW1 9810   1.340   4.570   8.122
 2617SOL    HW2 9811   1.320   4.720   8.060
 2618SOL     OW 9812   0.672   5.340   7.602
 2618SOL    HW1 9813   0.681   5.350   7.503
 2618SOL    HW2 9814   0.632   5.251   7.623
 2619SOL     OW 9815   1.650   5.444   8.842
 2619SOL    HW1 9816   1.703   5.454   8.758
 2619SOL    HW2 9817   1.623   5.534   8.876
 2620SOL     OW 9818   1.841   3.899   8.411
 2620SOL    HW1 9819   1.880   3.814   8.375
 2620SOL    HW2 9820   1.743   3.901   8.392
 2621SOL     OW 9821   0.263   4.050   8.168
 2621SOL    HW1 9822   0.184   4.101   8.134
 2621SOL    HW2 9823   0.254   4.035   8.266
 2622SOL     OW 9824   1.194   5.336   7.479
 2622SOL    HW1 9825   1.200   5.243   7.516
 2622SOL    HW2 9826   1.135   5.336   7.399
 2623SOL     OW 9827   0.822   4.726   8.820
 2623SOL    HW1 9828   0.862   4.725   8.728
 2623SOL    HW2 9829   0.832   4.818   8.860
 2624SOL     OW 9830   0.916   4.634   7.739
 2624SOL    HW1 9831   0.979   4.672   7.671
 2624SOL    HW2 9832   0.956   4.551   7.778
 2625SOL     OW 9833   1.504   5.331   7.492
 2625SOL    HW1 9834   1.412   5.368   7.499
 2625SOL    HW2 9835   1.542   5.351   7.402
 2626SOL     OW 9836   0.372   5.012   8.938
 2626SOL    HW1 9837   0.359   5.105   8.904
 2626SOL    HW2 9838   0.288   4.960   8.925
 2627SOL     OW 9839   1.614   5.016   8.737
 2627SOL    HW1 9840   1.674   5.019   8.817
 2627SOL    HW2 9841   1.539   5.080   8.750
 2628SOL     OW 9842   1.039   4.822   8.144
 2628SOL    HW1 9843   0.969   4.775   8.198
 2628SOL    HW2 9844   1.098   4.754   8.101
 2629SOL     OW 9845   1.014   3.960   8.419
 2629SOL    HW1 9846   1.006   3.924   8.326
 2629SOL    HW2 9847   1.012   3.884   8.484
 2630SOL     OW 9848   0.590   5.211   7.939
 2630SOL    HW1 9849   0.632   5.153   7.869
 2630SOL    HW2 9850   0.546   5.290   7.895
 2631SOL     OW 9851   1.709   4.109   8.829
 2631SOL    HW1 9852   1.782   4.178   8.833
 2631SOL    HW2 9853   1.737   4.034   8.770
 2632SOL     OW 9854   0.255   5.072   7.738
 2632SOL    HW1 9855   0.159   5.073   7.711
 2632SOL    HW2 9856   0.267   5.125   7.822
 2633SOL     OW 9857   1.440   4.580   8.846
 2633SOL    HW1 9858   1.383   4.632   8.783
 2633SOL    HW2 9859   1.536   4.592   8.822
 2634SOL     OW 9860   1.183   5.059   7.567
 2634SOL    HW1 9861   1.084   5.048   7.569
 2634SOL    HW2 9862   1.217   5.074   7.660
 2635SOL     OW 9863   0.613   4.566   8.879
 2635SOL    HW1 9864   0.669   4.647   8.862
 2635SOL    HW2 9865   0.672   4.486   8.882
 2636SOL     OW 9866   1.493   5.491   8.407
 2636SOL    HW1 9867   1.526   5.555   8.338
 2636SOL    HW2 9868   1.559   5.485   8.482
 2637SOL     OW 9869   0.390   5.465   0.008
 2637SOL    HW1 9870   0.299   5.506   0.006
 2637SOL    HW2 9871   0.383   5.371   0.040
 2638SOL     OW 9872   1.674   4.607   8.702
 2638SOL    HW1 9873   1.647   4.518   8.665
 2638SOL    HW2 9874   1.675   4.675   8.629
 2639SOL     OW 9875   1.225   4.049   7.897
 2639SOL    HW1 9876   1.290   3.975   7.886
 2639SOL    HW2 9877   1.245   4.099   7.981
 2640SOL     OW 9878   0.594   4.469   8.100
 2640SOL    HW1 9879   0.644   4.554   8.081
 2640SOL    HW2 9880   0.506   4.471   8.052
 2641SOL     OW 9881   1.777   4.066   0.090
 2641SOL    HW1 9882   1.760   4.097  -0.004
 2641SOL    HW2 9883   1.693   4.029   0.128
 2642SOL     OW 9884   1.730   4.658   8.965
 2642SOL    HW1 9885   1.768   4.749   8.980
 2642SOL    HW2 9886   1.722   4.641   8.866
 2643SOL     OW 9887   0.859   5.098   7.464
 2643SOL    HW1 9888   0.813   5.113   7.552
 2643SOL    HW2 9889   0.903   5.183   7.434
 2644SOL     OW 9890   0.661   5.514   8.401
 2644SOL    HW1 9891   0.615   5.602   8.388
 2644SOL    HW2 9892   0.760   5.526   8.394
 2645SOL     OW 9893   1.408   5.575   0.168
 2645SOL    HW1 9894   1.312   5.564   0.141
 2645SOL    HW2 9895   1.464   5.508   0.120
 2646SOL     OW 9896   0.859   4.680   8.309
 2646SOL    HW1 9897   0.913   4.611   8.357
 2646SOL    HW2 9898   0.827   4.749   8.375
 2647SOL     OW 9899   1.083   4.708   7.535
 2647SOL    HW1 9900   1.060   4.761   7.453
 2647SOL    HW2 9901   1.164   4.652   7.516
 2648SOL     OW 9902   1.861   5.293   8.299
 2648SOL    HW1 9903   1.790   5.281   8.229
 2648SOL    HW2 9904   1.862   5.214   8.359
 2649SOL     OW 9905   1.824   3.916   8.675
 2649SOL    HW1 9906   1.820   3.826   8.719
 2649SOL    HW2 9907   1.827   3.905   8.576
 2650SOL     OW 9908   0.428   4.148   7.968
 2650SOL    HW1 9909   0.458   4.076   7.906
 2650SOL    HW2 9910   0.389   4.108   8.051
 2651SOL     OW 9911   1.705   5.211   8.552
 2651SOL    HW1 9912   1.612   5.186   8.525
 2651SOL    HW2 9913   1.731   5.161   8.634
 2652SOL     OW 9914   0.812   5.310   8.135
 2652SOL    HW1 9915   0.844   5.320   8.041
 2652SOL    HW2 9916   0.733   5.248   8.137
 2653SOL     OW 9917   1.424   3.938   8.560
 2653SOL    HW1 9918   1.476   3.873   8.615
 2653SOL    HW2 9919   1.375   4.001   8.621
 2654SOL     OW 9920   1.001   3.758   8.602
 2654SOL    HW1 9921   0.938   3.686   8.571
 2654SOL    HW2 9922   1.094   3.722   8.602
 2655SOL     OW 9923   0.770   5.054   7.749
 2655SOL    HW1 9924   0.724   4.967   7.766
 2655SOL    HW2 9925   0.861   5.051   7.790
 2656SOL     OW 9926   0.618   5.291   8.732
 2656SOL    HW1 9927   0.613   5.373   8.789
 2656SOL    HW2 9928   0.707   5.288   8.687
 2657SOL     OW 9929   1.352   3.776   7.616
 2657SOL    HW1 9930   1.387   3.735   7.532
 2657SOL    HW2 9931   1.262   3.738   7.636
 2658SOL     OW 9932   1.300   4.177   8.139
 2658SOL    HW1 9933   1.241   4.257   8.143
 2658SOL    HW2 9934   1.315   4.142   8.232
 2659SOL     OW 9935   1.593   3.945   8.330
 2659SOL    HW1 9936   1.509   3.944   8.384
 2659SOL    HW2 9937   1.595   4.028   8.274
 2660SOL     OW 9938   0.875   5.370   7.785
 2660SOL    HW1 9939   0.798   5.335   7.731
 2660SOL    HW2 9940   0.843   5.441   7.847
 2661SOL     OW 9941   0.019   5.954   0.647
 2661SOL    HW1 9942  -0.063   5.997   0.686
 2661SOL    HW2 9943  -0.009   5.881   0.584
 2662SOL     OW 9944   0.569   6.861   1.165
 2662SOL    HW1 9945   0.476   6.854   1.128
 2662SOL    HW2 9946   0.580   6.950   1.209
 2663SOL     OW 9947   1.555   7.097   0.703
 2663SOL    HW1 9948   1.498   7.081   0.784
 2663SOL    HW2 9949   1.496   7.107   0.623
 2664SOL     OW 9950   1.743   6.204   0.856
 2664SOL    HW1 9951   1.776   6.298   0.856
 2664SOL    HW2 9952   1.794   6.150   0.922
 2665SOL     OW 9953   1.135   6.289   0.717
 2665SOL    HW1 9954   1.192   6.367   0.692
 2665SOL    HW2 9955   1.075   6.315   0.793
 2666SOL     OW 9956   1.755   6.193   0.231
 2666SOL    HW1 9957   1.743   6.180   0.132
 2666SOL    HW2 9958   1.725   6.112   0.280
 2667SOL     OW 9959   0.768   6.730   1.023
 2667SOL    HW1 9960   0.690   6.747   1.083
 2667SOL    HW2 9961   0.802   6.817   0.987
 2668SOL     OW 9962   0.850   6.384   1.823
 2668SOL    HW1 9963   0.846   6.460   1.888
 2668SOL    HW2 9964   0.872   6.420   1.732
 2669SOL     OW 9965   0.685   6.598   0.665
 2669SOL    HW1 9966   0.754   6.582   0.735
 2669SOL    HW2 9967   0.612   6.655   0.703
 2670SOL     OW 9968   0.686   6.747   1.803
 2670SOL    HW1 9969   0.746   6.826   1.817
 2670SOL    HW2 9970   0.600   6.778   1.762
 2671SOL     OW 9971   0.335   7.021   1.061
 2671SOL    HW1 9972   0.257   6.990   1.008
 2671SOL    HW2 9973   0.393   7.079   1.004
 2672SOL     OW 9974   1.460   7.091   1.339
 2672SOL    HW1 9975   1.484   7.185   1.365
 2672SOL    HW2 9976   1.444   7.037   1.421
 2673SOL     OW 9977   0.438   5.978   1.499
 2673SOL    HW1 9978   0.520   5.922   1.508
 2673SOL    HW2 9979   0.357   5.920   1.503
 2674SOL     OW 9980   1.603   6.033   0.737
 2674SOL    HW1 9981   1.529   6.079   0.687
 2674SOL    HW2 9982   1.654   6.101   0.790
 2675SOL     OW 9983   1.127   6.927   1.690
 2675SOL    HW1 9984   1.174   6.927   1.778
 2675SOL    HW2 9985   1.079   6.840   1.679
 2676SOL     OW 9986   0.620   7.372   1.439
 2676SOL    HW1 9987   0.528   7.355   1.474
 2676SOL    HW2 9988   0.648   7.464   1.465
 2677SOL     OW 9989   0.606   6.550   0.123
 2677SOL    HW1 9990   0.613   6.634   0.069
 2677SOL    HW2 9991   0.652   6.563   0.211
 2678SOL     OW 9992   1.594   5.700   1.480
 2678SOL    HW1 9993   1.576   5.767   1.408
 2678SOL    HW2 9994   1.591   5.746   1.569
 2679SOL     OW 9995   1.842   7.353   0.359
 2679SOL    HW1 9996   1.896   7.324   0.439
 2679SOL    HW2 9997   1.872   7.443   0.330
 2680SOL     OW 9998   1.689   6.508   0.612
 2680SOL    HW1 9999   1.784   6.479   0.620
 2680SOL    HW210000   1.681   6.573   0.537
 2681SOL     OW10001   1.641   6.694   0.432
 2681SOL    HW110002   1.727   6.696   0.380
 2681SOL    HW210003   1.655   6.741   0.520
 2682SOL     OW10004   0.613   6.951   0.726
 2682SOL    HW110005   0.564   6.864   0.735
 2682SOL    HW210006   0.590   6.994   0.639
 2683SOL     OW10007   1.293   6.814   1.423
 2683SOL    HW110008   1.330   6.741   1.365
 2683SOL    HW210009   1.345   6.819   1.508
 2684SOL     OW10010   0.809   5.590   0.502
 2684SOL    HW110011   0.849   5.681   0.493
 2684SOL    HW210012   0.709   5.598   0.508
 2685SOL     OW10013   1.525   6.585   0.190
 2685SOL    HW110014   1.462   6.509   0.203
 2685SOL    HW210015   1.573   6.603   0.276
 2686SOL     OW10016   1.187   7.378   1.616
 2686SOL    HW110017   1.211   7.438   1.540
 2686SOL    HW210018   1.194   7.283   1.586
 2687SOL     OW10019   0.317   5.837   1.801
 2687SOL    HW110020   0.388   5.908   1.807
 2687SOL    HW210021   0.229   5.876   1.829
 2688SOL     OW10022   1.466   7.003   0.953
 2688SOL    HW110023   1.407   7.009   1.033
 2688SOL    HW210024   1.451   6.915   0.907
 2689SOL     OW10025   1.667   7.300   0.572
 2689SOL    HW110026   1.626   7.277   0.484
 2689SOL    HW210027   1.649   7.226   0.637
 2690SOL     OW10028   0.598   6.315   0.270
 2690SOL    HW110029   0.622   6.384   0.202
 2690SOL    HW210030   0.520   6.348   0.324
 2691SOL     OW10031   1.281   5.931   0.944
 2691SOL    HW110032   1.195   5.881   0.931
 2691SOL    HW210033   1.343   5.877   1.000
 2692SOL     OW10034   1.576   7.248   0.307
 2692SOL    HW110035   1.665   7.294   0.310
 2692SOL    HW210036   1.555   7.224   0.212
 2693SOL     OW10037   0.807   6.191   1.465
 2693SOL    HW110038   0.760   6.188   1.554
 2693SOL    HW210039   0.756   6.136   1.399
 2694SOL     OW10040   1.394   6.055   1.674
 2694SOL    HW110041   1.374   6.098   1.762
 2694SOL    HW210042   1.472   5.993   1.683
 2695SOL     OW10043   0.973   6.476   1.572
 2695SOL    HW110044   1.019   6.392   1.543
 2695SOL    HW210045   0.917   6.510   1.497
 2696SOL     OW10046   0.991   5.996   1.242
 2696SOL    HW110047   0.914   6.030   1.296
 2696SOL    HW210048   0.957   5.945   1.163
 2697SOL     OW10049   1.041   6.287   0.429
 2697SOL    HW110050   1.067   6.283   0.525
 2697SOL    HW210051   0.956   6.236   0.415
 2698SOL     OW10052   0.865   5.934   0.195
 2698SOL    HW110053   0.924   5.997   0.146
 2698SOL    HW210054   0.884   5.840   0.166
 2699SOL     OW10055   1.719   6.171   1.831
 2699SOL    HW110056   1.693   6.260   1.795
 2699SOL    HW210057   1.717   6.103   1.758
 2700SOL     OW10058   1.362   6.730   0.545
 2700SOL    HW110059   1.445   6.701   0.497
 2700SOL    HW210060   1.313   6.797   0.489
 2701SOL     OW10061   0.550   5.782   0.885
 2701SOL    HW110062   0.545   5.777   0.985
 2701SOL    HW210063   0.552   5.878   0.856
 2702SOL     OW10064   1.008   7.042   0.477
 2702SOL    HW110065   0.962   7.114   0.425
 2702SOL    HW210066   1.004   7.062   0.575
 2703SOL     OW10067   0.351   7.387   0.853
 2703SOL    HW110068   0.401   7.301   0.859
 2703SOL    HW210069   0.416   7.464   0.850
 2704SOL     OW10070   1.795   6.652   0.873
 2704SOL    HW110071   1.733   6.637   0.797
 2704SOL    HW210072   1.743   6.663   0.958
 2705SOL     OW10073   1.227   7.136   1.506
 2705SOL    HW110074   1.233   7.059   1.570
 2705SOL    HW210075   1.175   7.110   1.426
 2706SOL     OW10076   0.321   6.529   0.242
 2706SOL    HW110077   0.403   6.568   0.200
 2706SOL    HW210078   0.294   6.447   0.193
 2707SOL     OW10079   1.458   6.321   0.728
 2707SOL    HW110080   1.453   6.256   0.803
 2707SOL    HW210081   1.538   6.380   0.741
 2708SOL     OW10082   0.461   6.852   1.727
 2708SOL    HW110083   0.411   6.853   1.641
 2708SOL    HW210084   0.398   6.834   1.803
 2709SOL     OW10085   1.111   7.362   0.237
 2709SOL    HW110086   1.051   7.300   0.287
 2709SOL    HW210087   1.142   7.318   0.152
 2710SOL     OW10088   1.632   6.963   0.081
 2710SOL    HW110089   1.600   7.057   0.071
 2710SOL    HW210090   1.556   6.900   0.069
 2711SOL     OW10091   0.464   7.329   0.323
 2711SOL    HW110092   0.497   7.368   0.409
 2711SOL    HW210093   0.540   7.322   0.258
 2712SOL     OW10094   1.400   5.693   0.426
 2712SOL    HW110095   1.376   5.656   0.336
 2712SOL    HW210096   1.499   5.709   0.430
 2713SOL     OW10097   0.940   7.284   0.904
 2713SOL    HW110098   1.020   7.227   0.925
 2713SOL    HW210099   0.891   7.244   0.827
 2714SOL     OW10100   0.382   6.286   0.480
 2714SOL    HW110101   0.427   6.196   0.477
 2714SOL    HW210102   0.288   6.275   0.513
 2715SOL     OW10103   1.547   5.808   1.729
 2715SOL    HW110104   1.542   5.845   1.821
 2715SOL    HW210105   1.475   5.739   1.717
 2716SOL     OW10106   0.614   5.708   0.117
 2716SOL    HW110107   0.712   5.686   0.124
 2716SOL    HW210108   0.583   5.691   0.024
 2717SOL     OW10109   0.781   5.850   1.749
 2717SOL    HW110110   0.848   5.789   1.792
 2717SOL    HW210111   0.708   5.869   1.814
 2718SOL     OW10112   0.888   7.100   1.195
 2718SOL    HW110113   0.865   7.075   1.101
 2718SOL    HW210114   0.949   7.031   1.234
 2719SOL     OW10115   1.351   6.176   1.433
 2719SOL    HW110116   1.379   6.133   1.518
 2719SOL    HW210117   1.376   6.272   1.434
 2720SOL     OW10118   0.803   6.988   0.924
 2720SOL    HW110119   0.893   7.002   0.882
 2720SOL    HW210120   0.732   6.990   0.853
 2721SOL     OW10121   0.922   6.089   0.899
 2721SOL    HW110122   0.897   6.080   0.803
 2721SOL    HW210123   0.970   6.007   0.930
 2722SOL     OW10124   0.539   5.650   0.512
 2722SOL    HW110125   0.458   5.651   0.570
 2722SOL    HW210126   0.542   5.733   0.457
 2723SOL     OW10127   1.434   6.774   0.041
 2723SOL    HW110128   1.466   6.698   0.098
 2723SOL    HW210129   1.342   6.801   0.071
 2724SOL     OW10130   0.297   5.621   0.171
 2724SOL    HW110131   0.346   5.705   0.150
 2724SOL    HW210132   0.359   5.556   0.216
 2725SOL     OW10133   0.935   5.822   0.480
 2725SOL    HW110134   0.887   5.863   0.402
 2725SOL    HW210135   1.034   5.820   0.461
 2726SOL     OW10136   1.076   6.269   1.464
 2726SOL    HW110137   0.996   6.208   1.467
 2726SOL    HW210138   1.157   6.216   1.440
 2727SOL     OW10139   1.227   7.156   0.793
 2727SOL    HW110140   1.248   7.230   0.728
 2727SOL    HW210141   1.295   7.156   0.866
 2728SOL     OW10142   0.459   6.738   0.741
 2728SOL    HW110143   0.388   6.711   0.806
 2728SOL    HW210144   0.433   6.710   0.648
 2729SOL     OW10145   1.271   7.383   0.591
 2729SOL    HW110146   1.315   7.447   0.527
 2729SOL    HW210147   1.221   7.435   0.661
 2730SOL     OW10148   1.032   6.135   0.016
 2730SOL    HW110149   0.991   6.217  -0.023
 2730SOL    HW210150   1.096   6.161   0.089
 2731SOL     OW10151   0.561   5.808   1.147
 2731SOL    HW110152   0.599   5.724   1.184
 2731SOL    HW210153   0.473   5.827   1.191
 2732SOL     OW10154   0.866   6.040   0.642
 2732SOL    HW110155   0.834   6.112   0.580
 2732SOL    HW210156   0.890   5.959   0.589
 2733SOL     OW10157   1.017   5.625   0.753
 2733SOL    HW110158   0.945   5.630   0.684
 2733SOL    HW210159   0.993   5.556   0.822
 2734SOL     OW10160   1.429   6.759   0.867
 2734SOL    HW110161   1.374   6.675   0.860
 2734SOL    HW210162   1.455   6.788   0.775
 2735SOL     OW10163   1.466   6.176   0.992
 2735SOL    HW110164   1.436   6.081   0.999
 2735SOL    HW210165   1.539   6.192   1.058
 2736SOL     OW10166   1.857   6.419   0.377
 2736SOL    HW110167   1.899   6.355   0.441
 2736SOL    HW210168   1.819   6.368   0.299
 2737SOL     OW10169   0.488   6.971   0.174
 2737SOL    HW110170   0.401   6.956   0.221
 2737SOL    HW210171   0.471   6.997   0.079
 2738SOL     OW10172   1.664   6.866   0.657
 2738SOL    HW110173   1.763   6.874   0.671
 2738SOL    HW210174   1.619   6.950   0.688
 2739SOL     OW10175   1.390   6.161   0.078
 2739SOL    HW110176   1.336   6.140   0.159
 2739SOL    HW210177   1.481   6.120   0.087
 2740SOL     OW10178   0.527   5.842   0.328
 2740SOL    HW110179   0.554   5.783   0.253
 2740SOL    HW210180   0.527   5.937   0.297
 2741SOL     OW10181   1.754   6.809   1.588
 2741SOL    HW110182   1.845   6.770   1.575
 2741SOL    HW210183   1.762   6.905   1.612
 2742SOL     OW10184   1.064   6.933   1.340
 2742SOL    HW110185   0.984   6.910   1.395
 2742SOL    HW210186   1.147   6.907   1.389
 2743SOL     OW10187   1.592   7.215   1.625
 2743SOL    HW110188   1.619   7.249   1.535
 2743SOL    HW210189   1.671   7.177   1.671
 2744SOL     OW10190   1.111   6.781   1.100
 2744SOL    HW110191   1.071   6.825   1.181
 2744SOL    HW210192   1.070   6.818   1.017
 2745SOL     OW10193   1.638   6.685   1.079
 2745SOL    HW110194   1.643   6.766   1.138
 2745SOL    HW210195   1.552   6.687   1.028
 2746SOL     OW10196   0.915   5.675   1.402
 2746SOL    HW110197   0.940   5.655   1.307
 2746SOL    HW210198   0.987   5.731   1.444
 2747SOL     OW10199   0.980   6.702   1.719
 2747SOL    HW110200   0.881   6.708   1.729
 2747SOL    HW210201   1.003   6.622   1.663
 2748SOL     OW10202   0.705   6.636   0.368
 2748SOL    HW110203   0.691   6.643   0.467
 2748SOL    HW210204   0.789   6.585   0.350
 2749SOL     OW10205   0.410   6.399   1.251
 2749SOL    HW110206   0.496   6.411   1.301
 2749SOL    HW210207   0.368   6.312   1.278
 2750SOL     OW10208   1.274   5.972   1.262
 2750SOL    HW110209   1.295   6.046   1.326
 2750SOL    HW210210   1.185   5.989   1.219
 2751SOL     OW10211   0.367   6.686   0.501
 2751SOL    HW110212   0.360   6.769   0.445
 2751SOL    HW210213   0.371   6.606   0.441
 2752SOL     OW10214   0.566   6.123   0.865
 2752SOL    HW110215   0.578   6.189   0.791
 2752SOL    HW210216   0.612   6.157   0.948
 2753SOL     OW10217   1.252   6.934   0.388
 2753SOL    HW110218   1.302   7.011   0.428
 2753SOL    HW210219   1.157   6.936   0.420
 2754SOL     OW10220   1.272   7.031   1.142
 2754SOL    HW110221   1.319   7.044   1.229
 2754SOL    HW210222   1.206   6.957   1.151
 2755SOL     OW10223   1.582   6.225   0.472
 2755SOL    HW110224   1.551   6.286   0.545
 2755SOL    HW210225   1.632   6.277   0.403
 2756SOL     OW10226   0.354   7.096   1.329
 2756SOL    HW110227   0.333   7.052   1.242
 2756SOL    HW210228   0.451   7.122   1.332
 2757SOL     OW10229   0.402   6.337   1.598
 2757SOL    HW110230   0.470   6.392   1.551
 2757SOL    HW210231   0.442   6.249   1.625
 2758SOL     OW10232   1.587   6.365   1.670
 2758SOL    HW110233   1.495   6.403   1.665
 2758SOL    HW210234   1.647   6.412   1.605
 2759SOL     OW10235   1.013   5.691   1.770
 2759SOL    HW110236   1.019   5.776   1.718
 2759SOL    HW210237   1.045   5.615   1.713
 2760SOL     OW10238   0.504   5.636   1.740
 2760SOL    HW110239   0.462   5.579   1.670
 2760SOL    HW210240   0.438   5.705   1.772
 2761SOL     OW10241   0.573   6.456   1.029
 2761SOL    HW110242   0.617   6.545   1.020
 2761SOL    HW210243   0.510   6.456   1.106
 2762SOL     OW10244   1.360   6.448   1.045
 2762SOL    HW110245   1.285   6.448   0.979
 2762SOL    HW210246   1.397   6.356   1.054
 2763SOL     OW10247   1.209   6.111   0.275
 2763SOL    HW110248   1.222   6.027   0.329
 2763SOL    HW210249   1.180   6.185   0.335
 2764SOL     OW10250   0.732   6.220   1.064
 2764SOL    HW110251   0.791   6.194   0.988
 2764SOL    HW210252   0.704   6.316   1.053
 2765SOL     OW10253   1.728   6.521   1.854
 2765SOL    HW110254   1.682   6.514   1.765
 2765SOL    HW210255   1.666   6.565   1.920
 2766SOL     OW10256   0.307   5.649   0.618
 2766SOL    HW110257   0.296   5.743   0.651
 2766SOL    HW210258   0.302   5.586   0.695
 2767SOL     OW10259   1.622   5.953   0.374
 2767SOL    HW110260   1.624   5.877   0.438
 2767SOL    HW210261   1.574   6.030   0.414
 2768SOL     OW10262   1.023   6.352   0.966
 2768SOL    HW110263   1.038   6.373   1.062
 2768SOL    HW210264   0.993   6.257   0.957
 2769SOL     OW10265   0.980   7.159   1.700
 2769SOL    HW110266   0.960   7.203   1.612
 2769SOL    HW210267   1.019   7.068   1.684
 2770SOL     OW10268   1.859   7.104   1.605
 2770SOL    HW110269   1.873   7.131   1.510
 2770SOL    HW210270   1.942   7.126   1.658
 2771SOL     OW10271   0.350   6.484   1.804
 2771SOL    HW110272   0.426   6.528   1.852
 2771SOL    HW210273   0.385   6.437   1.722
 2772SOL     OW10274   1.540   5.860   0.125
 2772SOL    HW110275   1.479   5.785   0.148
 2772SOL    HW210276   1.562   5.912   0.208
 2773SOL     OW10277   1.303   6.424   0.042
 2773SOL    HW110278   1.337   6.331   0.057
 2773SOL    HW210279   1.321   6.451  -0.053
 2774SOL     OW10280   1.068   6.919   0.849
 2774SOL    HW110281   1.075   6.835   0.794
 2774SOL    HW210282   1.130   6.988   0.813
 2775SOL     OW10283   0.319   6.396   0.949
 2775SOL    HW110284   0.412   6.432   0.954
 2775SOL    HW210285   0.313   6.311   1.001
 2776SOL     OW10286   1.138   5.966   1.678
 2776SOL    HW110287   1.093   6.029   1.742
 2776SOL    HW210288   1.231   5.997   1.661
 2777SOL     OW10289   1.160   5.793   1.477
 2777SOL    HW110290   1.160   5.857   1.554
 2777SOL    HW210291   1.188   5.841   1.394
 2778SOL     OW10292   0.504   7.154   0.910
 2778SOL    HW110293   0.570   7.228   0.919
 2778SOL    HW210294   0.548   7.075   0.868
 2779SOL     OW10295   1.002   6.382   1.238
 2779SOL    HW110296   1.043   6.350   1.324
 2779SOL    HW210297   0.906   6.355   1.235
 2780SOL     OW10298   1.369   6.536   1.660
 2780SOL    HW110299   1.408   6.625   1.680
 2780SOL    HW210300   1.379   6.516   1.563
 2781SOL     OW10301   0.815   6.158   0.325
 2781SOL    HW110302   0.822   6.069   0.279
 2781SOL    HW210303   0.721   6.192   0.317
 2782SOL     OW10304   1.657   6.190   1.206
 2782SOL    HW110305   1.619   6.121   1.268
 2782SOL    HW210306   1.739   6.154   1.162
 2783SOL     OW10307   0.671   6.050   1.269
 2783SOL    HW110308   0.637   5.961   1.239
 2783SOL    HW210309   0.697   6.104   1.189
 2784SOL     OW10310   0.930   7.264   1.465
 2784SOL    HW110311   0.906   7.246   1.370
 2784SOL    HW210312   0.960   7.358   1.475
 2785SOL     OW10313   0.473   6.086   0.191
 2785SOL    HW110314   0.534   6.166   0.195
 2785SOL    HW210315   0.378   6.117   0.198
 2786SOL     OW10316   1.347   6.645   1.234
 2786SOL    HW110317   1.371   6.582   1.160
 2786SOL    HW210318   1.257   6.685   1.216
 2787SOL     OW10319   1.302   6.441   0.309
 2787SOL    HW110320   1.216   6.410   0.351
 2787SOL    HW210321   1.298   6.427   0.210
 2788SOL     OW10322   1.759   7.333   1.154
 2788SOL    HW110323   1.820   7.363   1.081
 2788SOL    HW210324   1.721   7.244   1.132
 2789SOL     OW10325   1.252   7.317   1.128
 2789SOL    HW110326   1.336   7.322   1.074
 2789SOL    HW210327   1.229   7.221   1.146
 2790SOL     OW10328   0.688   7.248   1.716
 2790SOL    HW110329   0.632   7.329   1.725
 2790SOL    HW210330   0.740   7.252   1.630
 2791SOL     OW10331   0.903   5.672   0.133
 2791SOL    HW110332   0.954   5.673   0.047
 2791SOL    HW210333   0.959   5.630   0.204
 2792SOL     OW10334   1.726   5.721   0.523
 2792SOL    HW110335   1.799   5.704   0.456
 2792SOL    HW210336   1.695   5.634   0.561
 2793SOL     OW10337   1.388   7.159   0.477
 2793SOL    HW110338   1.455   7.171   0.403
 2793SOL    HW210339   1.348   7.248   0.500
 2794SOL     OW10340   0.130   7.380   1.851
 2794SOL    HW110341   0.089   7.306   1.904
 2794SOL    HW210342   0.194   7.431   1.909
 2795SOL     OW10343   1.280   6.513   0.672
 2795SOL    HW110344   1.340   6.432   0.674
 2795SOL    HW210345   1.320   6.582   0.612
 2796SOL     OW10346   0.830   6.859   1.422
 2796SOL    HW110347   0.825   6.892   1.517
 2796SOL    HW210348   0.744   6.878   1.376
 2797SOL     OW10349   0.672   7.202   0.154
 2797SOL    HW110350   0.681   7.212   0.055
 2797SOL    HW210351   0.632   7.113   0.175
 2798SOL     OW10352   1.650   7.306   1.394
 2798SOL    HW110353   1.703   7.316   1.310
 2798SOL    HW210354   1.623   7.396   1.428
 2799SOL     OW10355   1.841   5.761   0.963
 2799SOL    HW110356   1.880   5.676   0.927
 2799SOL    HW210357   1.743   5.763   0.944
 2800SOL     OW10358   0.263   5.912   0.720
 2800SOL    HW110359   0.184   5.963   0.686
 2800SOL    HW210360   0.254   5.897   0.818
 2801SOL     OW10361   1.194   7.198   0.031
 2801SOL    HW110362   1.200   7.105   0.068
 2801SOL    HW210363   1.135   7.198  -0.049
 2802SOL     OW10364   0.822   6.588   1.372
 2802SOL    HW110365   0.862   6.587   1.280
 2802SOL    HW210366   0.832   6.680   1.412
 2803SOL     OW10367   0.916   6.496   0.291
 2803SOL    HW110368   0.979   6.534   0.223
 2803SOL    HW210369   0.956   6.413   0.330
 2804SOL     OW10370   1.504   7.193   0.044
 2804SOL    HW110371   1.412   7.230   0.051
 2804SOL    HW210372   1.542   7.213  -0.046
 2805SOL     OW10373   0.372   6.874   1.490
 2805SOL    HW110374   0.359   6.967   1.456
 2805SOL    HW210375   0.288   6.822   1.477
 2806SOL     OW10376   1.614   6.878   1.289
 2806SOL    HW110377   1.674   6.881   1.369
 2806SOL    HW210378   1.539   6.942   1.302
 2807SOL     OW10379   1.039   6.684   0.696
 2807SOL    HW110380   0.969   6.637   0.750
 2807SOL    HW210381   1.098   6.616   0.653
 2808SOL     OW10382   1.014   5.822   0.971
 2808SOL    HW110383   1.006   5.786   0.878
 2808SOL    HW210384   1.012   5.746   1.036
 2809SOL     OW10385   0.590   7.073   0.491
 2809SOL    HW110386   0.632   7.015   0.421
 2809SOL    HW210387   0.546   7.152   0.447
 2810SOL     OW10388   1.709   5.971   1.381
 2810SOL    HW110389   1.782   6.040   1.385
 2810SOL    HW210390   1.737   5.896   1.322
 2811SOL     OW10391   0.255   6.934   0.290
 2811SOL    HW110392   0.159   6.935   0.263
 2811SOL    HW210393   0.267   6.987   0.374
 2812SOL     OW10394   0.672   5.789   1.489
 2812SOL    HW110395   0.762   5.773   1.449
 2812SOL    HW210396   0.680   5.794   1.588
 2813SOL     OW10397   1.440   6.442   1.398
 2813SOL    HW110398   1.383   6.494   1.335
 2813SOL    HW210399   1.536   6.454   1.374
 2814SOL     OW10400   1.183   6.921   0.119
 2814SOL    HW110401   1.084   6.910   0.121
 2814SOL    HW210402   1.217   6.936   0.212
 2815SOL     OW10403   0.613   6.428   1.431
 2815SOL    HW110404   0.669   6.509   1.414
 2815SOL    HW210405   0.672   6.348   1.434
 2816SOL     OW10406   1.493   7.353   0.959
 2816SOL    HW110407   1.526   7.417   0.890
 2816SOL    HW210408   1.559   7.347   1.034
 2817SOL     OW10409   0.716   6.151   1.708
 2817SOL    HW110410   0.735   6.216   1.782
 2817SOL    HW210411   0.776   6.071   1.717
 2818SOL     OW10412   1.450   6.806   1.633
 2818SOL    HW110413   1.441   6.796   1.732
 2818SOL    HW210414   1.546   6.799   1.607
 2819SOL     OW10415   0.390   7.327   1.560
 2819SOL    HW110416   0.299   7.368   1.558
 2819SOL    HW210417   0.383   7.233   1.592
 2820SOL     OW10418   1.674   6.469   1.254
 2820SOL    HW110419   1.647   6.380   1.217
 2820SOL    HW210420   1.675   6.537   1.181
 2821SOL     OW10421   1.225   5.911   0.449
 2821SOL    HW110422   1.290   5.837   0.438
 2821SOL    HW210423   1.245   5.961   0.533
 2822SOL     OW10424   0.594   6.331   0.652
 2822SOL    HW110425   0.644   6.416   0.633
 2822SOL    HW210426   0.506   6.333   0.604
 2823SOL     OW10427   1.777   5.928   1.642
 2823SOL    HW110428   1.760   5.959   1.548
 2823SOL    HW210429   1.693   5.891   1.680
 2824SOL     OW10430   1.730   6.520   1.517
 2824SOL    HW110431   1.768   6.611   1.532
 2824SOL    HW210432   1.722   6.503   1.418
 2825SOL     OW10433   0.859   6.960   0.016
 2825SOL    HW110434   0.813   6.975   0.104
 2825SOL    HW210435   0.903   7.045  -0.014
 2826SOL     OW10436   0.661   7.376   0.953
 2826SOL    HW110437   0.615   7.464   0.940
 2826SOL    HW210438   0.760   7.388   0.946
 2827SOL     OW10439   1.408   7.437   1.720
 2827SOL    HW110440   1.312   7.426   1.693
 2827SOL    HW210441   1.464   7.370   1.672
 2828SOL     OW10442   0.859   6.542   0.861
 2828SOL    HW110443   0.913   6.473   0.909
 2828SOL    HW210444   0.827   6.611   0.927
 2829SOL     OW10445   1.083   6.570   0.087
 2829SOL    HW110446   1.060   6.623   0.005
 2829SOL    HW210447   1.164   6.514   0.068
 2830SOL     OW10448   1.861   7.155   0.851
 2830SOL    HW110449   1.790   7.143   0.781
 2830SOL    HW210450   1.862   7.076   0.911
 2831SOL     OW10451   0.672   6.977   1.624
 2831SOL    HW110452   0.594   6.927   1.662
 2831SOL    HW210453   0.669   7.072   1.655
 2832SOL     OW10454   1.824   5.778   1.227
 2832SOL    HW110455   1.820   5.688   1.271
 2832SOL    HW210456   1.827   5.767   1.128
 2833SOL     OW10457   0.428   6.010   0.520
 2833SOL    HW110458   0.458   5.938   0.458
 2833SOL    HW210459   0.389   5.970   0.603
 2834SOL     OW10460   1.705   7.073   1.104
 2834SOL    HW110461   1.612   7.048   1.077
 2834SOL    HW210462   1.731   7.023   1.186
 2835SOL     OW10463   0.812   7.172   0.687
 2835SOL    HW110464   0.844   7.182   0.593
 2835SOL    HW210465   0.733   7.110   0.689
 2836SOL     OW10466   1.424   5.800   1.112
 2836SOL    HW110467   1.476   5.735   1.167
 2836SOL    HW210468   1.375   5.863   1.173
 2837SOL     OW10469   1.001   5.620   1.154
 2837SOL    HW110470   0.938   5.548   1.123
 2837SOL    HW210471   1.094   5.584   1.154
 2838SOL     OW10472   0.770   6.916   0.301
 2838SOL    HW110473   0.724   6.829   0.318
 2838SOL    HW210474   0.861   6.913   0.342
 2839SOL     OW10475   0.618   7.153   1.284
 2839SOL    HW110476   0.613   7.235   1.341
 2839SOL    HW210477   0.707   7.150   1.239
 2840SOL     OW10478   1.300   6.039   0.691
 2840SOL    HW110479   1.241   6.119   0.695
 2840SOL    HW210480   1.315   6.004   0.784
 2841SOL     OW10481   1.593   5.807   0.882
 2841SOL    HW110482   1.509   5.806   0.936
 2841SOL    HW210483   1.595   5.890   0.826
 2842SOL     OW10484   0.875   7.232   0.337
 2842SOL    HW110485   0.798   7.197   0.283
 2842SOL    HW210486   0.843   7.303   0.399
 2843SOL     OW10487   0.019   5.954   2.509
 2843SOL    HW110488  -0.063   5.997   2.548
 2843SOL    HW210489  -0.009   5.881   2.446
 2844SOL     OW10490   0.569   6.861   3.027
 2844SOL    HW110491   0.476   6.854   2.990
 2844SOL    HW210492   0.580   6.950   3.071
 2845SOL     OW10493   1.555   7.097   2.565
 2845SOL    HW110494   1.498   7.081   2.646
 2845SOL    HW210495   1.496   7.107   2.485
 2846SOL     OW10496   1.743   6.204   2.718
 2846SOL    HW110497   1.776   6.298   2.718
 2846SOL    HW210498   1.794   6.150   2.784
 2847SOL     OW10499   1.135   6.289   2.579
 2847SOL    HW110500   1.192   6.367   2.554
 2847SOL    HW210501   1.075   6.315   2.655
 2848SOL     OW10502   1.755   6.193   2.093
 2848SOL    HW110503   1.743   6.180   1.994
 2848SOL    HW210504   1.725   6.112   2.142
 2849SOL     OW10505   0.768   6.730   2.885
 2849SOL    HW110506   0.690   6.747   2.945
 2849SOL    HW210507   0.802   6.817   2.849
 2850SOL     OW10508   0.850   6.384   3.685
 2850SOL    HW110509   0.846   6.460   3.750
 2850SOL    HW210510   0.872   6.420   3.594
 2851SOL     OW10511   0.685   6.598   2.527
 2851SOL    HW110512   0.754   6.582   2.597
 2851SOL    HW210513   0.612   6.655   2.565
 2852SOL     OW10514   0.686   6.747   3.665
 2852SOL    HW110515   0.746   6.826   3.679
 2852SOL    HW210516   0.600   6.778   3.624
 2853SOL     OW10517   0.335   7.021   2.923
 2853SOL    HW110518   0.257   6.990   2.870
 2853SOL    HW210519   0.393   7.079   2.866
 2854SOL     OW10520   1.460   7.091   3.201
 2854SOL    HW110521   1.484   7.185   3.227
 2854SOL    HW210522   1.444   7.037   3.283
 2855SOL     OW10523   0.438   5.978   3.361
 2855SOL    HW110524   0.520   5.922   3.370
 2855SOL    HW210525   0.357   5.920   3.365
 2856SOL     OW10526   1.127   6.927   3.552
 2856SOL    HW110527   1.174   6.927   3.640
 2856SOL    HW210528   1.079   6.840   3.541
 2857SOL     OW10529   0.620   7.372   3.301
 2857SOL    HW110530   0.528   7.355   3.336
 2857SOL    HW210531   0.648   7.464   3.327
 2858SOL     OW10532   0.606   6.550   1.985
 2858SOL    HW110533   0.613   6.634   1.931
 2858SOL    HW210534   0.652   6.563   2.073
 2859SOL     OW10535   1.594   5.700   3.342
 2859SOL    HW110536   1.576   5.767   3.270
 2859SOL    HW210537   1.591   5.746   3.431
 2860SOL     OW10538   1.842   7.353   2.221
 2860SOL    HW110539   1.896   7.324   2.301
 2860SOL    HW210540   1.872   7.443   2.192
 2861SOL     OW10541   1.689   6.508   2.474
 2861SOL    HW110542   1.784   6.479   2.482
 2861SOL    HW210543   1.681   6.573   2.399
 2862SOL     OW10544   1.641   6.694   2.294
 2862SOL    HW110545   1.727   6.696   2.242
 2862SOL    HW210546   1.655   6.741   2.382
 2863SOL     OW10547   0.613   6.951   2.588
 2863SOL    HW110548   0.564   6.864   2.597
 2863SOL    HW210549   0.590   6.994   2.501
 2864SOL     OW10550   1.293   6.814   3.285
 2864SOL    HW110551   1.330   6.741   3.227
 2864SOL    HW210552   1.345   6.819   3.370
 2865SOL     OW10553   0.809   5.590   2.364
 2865SOL    HW110554   0.849   5.681   2.355
 2865SOL    HW210555   0.709   5.598   2.370
 2866SOL     OW10556   1.525   6.585   2.052
 2866SOL    HW110557   1.462   6.509   2.065
 2866SOL    HW210558   1.573   6.603   2.138
 2867SOL     OW10559   1.187   7.378   3.478
 2867SOL    HW110560   1.211   7.438   3.402
 2867SOL    HW210561   1.194   7.283   3.448
 2868SOL     OW10562   0.317   5.837   3.663
 2868SOL    HW110563   0.388   5.908   3.669
 2868SOL    HW210564   0.229   5.876   3.691
 2869SOL     OW10565   1.466   7.003   2.815
 2869SOL    HW110566   1.407   7.009   2.895
 2869SOL    HW210567   1.451   6.915   2.769
 2870SOL     OW10568   1.667   7.300   2.434
 2870SOL    HW110569   1.626   7.277   2.346
 2870SOL    HW210570   1.649   7.226   2.499
 2871SOL     OW10571   0.598   6.315   2.132
 2871SOL    HW110572   0.622   6.384   2.064
 2871SOL    HW210573   0.520   6.348   2.186
 2872SOL     OW10574   1.281   5.931   2.806
 2872SOL    HW110575   1.195   5.881   2.793
 2872SOL    HW210576   1.343   5.877   2.862
 2873SOL     OW10577   1.576   7.248   2.169
 2873SOL    HW110578   1.665   7.294   2.172
 2873SOL    HW210579   1.555   7.224   2.074
 2874SOL     OW10580   0.807   6.191   3.327
 2874SOL    HW110581   0.760   6.188   3.416
 2874SOL    HW210582   0.756   6.136   3.261
 2875SOL     OW10583   1.394   6.055   3.536
 2875SOL    HW110584   1.374   6.098   3.624
 2875SOL    HW210585   1.472   5.993   3.545
 2876SOL     OW10586   0.973   6.476   3.434
 2876SOL    HW110587   1.019   6.392   3.405
 2876SOL    HW210588   0.917   6.510   3.359
 2877SOL     OW10589   0.991   5.996   3.104
 2877SOL    HW110590   0.914   6.030   3.158
 2877SOL    HW210591   0.957   5.945   3.025
 2878SOL     OW10592   1.041   6.287   2.291
 2878SOL    HW110593   1.067   6.283   2.387
 2878SOL    HW210594   0.956   6.236   2.277
 2879SOL     OW10595   0.865   5.934   2.057
 2879SOL    HW110596   0.924   5.997   2.008
 2879SOL    HW210597   0.884   5.840   2.028
 2880SOL     OW10598   1.719   6.171   3.693
 2880SOL    HW110599   1.693   6.260   3.657
 2880SOL    HW210600   1.717   6.103   3.620
 2881SOL     OW10601   1.362   6.730   2.407
 2881SOL    HW110602   1.445   6.701   2.359
 2881SOL    HW210603   1.313   6.797   2.351
 2882SOL     OW10604   0.550   5.782   2.747
 2882SOL    HW110605   0.545   5.777   2.847
 2882SOL    HW210606   0.552   5.878   2.718
 2883SOL     OW10607   1.008   7.042   2.339
 2883SOL    HW110608   0.962   7.114   2.287
 2883SOL    HW210609   1.004   7.062   2.437
 2884SOL     OW10610   0.351   7.387   2.715
 2884SOL    HW110611   0.401   7.301   2.721
 2884SOL    HW210612   0.416   7.464   2.712
 2885SOL     OW10613   1.795   6.652   2.735
 2885SOL    HW110614   1.733   6.637   2.659
 2885SOL    HW210615   1.743   6.663   2.820
 2886SOL     OW10616   1.227   7.136   3.368
 2886SOL    HW110617   1.233   7.059   3.432
 2886SOL    HW210618   1.175   7.110   3.288
 2887SOL     OW10619   0.321   6.529   2.104
 2887SOL    HW110620   0.403   6.568   2.062
 2887SOL    HW210621   0.294   6.447   2.055
 2888SOL     OW10622   1.458   6.321   2.590
 2888SOL    HW110623   1.453   6.256   2.665
 2888SOL    HW210624   1.538   6.380   2.603
 2889SOL     OW10625   0.461   6.852   3.589
 2889SOL    HW110626   0.411   6.853   3.503
 2889SOL    HW210627   0.398   6.834   3.665
 2890SOL     OW10628   1.111   7.362   2.099
 2890SOL    HW110629   1.051   7.300   2.149
 2890SOL    HW210630   1.142   7.318   2.014
 2891SOL     OW10631   1.632   6.963   1.943
 2891SOL    HW110632   1.600   7.057   1.933
 2891SOL    HW210633   1.556   6.900   1.931
 2892SOL     OW10634   0.464   7.329   2.185
 2892SOL    HW110635   0.497   7.368   2.271
 2892SOL    HW210636   0.540   7.322   2.120
 2893SOL     OW10637   0.940   7.284   2.766
 2893SOL    HW110638   1.020   7.227   2.787
 2893SOL    HW210639   0.891   7.244   2.689
 2894SOL     OW10640   0.382   6.286   2.342
 2894SOL    HW110641   0.427   6.196   2.339
 2894SOL    HW210642   0.288   6.275   2.375
 2895SOL     OW10643   1.547   5.808   3.591
 2895SOL    HW110644   1.542   5.845   3.683
 2895SOL    HW210645   1.475   5.739   3.579
 2896SOL     OW10646   0.614   5.708   1.979
 2896SOL    HW110647   0.712   5.686   1.986
 2896SOL    HW210648   0.583   5.691   1.886
 2897SOL     OW10649   0.781   5.850   3.611
 2897SOL    HW110650   0.848   5.789   3.654
 2897SOL    HW210651   0.708   5.869   3.676
 2898SOL     OW10652   0.888   7.100   3.057
 2898SOL    HW110653   0.865   7.075   2.963
 2898SOL    HW210654   0.949   7.031   3.096
 2899SOL     OW10655   1.351   6.176   3.295
 2899SOL    HW110656   1.379   6.133   3.380
 2899SOL    HW210657   1.376   6.272   3.296
 2900SOL     OW10658   0.803   6.988   2.786
 2900SOL    HW110659   0.893   7.002   2.744
 2900SOL    HW210660   0.732   6.990   2.715
 2901SOL     OW10661   0.922   6.089   2.761
 2901SOL    HW110662   0.897   6.080   2.665
 2901SOL    HW210663   0.970   6.007   2.792
 2902SOL     OW10664   0.539   5.650   2.374
 2902SOL    HW110665   0.458   5.651   2.432
 2902SOL    HW210666   0.542   5.733   2.319
 2903SOL     OW10667   1.434   6.774   1.903
 2903SOL    HW110668   1.466   6.698   1.960
 2903SOL    HW210669   1.342   6.801   1.933
 2904SOL     OW10670   0.297   5.621   2.033
 2904SOL    HW110671   0.346   5.705   2.012
 2904SOL    HW210672   0.359   5.556   2.078
 2905SOL     OW10673   0.935   5.822   2.342
 2905SOL    HW110674   0.887   5.863   2.264
 2905SOL    HW210675   1.034   5.820   2.323
 2906SOL     OW10676   1.076   6.269   3.326
 2906SOL    HW110677   0.996   6.208   3.329
 2906SOL    HW210678   1.157   6.216   3.302
 2907SOL     OW10679   1.227   7.156   2.655
 2907SOL    HW110680   1.248   7.230   2.590
 2907SOL    HW210681   1.295   7.156   2.728
 2908SOL     OW10682   0.459   6.738   2.603
 2908SOL    HW110683   0.388   6.711   2.668
 2908SOL    HW210684   0.433   6.710   2.510
 2909SOL     OW10685   1.271   7.383   2.453
 2909SOL    HW110686   1.315   7.447   2.389
 2909SOL    HW210687   1.221   7.435   2.523
 2910SOL     OW10688   1.032   6.135   1.878
 2910SOL    HW110689   0.991   6.217   1.839
 2910SOL    HW210690   1.096   6.161   1.951
 2911SOL     OW10691   0.561   5.808   3.009
 2911SOL    HW110692   0.599   5.724   3.046
 2911SOL    HW210693   0.473   5.827   3.053
 2912SOL     OW10694   0.866   6.040   2.504
 2912SOL    HW110695   0.834   6.112   2.442
 2912SOL    HW210696   0.890   5.959   2.451
 2913SOL     OW10697   1.017   5.625   2.615
 2913SOL    HW110698   0.945   5.630   2.546
 2913SOL    HW210699   0.993   5.556   2.684
 2914SOL     OW10700   1.429   6.759   2.729
 2914SOL    HW110701   1.374   6.675   2.722
 2914SOL    HW210702   1.455   6.788   2.637
 2915SOL     OW10703   1.466   6.176   2.854
 2915SOL    HW110704   1.436   6.081   2.861
 2915SOL    HW210705   1.539   6.192   2.920
 2916SOL     OW10706   1.857   6.419   2.239
 2916SOL    HW110707   1.899   6.355   2.303
 2916SOL    HW210708   1.819   6.368   2.161
 2917SOL     OW10709   0.488   6.971   2.036
 2917SOL    HW110710   0.401   6.956   2.083
 2917SOL    HW210711   0.471   6.997   1.941
 2918SOL     OW10712   1.664   6.866   2.519
 2918SOL    HW110713   1.763   6.874   2.533
 2918SOL    HW210714   1.619   6.950   2.550
 2919SOL     OW10715   1.390   6.161   1.940
 2919SOL    HW110716   1.336   6.140   2.021
 2919SOL    HW210717   1.481   6.120   1.949
 2920SOL     OW10718   0.527   5.842   2.190
 2920SOL    HW110719   0.554   5.783   2.115
 2920SOL    HW210720   0.527   5.937   2.159
 2921SOL     OW10721   1.754   6.809   3.450
 2921SOL    HW110722   1.845   6.770   3.437
 2921SOL    HW210723   1.762   6.905   3.474
 2922SOL     OW10724   1.064   6.933   3.202
 2922SOL    HW110725   0.984   6.910   3.257
 2922SOL    HW210726   1.147   6.907   3.251
 2923SOL     OW10727   1.592   7.215   3.487
 2923SOL    HW110728   1.619   7.249   3.397
 2923SOL    HW210729   1.671   7.177   3.533
 2924SOL     OW10730   1.111   6.781   2.962
 2924SOL    HW110731   1.071   6.825   3.043
 2924SOL    HW210732   1.070   6.818   2.879
 2925SOL     OW10733   1.638   6.685   2.941
 2925SOL    HW110734   1.643   6.766   3.000
 2925SOL    HW210735   1.552   6.687   2.890
 2926SOL     OW10736   0.915   5.675   3.264
 2926SOL    HW110737   0.940   5.655   3.169
 2926SOL    HW210738   0.987   5.731   3.306
 2927SOL     OW10739   0.980   6.702   3.581
 2927SOL    HW110740   0.881   6.708   3.591
 2927SOL    HW210741   1.003   6.622   3.525
 2928SOL     OW10742   0.705   6.636   2.230
 2928SOL    HW110743   0.691   6.643   2.329
 2928SOL    HW210744   0.789   6.585   2.212
 2929SOL     OW10745   0.410   6.399   3.113
 2929SOL    HW110746   0.496   6.411   3.163
 2929SOL    HW210747   0.368   6.312   3.140
 2930SOL     OW10748   1.274   5.972   3.124
 2930SOL    HW110749   1.295   6.046   3.188
 2930SOL    HW210750   1.185   5.989   3.081
 2931SOL     OW10751   0.367   6.686   2.363
 2931SOL    HW110752   0.360   6.769   2.307
 2931SOL    HW210753   0.371   6.606   2.303
 2932SOL     OW10754   0.566   6.123   2.727
 2932SOL    HW110755   0.578   6.189   2.653
 2932SOL    HW210756   0.612   6.157   2.810
 2933SOL     OW10757   1.252   6.934   2.250
 2933SOL    HW110758   1.302   7.011   2.290
 2933SOL    HW210759   1.157   6.936   2.282
 2934SOL     OW10760   1.272   7.031   3.004
 2934SOL    HW110761   1.319   7.044   3.091
 2934SOL    HW210762   1.206   6.957   3.013
 2935SOL     OW10763   1.582   6.225   2.334
 2935SOL    HW110764   1.551   6.286   2.407
 2935SOL    HW210765   1.632   6.277   2.265
 2936SOL     OW10766   0.354   7.096   3.191
 2936SOL    HW110767   0.333   7.052   3.104
 2936SOL    HW210768   0.451   7.122   3.194
 2937SOL     OW10769   0.402   6.337   3.460
 2937SOL    HW110770   0.470   6.392   3.413
 2937SOL    HW210771   0.442   6.249   3.487
 2938SOL     OW10772   1.587   6.365   3.532
 2938SOL    HW110773   1.495   6.403   3.527
 2938SOL    HW210774   1.647   6.412   3.467
 2939SOL     OW10775   1.013   5.691   3.632
 2939SOL    HW110776   1.019   5.776   3.580
 2939SOL    HW210777   1.045   5.615   3.575
 2940SOL     OW10778   0.504   5.636   3.602
 2940SOL    HW110779   0.462   5.579   3.532
 2940SOL    HW210780   0.438   5.705   3.634
 2941SOL     OW10781   0.573   6.456   2.891
 2941SOL    HW110782   0.617   6.545   2.882
 2941SOL    HW210783   0.510   6.456   2.968
 2942SOL     OW10784   1.360   6.448   2.907
 2942SOL    HW110785   1.285   6.448   2.841
 2942SOL    HW210786   1.397   6.356   2.916
 2943SOL     OW10787   1.209   6.111   2.137
 2943SOL    HW110788   1.222   6.027   2.191
 2943SOL    HW210789   1.180   6.185   2.197
 2944SOL     OW10790   0.732   6.220   2.926
 2944SOL    HW110791   0.791   6.194   2.850
 2944SOL    HW210792   0.704   6.316   2.915
 2945SOL     OW10793   1.728   6.521   3.716
 2945SOL    HW110794   1.682   6.514   3.627
 2945SOL    HW210795   1.666   6.565   3.782
 2946SOL     OW10796   0.307   5.649   2.480
 2946SOL    HW110797   0.296   5.743   2.513
 2946SOL    HW210798   0.302   5.586   2.557
 2947SOL     OW10799   1.622   5.953   2.236
 2947SOL    HW110800   1.624   5.877   2.300
 2947SOL    HW210801   1.574   6.030   2.276
 2948SOL     OW10802   1.023   6.352   2.828
 2948SOL    HW110803   1.038   6.373   2.924
 2948SOL    HW210804   0.993   6.257   2.819
 2949SOL     OW10805   0.980   7.159   3.562
 2949SOL    HW110806   0.960   7.203   3.474
 2949SOL    HW210807   1.019   7.068   3.546
 2950SOL     OW10808   1.859   7.104   3.467
 2950SOL    HW110809   1.873   7.131   3.372
 2950SOL    HW210810   1.942   7.126   3.520
 2951SOL     OW10811   0.350   6.484   3.666
 2951SOL    HW110812   0.426   6.528   3.714
 2951SOL    HW210813   0.385   6.437   3.584
 2952SOL     OW10814   1.303   6.424   1.904
 2952SOL    HW110815   1.337   6.331   1.919
 2952SOL    HW210816   1.321   6.451   1.809
 2953SOL     OW10817   1.068   6.919   2.711
 2953SOL    HW110818   1.075   6.835   2.656
 2953SOL    HW210819   1.130   6.988   2.675
 2954SOL     OW10820   0.319   6.396   2.811
 2954SOL    HW110821   0.412   6.432   2.816
 2954SOL    HW210822   0.313   6.311   2.863
 2955SOL     OW10823   1.138   5.966   3.540
 2955SOL    HW110824   1.093   6.029   3.604
 2955SOL    HW210825   1.231   5.997   3.523
 2956SOL     OW10826   1.160   5.793   3.339
 2956SOL    HW110827   1.160   5.857   3.416
 2956SOL    HW210828   1.188   5.841   3.256
 2957SOL     OW10829   0.504   7.154   2.772
 2957SOL    HW110830   0.570   7.228   2.781
 2957SOL    HW210831   0.548   7.075   2.730
 2958SOL     OW10832   1.002   6.382   3.100
 2958SOL    HW110833   1.043   6.350   3.186
 2958SOL    HW210834   0.906   6.355   3.097
 2959SOL     OW10835   1.369   6.536   3.522
 2959SOL    HW110836   1.408   6.625   3.542
 2959SOL    HW210837   1.379   6.516   3.425
 2960SOL     OW10838   0.815   6.158   2.187
 2960SOL    HW110839   0.822   6.069   2.141
 2960SOL    HW210840   0.721   6.192   2.179
 2961SOL     OW10841   1.657   6.190   3.068
 2961SOL    HW110842   1.619   6.121   3.130
 2961SOL    HW210843   1.739   6.154   3.024
 2962SOL     OW10844   0.671   6.050   3.131
 2962SOL    HW110845   0.637   5.961   3.101
 2962SOL    HW210846   0.697   6.104   3.051
 2963SOL     OW10847   0.930   7.264   3.327
 2963SOL    HW110848   0.906   7.246   3.232
 2963SOL    HW210849   0.960   7.358   3.337
 2964SOL     OW10850   0.473   6.086   2.053
 2964SOL    HW110851   0.534   6.166   2.057
 2964SOL    HW210852   0.378   6.117   2.060
 2965SOL     OW10853   1.347   6.645   3.096
 2965SOL    HW110854   1.371   6.582   3.022
 2965SOL    HW210855   1.257   6.685   3.078
 2966SOL     OW10856   1.302   6.441   2.171
 2966SOL    HW110857   1.216   6.410   2.213
 2966SOL    HW210858   1.298   6.427   2.072
 2967SOL     OW10859   1.759   7.333   3.016
 2967SOL    HW110860   1.820   7.363   2.943
 2967SOL    HW210861   1.721   7.244   2.994
 2968SOL     OW10862   1.252   7.317   2.990
 2968SOL    HW110863   1.336   7.322   2.936
 2968SOL    HW210864   1.229   7.221   3.008
 2969SOL     OW10865   0.688   7.248   3.578
 2969SOL    HW110866   0.632   7.329   3.587
 2969SOL    HW210867   0.740   7.252   3.492
 2970SOL     OW10868   0.903   5.672   1.995
 2970SOL    HW110869   0.954   5.673   1.909
 2970SOL    HW210870   0.959   5.630   2.066
 2971SOL     OW10871   1.726   5.721   2.385
 2971SOL    HW110872   1.799   5.704   2.318
 2971SOL    HW210873   1.695   5.634   2.423
 2972SOL     OW10874   1.388   7.159   2.339
 2972SOL    HW110875   1.455   7.171   2.265
 2972SOL    HW210876   1.348   7.248   2.362
 2973SOL     OW10877   0.130   7.380   3.713
 2973SOL    HW110878   0.089   7.306   3.766
 2973SOL    HW210879   0.194   7.431   3.771
 2974SOL     OW10880   1.280   6.513   2.534
 2974SOL    HW110881   1.340   6.432   2.536
 2974SOL    HW210882   1.320   6.582   2.474
 2975SOL     OW10883   0.830   6.859   3.284
 2975SOL    HW110884   0.825   6.892   3.379
 2975SOL    HW210885   0.744   6.878   3.238
 2976SOL     OW10886   0.672   7.202   2.016
 2976SOL    HW110887   0.681   7.212   1.917
 2976SOL    HW210888   0.632   7.113   2.037
 2977SOL     OW10889   1.650   7.306   3.256
 2977SOL    HW110890   1.703   7.316   3.172
 2977SOL    HW210891   1.623   7.396   3.290
 2978SOL     OW10892   0.263   5.912   2.582
 2978SOL    HW110893   0.184   5.963   2.548
 2978SOL    HW210894   0.254   5.897   2.680
 2979SOL     OW10895   1.194   7.198   1.893
 2979SOL    HW110896   1.200   7.105   1.930
 2979SOL    HW210897   1.135   7.198   1.813
 2980SOL     OW10898   0.822   6.588   3.234
 2980SOL    HW110899   0.862   6.587   3.142
 2980SOL    HW210900   0.832   6.680   3.274
 2981SOL     OW10901   0.916   6.496   2.153
 2981SOL    HW110902   0.979   6.534   2.085
 2981SOL    HW210903   0.956   6.413   2.192
 2982SOL     OW10904   1.504   7.193   1.906
 2982SOL    HW110905   1.412   7.230   1.913
 2982SOL    HW210906   1.542   7.213   1.816
 2983SOL     OW10907   0.372   6.874   3.352
 2983SOL    HW110908   0.359   6.967   3.318
 2983SOL    HW210909   0.288   6.822   3.339
 2984SOL     OW10910   1.614   6.878   3.151
 2984SOL    HW110911   1.674   6.881   3.231
 2984SOL    HW210912   1.539   6.942   3.164
 2985SOL     OW10913   1.039   6.684   2.558
 2985SOL    HW110914   0.969   6.637   2.612
 2985SOL    HW210915   1.098   6.616   2.515
 2986SOL     OW10916   1.014   5.822   2.833
 2986SOL    HW110917   1.006   5.786   2.740
 2986SOL    HW210918   1.012   5.746   2.898
 2987SOL     OW10919   0.590   7.073   2.353
 2987SOL    HW110920   0.632   7.015   2.283
 2987SOL    HW210921   0.546   7.152   2.309
 2988SOL     OW10922   1.709   5.971   3.243
 2988SOL    HW110923   1.782   6.040   3.247
 2988SOL    HW210924   1.737   5.896   3.184
 2989SOL     OW10925   0.255   6.934   2.152
 2989SOL    HW110926   0.159   6.935   2.125
 2989SOL    HW210927   0.267   6.987   2.236
 2990SOL     OW10928   0.672   5.789   3.351
 2990SOL    HW110929   0.762   5.773   3.311
 2990SOL    HW210930   0.680   5.794   3.450
 2991SOL     OW10931   1.440   6.442   3.260
 2991SOL    HW110932   1.383   6.494   3.197
 2991SOL    HW210933   1.536   6.454   3.236
 2992SOL     OW10934   1.183   6.921   1.981
 2992SOL    HW110935   1.084   6.910   1.983
 2992SOL    HW210936   1.217   6.936   2.074
 2993SOL     OW10937   0.613   6.428   3.293
 2993SOL    HW110938   0.669   6.509   3.276
 2993SOL    HW210939   0.672   6.348   3.296
 2994SOL     OW10940   1.493   7.353   2.821
 2994SOL    HW110941   1.526   7.417   2.752
 2994SOL    HW210942   1.559   7.347   2.896
 2995SOL     OW10943   0.716   6.151   3.570
 2995SOL    HW110944   0.735   6.216   3.644
 2995SOL    HW210945   0.776   6.071   3.579
 2996SOL     OW10946   1.450   6.806   3.495
 2996SOL    HW110947   1.441   6.796   3.594
 2996SOL    HW210948   1.546   6.799   3.469
 2997SOL     OW10949   0.390   7.327   3.422
 2997SOL    HW110950   0.299   7.368   3.420
 2997SOL    HW210951   0.383   7.233   3.454
 2998SOL     OW10952   1.674   6.469   3.116
 2998SOL    HW110953   1.647   6.380   3.079
 2998SOL    HW210954   1.675   6.537   3.043
 2999SOL     OW10955   1.225   5.911   2.311
 2999SOL    HW110956   1.290   5.837   2.300
 2999SOL    HW210957   1.245   5.961   2.395
 3000SOL     OW10958   0.594   6.331   2.514
 3000SOL    HW110959   0.644   6.416   2.495
 3000SOL    HW210960   0.506   6.333   2.466
 3001SOL     OW10961   1.777   5.928   3.504
 3001SOL    HW110962   1.760   5.959   3.410
 3001SOL    HW210963   1.693   5.891   3.542
 3002SOL     OW10964   1.730   6.520   3.379
 3002SOL    HW110965   1.768   6.611   3.394
 3002SOL    HW210966   1.722   6.503   3.280
 3003SOL     OW10967   0.859   6.960   1.878
 3003SOL    HW110968   0.813   6.975   1.966
 3003SOL    HW210969   0.903   7.045   1.848
 3004SOL     OW10970   0.661   7.376   2.815
 3004SOL    HW110971   0.615   7.464   2.802
 3004SOL    HW210972   0.760   7.388   2.808
 3005SOL     OW10973   1.408   7.437   3.582
 3005SOL    HW110974   1.312   7.426   3.555
 3005SOL    HW210975   1.464   7.370   3.534
 3006SOL     OW10976   0.859   6.542   2.723
 3006SOL    HW110977   0.913   6.473   2.771
 3006SOL    HW210978   0.827   6.611   2.789
 3007SOL     OW10979   1.083   6.570   1.949
 3007SOL    HW110980   1.060   6.623   1.867
 3007SOL    HW210981   1.164   6.514   1.930
 3008SOL     OW10982   1.861   7.155   2.713
 3008SOL    HW110983   1.790   7.143   2.643
 3008SOL    HW210984   1.862   7.076   2.773
 3009SOL     OW10985   0.672   6.977   3.486
 3009SOL    HW110986   0.594   6.927   3.524
 3009SOL    HW210987   0.669   7.072   3.517
 3010SOL     OW10988   0.428   6.010   2.382
 3010SOL    HW110989   0.458   5.938   2.320
 3010SOL    HW210990   0.389   5.970   2.465
 3011SOL     OW10991   1.705   7.073   2.966
 3011SOL    HW110992   1.612   7.048   2.939
 3011SOL    HW210993   1.731   7.023   3.048
 3012SOL     OW10994   0.812   7.172   2.549
 3012SOL    HW110995   0.844   7.182   2.455
 3012SOL    HW210996   0.733   7.110   2.551
 3013SOL     OW10997   1.424   5.800   2.974
 3013SOL    HW110998   1.476   5.735   3.029
 3013SOL    HW210999   1.375   5.863   3.035
 3014SOL     OW11000   1.001   5.620   3.016
 3014SOL    HW111001   0.938   5.548   2.985
 3014SOL    HW211002   1.094   5.584   3.016
 3015SOL     OW11003   0.770   6.916   2.163
 3015SOL    HW111004   0.724   6.829   2.180
 3015SOL    HW211005   0.861   6.913   2.204
 3016SOL     OW11006   0.618   7.153   3.146
 3016SOL    HW111007   0.613   7.235   3.203
 3016SOL    HW211008   0.707   7.150   3.101
 3017SOL     OW11009   1.300   6.039   2.553
 3017SOL    HW111010   1.241   6.119   2.557
 3017SOL    HW211011   1.315   6.004   2.646
 3018SOL     OW11012   0.875   7.232   2.199
 3018SOL    HW111013   0.798   7.197   2.145
 3018SOL    HW211014   0.843   7.303   2.261
 3019SOL     OW11015   0.019   5.954   4.371
 3019SOL    HW111016  -0.063   5.997   4.410
 3019SOL    HW211017  -0.009   5.881   4.308
 3020SOL     OW11018   0.569   6.861   4.889
 3020SOL    HW111019   0.476   6.854   4.852
 3020SOL    HW211020   0.580   6.950   4.933
 3021SOL     OW11021   1.555   7.097   4.427
 3021SOL    HW111022   1.498   7.081   4.508
 3021SOL    HW211023   1.496   7.107   4.347
 3022SOL     OW11024   1.743   6.204   4.580
 3022SOL    HW111025   1.776   6.298   4.580
 3022SOL    HW211026   1.794   6.150   4.646
 3023SOL     OW11027   1.135   6.289   4.441
 3023SOL    HW111028   1.192   6.367   4.416
 3023SOL    HW211029   1.075   6.315   4.517
 3024SOL     OW11030   1.755   6.193   3.955
 3024SOL    HW111031   1.743   6.180   3.856
 3024SOL    HW211032   1.725   6.112   4.004
 3025SOL     OW11033   0.768   6.730   4.747
 3025SOL    HW111034   0.690   6.747   4.807
 3025SOL    HW211035   0.802   6.817   4.711
 3026SOL     OW11036   0.850   6.384   5.547
 3026SOL    HW111037   0.846   6.460   5.612
 3026SOL    HW211038   0.872   6.420   5.456
 3027SOL     OW11039   0.685   6.598   4.389
 3027SOL    HW111040   0.754   6.582   4.459
 3027SOL    HW211041   0.612   6.655   4.427
 3028SOL     OW11042   0.686   6.747   5.527
 3028SOL    HW111043   0.746   6.826   5.541
 3028SOL    HW211044   0.600   6.778   5.486
 3029SOL     OW11045   0.335   7.021   4.785
 3029SOL    HW111046   0.257   6.990   4.732
 3029SOL    HW211047   0.393   7.079   4.728
 3030SOL     OW11048   1.460   7.091   5.063
 3030SOL    HW111049   1.484   7.185   5.089
 3030SOL    HW211050   1.444   7.037   5.145
 3031SOL     OW11051   0.438   5.978   5.223
 3031SOL    HW111052   0.520   5.922   5.232
 3031SOL    HW211053   0.357   5.920   5.227
 3032SOL     OW11054   1.603   6.033   4.461
 3032SOL    HW111055   1.529   6.079   4.411
 3032SOL    HW211056   1.654   6.101   4.514
 3033SOL     OW11057   1.127   6.927   5.414
 3033SOL    HW111058   1.174   6.927   5.502
 3033SOL    HW211059   1.079   6.840   5.403
 3034SOL     OW11060   0.620   7.372   5.163
 3034SOL    HW111061   0.528   7.355   5.198
 3034SOL    HW211062   0.648   7.464   5.189
 3035SOL     OW11063   0.606   6.550   3.847
 3035SOL    HW111064   0.613   6.634   3.793
 3035SOL    HW211065   0.652   6.563   3.935
 3036SOL     OW11066   1.594   5.700   5.204
 3036SOL    HW111067   1.576   5.767   5.132
 3036SOL    HW211068   1.591   5.746   5.293
 3037SOL     OW11069   1.842   7.353   4.083
 3037SOL    HW111070   1.896   7.324   4.163
 3037SOL    HW211071   1.872   7.443   4.054
 3038SOL     OW11072   1.689   6.508   4.336
 3038SOL    HW111073   1.784   6.479   4.344
 3038SOL    HW211074   1.681   6.573   4.261
 3039SOL     OW11075   1.641   6.694   4.156
 3039SOL    HW111076   1.727   6.696   4.104
 3039SOL    HW211077   1.655   6.741   4.244
 3040SOL     OW11078   0.613   6.951   4.450
 3040SOL    HW111079   0.564   6.864   4.459
 3040SOL    HW211080   0.590   6.994   4.363
 3041SOL     OW11081   1.293   6.814   5.147
 3041SOL    HW111082   1.330   6.741   5.089
 3041SOL    HW211083   1.345   6.819   5.232
 3042SOL     OW11084   0.809   5.590   4.226
 3042SOL    HW111085   0.849   5.681   4.217
 3042SOL    HW211086   0.709   5.598   4.232
 3043SOL     OW11087   1.525   6.585   3.914
 3043SOL    HW111088   1.462   6.509   3.927
 3043SOL    HW211089   1.573   6.603   4.000
 3044SOL     OW11090   1.187   7.378   5.340
 3044SOL    HW111091   1.211   7.438   5.264
 3044SOL    HW211092   1.194   7.283   5.310
 3045SOL     OW11093   0.317   5.837   5.525
 3045SOL    HW111094   0.388   5.908   5.531
 3045SOL    HW211095   0.229   5.876   5.553
 3046SOL     OW11096   1.466   7.003   4.677
 3046SOL    HW111097   1.407   7.009   4.757
 3046SOL    HW211098   1.451   6.915   4.631
 3047SOL     OW11099   1.667   7.300   4.296
 3047SOL    HW111100   1.626   7.277   4.208
 3047SOL    HW211101   1.649   7.226   4.361
 3048SOL     OW11102   0.598   6.315   3.994
 3048SOL    HW111103   0.622   6.384   3.926
 3048SOL    HW211104   0.520   6.348   4.048
 3049SOL     OW11105   1.281   5.931   4.668
 3049SOL    HW111106   1.195   5.881   4.655
 3049SOL    HW211107   1.343   5.877   4.724
 3050SOL     OW11108   1.576   7.248   4.031
 3050SOL    HW111109   1.665   7.294   4.034
 3050SOL    HW211110   1.555   7.224   3.936
 3051SOL     OW11111   0.807   6.191   5.189
 3051SOL    HW111112   0.760   6.188   5.278
 3051SOL    HW211113   0.756   6.136   5.123
 3052SOL     OW11114   1.394   6.055   5.398
 3052SOL    HW111115   1.374   6.098   5.486
 3052SOL    HW211116   1.472   5.993   5.407
 3053SOL     OW11117   0.973   6.476   5.296
 3053SOL    HW111118   1.019   6.392   5.267
 3053SOL    HW211119   0.917   6.510   5.221
 3054SOL     OW11120   0.991   5.996   4.966
 3054SOL    HW111121   0.914   6.030   5.020
 3054SOL    HW211122   0.957   5.945   4.887
 3055SOL     OW11123   1.041   6.287   4.153
 3055SOL    HW111124   1.067   6.283   4.249
 3055SOL    HW211125   0.956   6.236   4.139
 3056SOL     OW11126   0.865   5.934   3.919
 3056SOL    HW111127   0.924   5.997   3.870
 3056SOL    HW211128   0.884   5.840   3.890
 3057SOL     OW11129   1.719   6.171   5.555
 3057SOL    HW111130   1.693   6.260   5.519
 3057SOL    HW211131   1.717   6.103   5.482
 3058SOL     OW11132   1.362   6.730   4.269
 3058SOL    HW111133   1.445   6.701   4.221
 3058SOL    HW211134   1.313   6.797   4.213
 3059SOL     OW11135   0.550   5.782   4.609
 3059SOL    HW111136   0.545   5.777   4.709
 3059SOL    HW211137   0.552   5.878   4.580
 3060SOL     OW11138   1.008   7.042   4.201
 3060SOL    HW111139   0.962   7.114   4.149
 3060SOL    HW211140   1.004   7.062   4.299
 3061SOL     OW11141   0.351   7.387   4.577
 3061SOL    HW111142   0.401   7.301   4.583
 3061SOL    HW211143   0.416   7.464   4.574
 3062SOL     OW11144   1.795   6.652   4.597
 3062SOL    HW111145   1.733   6.637   4.521
 3062SOL    HW211146   1.743   6.663   4.682
 3063SOL     OW11147   1.227   7.136   5.230
 3063SOL    HW111148   1.233   7.059   5.294
 3063SOL    HW211149   1.175   7.110   5.150
 3064SOL     OW11150   0.321   6.529   3.966
 3064SOL    HW111151   0.403   6.568   3.924
 3064SOL    HW211152   0.294   6.447   3.917
 3065SOL     OW11153   1.458   6.321   4.452
 3065SOL    HW111154   1.453   6.256   4.527
 3065SOL    HW211155   1.538   6.380   4.465
 3066SOL     OW11156   0.461   6.852   5.451
 3066SOL    HW111157   0.411   6.853   5.365
 3066SOL    HW211158   0.398   6.834   5.527
 3067SOL     OW11159   1.111   7.362   3.961
 3067SOL    HW111160   1.051   7.300   4.011
 3067SOL    HW211161   1.142   7.318   3.876
 3068SOL     OW11162   1.632   6.963   3.805
 3068SOL    HW111163   1.600   7.057   3.795
 3068SOL    HW211164   1.556   6.900   3.793
 3069SOL     OW11165   0.464   7.329   4.047
 3069SOL    HW111166   0.497   7.368   4.133
 3069SOL    HW211167   0.540   7.322   3.982
 3070SOL     OW11168   1.400   5.693   4.150
 3070SOL    HW111169   1.376   5.656   4.060
 3070SOL    HW211170   1.499   5.709   4.154
 3071SOL     OW11171   0.940   7.284   4.628
 3071SOL    HW111172   1.020   7.227   4.649
 3071SOL    HW211173   0.891   7.244   4.551
 3072SOL     OW11174   0.382   6.286   4.204
 3072SOL    HW111175   0.427   6.196   4.201
 3072SOL    HW211176   0.288   6.275   4.237
 3073SOL     OW11177   1.547   5.808   5.453
 3073SOL    HW111178   1.542   5.845   5.545
 3073SOL    HW211179   1.475   5.739   5.441
 3074SOL     OW11180   0.614   5.708   3.841
 3074SOL    HW111181   0.712   5.686   3.848
 3074SOL    HW211182   0.583   5.691   3.748
 3075SOL     OW11183   0.781   5.850   5.473
 3075SOL    HW111184   0.848   5.789   5.516
 3075SOL    HW211185   0.708   5.869   5.538
 3076SOL     OW11186   0.888   7.100   4.919
 3076SOL    HW111187   0.865   7.075   4.825
 3076SOL    HW211188   0.949   7.031   4.958
 3077SOL     OW11189   1.351   6.176   5.157
 3077SOL    HW111190   1.379   6.133   5.242
 3077SOL    HW211191   1.376   6.272   5.158
 3078SOL     OW11192   0.803   6.988   4.648
 3078SOL    HW111193   0.893   7.002   4.606
 3078SOL    HW211194   0.732   6.990   4.577
 3079SOL     OW11195   0.922   6.089   4.623
 3079SOL    HW111196   0.897   6.080   4.527
 3079SOL    HW211197   0.970   6.007   4.654
 3080SOL     OW11198   0.539   5.650   4.236
 3080SOL    HW111199   0.458   5.651   4.294
 3080SOL    HW211200   0.542   5.733   4.181
 3081SOL     OW11201   1.434   6.774   3.765
 3081SOL    HW111202   1.466   6.698   3.822
 3081SOL    HW211203   1.342   6.801   3.795
 3082SOL     OW11204   0.297   5.621   3.895
 3082SOL    HW111205   0.346   5.705   3.874
 3082SOL    HW211206   0.359   5.556   3.940
 3083SOL     OW11207   0.935   5.822   4.204
 3083SOL    HW111208   0.887   5.863   4.126
 3083SOL    HW211209   1.034   5.820   4.185
 3084SOL     OW11210   1.076   6.269   5.188
 3084SOL    HW111211   0.996   6.208   5.191
 3084SOL    HW211212   1.157   6.216   5.164
 3085SOL     OW11213   1.227   7.156   4.517
 3085SOL    HW111214   1.248   7.230   4.452
 3085SOL    HW211215   1.295   7.156   4.590
 3086SOL     OW11216   0.459   6.738   4.465
 3086SOL    HW111217   0.388   6.711   4.530
 3086SOL    HW211218   0.433   6.710   4.372
 3087SOL     OW11219   1.271   7.383   4.315
 3087SOL    HW111220   1.315   7.447   4.251
 3087SOL    HW211221   1.221   7.435   4.385
 3088SOL     OW11222   1.032   6.135   3.740
 3088SOL    HW111223   0.991   6.217   3.701
 3088SOL    HW211224   1.096   6.161   3.813
 3089SOL     OW11225   0.561   5.808   4.871
 3089SOL    HW111226   0.599   5.724   4.908
 3089SOL    HW211227   0.473   5.827   4.915
 3090SOL     OW11228   0.866   6.040   4.366
 3090SOL    HW111229   0.834   6.112   4.304
 3090SOL    HW211230   0.890   5.959   4.313
 3091SOL     OW11231   1.017   5.625   4.477
 3091SOL    HW111232   0.945   5.630   4.408
 3091SOL    HW211233   0.993   5.556   4.546
 3092SOL     OW11234   1.429   6.759   4.591
 3092SOL    HW111235   1.374   6.675   4.584
 3092SOL    HW211236   1.455   6.788   4.499
 3093SOL     OW11237   1.466   6.176   4.716
 3093SOL    HW111238   1.436   6.081   4.723
 3093SOL    HW211239   1.539   6.192   4.782
 3094SOL     OW11240   1.857   6.419   4.101
 3094SOL    HW111241   1.899   6.355   4.165
 3094SOL    HW211242   1.819   6.368   4.023
 3095SOL     OW11243   0.488   6.971   3.898
 3095SOL    HW111244   0.401   6.956   3.945
 3095SOL    HW211245   0.471   6.997   3.803
 3096SOL     OW11246   1.664   6.866   4.381
 3096SOL    HW111247   1.763   6.874   4.395
 3096SOL    HW211248   1.619   6.950   4.412
 3097SOL     OW11249   1.390   6.161   3.802
 3097SOL    HW111250   1.336   6.140   3.883
 3097SOL    HW211251   1.481   6.120   3.811
 3098SOL     OW11252   0.527   5.842   4.052
 3098SOL    HW111253   0.554   5.783   3.977
 3098SOL    HW211254   0.527   5.937   4.021
 3099SOL     OW11255   1.754   6.809   5.312
 3099SOL    HW111256   1.845   6.770   5.299
 3099SOL    HW211257   1.762   6.905   5.336
 3100SOL     OW11258   1.064   6.933   5.064
 3100SOL    HW111259   0.984   6.910   5.119
 3100SOL    HW211260   1.147   6.907   5.113
 3101SOL     OW11261   1.592   7.215   5.349
 3101SOL    HW111262   1.619   7.249   5.259
 3101SOL    HW211263   1.671   7.177   5.395
 3102SOL     OW11264   1.111   6.781   4.824
 3102SOL    HW111265   1.071   6.825   4.905
 3102SOL    HW211266   1.070   6.818   4.741
 3103SOL     OW11267   1.638   6.685   4.803
 3103SOL    HW111268   1.643   6.766   4.862
 3103SOL    HW211269   1.552   6.687   4.752
 3104SOL     OW11270   0.915   5.675   5.126
 3104SOL    HW111271   0.940   5.655   5.031
 3104SOL    HW211272   0.987   5.731   5.168
 3105SOL     OW11273   0.980   6.702   5.443
 3105SOL    HW111274   0.881   6.708   5.453
 3105SOL    HW211275   1.003   6.622   5.387
 3106SOL     OW11276   0.705   6.636   4.092
 3106SOL    HW111277   0.691   6.643   4.191
 3106SOL    HW211278   0.789   6.585   4.074
 3107SOL     OW11279   0.410   6.399   4.975
 3107SOL    HW111280   0.496   6.411   5.025
 3107SOL    HW211281   0.368   6.312   5.002
 3108SOL     OW11282   1.274   5.972   4.986
 3108SOL    HW111283   1.295   6.046   5.050
 3108SOL    HW211284   1.185   5.989   4.943
 3109SOL     OW11285   0.367   6.686   4.225
 3109SOL    HW111286   0.360   6.769   4.169
 3109SOL    HW211287   0.371   6.606   4.165
 3110SOL     OW11288   0.566   6.123   4.589
 3110SOL    HW111289   0.578   6.189   4.515
 3110SOL    HW211290   0.612   6.157   4.672
 3111SOL     OW11291   1.252   6.934   4.112
 3111SOL    HW111292   1.302   7.011   4.152
 3111SOL    HW211293   1.157   6.936   4.144
 3112SOL     OW11294   1.272   7.031   4.866
 3112SOL    HW111295   1.319   7.044   4.953
 3112SOL    HW211296   1.206   6.957   4.875
 3113SOL     OW11297   1.582   6.225   4.196
 3113SOL    HW111298   1.551   6.286   4.269
 3113SOL    HW211299   1.632   6.277   4.127
 3114SOL     OW11300   0.354   7.096   5.053
 3114SOL    HW111301   0.333   7.052   4.966
 3114SOL    HW211302   0.451   7.122   5.056
 3115SOL     OW11303   0.402   6.337   5.322
 3115SOL    HW111304   0.470   6.392   5.275
 3115SOL    HW211305   0.442   6.249   5.349
 3116SOL     OW11306   1.587   6.365   5.394
 3116SOL    HW111307   1.495   6.403   5.389
 3116SOL    HW211308   1.647   6.412   5.329
 3117SOL     OW11309   1.013   5.691   5.494
 3117SOL    HW111310   1.019   5.776   5.442
 3117SOL    HW211311   1.045   5.615   5.437
 3118SOL     OW11312   0.504   5.636   5.464
 3118SOL    HW111313   0.462   5.579   5.394
 3118SOL    HW211314   0.438   5.705   5.496
 3119SOL     OW11315   0.573   6.456   4.753
 3119SOL    HW111316   0.617   6.545   4.744
 3119SOL    HW211317   0.510   6.456   4.830
 3120SOL     OW11318   1.360   6.448   4.769
 3120SOL    HW111319   1.285   6.448   4.703
 3120SOL    HW211320   1.397   6.356   4.778
 3121SOL     OW11321   1.209   6.111   3.999
 3121SOL    HW111322   1.222   6.027   4.053
 3121SOL    HW211323   1.180   6.185   4.059
 3122SOL     OW11324   0.732   6.220   4.788
 3122SOL    HW111325   0.791   6.194   4.712
 3122SOL    HW211326   0.704   6.316   4.777
 3123SOL     OW11327   1.728   6.521   5.578
 3123SOL    HW111328   1.682   6.514   5.489
 3123SOL    HW211329   1.666   6.565   5.644
 3124SOL     OW11330   0.307   5.649   4.342
 3124SOL    HW111331   0.296   5.743   4.375
 3124SOL    HW211332   0.302   5.586   4.419
 3125SOL     OW11333   1.622   5.953   4.098
 3125SOL    HW111334   1.624   5.877   4.162
 3125SOL    HW211335   1.574   6.030   4.138
 3126SOL     OW11336   1.023   6.352   4.690
 3126SOL    HW111337   1.038   6.373   4.786
 3126SOL    HW211338   0.993   6.257   4.681
 3127SOL     OW11339   0.980   7.159   5.424
 3127SOL    HW111340   0.960   7.203   5.336
 3127SOL    HW211341   1.019   7.068   5.408
 3128SOL     OW11342   1.859   7.104   5.329
 3128SOL    HW111343   1.873   7.131   5.234
 3128SOL    HW211344   1.942   7.126   5.382
 3129SOL     OW11345   0.350   6.484   5.528
 3129SOL    HW111346   0.426   6.528   5.576
 3129SOL    HW211347   0.385   6.437   5.446
 3130SOL     OW11348   1.540   5.860   3.849
 3130SOL    HW111349   1.479   5.785   3.872
 3130SOL    HW211350   1.562   5.912   3.932
 3131SOL     OW11351   1.303   6.424   3.766
 3131SOL    HW111352   1.337   6.331   3.781
 3131SOL    HW211353   1.321   6.451   3.671
 3132SOL     OW11354   1.068   6.919   4.573
 3132SOL    HW111355   1.075   6.835   4.518
 3132SOL    HW211356   1.130   6.988   4.537
 3133SOL     OW11357   0.319   6.396   4.673
 3133SOL    HW111358   0.412   6.432   4.678
 3133SOL    HW211359   0.313   6.311   4.725
 3134SOL     OW11360   1.138   5.966   5.402
 3134SOL    HW111361   1.093   6.029   5.466
 3134SOL    HW211362   1.231   5.997   5.385
 3135SOL     OW11363   1.160   5.793   5.201
 3135SOL    HW111364   1.160   5.857   5.278
 3135SOL    HW211365   1.188   5.841   5.118
 3136SOL     OW11366   0.504   7.154   4.634
 3136SOL    HW111367   0.570   7.228   4.643
 3136SOL    HW211368   0.548   7.075   4.592
 3137SOL     OW11369   1.002   6.382   4.962
 3137SOL    HW111370   1.043   6.350   5.048
 3137SOL    HW211371   0.906   6.355   4.959
 3138SOL     OW11372   1.369   6.536   5.384
 3138SOL    HW111373   1.408   6.625   5.404
 3138SOL    HW211374   1.379   6.516   5.287
 3139SOL     OW11375   0.815   6.158   4.049
 3139SOL    HW111376   0.822   6.069   4.003
 3139SOL    HW211377   0.721   6.192   4.041
 3140SOL     OW11378   1.657   6.190   4.930
 3140SOL    HW111379   1.619   6.121   4.992
 3140SOL    HW211380   1.739   6.154   4.886
 3141SOL     OW11381   0.671   6.050   4.993
 3141SOL    HW111382   0.637   5.961   4.963
 3141SOL    HW211383   0.697   6.104   4.913
 3142SOL     OW11384   0.930   7.264   5.189
 3142SOL    HW111385   0.906   7.246   5.094
 3142SOL    HW211386   0.960   7.358   5.199
 3143SOL     OW11387   0.473   6.086   3.915
 3143SOL    HW111388   0.534   6.166   3.919
 3143SOL    HW211389   0.378   6.117   3.922
 3144SOL     OW11390   1.347   6.645   4.958
 3144SOL    HW111391   1.371   6.582   4.884
 3144SOL    HW211392   1.257   6.685   4.940
 3145SOL     OW11393   1.302   6.441   4.033
 3145SOL    HW111394   1.216   6.410   4.075
 3145SOL    HW211395   1.298   6.427   3.934
 3146SOL     OW11396   1.759   7.333   4.878
 3146SOL    HW111397   1.820   7.363   4.805
 3146SOL    HW211398   1.721   7.244   4.856
 3147SOL     OW11399   1.252   7.317   4.852
 3147SOL    HW111400   1.336   7.322   4.798
 3147SOL    HW211401   1.229   7.221   4.870
 3148SOL     OW11402   0.688   7.248   5.440
 3148SOL    HW111403   0.632   7.329   5.449
 3148SOL    HW211404   0.740   7.252   5.354
 3149SOL     OW11405   0.903   5.672   3.857
 3149SOL    HW111406   0.954   5.673   3.771
 3149SOL    HW211407   0.959   5.630   3.928
 3150SOL     OW11408   1.726   5.721   4.247
 3150SOL    HW111409   1.799   5.704   4.180
 3150SOL    HW211410   1.695   5.634   4.285
 3151SOL     OW11411   1.388   7.159   4.201
 3151SOL    HW111412   1.455   7.171   4.127
 3151SOL    HW211413   1.348   7.248   4.224
 3152SOL     OW11414   0.130   7.380   5.575
 3152SOL    HW111415   0.089   7.306   5.628
 3152SOL    HW211416   0.194   7.431   5.633
 3153SOL     OW11417   1.280   6.513   4.396
 3153SOL    HW111418   1.340   6.432   4.398
 3153SOL    HW211419   1.320   6.582   4.336
 3154SOL     OW11420   0.830   6.859   5.146
 3154SOL    HW111421   0.825   6.892   5.241
 3154SOL    HW211422   0.744   6.878   5.100
 3155SOL     OW11423   0.672   7.202   3.878
 3155SOL    HW111424   0.681   7.212   3.779
 3155SOL    HW211425   0.632   7.113   3.899
 3156SOL     OW11426   1.650   7.306   5.118
 3156SOL    HW111427   1.703   7.316   5.034
 3156SOL    HW211428   1.623   7.396   5.152
 3157SOL     OW11429   1.841   5.761   4.687
 3157SOL    HW111430   1.880   5.676   4.651
 3157SOL    HW211431   1.743   5.763   4.668
 3158SOL     OW11432   0.263   5.912   4.444
 3158SOL    HW111433   0.184   5.963   4.410
 3158SOL    HW211434   0.254   5.897   4.542
 3159SOL     OW11435   1.194   7.198   3.755
 3159SOL    HW111436   1.200   7.105   3.792
 3159SOL    HW211437   1.135   7.198   3.675
 3160SOL     OW11438   0.822   6.588   5.096
 3160SOL    HW111439   0.862   6.587   5.004
 3160SOL    HW211440   0.832   6.680   5.136
 3161SOL     OW11441   0.916   6.496   4.015
 3161SOL    HW111442   0.979   6.534   3.947
 3161SOL    HW211443   0.956   6.413   4.054
 3162SOL     OW11444   1.504   7.193   3.768
 3162SOL    HW111445   1.412   7.230   3.775
 3162SOL    HW211446   1.542   7.213   3.678
 3163SOL     OW11447   0.372   6.874   5.214
 3163SOL    HW111448   0.359   6.967   5.180
 3163SOL    HW211449   0.288   6.822   5.201
 3164SOL     OW11450   1.614   6.878   5.013
 3164SOL    HW111451   1.674   6.881   5.093
 3164SOL    HW211452   1.539   6.942   5.026
 3165SOL     OW11453   1.039   6.684   4.420
 3165SOL    HW111454   0.969   6.637   4.474
 3165SOL    HW211455   1.098   6.616   4.377
 3166SOL     OW11456   1.014   5.822   4.695
 3166SOL    HW111457   1.006   5.786   4.602
 3166SOL    HW211458   1.012   5.746   4.760
 3167SOL     OW11459   0.590   7.073   4.215
 3167SOL    HW111460   0.632   7.015   4.145
 3167SOL    HW211461   0.546   7.152   4.171
 3168SOL     OW11462   1.709   5.971   5.105
 3168SOL    HW111463   1.782   6.040   5.109
 3168SOL    HW211464   1.737   5.896   5.046
 3169SOL     OW11465   0.255   6.934   4.014
 3169SOL    HW111466   0.159   6.935   3.987
 3169SOL    HW211467   0.267   6.987   4.098
 3170SOL     OW11468   0.672   5.789   5.213
 3170SOL    HW111469   0.762   5.773   5.173
 3170SOL    HW211470   0.680   5.794   5.312
 3171SOL     OW11471   1.440   6.442   5.122
 3171SOL    HW111472   1.383   6.494   5.059
 3171SOL    HW211473   1.536   6.454   5.098
 3172SOL     OW11474   1.183   6.921   3.843
 3172SOL    HW111475   1.084   6.910   3.845
 3172SOL    HW211476   1.217   6.936   3.936
 3173SOL     OW11477   0.613   6.428   5.155
 3173SOL    HW111478   0.669   6.509   5.138
 3173SOL    HW211479   0.672   6.348   5.158
 3174SOL     OW11480   1.493   7.353   4.683
 3174SOL    HW111481   1.526   7.417   4.614
 3174SOL    HW211482   1.559   7.347   4.758
 3175SOL     OW11483   0.716   6.151   5.432
 3175SOL    HW111484   0.735   6.216   5.506
 3175SOL    HW211485   0.776   6.071   5.441
 3176SOL     OW11486   1.450   6.806   5.357
 3176SOL    HW111487   1.441   6.796   5.456
 3176SOL    HW211488   1.546   6.799   5.331
 3177SOL     OW11489   0.390   7.327   5.284
 3177SOL    HW111490   0.299   7.368   5.282
 3177SOL    HW211491   0.383   7.233   5.316
 3178SOL     OW11492   1.674   6.469   4.978
 3178SOL    HW111493   1.647   6.380   4.941
 3178SOL    HW211494   1.675   6.537   4.905
 3179SOL     OW11495   1.225   5.911   4.173
 3179SOL    HW111496   1.290   5.837   4.162
 3179SOL    HW211497   1.245   5.961   4.257
 3180SOL     OW11498   0.594   6.331   4.376
 3180SOL    HW111499   0.644   6.416   4.357
 3180SOL    HW211500   0.506   6.333   4.328
 3181SOL     OW11501   1.777   5.928   5.366
 3181SOL    HW111502   1.760   5.959   5.272
 3181SOL    HW211503   1.693   5.891   5.404
 3182SOL     OW11504   1.730   6.520   5.241
 3182SOL    HW111505   1.768   6.611   5.256
 3182SOL    HW211506   1.722   6.503   5.142
 3183SOL     OW11507   0.859   6.960   3.740
 3183SOL    HW111508   0.813   6.975   3.828
 3183SOL    HW211509   0.903   7.045   3.710
 3184SOL     OW11510   0.661   7.376   4.677
 3184SOL    HW111511   0.615   7.464   4.664
 3184SOL    HW211512   0.760   7.388   4.670
 3185SOL     OW11513   1.408   7.437   5.444
 3185SOL    HW111514   1.312   7.426   5.417
 3185SOL    HW211515   1.464   7.370   5.396
 3186SOL     OW11516   0.859   6.542   4.585
 3186SOL    HW111517   0.913   6.473   4.633
 3186SOL    HW211518   0.827   6.611   4.651
 3187SOL     OW11519   1.083   6.570   3.811
 3187SOL    HW111520   1.060   6.623   3.729
 3187SOL    HW211521   1.164   6.514   3.792
 3188SOL     OW11522   1.861   7.155   4.575
 3188SOL    HW111523   1.790   7.143   4.505
 3188SOL    HW211524   1.862   7.076   4.635
 3189SOL     OW11525   0.672   6.977   5.348
 3189SOL    HW111526   0.594   6.927   5.386
 3189SOL    HW211527   0.669   7.072   5.379
 3190SOL     OW11528   1.824   5.778   4.951
 3190SOL    HW111529   1.820   5.688   4.995
 3190SOL    HW211530   1.827   5.767   4.852
 3191SOL     OW11531   0.428   6.010   4.244
 3191SOL    HW111532   0.458   5.938   4.182
 3191SOL    HW211533   0.389   5.970   4.327
 3192SOL     OW11534   1.705   7.073   4.828
 3192SOL    HW111535   1.612   7.048   4.801
 3192SOL    HW211536   1.731   7.023   4.910
 3193SOL     OW11537   0.812   7.172   4.411
 3193SOL    HW111538   0.844   7.182   4.317
 3193SOL    HW211539   0.733   7.110   4.413
 3194SOL     OW11540   1.424   5.800   4.836
 3194SOL    HW111541   1.476   5.735   4.891
 3194SOL    HW211542   1.375   5.863   4.897
 3195SOL     OW11543   1.001   5.620   4.878
 3195SOL    HW111544   0.938   5.548   4.847
 3195SOL    HW211545   1.094   5.584   4.878
 3196SOL     OW11546   0.770   6.916   4.025
 3196SOL    HW111547   0.724   6.829   4.042
 3196SOL    HW211548   0.861   6.913   4.066
 3197SOL     OW11549   0.618   7.153   5.008
 3197SOL    HW111550   0.613   7.235   5.065
 3197SOL    HW211551   0.707   7.150   4.963
 3198SOL     OW11552   1.352   5.638   3.892
 3198SOL    HW111553   1.387   5.597   3.808
 3198SOL    HW211554   1.262   5.600   3.912
 3199SOL     OW11555   1.300   6.039   4.415
 3199SOL    HW111556   1.241   6.119   4.419
 3199SOL    HW211557   1.315   6.004   4.508
 3200SOL     OW11558   1.593   5.807   4.606
 3200SOL    HW111559   1.509   5.806   4.660
 3200SOL    HW211560   1.595   5.890   4.550
 3201SOL     OW11561   0.875   7.232   4.061
 3201SOL    HW111562   0.798   7.197   4.007
 3201SOL    HW211563   0.843   7.303   4.123
 3202SOL     OW11564   0.019   5.954   6.233
 3202SOL    HW111565  -0.063   5.997   6.272
 3202SOL    HW211566  -0.009   5.881   6.170
 3203SOL     OW11567   0.569   6.861   6.751
 3203SOL    HW111568   0.476   6.854   6.714
 3203SOL    HW211569   0.580   6.950   6.795
 3204SOL     OW11570   1.555   7.097   6.289
 3204SOL    HW111571   1.498   7.081   6.370
 3204SOL    HW211572   1.496   7.107   6.209
 3205SOL     OW11573   1.743   6.204   6.442
 3205SOL    HW111574   1.776   6.298   6.442
 3205SOL    HW211575   1.794   6.150   6.508
 3206SOL     OW11576   1.135   6.289   6.303
 3206SOL    HW111577   1.192   6.367   6.278
 3206SOL    HW211578   1.075   6.315   6.379
 3207SOL     OW11579   1.755   6.193   5.817
 3207SOL    HW111580   1.743   6.180   5.718
 3207SOL    HW211581   1.725   6.112   5.866
 3208SOL     OW11582   0.768   6.730   6.609
 3208SOL    HW111583   0.690   6.747   6.669
 3208SOL    HW211584   0.802   6.817   6.573
 3209SOL     OW11585   0.850   6.384   7.409
 3209SOL    HW111586   0.846   6.460   7.474
 3209SOL    HW211587   0.872   6.420   7.318
 3210SOL     OW11588   0.685   6.598   6.251
 3210SOL    HW111589   0.754   6.582   6.321
 3210SOL    HW211590   0.612   6.655   6.289
 3211SOL     OW11591   0.686   6.747   7.389
 3211SOL    HW111592   0.746   6.826   7.403
 3211SOL    HW211593   0.600   6.778   7.348
 3212SOL     OW11594   0.335   7.021   6.647
 3212SOL    HW111595   0.257   6.990   6.594
 3212SOL    HW211596   0.393   7.079   6.590
 3213SOL     OW11597   1.460   7.091   6.925
 3213SOL    HW111598   1.484   7.185   6.951
 3213SOL    HW211599   1.444   7.037   7.007
 3214SOL     OW11600   0.438   5.978   7.085
 3214SOL    HW111601   0.520   5.922   7.094
 3214SOL    HW211602   0.357   5.920   7.089
 3215SOL     OW11603   1.603   6.033   6.323
 3215SOL    HW111604   1.529   6.079   6.273
 3215SOL    HW211605   1.654   6.101   6.376
 3216SOL     OW11606   1.127   6.927   7.276
 3216SOL    HW111607   1.174   6.927   7.364
 3216SOL    HW211608   1.079   6.840   7.265
 3217SOL     OW11609   0.620   7.372   7.025
 3217SOL    HW111610   0.528   7.355   7.060
 3217SOL    HW211611   0.648   7.464   7.051
 3218SOL     OW11612   0.606   6.550   5.709
 3218SOL    HW111613   0.613   6.634   5.655
 3218SOL    HW211614   0.652   6.563   5.797
 3219SOL     OW11615   1.594   5.700   7.066
 3219SOL    HW111616   1.576   5.767   6.994
 3219SOL    HW211617   1.591   5.746   7.155
 3220SOL     OW11618   1.842   7.353   5.945
 3220SOL    HW111619   1.896   7.324   6.025
 3220SOL    HW211620   1.872   7.443   5.916
 3221SOL     OW11621   1.689   6.508   6.198
 3221SOL    HW111622   1.784   6.479   6.206
 3221SOL    HW211623   1.681   6.573   6.123
 3222SOL     OW11624   1.641   6.694   6.018
 3222SOL    HW111625   1.727   6.696   5.966
 3222SOL    HW211626   1.655   6.741   6.106
 3223SOL     OW11627   0.613   6.951   6.312
 3223SOL    HW111628   0.564   6.864   6.321
 3223SOL    HW211629   0.590   6.994   6.225
 3224SOL     OW11630   1.293   6.814   7.009
 3224SOL    HW111631   1.330   6.741   6.951
 3224SOL    HW211632   1.345   6.819   7.094
 3225SOL     OW11633   0.809   5.590   6.088
 3225SOL    HW111634   0.849   5.681   6.079
 3225SOL    HW211635   0.709   5.598   6.094
 3226SOL     OW11636   1.525   6.585   5.776
 3226SOL    HW111637   1.462   6.509   5.789
 3226SOL    HW211638   1.573   6.603   5.862
 3227SOL     OW11639   1.187   7.378   7.202
 3227SOL    HW111640   1.211   7.438   7.126
 3227SOL    HW211641   1.194   7.283   7.172
 3228SOL     OW11642   0.317   5.837   7.387
 3228SOL    HW111643   0.388   5.908   7.393
 3228SOL    HW211644   0.229   5.876   7.415
 3229SOL     OW11645   1.466   7.003   6.539
 3229SOL    HW111646   1.407   7.009   6.619
 3229SOL    HW211647   1.451   6.915   6.493
 3230SOL     OW11648   1.667   7.300   6.158
 3230SOL    HW111649   1.626   7.277   6.070
 3230SOL    HW211650   1.649   7.226   6.223
 3231SOL     OW11651   0.598   6.315   5.856
 3231SOL    HW111652   0.622   6.384   5.788
 3231SOL    HW211653   0.520   6.348   5.910
 3232SOL     OW11654   1.281   5.931   6.530
 3232SOL    HW111655   1.195   5.881   6.517
 3232SOL    HW211656   1.343   5.877   6.586
 3233SOL     OW11657   1.576   7.248   5.893
 3233SOL    HW111658   1.665   7.294   5.896
 3233SOL    HW211659   1.555   7.224   5.798
 3234SOL     OW11660   0.807   6.191   7.051
 3234SOL    HW111661   0.760   6.188   7.140
 3234SOL    HW211662   0.756   6.136   6.985
 3235SOL     OW11663   1.394   6.055   7.260
 3235SOL    HW111664   1.374   6.098   7.348
 3235SOL    HW211665   1.472   5.993   7.269
 3236SOL     OW11666   0.973   6.476   7.158
 3236SOL    HW111667   1.019   6.392   7.129
 3236SOL    HW211668   0.917   6.510   7.083
 3237SOL     OW11669   0.991   5.996   6.828
 3237SOL    HW111670   0.914   6.030   6.882
 3237SOL    HW211671   0.957   5.945   6.749
 3238SOL     OW11672   1.041   6.287   6.015
 3238SOL    HW111673   1.067   6.283   6.111
 3238SOL    HW211674   0.956   6.236   6.001
 3239SOL     OW11675   0.865   5.934   5.781
 3239SOL    HW111676   0.924   5.997   5.732
 3239SOL    HW211677   0.884   5.840   5.752
 3240SOL     OW11678   1.719   6.171   7.417
 3240SOL    HW111679   1.693   6.260   7.381
 3240SOL    HW211680   1.717   6.103   7.344
 3241SOL     OW11681   1.362   6.730   6.131
 3241SOL    HW111682   1.445   6.701   6.083
 3241SOL    HW211683   1.313   6.797   6.075
 3242SOL     OW11684   0.550   5.782   6.471
 3242SOL    HW111685   0.545   5.777   6.571
 3242SOL    HW211686   0.552   5.878   6.442
 3243SOL     OW11687   1.008   7.042   6.063
 3243SOL    HW111688   0.962   7.114   6.011
 3243SOL    HW211689   1.004   7.062   6.161
 3244SOL     OW11690   0.351   7.387   6.439
 3244SOL    HW111691   0.401   7.301   6.445
 3244SOL    HW211692   0.416   7.464   6.436
 3245SOL     OW11693   1.795   6.652   6.459
 3245SOL    HW111694   1.733   6.637   6.383
 3245SOL    HW211695   1.743   6.663   6.544
 3246SOL     OW11696   1.227   7.136   7.092
 3246SOL    HW111697   1.233   7.059   7.156
 3246SOL    HW211698   1.175   7.110   7.012
 3247SOL     OW11699   0.321   6.529   5.828
 3247SOL    HW111700   0.403   6.568   5.786
 3247SOL    HW211701   0.294   6.447   5.779
 3248SOL     OW11702   1.458   6.321   6.314
 3248SOL    HW111703   1.453   6.256   6.389
 3248SOL    HW211704   1.538   6.380   6.327
 3249SOL     OW11705   0.461   6.852   7.313
 3249SOL    HW111706   0.411   6.853   7.227
 3249SOL    HW211707   0.398   6.834   7.389
 3250SOL     OW11708   1.111   7.362   5.823
 3250SOL    HW111709   1.051   7.300   5.873
 3250SOL    HW211710   1.142   7.318   5.738
 3251SOL     OW11711   1.632   6.963   5.667
 3251SOL    HW111712   1.600   7.057   5.657
 3251SOL    HW211713   1.556   6.900   5.655
 3252SOL     OW11714   0.464   7.329   5.909
 3252SOL    HW111715   0.497   7.368   5.995
 3252SOL    HW211716   0.540   7.322   5.844
 3253SOL     OW11717   1.400   5.693   6.012
 3253SOL    HW111718   1.376   5.656   5.922
 3253SOL    HW211719   1.499   5.709   6.016
 3254SOL     OW11720   0.940   7.284   6.490
 3254SOL    HW111721   1.020   7.227   6.511
 3254SOL    HW211722   0.891   7.244   6.413
 3255SOL     OW11723   0.382   6.286   6.066
 3255SOL    HW111724   0.427   6.196   6.063
 3255SOL    HW211725   0.288   6.275   6.099
 3256SOL     OW11726   1.547   5.808   7.315
 3256SOL    HW111727   1.542   5.845   7.407
 3256SOL    HW211728   1.475   5.739   7.303
 3257SOL     OW11729   0.614   5.708   5.703
 3257SOL    HW111730   0.712   5.686   5.710
 3257SOL    HW211731   0.583   5.691   5.610
 3258SOL     OW11732   0.781   5.850   7.335
 3258SOL    HW111733   0.848   5.789   7.378
 3258SOL    HW211734   0.708   5.869   7.400
 3259SOL     OW11735   0.888   7.100   6.781
 3259SOL    HW111736   0.865   7.075   6.687
 3259SOL    HW211737   0.949   7.031   6.820
 3260SOL     OW11738   1.351   6.176   7.019
 3260SOL    HW111739   1.379   6.133   7.104
 3260SOL    HW211740   1.376   6.272   7.020
 3261SOL     OW11741   0.803   6.988   6.510
 3261SOL    HW111742   0.893   7.002   6.468
 3261SOL    HW211743   0.732   6.990   6.439
 3262SOL     OW11744   0.922   6.089   6.485
 3262SOL    HW111745   0.897   6.080   6.389
 3262SOL    HW211746   0.970   6.007   6.516
 3263SOL     OW11747   0.539   5.650   6.098
 3263SOL    HW111748   0.458   5.651   6.156
 3263SOL    HW211749   0.542   5.733   6.043
 3264SOL     OW11750   1.434   6.774   5.627
 3264SOL    HW111751   1.466   6.698   5.684
 3264SOL    HW211752   1.342   6.801   5.657
 3265SOL     OW11753   0.297   5.621   5.757
 3265SOL    HW111754   0.346   5.705   5.736
 3265SOL    HW211755   0.359   5.556   5.802
 3266SOL     OW11756   0.935   5.822   6.066
 3266SOL    HW111757   0.887   5.863   5.988
 3266SOL    HW211758   1.034   5.820   6.047
 3267SOL     OW11759   1.076   6.269   7.050
 3267SOL    HW111760   0.996   6.208   7.053
 3267SOL    HW211761   1.157   6.216   7.026
 3268SOL     OW11762   1.227   7.156   6.379
 3268SOL    HW111763   1.248   7.230   6.314
 3268SOL    HW211764   1.295   7.156   6.452
 3269SOL     OW11765   0.459   6.738   6.327
 3269SOL    HW111766   0.388   6.711   6.392
 3269SOL    HW211767   0.433   6.710   6.234
 3270SOL     OW11768   1.271   7.383   6.177
 3270SOL    HW111769   1.315   7.447   6.113
 3270SOL    HW211770   1.221   7.435   6.247
 3271SOL     OW11771   1.032   6.135   5.602
 3271SOL    HW111772   0.991   6.217   5.563
 3271SOL    HW211773   1.096   6.161   5.675
 3272SOL     OW11774   0.561   5.808   6.733
 3272SOL    HW111775   0.599   5.724   6.770
 3272SOL    HW211776   0.473   5.827   6.777
 3273SOL     OW11777   0.866   6.040   6.228
 3273SOL    HW111778   0.834   6.112   6.166
 3273SOL    HW211779   0.890   5.959   6.175
 3274SOL     OW11780   1.017   5.625   6.339
 3274SOL    HW111781   0.945   5.630   6.270
 3274SOL    HW211782   0.993   5.556   6.408
 3275SOL     OW11783   1.429   6.759   6.453
 3275SOL    HW111784   1.374   6.675   6.446
 3275SOL    HW211785   1.455   6.788   6.361
 3276SOL     OW11786   1.466   6.176   6.578
 3276SOL    HW111787   1.436   6.081   6.585
 3276SOL    HW211788   1.539   6.192   6.644
 3277SOL     OW11789   1.857   6.419   5.963
 3277SOL    HW111790   1.899   6.355   6.027
 3277SOL    HW211791   1.819   6.368   5.885
 3278SOL     OW11792   0.488   6.971   5.760
 3278SOL    HW111793   0.401   6.956   5.807
 3278SOL    HW211794   0.471   6.997   5.665
 3279SOL     OW11795   1.664   6.866   6.243
 3279SOL    HW111796   1.763   6.874   6.257
 3279SOL    HW211797   1.619   6.950   6.274
 3280SOL     OW11798   1.390   6.161   5.664
 3280SOL    HW111799   1.336   6.140   5.745
 3280SOL    HW211800   1.481   6.120   5.673
 3281SOL     OW11801   0.527   5.842   5.914
 3281SOL    HW111802   0.554   5.783   5.839
 3281SOL    HW211803   0.527   5.937   5.883
 3282SOL     OW11804   1.754   6.809   7.174
 3282SOL    HW111805   1.845   6.770   7.161
 3282SOL    HW211806   1.762   6.905   7.198
 3283SOL     OW11807   1.064   6.933   6.926
 3283SOL    HW111808   0.984   6.910   6.981
 3283SOL    HW211809   1.147   6.907   6.975
 3284SOL     OW11810   1.592   7.215   7.211
 3284SOL    HW111811   1.619   7.249   7.121
 3284SOL    HW211812   1.671   7.177   7.257
 3285SOL     OW11813   1.111   6.781   6.686
 3285SOL    HW111814   1.071   6.825   6.767
 3285SOL    HW211815   1.070   6.818   6.603
 3286SOL     OW11816   1.638   6.685   6.665
 3286SOL    HW111817   1.643   6.766   6.724
 3286SOL    HW211818   1.552   6.687   6.614
 3287SOL     OW11819   0.915   5.675   6.988
 3287SOL    HW111820   0.940   5.655   6.893
 3287SOL    HW211821   0.987   5.731   7.030
 3288SOL     OW11822   0.980   6.702   7.305
 3288SOL    HW111823   0.881   6.708   7.315
 3288SOL    HW211824   1.003   6.622   7.249
 3289SOL     OW11825   0.705   6.636   5.954
 3289SOL    HW111826   0.691   6.643   6.053
 3289SOL    HW211827   0.789   6.585   5.936
 3290SOL     OW11828   0.410   6.399   6.837
 3290SOL    HW111829   0.496   6.411   6.887
 3290SOL    HW211830   0.368   6.312   6.864
 3291SOL     OW11831   1.274   5.972   6.848
 3291SOL    HW111832   1.295   6.046   6.912
 3291SOL    HW211833   1.185   5.989   6.805
 3292SOL     OW11834   0.367   6.686   6.087
 3292SOL    HW111835   0.360   6.769   6.031
 3292SOL    HW211836   0.371   6.606   6.027
 3293SOL     OW11837   0.566   6.123   6.451
 3293SOL    HW111838   0.578   6.189   6.377
 3293SOL    HW211839   0.612   6.157   6.534
 3294SOL     OW11840   1.252   6.934   5.974
 3294SOL    HW111841   1.302   7.011   6.014
 3294SOL    HW211842   1.157   6.936   6.006
 3295SOL     OW11843   1.272   7.031   6.728
 3295SOL    HW111844   1.319   7.044   6.815
 3295SOL    HW211845   1.206   6.957   6.737
 3296SOL     OW11846   1.582   6.225   6.058
 3296SOL    HW111847   1.551   6.286   6.131
 3296SOL    HW211848   1.632   6.277   5.989
 3297SOL     OW11849   0.354   7.096   6.915
 3297SOL    HW111850   0.333   7.052   6.828
 3297SOL    HW211851   0.451   7.122   6.918
 3298SOL     OW11852   0.402   6.337   7.184
 3298SOL    HW111853   0.470   6.392   7.137
 3298SOL    HW211854   0.442   6.249   7.211
 3299SOL     OW11855   1.587   6.365   7.256
 3299SOL    HW111856   1.495   6.403   7.251
 3299SOL    HW211857   1.647   6.412   7.191
 3300SOL     OW11858   1.013   5.691   7.356
 3300SOL    HW111859   1.019   5.776   7.304
 3300SOL    HW211860   1.045   5.615   7.299
 3301SOL     OW11861   0.504   5.636   7.326
 3301SOL    HW111862   0.462   5.579   7.256
 3301SOL    HW211863   0.438   5.705   7.358
 3302SOL     OW11864   0.573   6.456   6.615
 3302SOL    HW111865   0.617   6.545   6.606
 3302SOL    HW211866   0.510   6.456   6.692
 3303SOL     OW11867   1.360   6.448   6.631
 3303SOL    HW111868   1.285   6.448   6.565
 3303SOL    HW211869   1.397   6.356   6.640
 3304SOL     OW11870   1.209   6.111   5.861
 3304SOL    HW111871   1.222   6.027   5.915
 3304SOL    HW211872   1.180   6.185   5.921
 3305SOL     OW11873   0.732   6.220   6.650
 3305SOL    HW111874   0.791   6.194   6.574
 3305SOL    HW211875   0.704   6.316   6.639
 3306SOL     OW11876   1.728   6.521   7.440
 3306SOL    HW111877   1.682   6.514   7.351
 3306SOL    HW211878   1.666   6.565   7.506
 3307SOL     OW11879   0.307   5.649   6.204
 3307SOL    HW111880   0.296   5.743   6.237
 3307SOL    HW211881   0.302   5.586   6.281
 3308SOL     OW11882   1.622   5.953   5.960
 3308SOL    HW111883   1.624   5.877   6.024
 3308SOL    HW211884   1.574   6.030   6.000
 3309SOL     OW11885   1.023   6.352   6.552
 3309SOL    HW111886   1.038   6.373   6.648
 3309SOL    HW211887   0.993   6.257   6.543
 3310SOL     OW11888   0.980   7.159   7.286
 3310SOL    HW111889   0.960   7.203   7.198
 3310SOL    HW211890   1.019   7.068   7.270
 3311SOL     OW11891   1.859   7.104   7.191
 3311SOL    HW111892   1.873   7.131   7.096
 3311SOL    HW211893   1.942   7.126   7.244
 3312SOL     OW11894   0.350   6.484   7.390
 3312SOL    HW111895   0.426   6.528   7.438
 3312SOL    HW211896   0.385   6.437   7.308
 3313SOL     OW11897   1.540   5.860   5.711
 3313SOL    HW111898   1.479   5.785   5.734
 3313SOL    HW211899   1.562   5.912   5.794
 3314SOL     OW11900   1.303   6.424   5.628
 3314SOL    HW111901   1.337   6.331   5.643
 3314SOL    HW211902   1.321   6.451   5.533
 3315SOL     OW11903   1.068   6.919   6.435
 3315SOL    HW111904   1.075   6.835   6.380
 3315SOL    HW211905   1.130   6.988   6.399
 3316SOL     OW11906   0.319   6.396   6.535
 3316SOL    HW111907   0.412   6.432   6.540
 3316SOL    HW211908   0.313   6.311   6.587
 3317SOL     OW11909   1.138   5.966   7.264
 3317SOL    HW111910   1.093   6.029   7.328
 3317SOL    HW211911   1.231   5.997   7.247
 3318SOL     OW11912   1.160   5.793   7.063
 3318SOL    HW111913   1.160   5.857   7.140
 3318SOL    HW211914   1.188   5.841   6.980
 3319SOL     OW11915   0.504   7.154   6.496
 3319SOL    HW111916   0.570   7.228   6.505
 3319SOL    HW211917   0.548   7.075   6.454
 3320SOL     OW11918   1.002   6.382   6.824
 3320SOL    HW111919   1.043   6.350   6.910
 3320SOL    HW211920   0.906   6.355   6.821
 3321SOL     OW11921   1.369   6.536   7.246
 3321SOL    HW111922   1.408   6.625   7.266
 3321SOL    HW211923   1.379   6.516   7.149
 3322SOL     OW11924   0.815   6.158   5.911
 3322SOL    HW111925   0.822   6.069   5.865
 3322SOL    HW211926   0.721   6.192   5.903
 3323SOL     OW11927   1.657   6.190   6.792
 3323SOL    HW111928   1.619   6.121   6.854
 3323SOL    HW211929   1.739   6.154   6.748
 3324SOL     OW11930   0.671   6.050   6.855
 3324SOL    HW111931   0.637   5.961   6.825
 3324SOL    HW211932   0.697   6.104   6.775
 3325SOL     OW11933   0.930   7.264   7.051
 3325SOL    HW111934   0.906   7.246   6.956
 3325SOL    HW211935   0.960   7.358   7.061
 3326SOL     OW11936   0.473   6.086   5.777
 3326SOL    HW111937   0.534   6.166   5.781
 3326SOL    HW211938   0.378   6.117   5.784
 3327SOL     OW11939   1.347   6.645   6.820
 3327SOL    HW111940   1.371   6.582   6.746
 3327SOL    HW211941   1.257   6.685   6.802
 3328SOL     OW11942   1.302   6.441   5.895
 3328SOL    HW111943   1.216   6.410   5.937
 3328SOL    HW211944   1.298   6.427   5.796
 3329SOL     OW11945   1.759   7.333   6.740
 3329SOL    HW111946   1.820   7.363   6.667
 3329SOL    HW211947   1.721   7.244   6.718
 3330SOL     OW11948   1.252   7.317   6.714
 3330SOL    HW111949   1.336   7.322   6.660
 3330SOL    HW211950   1.229   7.221   6.732
 3331SOL     OW11951   0.688   7.248   7.302
 3331SOL    HW111952   0.632   7.329   7.311
 3331SOL    HW211953   0.740   7.252   7.216
 3332SOL     OW11954   0.903   5.672   5.719
 3332SOL    HW111955   0.954   5.673   5.633
 3332SOL    HW211956   0.959   5.630   5.790
 3333SOL     OW11957   1.726   5.721   6.109
 3333SOL    HW111958   1.799   5.704   6.042
 3333SOL    HW211959   1.695   5.634   6.147
 3334SOL     OW11960   1.388   7.159   6.063
 3334SOL    HW111961   1.455   7.171   5.989
 3334SOL    HW211962   1.348   7.248   6.086
 3335SOL     OW11963   0.130   7.380   7.437
 3335SOL    HW111964   0.089   7.306   7.490
 3335SOL    HW211965   0.194   7.431   7.495
 3336SOL     OW11966   1.280   6.513   6.258
 3336SOL    HW111967   1.340   6.432   6.260
 3336SOL    HW211968   1.320   6.582   6.198
 3337SOL     OW11969   0.830   6.859   7.008
 3337SOL    HW111970   0.825   6.892   7.103
 3337SOL    HW211971   0.744   6.878   6.962
 3338SOL     OW11972   0.672   7.202   5.740
 3338SOL    HW111973   0.681   7.212   5.641
 3338SOL    HW211974   0.632   7.113   5.761
 3339SOL     OW11975   1.650   7.306   6.980
 3339SOL    HW111976   1.703   7.316   6.896
 3339SOL    HW211977   1.623   7.396   7.014
 3340SOL     OW11978   1.841   5.761   6.549
 3340SOL    HW111979   1.880   5.676   6.513
 3340SOL    HW211980   1.743   5.763   6.530
 3341SOL     OW11981   0.263   5.912   6.306
 3341SOL    HW111982   0.184   5.963   6.272
 3341SOL    HW211983   0.254   5.897   6.404
 3342SOL     OW11984   1.194   7.198   5.617
 3342SOL    HW111985   1.200   7.105   5.654
 3342SOL    HW211986   1.135   7.198   5.537
 3343SOL     OW11987   0.822   6.588   6.958
 3343SOL    HW111988   0.862   6.587   6.866
 3343SOL    HW211989   0.832   6.680   6.998
 3344SOL     OW11990   0.916   6.496   5.877
 3344SOL    HW111991   0.979   6.534   5.809
 3344SOL    HW211992   0.956   6.413   5.916
 3345SOL     OW11993   1.504   7.193   5.630
 3345SOL    HW111994   1.412   7.230   5.637
 3345SOL    HW211995   1.542   7.213   5.540
 3346SOL     OW11996   0.372   6.874   7.076
 3346SOL    HW111997   0.359   6.967   7.042
 3346SOL    HW211998   0.288   6.822   7.063
 3347SOL     OW11999   1.614   6.878   6.875
 3347SOL    HW112000   1.674   6.881   6.955
 3347SOL    HW212001   1.539   6.942   6.888
 3348SOL     OW12002   1.039   6.684   6.282
 3348SOL    HW112003   0.969   6.637   6.336
 3348SOL    HW212004   1.098   6.616   6.239
 3349SOL     OW12005   1.014   5.822   6.557
 3349SOL    HW112006   1.006   5.786   6.464
 3349SOL    HW212007   1.012   5.746   6.622
 3350SOL     OW12008   0.590   7.073   6.077
 3350SOL    HW112009   0.632   7.015   6.007
 3350SOL    HW212010   0.546   7.152   6.033
 3351SOL     OW12011   1.709   5.971   6.967
 3351SOL    HW112012   1.782   6.040   6.971
 3351SOL    HW212013   1.737   5.896   6.908
 3352SOL     OW12014   0.255   6.934   5.876
 3352SOL    HW112015   0.159   6.935   5.849
 3352SOL    HW212016   0.267   6.987   5.960
 3353SOL     OW12017   0.672   5.789   7.075
 3353SOL    HW112018   0.762   5.773   7.035
 3353SOL    HW212019   0.680   5.794   7.174
 3354SOL     OW12020   1.440   6.442   6.984
 3354SOL    HW112021   1.383   6.494   6.921
 3354SOL    HW212022   1.536   6.454   6.960
 3355SOL     OW12023   1.183   6.921   5.705
 3355SOL    HW112024   1.084   6.910   5.707
 3355SOL    HW212025   1.217   6.936   5.798
 3356SOL     OW12026   0.613   6.428   7.017
 3356SOL    HW112027   0.669   6.509   7.000
 3356SOL    HW212028   0.672   6.348   7.020
 3357SOL     OW12029   1.493   7.353   6.545
 3357SOL    HW112030   1.526   7.417   6.476
 3357SOL    HW212031   1.559   7.347   6.620
 3358SOL     OW12032   0.716   6.151   7.294
 3358SOL    HW112033   0.735   6.216   7.368
 3358SOL    HW212034   0.776   6.071   7.303
 3359SOL     OW12035   1.450   6.806   7.219
 3359SOL    HW112036   1.441   6.796   7.318
 3359SOL    HW212037   1.546   6.799   7.193
 3360SOL     OW12038   0.390   7.327   7.146
 3360SOL    HW112039   0.299   7.368   7.144
 3360SOL    HW212040   0.383   7.233   7.178
 3361SOL     OW12041   1.674   6.469   6.840
 3361SOL    HW112042   1.647   6.380   6.803
 3361SOL    HW212043   1.675   6.537   6.767
 3362SOL     OW12044   1.225   5.911   6.035
 3362SOL    HW112045   1.290   5.837   6.024
 3362SOL    HW212046   1.245   5.961   6.119
 3363SOL     OW12047   0.594   6.331   6.238
 3363SOL    HW112048   0.644   6.416   6.219
 3363SOL    HW212049   0.506   6.333   6.190
 3364SOL     OW12050   1.777   5.928   7.228
 3364SOL    HW112051   1.760   5.959   7.134
 3364SOL    HW212052   1.693   5.891   7.266
 3365SOL     OW12053   1.730   6.520   7.103
 3365SOL    HW112054   1.768   6.611   7.118
 3365SOL    HW212055   1.722   6.503   7.004
 3366SOL     OW12056   0.859   6.960   5.602
 3366SOL    HW112057   0.813   6.975   5.690
 3366SOL    HW212058   0.903   7.045   5.572
 3367SOL     OW12059   0.661   7.376   6.539
 3367SOL    HW112060   0.615   7.464   6.526
 3367SOL    HW212061   0.760   7.388   6.532
 3368SOL     OW12062   1.408   7.437   7.306
 3368SOL    HW112063   1.312   7.426   7.279
 3368SOL    HW212064   1.464   7.370   7.258
 3369SOL     OW12065   0.859   6.542   6.447
 3369SOL    HW112066   0.913   6.473   6.495
 3369SOL    HW212067   0.827   6.611   6.513
 3370SOL     OW12068   1.083   6.570   5.673
 3370SOL    HW112069   1.060   6.623   5.591
 3370SOL    HW212070   1.164   6.514   5.654
 3371SOL     OW12071   1.861   7.155   6.437
 3371SOL    HW112072   1.790   7.143   6.367
 3371SOL    HW212073   1.862   7.076   6.497
 3372SOL     OW12074   0.672   6.977   7.210
 3372SOL    HW112075   0.594   6.927   7.248
 3372SOL    HW212076   0.669   7.072   7.241
 3373SOL     OW12077   1.824   5.778   6.813
 3373SOL    HW112078   1.820   5.688   6.857
 3373SOL    HW212079   1.827   5.767   6.714
 3374SOL     OW12080   0.428   6.010   6.106
 3374SOL    HW112081   0.458   5.938   6.044
 3374SOL    HW212082   0.389   5.970   6.189
 3375SOL     OW12083   1.705   7.073   6.690
 3375SOL    HW112084   1.612   7.048   6.663
 3375SOL    HW212085   1.731   7.023   6.772
 3376SOL     OW12086   0.812   7.172   6.273
 3376SOL    HW112087   0.844   7.182   6.179
 3376SOL    HW212088   0.733   7.110   6.275
 3377SOL     OW12089   1.424   5.800   6.698
 3377SOL    HW112090   1.476   5.735   6.753
 3377SOL    HW212091   1.375   5.863   6.759
 3378SOL     OW12092   1.001   5.620   6.740
 3378SOL    HW112093   0.938   5.548   6.709
 3378SOL    HW212094   1.094   5.584   6.740
 3379SOL     OW12095   0.770   6.916   5.887
 3379SOL    HW112096   0.724   6.829   5.904
 3379SOL    HW212097   0.861   6.913   5.928
 3380SOL     OW12098   0.618   7.153   6.870
 3380SOL    HW112099   0.613   7.235   6.927
 3380SOL    HW212100   0.707   7.150   6.825
 3381SOL     OW12101   1.352   5.638   5.754
 3381SOL    HW112102   1.387   5.597   5.670
 3381SOL    HW212103   1.262   5.600   5.774
 3382SOL     OW12104   1.300   6.039   6.277
 3382SOL    HW112105   1.241   6.119   6.281
 3382SOL    HW212106   1.315   6.004   6.370
 3383SOL     OW12107   1.593   5.807   6.468
 3383SOL    HW112108   1.509   5.806   6.522
 3383SOL    HW212109   1.595   5.890   6.412
 3384SOL     OW12110   0.875   7.232   5.923
 3384SOL    HW112111   0.798   7.197   5.869
 3384SOL    HW212112   0.843   7.303   5.985
 3385SOL     OW12113   0.019   5.954   8.095
 3385SOL    HW112114  -0.063   5.997   8.134
 3385SOL    HW212115  -0.009   5.881   8.032
 3386SOL     OW12116   0.569   6.861   8.613
 3386SOL    HW112117   0.476   6.854   8.576
 3386SOL    HW212118   0.580   6.950   8.657
 3387SOL     OW12119   1.555   7.097   8.151
 3387SOL    HW112120   1.498   7.081   8.232
 3387SOL    HW212121   1.496   7.107   8.071
 3388SOL     OW12122   1.743   6.204   8.304
 3388SOL    HW112123   1.776   6.298   8.304
 3388SOL    HW212124   1.794   6.150   8.370
 3389SOL     OW12125   1.135   6.289   8.165
 3389SOL    HW112126   1.192   6.367   8.140
 3389SOL    HW212127   1.075   6.315   8.241
 3390SOL     OW12128   1.755   6.193   7.679
 3390SOL    HW112129   1.743   6.180   7.580
 3390SOL    HW212130   1.725   6.112   7.728
 3391SOL     OW12131   0.768   6.730   8.471
 3391SOL    HW112132   0.690   6.747   8.531
 3391SOL    HW212133   0.802   6.817   8.435
 3392SOL     OW12134   0.685   6.598   8.113
 3392SOL    HW112135   0.754   6.582   8.183
 3392SOL    HW212136   0.612   6.655   8.151
 3393SOL     OW12137   0.335   7.021   8.509
 3393SOL    HW112138   0.257   6.990   8.456
 3393SOL    HW212139   0.393   7.079   8.452
 3394SOL     OW12140   1.460   7.091   8.787
 3394SOL    HW112141   1.484   7.185   8.813
 3394SOL    HW212142   1.444   7.037   8.869
 3395SOL     OW12143   0.438   5.978   8.947
 3395SOL    HW112144   0.520   5.922   8.956
 3395SOL    HW212145   0.357   5.920   8.951
 3396SOL     OW12146   1.603   6.033   8.185
 3396SOL    HW112147   1.529   6.079   8.135
 3396SOL    HW212148   1.654   6.101   8.238
 3397SOL     OW12149   0.620   7.372   8.887
 3397SOL    HW112150   0.528   7.355   8.922
 3397SOL    HW212151   0.648   7.464   8.913
 3398SOL     OW12152   0.606   6.550   7.571
 3398SOL    HW112153   0.613   6.634   7.517
 3398SOL    HW212154   0.652   6.563   7.659
 3399SOL     OW12155   1.594   5.700   8.928
 3399SOL    HW112156   1.576   5.767   8.856
 3399SOL    HW212157   1.591   5.746   9.017
 3400SOL     OW12158   1.842   7.353   7.807
 3400SOL    HW112159   1.896   7.324   7.887
 3400SOL    HW212160   1.872   7.443   7.778
 3401SOL     OW12161   1.689   6.508   8.060
 3401SOL    HW112162   1.784   6.479   8.068
 3401SOL    HW212163   1.681   6.573   7.985
 3402SOL     OW12164   1.641   6.694   7.880
 3402SOL    HW112165   1.727   6.696   7.828
 3402SOL    HW212166   1.655   6.741   7.968
 3403SOL     OW12167   0.613   6.951   8.174
 3403SOL    HW112168   0.564   6.864   8.183
 3403SOL    HW212169   0.590   6.994   8.087
 3404SOL     OW12170   0.809   5.590   7.950
 3404SOL    HW112171   0.849   5.681   7.941
 3404SOL    HW212172   0.709   5.598   7.956
 3405SOL     OW12173   1.525   6.585   7.638
 3405SOL    HW112174   1.462   6.509   7.651
 3405SOL    HW212175   1.573   6.603   7.724
 3406SOL     OW12176   1.466   7.003   8.401
 3406SOL    HW112177   1.407   7.009   8.481
 3406SOL    HW212178   1.451   6.915   8.355
 3407SOL     OW12179   1.667   7.300   8.020
 3407SOL    HW112180   1.626   7.277   7.932
 3407SOL    HW212181   1.649   7.226   8.085
 3408SOL     OW12182   0.598   6.315   7.718
 3408SOL    HW112183   0.622   6.384   7.650
 3408SOL    HW212184   0.520   6.348   7.772
 3409SOL     OW12185   1.281   5.931   8.392
 3409SOL    HW112186   1.195   5.881   8.379
 3409SOL    HW212187   1.343   5.877   8.448
 3410SOL     OW12188   1.576   7.248   7.755
 3410SOL    HW112189   1.665   7.294   7.758
 3410SOL    HW212190   1.555   7.224   7.660
 3411SOL     OW12191   0.807   6.191   8.913
 3411SOL    HW112192   0.760   6.188   9.002
 3411SOL    HW212193   0.756   6.136   8.847
 3412SOL     OW12194   0.991   5.996   8.690
 3412SOL    HW112195   0.914   6.030   8.744
 3412SOL    HW212196   0.957   5.945   8.611
 3413SOL     OW12197   1.041   6.287   7.877
 3413SOL    HW112198   1.067   6.283   7.973
 3413SOL    HW212199   0.956   6.236   7.863
 3414SOL     OW12200   0.865   5.934   7.643
 3414SOL    HW112201   0.924   5.997   7.594
 3414SOL    HW212202   0.884   5.840   7.614
 3415SOL     OW12203   1.362   6.730   7.993
 3415SOL    HW112204   1.445   6.701   7.945
 3415SOL    HW212205   1.313   6.797   7.937
 3416SOL     OW12206   0.550   5.782   8.333
 3416SOL    HW112207   0.545   5.777   8.433
 3416SOL    HW212208   0.552   5.878   8.304
 3417SOL     OW12209   1.008   7.042   7.925
 3417SOL    HW112210   0.962   7.114   7.873
 3417SOL    HW212211   1.004   7.062   8.023
 3418SOL     OW12212   0.351   7.387   8.301
 3418SOL    HW112213   0.401   7.301   8.307
 3418SOL    HW212214   0.416   7.464   8.298
 3419SOL     OW12215   1.795   6.652   8.321
 3419SOL    HW112216   1.733   6.637   8.245
 3419SOL    HW212217   1.743   6.663   8.406
 3420SOL     OW12218   0.321   6.529   7.690
 3420SOL    HW112219   0.403   6.568   7.648
 3420SOL    HW212220   0.294   6.447   7.641
 3421SOL     OW12221   1.458   6.321   8.176
 3421SOL    HW112222   1.453   6.256   8.251
 3421SOL    HW212223   1.538   6.380   8.189
 3422SOL     OW12224   1.111   7.362   7.685
 3422SOL    HW112225   1.051   7.300   7.735
 3422SOL    HW212226   1.142   7.318   7.600
 3423SOL     OW12227   1.632   6.963   7.529
 3423SOL    HW112228   1.600   7.057   7.519
 3423SOL    HW212229   1.556   6.900   7.517
 3424SOL     OW12230   0.464   7.329   7.771
 3424SOL    HW112231   0.497   7.368   7.857
 3424SOL    HW212232   0.540   7.322   7.706
 3425SOL     OW12233   1.400   5.693   7.874
 3425SOL    HW112234   1.376   5.656   7.784
 3425SOL    HW212235   1.499   5.709   7.878
 3426SOL     OW12236   0.940   7.284   8.352
 3426SOL    HW112237   1.020   7.227   8.373
 3426SOL    HW212238   0.891   7.244   8.275
 3427SOL     OW12239   0.382   6.286   7.928
 3427SOL    HW112240   0.427   6.196   7.925
 3427SOL    HW212241   0.288   6.275   7.961
 3428SOL     OW12242   0.614   5.708   7.565
 3428SOL    HW112243   0.712   5.686   7.572
 3428SOL    HW212244   0.583   5.691   7.472
 3429SOL     OW12245   0.888   7.100   8.643
 3429SOL    HW112246   0.865   7.075   8.549
 3429SOL    HW212247   0.949   7.031   8.682
 3430SOL     OW12248   0.803   6.988   8.372
 3430SOL    HW112249   0.893   7.002   8.330
 3430SOL    HW212250   0.732   6.990   8.301
 3431SOL     OW12251   0.922   6.089   8.347
 3431SOL    HW112252   0.897   6.080   8.251
 3431SOL    HW212253   0.970   6.007   8.378
 3432SOL     OW12254   0.539   5.650   7.960
 3432SOL    HW112255   0.458   5.651   8.018
 3432SOL    HW212256   0.542   5.733   7.905
 3433SOL     OW12257   1.434   6.774   7.489
 3433SOL    HW112258   1.466   6.698   7.546
 3433SOL    HW212259   1.342   6.801   7.519
 3434SOL     OW12260   0.297   5.621   7.619
 3434SOL    HW112261   0.346   5.705   7.598
 3434SOL    HW212262   0.359   5.556   7.664
 3435SOL     OW12263   0.935   5.822   7.928
 3435SOL    HW112264   0.887   5.863   7.850
 3435SOL    HW212265   1.034   5.820   7.909
 3436SOL     OW12266   1.227   7.156   8.241
 3436SOL    HW112267   1.248   7.230   8.176
 3436SOL    HW212268   1.295   7.156   8.314
 3437SOL     OW12269   0.459   6.738   8.189
 3437SOL    HW112270   0.388   6.711   8.254
 3437SOL    HW212271   0.433   6.710   8.096
 3438SOL     OW12272   1.271   7.383   8.039
 3438SOL    HW112273   1.315   7.447   7.975
 3438SOL    HW212274   1.221   7.435   8.109
 3439SOL     OW12275   1.032   6.135   7.464
 3439SOL    HW112276   0.991   6.217   7.425
 3439SOL    HW212277   1.096   6.161   7.537
 3440SOL     OW12278   0.561   5.808   8.595
 3440SOL    HW112279   0.599   5.724   8.632
 3440SOL    HW212280   0.473   5.827   8.639
 3441SOL     OW12281   0.866   6.040   8.090
 3441SOL    HW112282   0.834   6.112   8.028
 3441SOL    HW212283   0.890   5.959   8.037
 3442SOL     OW12284   1.017   5.625   8.201
 3442SOL    HW112285   0.945   5.630   8.132
 3442SOL    HW212286   0.993   5.556   8.270
 3443SOL     OW12287   1.429   6.759   8.315
 3443SOL    HW112288   1.374   6.675   8.308
 3443SOL    HW212289   1.455   6.788   8.223
 3444SOL     OW12290   1.466   6.176   8.440
 3444SOL    HW112291   1.436   6.081   8.447
 3444SOL    HW212292   1.539   6.192   8.506
 3445SOL     OW12293   1.857   6.419   7.825
 3445SOL    HW112294   1.899   6.355   7.889
 3445SOL    HW212295   1.819   6.368   7.747
 3446SOL     OW12296   0.488   6.971   7.622
 3446SOL    HW112297   0.401   6.956   7.669
 3446SOL    HW212298   0.471   6.997   7.527
 3447SOL     OW12299   1.664   6.866   8.105
 3447SOL    HW112300   1.763   6.874   8.119
 3447SOL    HW212301   1.619   6.950   8.136
 3448SOL     OW12302   1.390   6.161   7.526
 3448SOL    HW112303   1.336   6.140   7.607
 3448SOL    HW212304   1.481   6.120   7.535
 3449SOL     OW12305   0.527   5.842   7.776
 3449SOL    HW112306   0.554   5.783   7.701
 3449SOL    HW212307   0.527   5.937   7.745
 3450SOL     OW12308   1.064   6.933   8.788
 3450SOL    HW112309   0.984   6.910   8.843
 3450SOL    HW212310   1.147   6.907   8.837
 3451SOL     OW12311   1.111   6.781   8.548
 3451SOL    HW112312   1.071   6.825   8.629
 3451SOL    HW212313   1.070   6.818   8.465
 3452SOL     OW12314   1.638   6.685   8.527
 3452SOL    HW112315   1.643   6.766   8.586
 3452SOL    HW212316   1.552   6.687   8.476
 3453SOL     OW12317   0.915   5.675   8.850
 3453SOL    HW112318   0.940   5.655   8.755
 3453SOL    HW212319   0.987   5.731   8.892
 3454SOL     OW12320   0.705   6.636   7.816
 3454SOL    HW112321   0.691   6.643   7.915
 3454SOL    HW212322   0.789   6.585   7.798
 3455SOL     OW12323   0.410   6.399   8.699
 3455SOL    HW112324   0.496   6.411   8.749
 3455SOL    HW212325   0.368   6.312   8.726
 3456SOL     OW12326   1.274   5.972   8.710
 3456SOL    HW112327   1.295   6.046   8.774
 3456SOL    HW212328   1.185   5.989   8.667
 3457SOL     OW12329   0.367   6.686   7.949
 3457SOL    HW112330   0.360   6.769   7.893
 3457SOL    HW212331   0.371   6.606   7.889
 3458SOL     OW12332   0.566   6.123   8.313
 3458SOL    HW112333   0.578   6.189   8.239
 3458SOL    HW212334   0.612   6.157   8.396
 3459SOL     OW12335   1.252   6.934   7.836
 3459SOL    HW112336   1.302   7.011   7.876
 3459SOL    HW212337   1.157   6.936   7.868
 3460SOL     OW12338   1.272   7.031   8.590
 3460SOL    HW112339   1.319   7.044   8.677
 3460SOL    HW212340   1.206   6.957   8.599
 3461SOL     OW12341   1.582   6.225   7.920
 3461SOL    HW112342   1.551   6.286   7.993
 3461SOL    HW212343   1.632   6.277   7.851
 3462SOL     OW12344   0.354   7.096   8.777
 3462SOL    HW112345   0.333   7.052   8.690
 3462SOL    HW212346   0.451   7.122   8.780
 3463SOL     OW12347   0.402   6.337   0.046
 3463SOL    HW112348   0.470   6.392  -0.001
 3463SOL    HW212349   0.442   6.249   0.073
 3464SOL     OW12350   1.587   6.365   0.118
 3464SOL    HW112351   1.495   6.403   0.113
 3464SOL    HW212352   1.647   6.412   0.053
 3465SOL     OW12353   0.573   6.456   8.477
 3465SOL    HW112354   0.617   6.545   8.468
 3465SOL    HW212355   0.510   6.456   8.554
 3466SOL     OW12356   1.360   6.448   8.493
 3466SOL    HW112357   1.285   6.448   8.427
 3466SOL    HW212358   1.397   6.356   8.502
 3467SOL     OW12359   1.209   6.111   7.723
 3467SOL    HW112360   1.222   6.027   7.777
 3467SOL    HW212361   1.180   6.185   7.783
 3468SOL     OW12362   0.732   6.220   8.512
 3468SOL    HW112363   0.791   6.194   8.436
 3468SOL    HW212364   0.704   6.316   8.501
 3469SOL     OW12365   0.307   5.649   8.066
 3469SOL    HW112366   0.296   5.743   8.099
 3469SOL    HW212367   0.302   5.586   8.143
 3470SOL     OW12368   1.622   5.953   7.822
 3470SOL    HW112369   1.624   5.877   7.886
 3470SOL    HW212370   1.574   6.030   7.862
 3471SOL     OW12371   1.023   6.352   8.414
 3471SOL    HW112372   1.038   6.373   8.510
 3471SOL    HW212373   0.993   6.257   8.405
 3472SOL     OW12374   0.980   7.159   0.148
 3472SOL    HW112375   0.960   7.203   0.060
 3472SOL    HW212376   1.019   7.068   0.132
 3473SOL     OW12377   1.859   7.104   0.053
 3473SOL    HW112378   1.873   7.131  -0.042
 3473SOL    HW212379   1.942   7.126   0.106
 3474SOL     OW12380   1.540   5.860   7.573
 3474SOL    HW112381   1.479   5.785   7.596
 3474SOL    HW212382   1.562   5.912   7.656
 3475SOL     OW12383   1.303   6.424   7.490
 3475SOL    HW112384   1.337   6.331   7.505
 3475SOL    HW212385   1.321   6.451   7.395
 3476SOL     OW12386   1.068   6.919   8.297
 3476SOL    HW112387   1.075   6.835   8.242
 3476SOL    HW212388   1.130   6.988   8.261
 3477SOL     OW12389   0.319   6.396   8.397
 3477SOL    HW112390   0.412   6.432   8.402
 3477SOL    HW212391   0.313   6.311   8.449
 3478SOL     OW12392   1.138   5.966   0.126
 3478SOL    HW112393   1.093   6.029   0.190
 3478SOL    HW212394   1.231   5.997   0.109
 3479SOL     OW12395   1.160   5.793   8.925
 3479SOL    HW112396   1.160   5.857   9.002
 3479SOL    HW212397   1.188   5.841   8.842
 3480SOL     OW12398   0.504   7.154   8.358
 3480SOL    HW112399   0.570   7.228   8.367
 3480SOL    HW212400   0.548   7.075   8.316
 3481SOL     OW12401   1.002   6.382   8.686
 3481SOL    HW112402   1.043   6.350   8.772
 3481SOL    HW212403   0.906   6.355   8.683
 3482SOL     OW12404   0.815   6.158   7.773
 3482SOL    HW112405   0.822   6.069   7.727
 3482SOL    HW212406   0.721   6.192   7.765
 3483SOL     OW12407   1.657   6.190   8.654
 3483SOL    HW112408   1.619   6.121   8.716
 3483SOL    HW212409   1.739   6.154   8.610
 3484SOL     OW12410   0.671   6.050   8.717
 3484SOL    HW112411   0.637   5.961   8.687
 3484SOL    HW212412   0.697   6.104   8.637
 3485SOL     OW12413   0.930   7.264   8.913
 3485SOL    HW112414   0.906   7.246   8.818
 3485SOL    HW212415   0.960   7.358   8.923
 3486SOL     OW12416   0.473   6.086   7.639
 3486SOL    HW112417   0.534   6.166   7.643
 3486SOL    HW212418   0.378   6.117   7.646
 3487SOL     OW12419   1.347   6.645   8.682
 3487SOL    HW112420   1.371   6.582   8.608
 3487SOL    HW212421   1.257   6.685   8.664
 3488SOL     OW12422   1.302   6.441   7.757
 3488SOL    HW112423   1.216   6.410   7.799
 3488SOL    HW212424   1.298   6.427   7.658
 3489SOL     OW12425   1.759   7.333   8.602
 3489SOL    HW112426   1.820   7.363   8.529
 3489SOL    HW212427   1.721   7.244   8.580
 3490SOL     OW12428   1.252   7.317   8.576
 3490SOL    HW112429   1.336   7.322   8.522
 3490SOL    HW212430   1.229   7.221   8.594
 3491SOL     OW12431   0.903   5.672   7.581
 3491SOL    HW112432   0.954   5.673   7.495
 3491SOL    HW212433   0.959   5.630   7.652
 3492SOL     OW12434   1.726   5.721   7.971
 3492SOL    HW112435   1.799   5.704   7.904
 3492SOL    HW212436   1.695   5.634   8.009
 3493SOL     OW12437   1.388   7.159   7.925
 3493SOL    HW112438   1.455   7.171   7.851
 3493SOL    HW212439   1.348   7.248   7.948
 3494SOL     OW12440   1.280   6.513   8.120
 3494SOL    HW112441   1.340   6.432   8.122
 3494SOL    HW212442   1.320   6.582   8.060
 3495SOL     OW12443   0.672   7.202   7.602
 3495SOL    HW112444   0.681   7.212   7.503
 3495SOL    HW212445   0.632   7.113   7.623
 3496SOL     OW12446   1.650   7.306   8.842
 3496SOL    HW112447   1.703   7.316   8.758
 3496SOL    HW212448   1.623   7.396   8.876
 3497SOL     OW12449   1.841   5.761   8.411
 3497SOL    HW112450   1.880   5.676   8.375
 3497SOL    HW212451   1.743   5.763   8.392
 3498SOL     OW12452   0.263   5.912   8.168
 3498SOL    HW112453   0.184   5.963   8.134
 3498SOL    HW212454   0.254   5.897   8.266
 3499SOL     OW12455   1.194   7.198   7.479
 3499SOL    HW112456   1.200   7.105   7.516
 3499SOL    HW212457   1.135   7.198   7.399
 3500SOL     OW12458   0.822   6.588   8.820
 3500SOL    HW112459   0.862   6.587   8.728
 3500SOL    HW212460   0.832   6.680   8.860
 3501SOL     OW12461   0.916   6.496   7.739
 3501SOL    HW112462   0.979   6.534   7.671
 3501SOL    HW212463   0.956   6.413   7.778
 3502SOL     OW12464   1.504   7.193   7.492
 3502SOL    HW112465   1.412   7.230   7.499
 3502SOL    HW212466   1.542   7.213   7.402
 3503SOL     OW12467   0.372   6.874   8.938
 3503SOL    HW112468   0.359   6.967   8.904
 3503SOL    HW212469   0.288   6.822   8.925
 3504SOL     OW12470   1.614   6.878   8.737
 3504SOL    HW112471   1.674   6.881   8.817
 3504SOL    HW212472   1.539   6.942   8.750
 3505SOL     OW12473   1.039   6.684   8.144
 3505SOL    HW112474   0.969   6.637   8.198
 3505SOL    HW212475   1.098   6.616   8.101
 3506SOL     OW12476   1.014   5.822   8.419
 3506SOL    HW112477   1.006   5.786   8.326
 3506SOL    HW212478   1.012   5.746   8.484
 3507SOL     OW12479   0.590   7.073   7.939
 3507SOL    HW112480   0.632   7.015   7.869
 3507SOL    HW212481   0.546   7.152   7.895
 3508SOL     OW12482   1.709   5.971   8.829
 3508SOL    HW112483   1.782   6.040   8.833
 3508SOL    HW212484   1.737   5.896   8.770
 3509SOL     OW12485   0.255   6.934   7.738
 3509SOL    HW112486   0.159   6.935   7.711
 3509SOL    HW212487   0.267   6.987   7.822
 3510SOL     OW12488   1.440   6.442   8.846
 3510SOL    HW112489   1.383   6.494   8.783
 3510SOL    HW212490   1.536   6.454   8.822
 3511SOL     OW12491   1.183   6.921   7.567
 3511SOL    HW112492   1.084   6.910   7.569
 3511SOL    HW212493   1.217   6.936   7.660
 3512SOL     OW12494   0.613   6.428   8.879
 3512SOL    HW112495   0.669   6.509   8.862
 3512SOL    HW212496   0.672   6.348   8.882
 3513SOL     OW12497   1.493   7.353   8.407
 3513SOL    HW112498   1.526   7.417   8.338
 3513SOL    HW212499   1.559   7.347   8.482
 3514SOL     OW12500   0.390   7.327   0.008
 3514SOL    HW112501   0.299   7.368   0.006
 3514SOL    HW212502   0.383   7.233   0.040
 3515SOL     OW12503   1.674   6.469   8.702
 3515SOL    HW112504   1.647   6.380   8.665
 3515SOL    HW212505   1.675   6.537   8.629
 3516SOL     OW12506   1.225   5.911   7.897
 3516SOL    HW112507   1.290   5.837   7.886
 3516SOL    HW212508   1.245   5.961   7.981
 3517SOL     OW12509   0.594   6.331   8.100
 3517SOL    HW112510   0.644   6.416   8.081
 3517SOL    HW212511   0.506   6.333   8.052
 3518SOL     OW12512   1.777   5.928   0.090
 3518SOL    HW112513   1.760   5.959  -0.004
 3518SOL    HW212514   1.693   5.891   0.128
 3519SOL     OW12515   1.730   6.520   8.965
 3519SOL    HW112516   1.768   6.611   8.980
 3519SOL    HW212517   1.722   6.503   8.866
 3520SOL     OW12518   0.859   6.960   7.464
 3520SOL    HW112519   0.813   6.975   7.552
 3520SOL    HW212520   0.903   7.045   7.434
 3521SOL     OW12521   0.661   7.376   8.401
 3521SOL    HW112522   0.615   7.464   8.388
 3521SOL    HW212523   0.760   7.388   8.394
 3522SOL     OW12524   1.408   7.437   0.168
 3522SOL    HW112525   1.312   7.426   0.141
 3522SOL    HW212526   1.464   7.370   0.120
 3523SOL     OW12527   0.859   6.542   8.309
 3523SOL    HW112528   0.913   6.473   8.357
 3523SOL    HW212529   0.827   6.611   8.375
 3524SOL     OW12530   1.083   6.570   7.535
 3524SOL    HW112531   1.060   6.623   7.453
 3524SOL    HW212532   1.164   6.514   7.516
 3525SOL     OW12533   1.861   7.155   8.299
 3525SOL    HW112534   1.790   7.143   8.229
 3525SOL    HW212535   1.862   7.076   8.359
 3526SOL     OW12536   1.824   5.778   8.675
 3526SOL    HW112537   1.820   5.688   8.719
 3526SOL    HW212538   1.827   5.767   8.576
 3527SOL     OW12539   0.428   6.010   7.968
 3527SOL    HW112540   0.458   5.938   7.906
 3527SOL    HW212541   0.389   5.970   8.051
 3528SOL     OW12542   1.705   7.073   8.552
 3528SOL    HW112543   1.612   7.048   8.525
 3528SOL    HW212544   1.731   7.023   8.634
 3529SOL     OW12545   0.812   7.172   8.135
 3529SOL    HW112546   0.844   7.182   8.041
 3529SOL    HW212547   0.733   7.110   8.137
 3530SOL     OW12548   1.424   5.800   8.560
 3530SOL    HW112549   1.476   5.735   8.615
 3530SOL    HW212550   1.375   5.863   8.621
 3531SOL     OW12551   1.001   5.620   8.602
 3531SOL    HW112552   0.938   5.548   8.571
 3531SOL    HW212553   1.094   5.584   8.602
 3532SOL     OW12554   0.770   6.916   7.749
 3532SOL    HW112555   0.724   6.829   7.766
 3532SOL    HW212556   0.861   6.913   7.790
 3533SOL     OW12557   0.618   7.153   8.732
 3533SOL    HW112558   0.613   7.235   8.789
 3533SOL    HW212559   0.707   7.150   8.687
 3534SOL     OW12560   1.352   5.638   7.616
 3534SOL    HW112561   1.387   5.597   7.532
 3534SOL    HW212562   1.262   5.600   7.636
 3535SOL     OW12563   1.300   6.039   8.139
 3535SOL    HW112564   1.241   6.119   8.143
 3535SOL    HW212565   1.315   6.004   8.232
 3536SOL     OW12566   1.593   5.807   8.330
 3536SOL    HW112567   1.509   5.806   8.384
 3536SOL    HW212568   1.595   5.890   8.274
 3537SOL     OW12569   0.875   7.232   7.785
 3537SOL    HW112570   0.798   7.197   7.731
 3537SOL    HW212571   0.843   7.303   7.847
 3538SOL     OW12572   0.019   7.816   0.647
 3538SOL    HW112573  -0.063   7.859   0.686
 3538SOL    HW212574  -0.009   7.743   0.584
 3539SOL     OW12575   0.569   8.723   1.165
 3539SOL    HW112576   0.476   8.716   1.128
 3539SOL    HW212577   0.580   8.812   1.209
 3540SOL     OW12578   1.555   8.959   0.703
 3540SOL    HW112579   1.498   8.943   0.784
 3540SOL    HW212580   1.496   8.969   0.623
 3541SOL     OW12581   1.743   8.066   0.856
 3541SOL    HW112582   1.776   8.160   0.856
 3541SOL    HW212583   1.794   8.012   0.922
 3542SOL     OW12584   1.135   8.151   0.717
 3542SOL    HW112585   1.192   8.229   0.692
 3542SOL    HW212586   1.075   8.177   0.793
 3543SOL     OW12587   1.755   8.055   0.231
 3543SOL    HW112588   1.743   8.042   0.132
 3543SOL    HW212589   1.725   7.974   0.280
 3544SOL     OW12590   0.768   8.592   1.023
 3544SOL    HW112591   0.690   8.609   1.083
 3544SOL    HW212592   0.802   8.679   0.987
 3545SOL     OW12593   0.850   8.246   1.823
 3545SOL    HW112594   0.846   8.322   1.888
 3545SOL    HW212595   0.872   8.282   1.732
 3546SOL     OW12596   0.685   8.460   0.665
 3546SOL    HW112597   0.754   8.444   0.735
 3546SOL    HW212598   0.612   8.517   0.703
 3547SOL     OW12599   0.686   8.609   1.803
 3547SOL    HW112600   0.746   8.688   1.817
 3547SOL    HW212601   0.600   8.640   1.762
 3548SOL     OW12602   0.335   8.883   1.061
 3548SOL    HW112603   0.257   8.852   1.008
 3548SOL    HW212604   0.393   8.941   1.004
 3549SOL     OW12605   1.460   8.953   1.339
 3549SOL    HW112606   1.484   9.047   1.365
 3549SOL    HW212607   1.444   8.899   1.421
 3550SOL     OW12608   0.438   7.840   1.499
 3550SOL    HW112609   0.520   7.784   1.508
 3550SOL    HW212610   0.357   7.782   1.503
 3551SOL     OW12611   1.603   7.895   0.737
 3551SOL    HW112612   1.529   7.941   0.687
 3551SOL    HW212613   1.654   7.963   0.790
 3552SOL     OW12614   1.127   8.789   1.690
 3552SOL    HW112615   1.174   8.789   1.778
 3552SOL    HW212616   1.079   8.702   1.679
 3553SOL     OW12617   0.606   8.412   0.123
 3553SOL    HW112618   0.613   8.496   0.069
 3553SOL    HW212619   0.652   8.425   0.211
 3554SOL     OW12620   1.594   7.562   1.480
 3554SOL    HW112621   1.576   7.629   1.408
 3554SOL    HW212622   1.591   7.608   1.569
 3555SOL     OW12623   1.689   8.370   0.612
 3555SOL    HW112624   1.784   8.341   0.620
 3555SOL    HW212625   1.681   8.435   0.537
 3556SOL     OW12626   1.641   8.556   0.432
 3556SOL    HW112627   1.727   8.558   0.380
 3556SOL    HW212628   1.655   8.603   0.520
 3557SOL     OW12629   0.613   8.813   0.726
 3557SOL    HW112630   0.564   8.726   0.735
 3557SOL    HW212631   0.590   8.856   0.639
 3558SOL     OW12632   1.293   8.676   1.423
 3558SOL    HW112633   1.330   8.603   1.365
 3558SOL    HW212634   1.345   8.681   1.508
 3559SOL     OW12635   0.809   7.452   0.502
 3559SOL    HW112636   0.849   7.543   0.493
 3559SOL    HW212637   0.709   7.460   0.508
 3560SOL     OW12638   1.525   8.447   0.190
 3560SOL    HW112639   1.462   8.371   0.203
 3560SOL    HW212640   1.573   8.465   0.276
 3561SOL     OW12641   0.317   7.699   1.801
 3561SOL    HW112642   0.388   7.770   1.807
 3561SOL    HW212643   0.229   7.738   1.829
 3562SOL     OW12644   1.466   8.865   0.953
 3562SOL    HW112645   1.407   8.871   1.033
 3562SOL    HW212646   1.451   8.777   0.907
 3563SOL     OW12647   0.598   8.177   0.270
 3563SOL    HW112648   0.622   8.246   0.202
 3563SOL    HW212649   0.520   8.210   0.324
 3564SOL     OW12650   1.281   7.793   0.944
 3564SOL    HW112651   1.195   7.743   0.931
 3564SOL    HW212652   1.343   7.739   1.000
 3565SOL     OW12653   0.807   8.053   1.465
 3565SOL    HW112654   0.760   8.050   1.554
 3565SOL    HW212655   0.756   7.998   1.399
 3566SOL     OW12656   1.394   7.917   1.674
 3566SOL    HW112657   1.374   7.960   1.762
 3566SOL    HW212658   1.472   7.855   1.683
 3567SOL     OW12659   0.973   8.338   1.572
 3567SOL    HW112660   1.019   8.254   1.543
 3567SOL    HW212661   0.917   8.372   1.497
 3568SOL     OW12662   0.991   7.858   1.242
 3568SOL    HW112663   0.914   7.892   1.296
 3568SOL    HW212664   0.957   7.807   1.163
 3569SOL     OW12665   1.041   8.149   0.429
 3569SOL    HW112666   1.067   8.145   0.525
 3569SOL    HW212667   0.956   8.098   0.415
 3570SOL     OW12668   0.865   7.796   0.195
 3570SOL    HW112669   0.924   7.859   0.146
 3570SOL    HW212670   0.884   7.702   0.166
 3571SOL     OW12671   1.719   8.033   1.831
 3571SOL    HW112672   1.693   8.122   1.795
 3571SOL    HW212673   1.717   7.965   1.758
 3572SOL     OW12674   1.362   8.592   0.545
 3572SOL    HW112675   1.445   8.563   0.497
 3572SOL    HW212676   1.313   8.659   0.489
 3573SOL     OW12677   0.550   7.644   0.885
 3573SOL    HW112678   0.545   7.639   0.985
 3573SOL    HW212679   0.552   7.740   0.856
 3574SOL     OW12680   1.008   8.904   0.477
 3574SOL    HW112681   0.962   8.976   0.425
 3574SOL    HW212682   1.004   8.924   0.575
 3575SOL     OW12683   1.795   8.514   0.873
 3575SOL    HW112684   1.733   8.499   0.797
 3575SOL    HW212685   1.743   8.525   0.958
 3576SOL     OW12686   1.227   8.998   1.506
 3576SOL    HW112687   1.233   8.921   1.570
 3576SOL    HW212688   1.175   8.972   1.426
 3577SOL     OW12689   0.321   8.391   0.242
 3577SOL    HW112690   0.403   8.430   0.200
 3577SOL    HW212691   0.294   8.309   0.193
 3578SOL     OW12692   1.458   8.183   0.728
 3578SOL    HW112693   1.453   8.118   0.803
 3578SOL    HW212694   1.538   8.242   0.741
 3579SOL     OW12695   0.461   8.714   1.727
 3579SOL    HW112696   0.411   8.715   1.641
 3579SOL    HW212697   0.398   8.696   1.803
 3580SOL     OW12698   1.111   0.224   0.237
 3580SOL    HW112699   1.051   0.162   0.287
 3580SOL    HW212700   1.142   0.180   0.152
 3581SOL     OW12701   1.632   8.825   0.081
 3581SOL    HW112702   1.600   8.919   0.071
 3581SOL    HW212703   1.556   8.762   0.069
 3582SOL     OW12704   1.400   7.555   0.426
 3582SOL    HW112705   1.376   7.518   0.336
 3582SOL    HW212706   1.499   7.571   0.430
 3583SOL     OW12707   0.382   8.148   0.480
 3583SOL    HW112708   0.427   8.058   0.477
 3583SOL    HW212709   0.288   8.137   0.513
 3584SOL     OW12710   1.547   7.670   1.729
 3584SOL    HW112711   1.542   7.707   1.821
 3584SOL    HW212712   1.475   7.601   1.717
 3585SOL     OW12713   0.614   7.570   0.117
 3585SOL    HW112714   0.712   7.548   0.124
 3585SOL    HW212715   0.583   7.553   0.024
 3586SOL     OW12716   0.781   7.712   1.749
 3586SOL    HW112717   0.848   7.651   1.792
 3586SOL    HW212718   0.708   7.731   1.814
 3587SOL     OW12719   1.351   8.038   1.433
 3587SOL    HW112720   1.379   7.995   1.518
 3587SOL    HW212721   1.376   8.134   1.434
 3588SOL     OW12722   0.803   8.850   0.924
 3588SOL    HW112723   0.893   8.864   0.882
 3588SOL    HW212724   0.732   8.852   0.853
 3589SOL     OW12725   0.922   7.951   0.899
 3589SOL    HW112726   0.897   7.942   0.803
 3589SOL    HW212727   0.970   7.869   0.930
 3590SOL     OW12728   0.539   7.512   0.512
 3590SOL    HW112729   0.458   7.513   0.570
 3590SOL    HW212730   0.542   7.595   0.457
 3591SOL     OW12731   1.434   8.636   0.041
 3591SOL    HW112732   1.466   8.560   0.098
 3591SOL    HW212733   1.342   8.663   0.071
 3592SOL     OW12734   0.297   7.483   0.171
 3592SOL    HW112735   0.346   7.567   0.150
 3592SOL    HW212736   0.359   7.418   0.216
 3593SOL     OW12737   0.935   7.684   0.480
 3593SOL    HW112738   0.887   7.725   0.402
 3593SOL    HW212739   1.034   7.682   0.461
 3594SOL     OW12740   1.076   8.131   1.464
 3594SOL    HW112741   0.996   8.070   1.467
 3594SOL    HW212742   1.157   8.078   1.440
 3595SOL     OW12743   1.227   0.018   0.793
 3595SOL    HW112744   1.248   0.092   0.728
 3595SOL    HW212745   1.295   0.018   0.866
 3596SOL     OW12746   0.459   8.600   0.741
 3596SOL    HW112747   0.388   8.573   0.806
 3596SOL    HW212748   0.433   8.572   0.648
 3597SOL     OW12749   1.032   7.997   0.016
 3597SOL    HW112750   0.991   8.079  -0.023
 3597SOL    HW212751   1.096   8.023   0.089
 3598SOL     OW12752   0.561   7.670   1.147
 3598SOL    HW112753   0.599   7.586   1.184
 3598SOL    HW212754   0.473   7.689   1.191
 3599SOL     OW12755   0.866   7.902   0.642
 3599SOL    HW112756   0.834   7.974   0.580
 3599SOL    HW212757   0.890   7.821   0.589
 3600SOL     OW12758   1.017   7.487   0.753
 3600SOL    HW112759   0.945   7.492   0.684
 3600SOL    HW212760   0.993   7.418   0.822
 3601SOL     OW12761   1.429   8.621   0.867
 3601SOL    HW112762   1.374   8.537   0.860
 3601SOL    HW212763   1.455   8.650   0.775
 3602SOL     OW12764   1.466   8.038   0.992
 3602SOL    HW112765   1.436   7.943   0.999
 3602SOL    HW212766   1.539   8.054   1.058
 3603SOL     OW12767   1.857   8.281   0.377
 3603SOL    HW112768   1.899   8.217   0.441
 3603SOL    HW212769   1.819   8.230   0.299
 3604SOL     OW12770   0.488   8.833   0.174
 3604SOL    HW112771   0.401   8.818   0.221
 3604SOL    HW212772   0.471   8.859   0.079
 3605SOL     OW12773   1.664   8.728   0.657
 3605SOL    HW112774   1.763   8.736   0.671
 3605SOL    HW212775   1.619   8.812   0.688
 3606SOL     OW12776   1.390   8.023   0.078
 3606SOL    HW112777   1.336   8.002   0.159
 3606SOL    HW212778   1.481   7.982   0.087
 3607SOL     OW12779   0.527   7.704   0.328
 3607SOL    HW112780   0.554   7.645   0.253
 3607SOL    HW212781   0.527   7.799   0.297
 3608SOL     OW12782   1.754   8.671   1.588
 3608SOL    HW112783   1.845   8.632   1.575
 3608SOL    HW212784   1.762   8.767   1.612
 3609SOL     OW12785   1.064   8.795   1.340
 3609SOL    HW112786   0.984   8.772   1.395
 3609SOL    HW212787   1.147   8.769   1.389
 3610SOL     OW12788   1.111   8.643   1.100
 3610SOL    HW112789   1.071   8.687   1.181
 3610SOL    HW212790   1.070   8.680   1.017
 3611SOL     OW12791   1.638   8.547   1.079
 3611SOL    HW112792   1.643   8.628   1.138
 3611SOL    HW212793   1.552   8.549   1.028
 3612SOL     OW12794   0.915   7.537   1.402
 3612SOL    HW112795   0.940   7.517   1.307
 3612SOL    HW212796   0.987   7.593   1.444
 3613SOL     OW12797   0.980   8.564   1.719
 3613SOL    HW112798   0.881   8.570   1.729
 3613SOL    HW212799   1.003   8.484   1.663
 3614SOL     OW12800   0.705   8.498   0.368
 3614SOL    HW112801   0.691   8.505   0.467
 3614SOL    HW212802   0.789   8.447   0.350
 3615SOL     OW12803   0.410   8.261   1.251
 3615SOL    HW112804   0.496   8.273   1.301
 3615SOL    HW212805   0.368   8.174   1.278
 3616SOL     OW12806   1.274   7.834   1.262
 3616SOL    HW112807   1.295   7.908   1.326
 3616SOL    HW212808   1.185   7.851   1.219
 3617SOL     OW12809   0.367   8.548   0.501
 3617SOL    HW112810   0.360   8.631   0.445
 3617SOL    HW212811   0.371   8.468   0.441
 3618SOL     OW12812   0.566   7.985   0.865
 3618SOL    HW112813   0.578   8.051   0.791
 3618SOL    HW212814   0.612   8.019   0.948
 3619SOL     OW12815   1.252   8.796   0.388
 3619SOL    HW112816   1.302   8.873   0.428
 3619SOL    HW212817   1.157   8.798   0.420
 3620SOL     OW12818   1.272   8.893   1.142
 3620SOL    HW112819   1.319   8.906   1.229
 3620SOL    HW212820   1.206   8.819   1.151
 3621SOL     OW12821   1.582   8.087   0.472
 3621SOL    HW112822   1.551   8.148   0.545
 3621SOL    HW212823   1.632   8.139   0.403
 3622SOL     OW12824   0.354   8.958   1.329
 3622SOL    HW112825   0.333   8.914   1.242
 3622SOL    HW212826   0.451   8.984   1.332
 3623SOL     OW12827   0.402   8.199   1.598
 3623SOL    HW112828   0.470   8.254   1.551
 3623SOL    HW212829   0.442   8.111   1.625
 3624SOL     OW12830   1.587   8.227   1.670
 3624SOL    HW112831   1.495   8.265   1.665
 3624SOL    HW212832   1.647   8.274   1.605
 3625SOL     OW12833   1.013   7.553   1.770
 3625SOL    HW112834   1.019   7.638   1.718
 3625SOL    HW212835   1.045   7.477   1.713
 3626SOL     OW12836   0.504   7.498   1.740
 3626SOL    HW112837   0.462   7.441   1.670
 3626SOL    HW212838   0.438   7.567   1.772
 3627SOL     OW12839   0.573   8.318   1.029
 3627SOL    HW112840   0.617   8.407   1.020
 3627SOL    HW212841   0.510   8.318   1.106
 3628SOL     OW12842   1.360   8.310   1.045
 3628SOL    HW112843   1.285   8.310   0.979
 3628SOL    HW212844   1.397   8.218   1.054
 3629SOL     OW12845   1.209   7.973   0.275
 3629SOL    HW112846   1.222   7.889   0.329
 3629SOL    HW212847   1.180   8.047   0.335
 3630SOL     OW12848   0.732   8.082   1.064
 3630SOL    HW112849   0.791   8.056   0.988
 3630SOL    HW212850   0.704   8.178   1.053
 3631SOL     OW12851   1.728   8.383   1.854
 3631SOL    HW112852   1.682   8.376   1.765
 3631SOL    HW212853   1.666   8.427   1.920
 3632SOL     OW12854   0.307   7.511   0.618
 3632SOL    HW112855   0.296   7.605   0.651
 3632SOL    HW212856   0.302   7.448   0.695
 3633SOL     OW12857   1.622   7.815   0.374
 3633SOL    HW112858   1.624   7.739   0.438
 3633SOL    HW212859   1.574   7.892   0.414
 3634SOL     OW12860   1.023   8.214   0.966
 3634SOL    HW112861   1.038   8.235   1.062
 3634SOL    HW212862   0.993   8.119   0.957
 3635SOL     OW12863   1.859   8.966   1.605
 3635SOL    HW112864   1.873   8.993   1.510
 3635SOL    HW212865   1.942   8.988   1.658
 3636SOL     OW12866   0.350   8.346   1.804
 3636SOL    HW112867   0.426   8.390   1.852
 3636SOL    HW212868   0.385   8.299   1.722
 3637SOL     OW12869   1.540   7.722   0.125
 3637SOL    HW112870   1.479   7.647   0.148
 3637SOL    HW212871   1.562   7.774   0.208
 3638SOL     OW12872   1.303   8.286   0.042
 3638SOL    HW112873   1.337   8.193   0.057
 3638SOL    HW212874   1.321   8.313  -0.053
 3639SOL     OW12875   1.068   8.781   0.849
 3639SOL    HW112876   1.075   8.697   0.794
 3639SOL    HW212877   1.130   8.850   0.813
 3640SOL     OW12878   0.319   8.258   0.949
 3640SOL    HW112879   0.412   8.294   0.954
 3640SOL    HW212880   0.313   8.173   1.001
 3641SOL     OW12881   1.138   7.828   1.678
 3641SOL    HW112882   1.093   7.891   1.742
 3641SOL    HW212883   1.231   7.859   1.661
 3642SOL     OW12884   1.160   7.655   1.477
 3642SOL    HW112885   1.160   7.719   1.554
 3642SOL    HW212886   1.188   7.703   1.394
 3643SOL     OW12887   1.002   8.244   1.238
 3643SOL    HW112888   1.043   8.212   1.324
 3643SOL    HW212889   0.906   8.217   1.235
 3644SOL     OW12890   1.369   8.398   1.660
 3644SOL    HW112891   1.408   8.487   1.680
 3644SOL    HW212892   1.379   8.378   1.563
 3645SOL     OW12893   0.815   8.020   0.325
 3645SOL    HW112894   0.822   7.931   0.279
 3645SOL    HW212895   0.721   8.054   0.317
 3646SOL     OW12896   1.657   8.052   1.206
 3646SOL    HW112897   1.619   7.983   1.268
 3646SOL    HW212898   1.739   8.016   1.162
 3647SOL     OW12899   0.252   0.012   1.744
 3647SOL    HW112900   0.222   0.069   1.820
 3647SOL    HW212901   0.245  -0.085   1.770
 3648SOL     OW12902   0.671   7.912   1.269
 3648SOL    HW112903   0.637   7.823   1.239
 3648SOL    HW212904   0.697   7.966   1.189
 3649SOL     OW12905   0.473   7.948   0.191
 3649SOL    HW112906   0.534   8.028   0.195
 3649SOL    HW212907   0.378   7.979   0.198
 3650SOL     OW12908   1.347   8.507   1.234
 3650SOL    HW112909   1.371   8.444   1.160
 3650SOL    HW212910   1.257   8.547   1.216
 3651SOL     OW12911   1.302   8.303   0.309
 3651SOL    HW112912   1.216   8.272   0.351
 3651SOL    HW212913   1.298   8.289   0.210
 3652SOL     OW12914   0.903   7.534   0.133
 3652SOL    HW112915   0.954   7.535   0.047
 3652SOL    HW212916   0.959   7.492   0.204
 3653SOL     OW12917   1.726   7.583   0.523
 3653SOL    HW112918   1.799   7.566   0.456
 3653SOL    HW212919   1.695   7.496   0.561
 3654SOL     OW12920   1.280   8.375   0.672
 3654SOL    HW112921   1.340   8.294   0.674
 3654SOL    HW212922   1.320   8.444   0.612
 3655SOL     OW12923   0.830   8.721   1.422
 3655SOL    HW112924   0.825   8.754   1.517
 3655SOL    HW212925   0.744   8.740   1.376
 3656SOL     OW12926   1.841   7.623   0.963
 3656SOL    HW112927   1.880   7.538   0.927
 3656SOL    HW212928   1.743   7.625   0.944
 3657SOL     OW12929   0.263   7.774   0.720
 3657SOL    HW112930   0.184   7.825   0.686
 3657SOL    HW212931   0.254   7.759   0.818
 3658SOL     OW12932   0.822   8.450   1.372
 3658SOL    HW112933   0.862   8.449   1.280
 3658SOL    HW212934   0.832   8.542   1.412
 3659SOL     OW12935   0.916   8.358   0.291
 3659SOL    HW112936   0.979   8.396   0.223
 3659SOL    HW212937   0.956   8.275   0.330
 3660SOL     OW12938   0.372   8.736   1.490
 3660SOL    HW112939   0.359   8.829   1.456
 3660SOL    HW212940   0.288   8.684   1.477
 3661SOL     OW12941   1.614   8.740   1.289
 3661SOL    HW112942   1.674   8.743   1.369
 3661SOL    HW212943   1.539   8.804   1.302
 3662SOL     OW12944   1.039   8.546   0.696
 3662SOL    HW112945   0.969   8.499   0.750
 3662SOL    HW212946   1.098   8.478   0.653
 3663SOL     OW12947   1.014   7.684   0.971
 3663SOL    HW112948   1.006   7.648   0.878
 3663SOL    HW212949   1.012   7.608   1.036
 3664SOL     OW12950   1.709   7.833   1.381
 3664SOL    HW112951   1.782   7.902   1.385
 3664SOL    HW212952   1.737   7.758   1.322
 3665SOL     OW12953   0.255   8.796   0.290
 3665SOL    HW112954   0.159   8.797   0.263
 3665SOL    HW212955   0.267   8.849   0.374
 3666SOL     OW12956   0.672   7.651   1.489
 3666SOL    HW112957   0.762   7.635   1.449
 3666SOL    HW212958   0.680   7.656   1.588
 3667SOL     OW12959   1.440   8.304   1.398
 3667SOL    HW112960   1.383   8.356   1.335
 3667SOL    HW212961   1.536   8.316   1.374
 3668SOL     OW12962   1.183   8.783   0.119
 3668SOL    HW112963   1.084   8.772   0.121
 3668SOL    HW212964   1.217   8.798   0.212
 3669SOL     OW12965   0.613   8.290   1.431
 3669SOL    HW112966   0.669   8.371   1.414
 3669SOL    HW212967   0.672   8.210   1.434
 3670SOL     OW12968   0.716   8.013   1.708
 3670SOL    HW112969   0.735   8.078   1.782
 3670SOL    HW212970   0.776   7.933   1.717
 3671SOL     OW12971   1.450   8.668   1.633
 3671SOL    HW112972   1.441   8.658   1.732
 3671SOL    HW212973   1.546   8.661   1.607
 3672SOL     OW12974   1.674   8.331   1.254
 3672SOL    HW112975   1.647   8.242   1.217
 3672SOL    HW212976   1.675   8.399   1.181
 3673SOL     OW12977   1.225   7.773   0.449
 3673SOL    HW112978   1.290   7.699   0.438
 3673SOL    HW212979   1.245   7.823   0.533
 3674SOL     OW12980   0.594   8.193   0.652
 3674SOL    HW112981   0.644   8.278   0.633
 3674SOL    HW212982   0.506   8.195   0.604
 3675SOL     OW12983   1.777   7.790   1.642
 3675SOL    HW112984   1.760   7.821   1.548
 3675SOL    HW212985   1.693   7.753   1.680
 3676SOL     OW12986   1.730   8.382   1.517
 3676SOL    HW112987   1.768   8.473   1.532
 3676SOL    HW212988   1.722   8.365   1.418
 3677SOL     OW12989   0.859   8.822   0.016
 3677SOL    HW112990   0.813   8.837   0.104
 3677SOL    HW212991   0.903   8.907  -0.014
 3678SOL     OW12992   0.859   8.404   0.861
 3678SOL    HW112993   0.913   8.335   0.909
 3678SOL    HW212994   0.827   8.473   0.927
 3679SOL     OW12995   1.083   8.432   0.087
 3679SOL    HW112996   1.060   8.485   0.005
 3679SOL    HW212997   1.164   8.376   0.068
 3680SOL     OW12998   0.672   8.839   1.624
 3680SOL    HW112999   0.594   8.789   1.662
 3680SOL    HW213000   0.669   8.934   1.655
 3681SOL     OW13001   1.824   7.640   1.227
 3681SOL    HW113002   1.820   7.550   1.271
 3681SOL    HW213003   1.827   7.629   1.128
 3682SOL     OW13004   0.428   7.872   0.520
 3682SOL    HW113005   0.458   7.800   0.458
 3682SOL    HW213006   0.389   7.832   0.603
 3683SOL     OW13007   1.705   8.935   1.104
 3683SOL    HW113008   1.612   8.910   1.077
 3683SOL    HW213009   1.731   8.885   1.186
 3684SOL     OW13010   1.424   7.662   1.112
 3684SOL    HW113011   1.476   7.597   1.167
 3684SOL    HW213012   1.375   7.725   1.173
 3685SOL     OW13013   1.001   7.482   1.154
 3685SOL    HW113014   0.938   7.410   1.123
 3685SOL    HW213015   1.094   7.446   1.154
 3686SOL     OW13016   0.770   8.778   0.301
 3686SOL    HW113017   0.724   8.691   0.318
 3686SOL    HW213018   0.861   8.775   0.342
 3687SOL     OW13019   0.618   0.015   1.284
 3687SOL    HW113020   0.613   0.097   1.341
 3687SOL    HW213021   0.707   0.012   1.239
 3688SOL     OW13022   1.300   7.901   0.691
 3688SOL    HW113023   1.241   7.981   0.695
 3688SOL    HW213024   1.315   7.866   0.784
 3689SOL     OW13025   1.593   7.669   0.882
 3689SOL    HW113026   1.509   7.668   0.936
 3689SOL    HW213027   1.595   7.752   0.826
 3690SOL     OW13028   0.019   7.816   2.509
 3690SOL    HW113029  -0.063   7.859   2.548
 3690SOL    HW213030  -0.009   7.743   2.446
 3691SOL     OW13031   0.569   8.723   3.027
 3691SOL    HW113032   0.476   8.716   2.990
 3691SOL    HW213033   0.580   8.812   3.071
 3692SOL     OW13034   1.555   8.959   2.565
 3692SOL    HW113035   1.498   8.943   2.646
 3692SOL    HW213036   1.496   8.969   2.485
 3693SOL     OW13037   1.743   8.066   2.718
 3693SOL    HW113038   1.776   8.160   2.718
 3693SOL    HW213039   1.794   8.012   2.784
 3694SOL     OW13040   1.135   8.151   2.579
 3694SOL    HW113041   1.192   8.229   2.554
 3694SOL    HW213042   1.075   8.177   2.655
 3695SOL     OW13043   1.755   8.055   2.093
 3695SOL    HW113044   1.743   8.042   1.994
 3695SOL    HW213045   1.725   7.974   2.142
 3696SOL     OW13046   0.768   8.592   2.885
 3696SOL    HW113047   0.690   8.609   2.945
 3696SOL    HW213048   0.802   8.679   2.849
 3697SOL     OW13049   0.850   8.246   3.685
 3697SOL    HW113050   0.846   8.322   3.750
 3697SOL    HW213051   0.872   8.282   3.594
 3698SOL     OW13052   0.685   8.460   2.527
 3698SOL    HW113053   0.754   8.444   2.597
 3698SOL    HW213054   0.612   8.517   2.565
 3699SOL     OW13055   0.686   8.609   3.665
 3699SOL    HW113056   0.746   8.688   3.679
 3699SOL    HW213057   0.600   8.640   3.624
 3700SOL     OW13058   0.335   8.883   2.923
 3700SOL    HW113059   0.257   8.852   2.870
 3700SOL    HW213060   0.393   8.941   2.866
 3701SOL     OW13061   1.460   8.953   3.201
 3701SOL    HW113062   1.484   9.047   3.227
 3701SOL    HW213063   1.444   8.899   3.283
 3702SOL     OW13064   0.438   7.840   3.361
 3702SOL    HW113065   0.520   7.784   3.370
 3702SOL    HW213066   0.357   7.782   3.365
 3703SOL     OW13067   1.603   7.895   2.599
 3703SOL    HW113068   1.529   7.941   2.549
 3703SOL    HW213069   1.654   7.963   2.652
 3704SOL     OW13070   1.127   8.789   3.552
 3704SOL    HW113071   1.174   8.789   3.640
 3704SOL    HW213072   1.079   8.702   3.541
 3705SOL     OW13073   0.606   8.412   1.985
 3705SOL    HW113074   0.613   8.496   1.931
 3705SOL    HW213075   0.652   8.425   2.073
 3706SOL     OW13076   1.594   7.562   3.342
 3706SOL    HW113077   1.576   7.629   3.270
 3706SOL    HW213078   1.591   7.608   3.431
 3707SOL     OW13079   1.689   8.370   2.474
 3707SOL    HW113080   1.784   8.341   2.482
 3707SOL    HW213081   1.681   8.435   2.399
 3708SOL     OW13082   1.641   8.556   2.294
 3708SOL    HW113083   1.727   8.558   2.242
 3708SOL    HW213084   1.655   8.603   2.382
 3709SOL     OW13085   0.613   8.813   2.588
 3709SOL    HW113086   0.564   8.726   2.597
 3709SOL    HW213087   0.590   8.856   2.501
 3710SOL     OW13088   1.293   8.676   3.285
 3710SOL    HW113089   1.330   8.603   3.227
 3710SOL    HW213090   1.345   8.681   3.370
 3711SOL     OW13091   0.809   7.452   2.364
 3711SOL    HW113092   0.849   7.543   2.355
 3711SOL    HW213093   0.709   7.460   2.370
 3712SOL     OW13094   1.525   8.447   2.052
 3712SOL    HW113095   1.462   8.371   2.065
 3712SOL    HW213096   1.573   8.465   2.138
 3713SOL     OW13097   0.317   7.699   3.663
 3713SOL    HW113098   0.388   7.770   3.669
 3713SOL    HW213099   0.229   7.738   3.691
 3714SOL     OW13100   1.466   8.865   2.815
 3714SOL    HW113101   1.407   8.871   2.895
 3714SOL    HW213102   1.451   8.777   2.769
 3715SOL     OW13103   0.598   8.177   2.132
 3715SOL    HW113104   0.622   8.246   2.064
 3715SOL    HW213105   0.520   8.210   2.186
 3716SOL     OW13106   1.281   7.793   2.806
 3716SOL    HW113107   1.195   7.743   2.793
 3716SOL    HW213108   1.343   7.739   2.862
 3717SOL     OW13109   0.807   8.053   3.327
 3717SOL    HW113110   0.760   8.050   3.416
 3717SOL    HW213111   0.756   7.998   3.261
 3718SOL     OW13112   1.394   7.917   3.536
 3718SOL    HW113113   1.374   7.960   3.624
 3718SOL    HW213114   1.472   7.855   3.545
 3719SOL     OW13115   0.973   8.338   3.434
 3719SOL    HW113116   1.019   8.254   3.405
 3719SOL    HW213117   0.917   8.372   3.359
 3720SOL     OW13118   0.991   7.858   3.104
 3720SOL    HW113119   0.914   7.892   3.158
 3720SOL    HW213120   0.957   7.807   3.025
 3721SOL     OW13121   1.041   8.149   2.291
 3721SOL    HW113122   1.067   8.145   2.387
 3721SOL    HW213123   0.956   8.098   2.277
 3722SOL     OW13124   0.865   7.796   2.057
 3722SOL    HW113125   0.924   7.859   2.008
 3722SOL    HW213126   0.884   7.702   2.028
 3723SOL     OW13127   1.719   8.033   3.693
 3723SOL    HW113128   1.693   8.122   3.657
 3723SOL    HW213129   1.717   7.965   3.620
 3724SOL     OW13130   1.362   8.592   2.407
 3724SOL    HW113131   1.445   8.563   2.359
 3724SOL    HW213132   1.313   8.659   2.351
 3725SOL     OW13133   0.550   7.644   2.747
 3725SOL    HW113134   0.545   7.639   2.847
 3725SOL    HW213135   0.552   7.740   2.718
 3726SOL     OW13136   1.008   8.904   2.339
 3726SOL    HW113137   0.962   8.976   2.287
 3726SOL    HW213138   1.004   8.924   2.437
 3727SOL     OW13139   1.795   8.514   2.735
 3727SOL    HW113140   1.733   8.499   2.659
 3727SOL    HW213141   1.743   8.525   2.820
 3728SOL     OW13142   1.227   8.998   3.368
 3728SOL    HW113143   1.233   8.921   3.432
 3728SOL    HW213144   1.175   8.972   3.288
 3729SOL     OW13145   0.321   8.391   2.104
 3729SOL    HW113146   0.403   8.430   2.062
 3729SOL    HW213147   0.294   8.309   2.055
 3730SOL     OW13148   1.458   8.183   2.590
 3730SOL    HW113149   1.453   8.118   2.665
 3730SOL    HW213150   1.538   8.242   2.603
 3731SOL     OW13151   0.461   8.714   3.589
 3731SOL    HW113152   0.411   8.715   3.503
 3731SOL    HW213153   0.398   8.696   3.665
 3732SOL     OW13154   1.111   0.224   2.099
 3732SOL    HW113155   1.051   0.162   2.149
 3732SOL    HW213156   1.142   0.180   2.014
 3733SOL     OW13157   1.632   8.825   1.943
 3733SOL    HW113158   1.600   8.919   1.933
 3733SOL    HW213159   1.556   8.762   1.931
 3734SOL     OW13160   1.400   7.555   2.288
 3734SOL    HW113161   1.376   7.518   2.198
 3734SOL    HW213162   1.499   7.571   2.292
 3735SOL     OW13163   0.382   8.148   2.342
 3735SOL    HW113164   0.427   8.058   2.339
 3735SOL    HW213165   0.288   8.137   2.375
 3736SOL     OW13166   1.547   7.670   3.591
 3736SOL    HW113167   1.542   7.707   3.683
 3736SOL    HW213168   1.475   7.601   3.579
 3737SOL     OW13169   0.614   7.570   1.979
 3737SOL    HW113170   0.712   7.548   1.986
 3737SOL    HW213171   0.583   7.553   1.886
 3738SOL     OW13172   0.781   7.712   3.611
 3738SOL    HW113173   0.848   7.651   3.654
 3738SOL    HW213174   0.708   7.731   3.676
 3739SOL     OW13175   1.351   8.038   3.295
 3739SOL    HW113176   1.379   7.995   3.380
 3739SOL    HW213177   1.376   8.134   3.296
 3740SOL     OW13178   0.803   8.850   2.786
 3740SOL    HW113179   0.893   8.864   2.744
 3740SOL    HW213180   0.732   8.852   2.715
 3741SOL     OW13181   0.922   7.951   2.761
 3741SOL    HW113182   0.897   7.942   2.665
 3741SOL    HW213183   0.970   7.869   2.792
 3742SOL     OW13184   0.539   7.512   2.374
 3742SOL    HW113185   0.458   7.513   2.432
 3742SOL    HW213186   0.542   7.595   2.319
 3743SOL     OW13187   1.434   8.636   1.903
 3743SOL    HW113188   1.466   8.560   1.960
 3743SOL    HW213189   1.342   8.663   1.933
 3744SOL     OW13190   0.297   7.483   2.033
 3744SOL    HW113191   0.346   7.567   2.012
 3744SOL    HW213192   0.359   7.418   2.078
 3745SOL     OW13193   0.935   7.684   2.342
 3745SOL    HW113194   0.887   7.725   2.264
 3745SOL    HW213195   1.034   7.682   2.323
 3746SOL     OW13196   1.076   8.131   3.326
 3746SOL    HW113197   0.996   8.070   3.329
 3746SOL    HW213198   1.157   8.078   3.302
 3747SOL     OW13199   1.227   0.018   2.655
 3747SOL    HW113200   1.248   0.092   2.590
 3747SOL    HW213201   1.295   0.018   2.728
 3748SOL     OW13202   0.459   8.600   2.603
 3748SOL    HW113203   0.388   8.573   2.668
 3748SOL    HW213204   0.433   8.572   2.510
 3749SOL     OW13205   1.032   7.997   1.878
 3749SOL    HW113206   0.991   8.079   1.839
 3749SOL    HW213207   1.096   8.023   1.951
 3750SOL     OW13208   0.561   7.670   3.009
 3750SOL    HW113209   0.599   7.586   3.046
 3750SOL    HW213210   0.473   7.689   3.053
 3751SOL     OW13211   0.866   7.902   2.504
 3751SOL    HW113212   0.834   7.974   2.442
 3751SOL    HW213213   0.890   7.821   2.451
 3752SOL     OW13214   1.017   7.487   2.615
 3752SOL    HW113215   0.945   7.492   2.546
 3752SOL    HW213216   0.993   7.418   2.684
 3753SOL     OW13217   1.429   8.621   2.729
 3753SOL    HW113218   1.374   8.537   2.722
 3753SOL    HW213219   1.455   8.650   2.637
 3754SOL     OW13220   1.466   8.038   2.854
 3754SOL    HW113221   1.436   7.943   2.861
 3754SOL    HW213222   1.539   8.054   2.920
 3755SOL     OW13223   1.857   8.281   2.239
 3755SOL    HW113224   1.899   8.217   2.303
 3755SOL    HW213225   1.819   8.230   2.161
 3756SOL     OW13226   0.488   8.833   2.036
 3756SOL    HW113227   0.401   8.818   2.083
 3756SOL    HW213228   0.471   8.859   1.941
 3757SOL     OW13229   1.664   8.728   2.519
 3757SOL    HW113230   1.763   8.736   2.533
 3757SOL    HW213231   1.619   8.812   2.550
 3758SOL     OW13232   1.390   8.023   1.940
 3758SOL    HW113233   1.336   8.002   2.021
 3758SOL    HW213234   1.481   7.982   1.949
 3759SOL     OW13235   0.527   7.704   2.190
 3759SOL    HW113236   0.554   7.645   2.115
 3759SOL    HW213237   0.527   7.799   2.159
 3760SOL     OW13238   1.754   8.671   3.450
 3760SOL    HW113239   1.845   8.632   3.437
 3760SOL    HW213240   1.762   8.767   3.474
 3761SOL     OW13241   1.064   8.795   3.202
 3761SOL    HW113242   0.984   8.772   3.257
 3761SOL    HW213243   1.147   8.769   3.251
 3762SOL     OW13244   1.111   8.643   2.962
 3762SOL    HW113245   1.071   8.687   3.043
 3762SOL    HW213246   1.070   8.680   2.879
 3763SOL     OW13247   1.638   8.547   2.941
 3763SOL    HW113248   1.643   8.628   3.000
 3763SOL    HW213249   1.552   8.549   2.890
 3764SOL     OW13250   0.915   7.537   3.264
 3764SOL    HW113251   0.940   7.517   3.169
 3764SOL    HW213252   0.987   7.593   3.306
 3765SOL     OW13253   0.980   8.564   3.581
 3765SOL    HW113254   0.881   8.570   3.591
 3765SOL    HW213255   1.003   8.484   3.525
 3766SOL     OW13256   0.705   8.498   2.230
 3766SOL    HW113257   0.691   8.505   2.329
 3766SOL    HW213258   0.789   8.447   2.212
 3767SOL     OW13259   0.410   8.261   3.113
 3767SOL    HW113260   0.496   8.273   3.163
 3767SOL    HW213261   0.368   8.174   3.140
 3768SOL     OW13262   1.274   7.834   3.124
 3768SOL    HW113263   1.295   7.908   3.188
 3768SOL    HW213264   1.185   7.851   3.081
 3769SOL     OW13265   0.367   8.548   2.363
 3769SOL    HW113266   0.360   8.631   2.307
 3769SOL    HW213267   0.371   8.468   2.303
 3770SOL     OW13268   0.566   7.985   2.727
 3770SOL    HW113269   0.578   8.051   2.653
 3770SOL    HW213270   0.612   8.019   2.810
 3771SOL     OW13271   1.252   8.796   2.250
 3771SOL    HW113272   1.302   8.873   2.290
 3771SOL    HW213273   1.157   8.798   2.282
 3772SOL     OW13274   1.272   8.893   3.004
 3772SOL    HW113275   1.319   8.906   3.091
 3772SOL    HW213276   1.206   8.819   3.013
 3773SOL     OW13277   1.582   8.087   2.334
 3773SOL    HW113278   1.551   8.148   2.407
 3773SOL    HW213279   1.632   8.139   2.265
 3774SOL     OW13280   0.354   8.958   3.191
 3774SOL    HW113281   0.333   8.914   3.104
 3774SOL    HW213282   0.451   8.984   3.194
 3775SOL     OW13283   0.402   8.199   3.460
 3775SOL    HW113284   0.470   8.254   3.413
 3775SOL    HW213285   0.442   8.111   3.487
 3776SOL     OW13286   1.587   8.227   3.532
 3776SOL    HW113287   1.495   8.265   3.527
 3776SOL    HW213288   1.647   8.274   3.467
 3777SOL     OW13289   1.013   7.553   3.632
 3777SOL    HW113290   1.019   7.638   3.580
 3777SOL    HW213291   1.045   7.477   3.575
 3778SOL     OW13292   0.504   7.498   3.602
 3778SOL    HW113293   0.462   7.441   3.532
 3778SOL    HW213294   0.438   7.567   3.634
 3779SOL     OW13295   0.573   8.318   2.891
 3779SOL    HW113296   0.617   8.407   2.882
 3779SOL    HW213297   0.510   8.318   2.968
 3780SOL     OW13298   1.360   8.310   2.907
 3780SOL    HW113299   1.285   8.310   2.841
 3780SOL    HW213300   1.397   8.218   2.916
 3781SOL     OW13301   1.209   7.973   2.137
 3781SOL    HW113302   1.222   7.889   2.191
 3781SOL    HW213303   1.180   8.047   2.197
 3782SOL     OW13304   0.732   8.082   2.926
 3782SOL    HW113305   0.791   8.056   2.850
 3782SOL    HW213306   0.704   8.178   2.915
 3783SOL     OW13307   1.728   8.383   3.716
 3783SOL    HW113308   1.682   8.376   3.627
 3783SOL    HW213309   1.666   8.427   3.782
 3784SOL     OW13310   0.307   7.511   2.480
 3784SOL    HW113311   0.296   7.605   2.513
 3784SOL    HW213312   0.302   7.448   2.557
 3785SOL     OW13313   1.622   7.815   2.236
 3785SOL    HW113314   1.624   7.739   2.300
 3785SOL    HW213315   1.574   7.892   2.276
 3786SOL     OW13316   1.023   8.214   2.828
 3786SOL    HW113317   1.038   8.235   2.924
 3786SOL    HW213318   0.993   8.119   2.819
 3787SOL     OW13319   1.859   8.966   3.467
 3787SOL    HW113320   1.873   8.993   3.372
 3787SOL    HW213321   1.942   8.988   3.520
 3788SOL     OW13322   0.350   8.346   3.666
 3788SOL    HW113323   0.426   8.390   3.714
 3788SOL    HW213324   0.385   8.299   3.584
 3789SOL     OW13325   1.540   7.722   1.987
 3789SOL    HW113326   1.479   7.647   2.010
 3789SOL    HW213327   1.562   7.774   2.070
 3790SOL     OW13328   1.303   8.286   1.904
 3790SOL    HW113329   1.337   8.193   1.919
 3790SOL    HW213330   1.321   8.313   1.809
 3791SOL     OW13331   1.068   8.781   2.711
 3791SOL    HW113332   1.075   8.697   2.656
 3791SOL    HW213333   1.130   8.850   2.675
 3792SOL     OW13334   0.319   8.258   2.811
 3792SOL    HW113335   0.412   8.294   2.816
 3792SOL    HW213336   0.313   8.173   2.863
 3793SOL     OW13337   1.138   7.828   3.540
 3793SOL    HW113338   1.093   7.891   3.604
 3793SOL    HW213339   1.231   7.859   3.523
 3794SOL     OW13340   1.160   7.655   3.339
 3794SOL    HW113341   1.160   7.719   3.416
 3794SOL    HW213342   1.188   7.703   3.256
 3795SOL     OW13343   1.002   8.244   3.100
 3795SOL    HW113344   1.043   8.212   3.186
 3795SOL    HW213345   0.906   8.217   3.097
 3796SOL     OW13346   1.369   8.398   3.522
 3796SOL    HW113347   1.408   8.487   3.542
 3796SOL    HW213348   1.379   8.378   3.425
 3797SOL     OW13349   0.815   8.020   2.187
 3797SOL    HW113350   0.822   7.931   2.141
 3797SOL    HW213351   0.721   8.054   2.179
 3798SOL     OW13352   1.657   8.052   3.068
 3798SOL    HW113353   1.619   7.983   3.130
 3798SOL    HW213354   1.739   8.016   3.024
 3799SOL     OW13355   0.252   0.012   3.606
 3799SOL    HW113356   0.222   0.069   3.682
 3799SOL    HW213357   0.245  -0.085   3.632
 3800SOL     OW13358   0.671   7.912   3.131
 3800SOL    HW113359   0.637   7.823   3.101
 3800SOL    HW213360   0.697   7.966   3.051
 3801SOL     OW13361   0.473   7.948   2.053
 3801SOL    HW113362   0.534   8.028   2.057
 3801SOL    HW213363   0.378   7.979   2.060
 3802SOL     OW13364   1.347   8.507   3.096
 3802SOL    HW113365   1.371   8.444   3.022
 3802SOL    HW213366   1.257   8.547   3.078
 3803SOL     OW13367   1.302   8.303   2.171
 3803SOL    HW113368   1.216   8.272   2.213
 3803SOL    HW213369   1.298   8.289   2.072
 3804SOL     OW13370   0.903   7.534   1.995
 3804SOL    HW113371   0.954   7.535   1.909
 3804SOL    HW213372   0.959   7.492   2.066
 3805SOL     OW13373   1.726   7.583   2.385
 3805SOL    HW113374   1.799   7.566   2.318
 3805SOL    HW213375   1.695   7.496   2.423
 3806SOL     OW13376   1.280   8.375   2.534
 3806SOL    HW113377   1.340   8.294   2.536
 3806SOL    HW213378   1.320   8.444   2.474
 3807SOL     OW13379   0.830   8.721   3.284
 3807SOL    HW113380   0.825   8.754   3.379
 3807SOL    HW213381   0.744   8.740   3.238
 3808SOL     OW13382   1.841   7.623   2.825
 3808SOL    HW113383   1.880   7.538   2.789
 3808SOL    HW213384   1.743   7.625   2.806
 3809SOL     OW13385   0.263   7.774   2.582
 3809SOL    HW113386   0.184   7.825   2.548
 3809SOL    HW213387   0.254   7.759   2.680
 3810SOL     OW13388   0.822   8.450   3.234
 3810SOL    HW113389   0.862   8.449   3.142
 3810SOL    HW213390   0.832   8.542   3.274
 3811SOL     OW13391   0.916   8.358   2.153
 3811SOL    HW113392   0.979   8.396   2.085
 3811SOL    HW213393   0.956   8.275   2.192
 3812SOL     OW13394   0.372   8.736   3.352
 3812SOL    HW113395   0.359   8.829   3.318
 3812SOL    HW213396   0.288   8.684   3.339
 3813SOL     OW13397   1.614   8.740   3.151
 3813SOL    HW113398   1.674   8.743   3.231
 3813SOL    HW213399   1.539   8.804   3.164
 3814SOL     OW13400   1.039   8.546   2.558
 3814SOL    HW113401   0.969   8.499   2.612
 3814SOL    HW213402   1.098   8.478   2.515
 3815SOL     OW13403   1.014   7.684   2.833
 3815SOL    HW113404   1.006   7.648   2.740
 3815SOL    HW213405   1.012   7.608   2.898
 3816SOL     OW13406   1.709   7.833   3.243
 3816SOL    HW113407   1.782   7.902   3.247
 3816SOL    HW213408   1.737   7.758   3.184
 3817SOL     OW13409   0.255   8.796   2.152
 3817SOL    HW113410   0.159   8.797   2.125
 3817SOL    HW213411   0.267   8.849   2.236
 3818SOL     OW13412   0.672   7.651   3.351
 3818SOL    HW113413   0.762   7.635   3.311
 3818SOL    HW213414   0.680   7.656   3.450
 3819SOL     OW13415   1.440   8.304   3.260
 3819SOL    HW113416   1.383   8.356   3.197
 3819SOL    HW213417   1.536   8.316   3.236
 3820SOL     OW13418   1.183   8.783   1.981
 3820SOL    HW113419   1.084   8.772   1.983
 3820SOL    HW213420   1.217   8.798   2.074
 3821SOL     OW13421   0.613   8.290   3.293
 3821SOL    HW113422   0.669   8.371   3.276
 3821SOL    HW213423   0.672   8.210   3.296
 3822SOL     OW13424   0.716   8.013   3.570
 3822SOL    HW113425   0.735   8.078   3.644
 3822SOL    HW213426   0.776   7.933   3.579
 3823SOL     OW13427   1.450   8.668   3.495
 3823SOL    HW113428   1.441   8.658   3.594
 3823SOL    HW213429   1.546   8.661   3.469
 3824SOL     OW13430   1.674   8.331   3.116
 3824SOL    HW113431   1.647   8.242   3.079
 3824SOL    HW213432   1.675   8.399   3.043
 3825SOL     OW13433   1.225   7.773   2.311
 3825SOL    HW113434   1.290   7.699   2.300
 3825SOL    HW213435   1.245   7.823   2.395
 3826SOL     OW13436   0.594   8.193   2.514
 3826SOL    HW113437   0.644   8.278   2.495
 3826SOL    HW213438   0.506   8.195   2.466
 3827SOL     OW13439   1.777   7.790   3.504
 3827SOL    HW113440   1.760   7.821   3.410
 3827SOL    HW213441   1.693   7.753   3.542
 3828SOL     OW13442   1.730   8.382   3.379
 3828SOL    HW113443   1.768   8.473   3.394
 3828SOL    HW213444   1.722   8.365   3.280
 3829SOL     OW13445   0.859   8.822   1.878
 3829SOL    HW113446   0.813   8.837   1.966
 3829SOL    HW213447   0.903   8.907   1.848
 3830SOL     OW13448   0.859   8.404   2.723
 3830SOL    HW113449   0.913   8.335   2.771
 3830SOL    HW213450   0.827   8.473   2.789
 3831SOL     OW13451   1.083   8.432   1.949
 3831SOL    HW113452   1.060   8.485   1.867
 3831SOL    HW213453   1.164   8.376   1.930
 3832SOL     OW13454   0.672   8.839   3.486
 3832SOL    HW113455   0.594   8.789   3.524
 3832SOL    HW213456   0.669   8.934   3.517
 3833SOL     OW13457   1.824   7.640   3.089
 3833SOL    HW113458   1.820   7.550   3.133
 3833SOL    HW213459   1.827   7.629   2.990
 3834SOL     OW13460   0.428   7.872   2.382
 3834SOL    HW113461   0.458   7.800   2.320
 3834SOL    HW213462   0.389   7.832   2.465
 3835SOL     OW13463   1.705   8.935   2.966
 3835SOL    HW113464   1.612   8.910   2.939
 3835SOL    HW213465   1.731   8.885   3.048
 3836SOL     OW13466   1.424   7.662   2.974
 3836SOL    HW113467   1.476   7.597   3.029
 3836SOL    HW213468   1.375   7.725   3.035
 3837SOL     OW13469   1.001   7.482   3.016
 3837SOL    HW113470   0.938   7.410   2.985
 3837SOL    HW213471   1.094   7.446   3.016
 3838SOL     OW13472   0.770   8.778   2.163
 3838SOL    HW113473   0.724   8.691   2.180
 3838SOL    HW213474   0.861   8.775   2.204
 3839SOL     OW13475   0.618   0.015   3.146
 3839SOL    HW113476   0.613   0.097   3.203
 3839SOL    HW213477   0.707   0.012   3.101
 3840SOL     OW13478   1.352   7.500   2.030
 3840SOL    HW113479   1.387   7.459   1.946
 3840SOL    HW213480   1.262   7.462   2.050
 3841SOL     OW13481   1.300   7.901   2.553
 3841SOL    HW113482   1.241   7.981   2.557
 3841SOL    HW213483   1.315   7.866   2.646
 3842SOL     OW13484   1.593   7.669   2.744
 3842SOL    HW113485   1.509   7.668   2.798
 3842SOL    HW213486   1.595   7.752   2.688
 3843SOL     OW13487   0.019   7.816   4.371
 3843SOL    HW113488  -0.063   7.859   4.410
 3843SOL    HW213489  -0.009   7.743   4.308
 3844SOL     OW13490   0.569   8.723   4.889
 3844SOL    HW113491   0.476   8.716   4.852
 3844SOL    HW213492   0.580   8.812   4.933
 3845SOL     OW13493   1.555   8.959   4.427
 3845SOL    HW113494   1.498   8.943   4.508
 3845SOL    HW213495   1.496   8.969   4.347
 3846SOL     OW13496   1.743   8.066   4.580
 3846SOL    HW113497   1.776   8.160   4.580
 3846SOL    HW213498   1.794   8.012   4.646
 3847SOL     OW13499   1.135   8.151   4.441
 3847SOL    HW113500   1.192   8.229   4.416
 3847SOL    HW213501   1.075   8.177   4.517
 3848SOL     OW13502   1.755   8.055   3.955
 3848SOL    HW113503   1.743   8.042   3.856
 3848SOL    HW213504   1.725   7.974   4.004
 3849SOL     OW13505   0.768   8.592   4.747
 3849SOL    HW113506   0.690   8.609   4.807
 3849SOL    HW213507   0.802   8.679   4.711
 3850SOL     OW13508   0.850   8.246   5.547
 3850SOL    HW113509   0.846   8.322   5.612
 3850SOL    HW213510   0.872   8.282   5.456
 3851SOL     OW13511   0.685   8.460   4.389
 3851SOL    HW113512   0.754   8.444   4.459
 3851SOL    HW213513   0.612   8.517   4.427
 3852SOL     OW13514   0.686   8.609   5.527
 3852SOL    HW113515   0.746   8.688   5.541
 3852SOL    HW213516   0.600   8.640   5.486
 3853SOL     OW13517   0.335   8.883   4.785
 3853SOL    HW113518   0.257   8.852   4.732
 3853SOL    HW213519   0.393   8.941   4.728
 3854SOL     OW13520   1.460   8.953   5.063
 3854SOL    HW113521   1.484   9.047   5.089
 3854SOL    HW213522   1.444   8.899   5.145
 3855SOL     OW13523   0.438   7.840   5.223
 3855SOL    HW113524   0.520   7.784   5.232
 3855SOL    HW213525   0.357   7.782   5.227
 3856SOL     OW13526   1.603   7.895   4.461
 3856SOL    HW113527   1.529   7.941   4.411
 3856SOL    HW213528   1.654   7.963   4.514
 3857SOL     OW13529   1.127   8.789   5.414
 3857SOL    HW113530   1.174   8.789   5.502
 3857SOL    HW213531   1.079   8.702   5.403
 3858SOL     OW13532   0.606   8.412   3.847
 3858SOL    HW113533   0.613   8.496   3.793
 3858SOL    HW213534   0.652   8.425   3.935
 3859SOL     OW13535   1.594   7.562   5.204
 3859SOL    HW113536   1.576   7.629   5.132
 3859SOL    HW213537   1.591   7.608   5.293
 3860SOL     OW13538   1.689   8.370   4.336
 3860SOL    HW113539   1.784   8.341   4.344
 3860SOL    HW213540   1.681   8.435   4.261
 3861SOL     OW13541   1.641   8.556   4.156
 3861SOL    HW113542   1.727   8.558   4.104
 3861SOL    HW213543   1.655   8.603   4.244
 3862SOL     OW13544   0.613   8.813   4.450
 3862SOL    HW113545   0.564   8.726   4.459
 3862SOL    HW213546   0.590   8.856   4.363
 3863SOL     OW13547   1.293   8.676   5.147
 3863SOL    HW113548   1.330   8.603   5.089
 3863SOL    HW213549   1.345   8.681   5.232
 3864SOL     OW13550   0.809   7.452   4.226
 3864SOL    HW113551   0.849   7.543   4.217
 3864SOL    HW213552   0.709   7.460   4.232
 3865SOL     OW13553   1.525   8.447   3.914
 3865SOL    HW113554   1.462   8.371   3.927
 3865SOL    HW213555   1.573   8.465   4.000
 3866SOL     OW13556   0.317   7.699   5.525
 3866SOL    HW113557   0.388   7.770   5.531
 3866SOL    HW213558   0.229   7.738   5.553
 3867SOL     OW13559   1.466   8.865   4.677
 3867SOL    HW113560   1.407   8.871   4.757
 3867SOL    HW213561   1.451   8.777   4.631
 3868SOL     OW13562   0.598   8.177   3.994
 3868SOL    HW113563   0.622   8.246   3.926
 3868SOL    HW213564   0.520   8.210   4.048
 3869SOL     OW13565   1.281   7.793   4.668
 3869SOL    HW113566   1.195   7.743   4.655
 3869SOL    HW213567   1.343   7.739   4.724
 3870SOL     OW13568   0.807   8.053   5.189
 3870SOL    HW113569   0.760   8.050   5.278
 3870SOL    HW213570   0.756   7.998   5.123
 3871SOL     OW13571   1.394   7.917   5.398
 3871SOL    HW113572   1.374   7.960   5.486
 3871SOL    HW213573   1.472   7.855   5.407
 3872SOL     OW13574   0.973   8.338   5.296
 3872SOL    HW113575   1.019   8.254   5.267
 3872SOL    HW213576   0.917   8.372   5.221
 3873SOL     OW13577   0.991   7.858   4.966
 3873SOL    HW113578   0.914   7.892   5.020
 3873SOL    HW213579   0.957   7.807   4.887
 3874SOL     OW13580   1.041   8.149   4.153
 3874SOL    HW113581   1.067   8.145   4.249
 3874SOL    HW213582   0.956   8.098   4.139
 3875SOL     OW13583   0.865   7.796   3.919
 3875SOL    HW113584   0.924   7.859   3.870
 3875SOL    HW213585   0.884   7.702   3.890
 3876SOL     OW13586   1.719   8.033   5.555
 3876SOL    HW113587   1.693   8.122   5.519
 3876SOL    HW213588   1.717   7.965   5.482
 3877SOL     OW13589   1.362   8.592   4.269
 3877SOL    HW113590   1.445   8.563   4.221
 3877SOL    HW213591   1.313   8.659   4.213
 3878SOL     OW13592   0.550   7.644   4.609
 3878SOL    HW113593   0.545   7.639   4.709
 3878SOL    HW213594   0.552   7.740   4.580
 3879SOL     OW13595   1.008   8.904   4.201
 3879SOL    HW113596   0.962   8.976   4.149
 3879SOL    HW213597   1.004   8.924   4.299
 3880SOL     OW13598   1.795   8.514   4.597
 3880SOL    HW113599   1.733   8.499   4.521
 3880SOL    HW213600   1.743   8.525   4.682
 3881SOL     OW13601   1.227   8.998   5.230
 3881SOL    HW113602   1.233   8.921   5.294
 3881SOL    HW213603   1.175   8.972   5.150
 3882SOL     OW13604   0.321   8.391   3.966
 3882SOL    HW113605   0.403   8.430   3.924
 3882SOL    HW213606   0.294   8.309   3.917
 3883SOL     OW13607   1.458   8.183   4.452
 3883SOL    HW113608   1.453   8.118   4.527
 3883SOL    HW213609   1.538   8.242   4.465
 3884SOL     OW13610   0.461   8.714   5.451
 3884SOL    HW113611   0.411   8.715   5.365
 3884SOL    HW213612   0.398   8.696   5.527
 3885SOL     OW13613   1.111   0.224   3.961
 3885SOL    HW113614   1.051   0.162   4.011
 3885SOL    HW213615   1.142   0.180   3.876
 3886SOL     OW13616   1.632   8.825   3.805
 3886SOL    HW113617   1.600   8.919   3.795
 3886SOL    HW213618   1.556   8.762   3.793
 3887SOL     OW13619   1.400   7.555   4.150
 3887SOL    HW113620   1.376   7.518   4.060
 3887SOL    HW213621   1.499   7.571   4.154
 3888SOL     OW13622   0.382   8.148   4.204
 3888SOL    HW113623   0.427   8.058   4.201
 3888SOL    HW213624   0.288   8.137   4.237
 3889SOL     OW13625   1.547   7.670   5.453
 3889SOL    HW113626   1.542   7.707   5.545
 3889SOL    HW213627   1.475   7.601   5.441
 3890SOL     OW13628   0.614   7.570   3.841
 3890SOL    HW113629   0.712   7.548   3.848
 3890SOL    HW213630   0.583   7.553   3.748
 3891SOL     OW13631   0.781   7.712   5.473
 3891SOL    HW113632   0.848   7.651   5.516
 3891SOL    HW213633   0.708   7.731   5.538
 3892SOL     OW13634   1.351   8.038   5.157
 3892SOL    HW113635   1.379   7.995   5.242
 3892SOL    HW213636   1.376   8.134   5.158
 3893SOL     OW13637   0.803   8.850   4.648
 3893SOL    HW113638   0.893   8.864   4.606
 3893SOL    HW213639   0.732   8.852   4.577
 3894SOL     OW13640   0.922   7.951   4.623
 3894SOL    HW113641   0.897   7.942   4.527
 3894SOL    HW213642   0.970   7.869   4.654
 3895SOL     OW13643   0.539   7.512   4.236
 3895SOL    HW113644   0.458   7.513   4.294
 3895SOL    HW213645   0.542   7.595   4.181
 3896SOL     OW13646   1.434   8.636   3.765
 3896SOL    HW113647   1.466   8.560   3.822
 3896SOL    HW213648   1.342   8.663   3.795
 3897SOL     OW13649   0.297   7.483   3.895
 3897SOL    HW113650   0.346   7.567   3.874
 3897SOL    HW213651   0.359   7.418   3.940
 3898SOL     OW13652   0.935   7.684   4.204
 3898SOL    HW113653   0.887   7.725   4.126
 3898SOL    HW213654   1.034   7.682   4.185
 3899SOL     OW13655   1.076   8.131   5.188
 3899SOL    HW113656   0.996   8.070   5.191
 3899SOL    HW213657   1.157   8.078   5.164
 3900SOL     OW13658   1.227   0.018   4.517
 3900SOL    HW113659   1.248   0.092   4.452
 3900SOL    HW213660   1.295   0.018   4.590
 3901SOL     OW13661   0.459   8.600   4.465
 3901SOL    HW113662   0.388   8.573   4.530
 3901SOL    HW213663   0.433   8.572   4.372
 3902SOL     OW13664   1.032   7.997   3.740
 3902SOL    HW113665   0.991   8.079   3.701
 3902SOL    HW213666   1.096   8.023   3.813
 3903SOL     OW13667   0.561   7.670   4.871
 3903SOL    HW113668   0.599   7.586   4.908
 3903SOL    HW213669   0.473   7.689   4.915
 3904SOL     OW13670   0.866   7.902   4.366
 3904SOL    HW113671   0.834   7.974   4.304
 3904SOL    HW213672   0.890   7.821   4.313
 3905SOL     OW13673   1.017   7.487   4.477
 3905SOL    HW113674   0.945   7.492   4.408
 3905SOL    HW213675   0.993   7.418   4.546
 3906SOL     OW13676   1.429   8.621   4.591
 3906SOL    HW113677   1.374   8.537   4.584
 3906SOL    HW213678   1.455   8.650   4.499
 3907SOL     OW13679   1.466   8.038   4.716
 3907SOL    HW113680   1.436   7.943   4.723
 3907SOL    HW213681   1.539   8.054   4.782
 3908SOL     OW13682   1.857   8.281   4.101
 3908SOL    HW113683   1.899   8.217   4.165
 3908SOL    HW213684   1.819   8.230   4.023
 3909SOL     OW13685   0.488   8.833   3.898
 3909SOL    HW113686   0.401   8.818   3.945
 3909SOL    HW213687   0.471   8.859   3.803
 3910SOL     OW13688   1.664   8.728   4.381
 3910SOL    HW113689   1.763   8.736   4.395
 3910SOL    HW213690   1.619   8.812   4.412
 3911SOL     OW13691   1.390   8.023   3.802
 3911SOL    HW113692   1.336   8.002   3.883
 3911SOL    HW213693   1.481   7.982   3.811
 3912SOL     OW13694   0.527   7.704   4.052
 3912SOL    HW113695   0.554   7.645   3.977
 3912SOL    HW213696   0.527   7.799   4.021
 3913SOL     OW13697   1.754   8.671   5.312
 3913SOL    HW113698   1.845   8.632   5.299
 3913SOL    HW213699   1.762   8.767   5.336
 3914SOL     OW13700   1.064   8.795   5.064
 3914SOL    HW113701   0.984   8.772   5.119
 3914SOL    HW213702   1.147   8.769   5.113
 3915SOL     OW13703   1.111   8.643   4.824
 3915SOL    HW113704   1.071   8.687   4.905
 3915SOL    HW213705   1.070   8.680   4.741
 3916SOL     OW13706   1.638   8.547   4.803
 3916SOL    HW113707   1.643   8.628   4.862
 3916SOL    HW213708   1.552   8.549   4.752
 3917SOL     OW13709   0.915   7.537   5.126
 3917SOL    HW113710   0.940   7.517   5.031
 3917SOL    HW213711   0.987   7.593   5.168
 3918SOL     OW13712   0.980   8.564   5.443
 3918SOL    HW113713   0.881   8.570   5.453
 3918SOL    HW213714   1.003   8.484   5.387
 3919SOL     OW13715   0.705   8.498   4.092
 3919SOL    HW113716   0.691   8.505   4.191
 3919SOL    HW213717   0.789   8.447   4.074
 3920SOL     OW13718   0.410   8.261   4.975
 3920SOL    HW113719   0.496   8.273   5.025
 3920SOL    HW213720   0.368   8.174   5.002
 3921SOL     OW13721   1.274   7.834   4.986
 3921SOL    HW113722   1.295   7.908   5.050
 3921SOL    HW213723   1.185   7.851   4.943
 3922SOL     OW13724   0.367   8.548   4.225
 3922SOL    HW113725   0.360   8.631   4.169
 3922SOL    HW213726   0.371   8.468   4.165
 3923SOL     OW13727   0.566   7.985   4.589
 3923SOL    HW113728   0.578   8.051   4.515
 3923SOL    HW213729   0.612   8.019   4.672
 3924SOL     OW13730   1.252   8.796   4.112
 3924SOL    HW113731   1.302   8.873   4.152
 3924SOL    HW213732   1.157   8.798   4.144
 3925SOL     OW13733   1.272   8.893   4.866
 3925SOL    HW113734   1.319   8.906   4.953
 3925SOL    HW213735   1.206   8.819   4.875
 3926SOL     OW13736   1.582   8.087   4.196
 3926SOL    HW113737   1.551   8.148   4.269
 3926SOL    HW213738   1.632   8.139   4.127
 3927SOL     OW13739   0.354   8.958   5.053
 3927SOL    HW113740   0.333   8.914   4.966
 3927SOL    HW213741   0.451   8.984   5.056
 3928SOL     OW13742   0.402   8.199   5.322
 3928SOL    HW113743   0.470   8.254   5.275
 3928SOL    HW213744   0.442   8.111   5.349
 3929SOL     OW13745   1.587   8.227   5.394
 3929SOL    HW113746   1.495   8.265   5.389
 3929SOL    HW213747   1.647   8.274   5.329
 3930SOL     OW13748   1.013   7.553   5.494
 3930SOL    HW113749   1.019   7.638   5.442
 3930SOL    HW213750   1.045   7.477   5.437
 3931SOL     OW13751   0.504   7.498   5.464
 3931SOL    HW113752   0.462   7.441   5.394
 3931SOL    HW213753   0.438   7.567   5.496
 3932SOL     OW13754   0.573   8.318   4.753
 3932SOL    HW113755   0.617   8.407   4.744
 3932SOL    HW213756   0.510   8.318   4.830
 3933SOL     OW13757   1.360   8.310   4.769
 3933SOL    HW113758   1.285   8.310   4.703
 3933SOL    HW213759   1.397   8.218   4.778
 3934SOL     OW13760   1.209   7.973   3.999
 3934SOL    HW113761   1.222   7.889   4.053
 3934SOL    HW213762   1.180   8.047   4.059
 3935SOL     OW13763   0.732   8.082   4.788
 3935SOL    HW113764   0.791   8.056   4.712
 3935SOL    HW213765   0.704   8.178   4.777
 3936SOL     OW13766   1.728   8.383   5.578
 3936SOL    HW113767   1.682   8.376   5.489
 3936SOL    HW213768   1.666   8.427   5.644
 3937SOL     OW13769   0.307   7.511   4.342
 3937SOL    HW113770   0.296   7.605   4.375
 3937SOL    HW213771   0.302   7.448   4.419
 3938SOL     OW13772   1.622   7.815   4.098
 3938SOL    HW113773   1.624   7.739   4.162
 3938SOL    HW213774   1.574   7.892   4.138
 3939SOL     OW13775   1.023   8.214   4.690
 3939SOL    HW113776   1.038   8.235   4.786
 3939SOL    HW213777   0.993   8.119   4.681
 3940SOL     OW13778   1.859   8.966   5.329
 3940SOL    HW113779   1.873   8.993   5.234
 3940SOL    HW213780   1.942   8.988   5.382
 3941SOL     OW13781   0.350   8.346   5.528
 3941SOL    HW113782   0.426   8.390   5.576
 3941SOL    HW213783   0.385   8.299   5.446
 3942SOL     OW13784   1.540   7.722   3.849
 3942SOL    HW113785   1.479   7.647   3.872
 3942SOL    HW213786   1.562   7.774   3.932
 3943SOL     OW13787   1.303   8.286   3.766
 3943SOL    HW113788   1.337   8.193   3.781
 3943SOL    HW213789   1.321   8.313   3.671
 3944SOL     OW13790   1.068   8.781   4.573
 3944SOL    HW113791   1.075   8.697   4.518
 3944SOL    HW213792   1.130   8.850   4.537
 3945SOL     OW13793   0.319   8.258   4.673
 3945SOL    HW113794   0.412   8.294   4.678
 3945SOL    HW213795   0.313   8.173   4.725
 3946SOL     OW13796   1.138   7.828   5.402
 3946SOL    HW113797   1.093   7.891   5.466
 3946SOL    HW213798   1.231   7.859   5.385
 3947SOL     OW13799   1.160   7.655   5.201
 3947SOL    HW113800   1.160   7.719   5.278
 3947SOL    HW213801   1.188   7.703   5.118
 3948SOL     OW13802   1.002   8.244   4.962
 3948SOL    HW113803   1.043   8.212   5.048
 3948SOL    HW213804   0.906   8.217   4.959
 3949SOL     OW13805   1.369   8.398   5.384
 3949SOL    HW113806   1.408   8.487   5.404
 3949SOL    HW213807   1.379   8.378   5.287
 3950SOL     OW13808   0.815   8.020   4.049
 3950SOL    HW113809   0.822   7.931   4.003
 3950SOL    HW213810   0.721   8.054   4.041
 3951SOL     OW13811   1.657   8.052   4.930
 3951SOL    HW113812   1.619   7.983   4.992
 3951SOL    HW213813   1.739   8.016   4.886
 3952SOL     OW13814   0.252   0.012   5.468
 3952SOL    HW113815   0.222   0.069   5.544
 3952SOL    HW213816   0.245  -0.085   5.494
 3953SOL     OW13817   0.671   7.912   4.993
 3953SOL    HW113818   0.637   7.823   4.963
 3953SOL    HW213819   0.697   7.966   4.913
 3954SOL     OW13820   0.473   7.948   3.915
 3954SOL    HW113821   0.534   8.028   3.919
 3954SOL    HW213822   0.378   7.979   3.922
 3955SOL     OW13823   1.347   8.507   4.958
 3955SOL    HW113824   1.371   8.444   4.884
 3955SOL    HW213825   1.257   8.547   4.940
 3956SOL     OW13826   1.302   8.303   4.033
 3956SOL    HW113827   1.216   8.272   4.075
 3956SOL    HW213828   1.298   8.289   3.934
 3957SOL     OW13829   0.903   7.534   3.857
 3957SOL    HW113830   0.954   7.535   3.771
 3957SOL    HW213831   0.959   7.492   3.928
 3958SOL     OW13832   1.726   7.583   4.247
 3958SOL    HW113833   1.799   7.566   4.180
 3958SOL    HW213834   1.695   7.496   4.285
 3959SOL     OW13835   1.280   8.375   4.396
 3959SOL    HW113836   1.340   8.294   4.398
 3959SOL    HW213837   1.320   8.444   4.336
 3960SOL     OW13838   0.830   8.721   5.146
 3960SOL    HW113839   0.825   8.754   5.241
 3960SOL    HW213840   0.744   8.740   5.100
 3961SOL     OW13841   1.841   7.623   4.687
 3961SOL    HW113842   1.880   7.538   4.651
 3961SOL    HW213843   1.743   7.625   4.668
 3962SOL     OW13844   0.263   7.774   4.444
 3962SOL    HW113845   0.184   7.825   4.410
 3962SOL    HW213846   0.254   7.759   4.542
 3963SOL     OW13847   0.822   8.450   5.096
 3963SOL    HW113848   0.862   8.449   5.004
 3963SOL    HW213849   0.832   8.542   5.136
 3964SOL     OW13850   0.916   8.358   4.015
 3964SOL    HW113851   0.979   8.396   3.947
 3964SOL    HW213852   0.956   8.275   4.054
 3965SOL     OW13853   0.372   8.736   5.214
 3965SOL    HW113854   0.359   8.829   5.180
 3965SOL    HW213855   0.288   8.684   5.201
 3966SOL     OW13856   1.614   8.740   5.013
 3966SOL    HW113857   1.674   8.743   5.093
 3966SOL    HW213858   1.539   8.804   5.026
 3967SOL     OW13859   1.039   8.546   4.420
 3967SOL    HW113860   0.969   8.499   4.474
 3967SOL    HW213861   1.098   8.478   4.377
 3968SOL     OW13862   1.014   7.684   4.695
 3968SOL    HW113863   1.006   7.648   4.602
 3968SOL    HW213864   1.012   7.608   4.760
 3969SOL     OW13865   1.709   7.833   5.105
 3969SOL    HW113866   1.782   7.902   5.109
 3969SOL    HW213867   1.737   7.758   5.046
 3970SOL     OW13868   0.255   8.796   4.014
 3970SOL    HW113869   0.159   8.797   3.987
 3970SOL    HW213870   0.267   8.849   4.098
 3971SOL     OW13871   0.672   7.651   5.213
 3971SOL    HW113872   0.762   7.635   5.173
 3971SOL    HW213873   0.680   7.656   5.312
 3972SOL     OW13874   1.440   8.304   5.122
 3972SOL    HW113875   1.383   8.356   5.059
 3972SOL    HW213876   1.536   8.316   5.098
 3973SOL     OW13877   1.183   8.783   3.843
 3973SOL    HW113878   1.084   8.772   3.845
 3973SOL    HW213879   1.217   8.798   3.936
 3974SOL     OW13880   0.613   8.290   5.155
 3974SOL    HW113881   0.669   8.371   5.138
 3974SOL    HW213882   0.672   8.210   5.158
 3975SOL     OW13883   0.716   8.013   5.432
 3975SOL    HW113884   0.735   8.078   5.506
 3975SOL    HW213885   0.776   7.933   5.441
 3976SOL     OW13886   1.450   8.668   5.357
 3976SOL    HW113887   1.441   8.658   5.456
 3976SOL    HW213888   1.546   8.661   5.331
 3977SOL     OW13889   1.674   8.331   4.978
 3977SOL    HW113890   1.647   8.242   4.941
 3977SOL    HW213891   1.675   8.399   4.905
 3978SOL     OW13892   1.225   7.773   4.173
 3978SOL    HW113893   1.290   7.699   4.162
 3978SOL    HW213894   1.245   7.823   4.257
 3979SOL     OW13895   0.594   8.193   4.376
 3979SOL    HW113896   0.644   8.278   4.357
 3979SOL    HW213897   0.506   8.195   4.328
 3980SOL     OW13898   1.777   7.790   5.366
 3980SOL    HW113899   1.760   7.821   5.272
 3980SOL    HW213900   1.693   7.753   5.404
 3981SOL     OW13901   1.730   8.382   5.241
 3981SOL    HW113902   1.768   8.473   5.256
 3981SOL    HW213903   1.722   8.365   5.142
 3982SOL     OW13904   0.859   8.822   3.740
 3982SOL    HW113905   0.813   8.837   3.828
 3982SOL    HW213906   0.903   8.907   3.710
 3983SOL     OW13907   0.859   8.404   4.585
 3983SOL    HW113908   0.913   8.335   4.633
 3983SOL    HW213909   0.827   8.473   4.651
 3984SOL     OW13910   1.083   8.432   3.811
 3984SOL    HW113911   1.060   8.485   3.729
 3984SOL    HW213912   1.164   8.376   3.792
 3985SOL     OW13913   0.672   8.839   5.348
 3985SOL    HW113914   0.594   8.789   5.386
 3985SOL    HW213915   0.669   8.934   5.379
 3986SOL     OW13916   1.824   7.640   4.951
 3986SOL    HW113917   1.820   7.550   4.995
 3986SOL    HW213918   1.827   7.629   4.852
 3987SOL     OW13919   0.428   7.872   4.244
 3987SOL    HW113920   0.458   7.800   4.182
 3987SOL    HW213921   0.389   7.832   4.327
 3988SOL     OW13922   1.705   8.935   4.828
 3988SOL    HW113923   1.612   8.910   4.801
 3988SOL    HW213924   1.731   8.885   4.910
 3989SOL     OW13925   1.424   7.662   4.836
 3989SOL    HW113926   1.476   7.597   4.891
 3989SOL    HW213927   1.375   7.725   4.897
 3990SOL     OW13928   1.001   7.482   4.878
 3990SOL    HW113929   0.938   7.410   4.847
 3990SOL    HW213930   1.094   7.446   4.878
 3991SOL     OW13931   0.770   8.778   4.025
 3991SOL    HW113932   0.724   8.691   4.042
 3991SOL    HW213933   0.861   8.775   4.066
 3992SOL     OW13934   0.618   0.015   5.008
 3992SOL    HW113935   0.613   0.097   5.065
 3992SOL    HW213936   0.707   0.012   4.963
 3993SOL     OW13937   1.352   7.500   3.892
 3993SOL    HW113938   1.387   7.459   3.808
 3993SOL    HW213939   1.262   7.462   3.912
 3994SOL     OW13940   1.300   7.901   4.415
 3994SOL    HW113941   1.241   7.981   4.419
 3994SOL    HW213942   1.315   7.866   4.508
 3995SOL     OW13943   1.593   7.669   4.606
 3995SOL    HW113944   1.509   7.668   4.660
 3995SOL    HW213945   1.595   7.752   4.550
 3996SOL     OW13946   0.019   7.816   6.233
 3996SOL    HW113947  -0.063   7.859   6.272
 3996SOL    HW213948  -0.009   7.743   6.170
 3997SOL     OW13949   0.569   8.723   6.751
 3997SOL    HW113950   0.476   8.716   6.714
 3997SOL    HW213951   0.580   8.812   6.795
 3998SOL     OW13952   1.555   8.959   6.289
 3998SOL    HW113953   1.498   8.943   6.370
 3998SOL    HW213954   1.496   8.969   6.209
 3999SOL     OW13955   1.743   8.066   6.442
 3999SOL    HW113956   1.776   8.160   6.442
 3999SOL    HW213957   1.794   8.012   6.508
 4000SOL     OW13958   1.135   8.151   6.303
 4000SOL    HW113959   1.192   8.229   6.278
 4000SOL    HW213960   1.075   8.177   6.379
 4001SOL     OW13961   1.755   8.055   5.817
 4001SOL    HW113962   1.743   8.042   5.718
 4001SOL    HW213963   1.725   7.974   5.866
 4002SOL     OW13964   0.768   8.592   6.609
 4002SOL    HW113965   0.690   8.609   6.669
 4002SOL    HW213966   0.802   8.679   6.573
 4003SOL     OW13967   0.850   8.246   7.409
 4003SOL    HW113968   0.846   8.322   7.474
 4003SOL    HW213969   0.872   8.282   7.318
 4004SOL     OW13970   0.685   8.460   6.251
 4004SOL    HW113971   0.754   8.444   6.321
 4004SOL    HW213972   0.612   8.517   6.289
 4005SOL     OW13973   0.686   8.609   7.389
 4005SOL    HW113974   0.746   8.688   7.403
 4005SOL    HW213975   0.600   8.640   7.348
 4006SOL     OW13976   0.335   8.883   6.647
 4006SOL    HW113977   0.257   8.852   6.594
 4006SOL    HW213978   0.393   8.941   6.590
 4007SOL     OW13979   1.460   8.953   6.925
 4007SOL    HW113980   1.484   9.047   6.951
 4007SOL    HW213981   1.444   8.899   7.007
 4008SOL     OW13982   0.438   7.840   7.085
 4008SOL    HW113983   0.520   7.784   7.094
 4008SOL    HW213984   0.357   7.782   7.089
 4009SOL     OW13985   1.603   7.895   6.323
 4009SOL    HW113986   1.529   7.941   6.273
 4009SOL    HW213987   1.654   7.963   6.376
 4010SOL     OW13988   1.127   8.789   7.276
 4010SOL    HW113989   1.174   8.789   7.364
 4010SOL    HW213990   1.079   8.702   7.265
 4011SOL     OW13991   0.606   8.412   5.709
 4011SOL    HW113992   0.613   8.496   5.655
 4011SOL    HW213993   0.652   8.425   5.797
 4012SOL     OW13994   1.594   7.562   7.066
 4012SOL    HW113995   1.576   7.629   6.994
 4012SOL    HW213996   1.591   7.608   7.155
 4013SOL     OW13997   1.689   8.370   6.198
 4013SOL    HW113998   1.784   8.341   6.206
 4013SOL    HW213999   1.681   8.435   6.123
 4014SOL     OW14000   1.641   8.556   6.018
 4014SOL    HW114001   1.727   8.558   5.966
 4014SOL    HW214002   1.655   8.603   6.106
 4015SOL     OW14003   0.613   8.813   6.312
 4015SOL    HW114004   0.564   8.726   6.321
 4015SOL    HW214005   0.590   8.856   6.225
 4016SOL     OW14006   1.293   8.676   7.009
 4016SOL    HW114007   1.330   8.603   6.951
 4016SOL    HW214008   1.345   8.681   7.094
 4017SOL     OW14009   0.809   7.452   6.088
 4017SOL    HW114010   0.849   7.543   6.079
 4017SOL    HW214011   0.709   7.460   6.094
 4018SOL     OW14012   1.525   8.447   5.776
 4018SOL    HW114013   1.462   8.371   5.789
 4018SOL    HW214014   1.573   8.465   5.862
 4019SOL     OW14015   0.317   7.699   7.387
 4019SOL    HW114016   0.388   7.770   7.393
 4019SOL    HW214017   0.229   7.738   7.415
 4020SOL     OW14018   1.466   8.865   6.539
 4020SOL    HW114019   1.407   8.871   6.619
 4020SOL    HW214020   1.451   8.777   6.493
 4021SOL     OW14021   0.598   8.177   5.856
 4021SOL    HW114022   0.622   8.246   5.788
 4021SOL    HW214023   0.520   8.210   5.910
 4022SOL     OW14024   1.281   7.793   6.530
 4022SOL    HW114025   1.195   7.743   6.517
 4022SOL    HW214026   1.343   7.739   6.586
 4023SOL     OW14027   0.807   8.053   7.051
 4023SOL    HW114028   0.760   8.050   7.140
 4023SOL    HW214029   0.756   7.998   6.985
 4024SOL     OW14030   1.394   7.917   7.260
 4024SOL    HW114031   1.374   7.960   7.348
 4024SOL    HW214032   1.472   7.855   7.269
 4025SOL     OW14033   0.973   8.338   7.158
 4025SOL    HW114034   1.019   8.254   7.129
 4025SOL    HW214035   0.917   8.372   7.083
 4026SOL     OW14036   0.991   7.858   6.828
 4026SOL    HW114037   0.914   7.892   6.882
 4026SOL    HW214038   0.957   7.807   6.749
 4027SOL     OW14039   1.041   8.149   6.015
 4027SOL    HW114040   1.067   8.145   6.111
 4027SOL    HW214041   0.956   8.098   6.001
 4028SOL     OW14042   0.865   7.796   5.781
 4028SOL    HW114043   0.924   7.859   5.732
 4028SOL    HW214044   0.884   7.702   5.752
 4029SOL     OW14045   1.719   8.033   7.417
 4029SOL    HW114046   1.693   8.122   7.381
 4029SOL    HW214047   1.717   7.965   7.344
 4030SOL     OW14048   1.362   8.592   6.131
 4030SOL    HW114049   1.445   8.563   6.083
 4030SOL    HW214050   1.313   8.659   6.075
 4031SOL     OW14051   1.008   8.904   6.063
 4031SOL    HW114052   0.962   8.976   6.011
 4031SOL    HW214053   1.004   8.924   6.161
 4032SOL     OW14054   1.795   8.514   6.459
 4032SOL    HW114055   1.733   8.499   6.383
 4032SOL    HW214056   1.743   8.525   6.544
 4033SOL     OW14057   1.227   8.998   7.092
 4033SOL    HW114058   1.233   8.921   7.156
 4033SOL    HW214059   1.175   8.972   7.012
 4034SOL     OW14060   0.321   8.391   5.828
 4034SOL    HW114061   0.403   8.430   5.786
 4034SOL    HW214062   0.294   8.309   5.779
 4035SOL     OW14063   1.458   8.183   6.314
 4035SOL    HW114064   1.453   8.118   6.389
 4035SOL    HW214065   1.538   8.242   6.327
 4036SOL     OW14066   0.461   8.714   7.313
 4036SOL    HW114067   0.411   8.715   7.227
 4036SOL    HW214068   0.398   8.696   7.389
 4037SOL     OW14069   1.111   0.224   5.823
 4037SOL    HW114070   1.051   0.162   5.873
 4037SOL    HW214071   1.142   0.180   5.738
 4038SOL     OW14072   1.632   8.825   5.667
 4038SOL    HW114073   1.600   8.919   5.657
 4038SOL    HW214074   1.556   8.762   5.655
 4039SOL     OW14075   1.400   7.555   6.012
 4039SOL    HW114076   1.376   7.518   5.922
 4039SOL    HW214077   1.499   7.571   6.016
 4040SOL     OW14078   0.382   8.148   6.066
 4040SOL    HW114079   0.427   8.058   6.063
 4040SOL    HW214080   0.288   8.137   6.099
 4041SOL     OW14081   1.547   7.670   7.315
 4041SOL    HW114082   1.542   7.707   7.407
 4041SOL    HW214083   1.475   7.601   7.303
 4042SOL     OW14084   0.614   7.570   5.703
 4042SOL    HW114085   0.712   7.548   5.710
 4042SOL    HW214086   0.583   7.553   5.610
 4043SOL     OW14087   0.781   7.712   7.335
 4043SOL    HW114088   0.848   7.651   7.378
 4043SOL    HW214089   0.708   7.731   7.400
 4044SOL     OW14090   1.351   8.038   7.019
 4044SOL    HW114091   1.379   7.995   7.104
 4044SOL    HW214092   1.376   8.134   7.020
 4045SOL     OW14093   0.803   8.850   6.510
 4045SOL    HW114094   0.893   8.864   6.468
 4045SOL    HW214095   0.732   8.852   6.439
 4046SOL     OW14096   0.922   7.951   6.485
 4046SOL    HW114097   0.897   7.942   6.389
 4046SOL    HW214098   0.970   7.869   6.516
 4047SOL     OW14099   0.539   7.512   6.098
 4047SOL    HW114100   0.458   7.513   6.156
 4047SOL    HW214101   0.542   7.595   6.043
 4048SOL     OW14102   1.434   8.636   5.627
 4048SOL    HW114103   1.466   8.560   5.684
 4048SOL    HW214104   1.342   8.663   5.657
 4049SOL     OW14105   0.297   7.483   5.757
 4049SOL    HW114106   0.346   7.567   5.736
 4049SOL    HW214107   0.359   7.418   5.802
 4050SOL     OW14108   0.935   7.684   6.066
 4050SOL    HW114109   0.887   7.725   5.988
 4050SOL    HW214110   1.034   7.682   6.047
 4051SOL     OW14111   1.076   8.131   7.050
 4051SOL    HW114112   0.996   8.070   7.053
 4051SOL    HW214113   1.157   8.078   7.026
 4052SOL     OW14114   1.227   0.018   6.379
 4052SOL    HW114115   1.248   0.092   6.314
 4052SOL    HW214116   1.295   0.018   6.452
 4053SOL     OW14117   0.459   8.600   6.327
 4053SOL    HW114118   0.388   8.573   6.392
 4053SOL    HW214119   0.433   8.572   6.234
 4054SOL     OW14120   1.032   7.997   5.602
 4054SOL    HW114121   0.991   8.079   5.563
 4054SOL    HW214122   1.096   8.023   5.675
 4055SOL     OW14123   0.561   7.670   6.733
 4055SOL    HW114124   0.599   7.586   6.770
 4055SOL    HW214125   0.473   7.689   6.777
 4056SOL     OW14126   0.866   7.902   6.228
 4056SOL    HW114127   0.834   7.974   6.166
 4056SOL    HW214128   0.890   7.821   6.175
 4057SOL     OW14129   1.429   8.621   6.453
 4057SOL    HW114130   1.374   8.537   6.446
 4057SOL    HW214131   1.455   8.650   6.361
 4058SOL     OW14132   1.466   8.038   6.578
 4058SOL    HW114133   1.436   7.943   6.585
 4058SOL    HW214134   1.539   8.054   6.644
 4059SOL     OW14135   1.857   8.281   5.963
 4059SOL    HW114136   1.899   8.217   6.027
 4059SOL    HW214137   1.819   8.230   5.885
 4060SOL     OW14138   0.488   8.833   5.760
 4060SOL    HW114139   0.401   8.818   5.807
 4060SOL    HW214140   0.471   8.859   5.665
 4061SOL     OW14141   1.664   8.728   6.243
 4061SOL    HW114142   1.763   8.736   6.257
 4061SOL    HW214143   1.619   8.812   6.274
 4062SOL     OW14144   1.390   8.023   5.664
 4062SOL    HW114145   1.336   8.002   5.745
 4062SOL    HW214146   1.481   7.982   5.673
 4063SOL     OW14147   1.754   8.671   7.174
 4063SOL    HW114148   1.845   8.632   7.161
 4063SOL    HW214149   1.762   8.767   7.198
 4064SOL     OW14150   1.064   8.795   6.926
 4064SOL    HW114151   0.984   8.772   6.981
 4064SOL    HW214152   1.147   8.769   6.975
 4065SOL     OW14153   1.111   8.643   6.686
 4065SOL    HW114154   1.071   8.687   6.767
 4065SOL    HW214155   1.070   8.680   6.603
 4066SOL     OW14156   1.638   8.547   6.665
 4066SOL    HW114157   1.643   8.628   6.724
 4066SOL    HW214158   1.552   8.549   6.614
 4067SOL     OW14159   0.915   7.537   6.988
 4067SOL    HW114160   0.940   7.517   6.893
 4067SOL    HW214161   0.987   7.593   7.030
 4068SOL     OW14162   0.980   8.564   7.305
 4068SOL    HW114163   0.881   8.570   7.315
 4068SOL    HW214164   1.003   8.484   7.249
 4069SOL     OW14165   0.705   8.498   5.954
 4069SOL    HW114166   0.691   8.505   6.053
 4069SOL    HW214167   0.789   8.447   5.936
 4070SOL     OW14168   0.410   8.261   6.837
 4070SOL    HW114169   0.496   8.273   6.887
 4070SOL    HW214170   0.368   8.174   6.864
 4071SOL     OW14171   1.274   7.834   6.848
 4071SOL    HW114172   1.295   7.908   6.912
 4071SOL    HW214173   1.185   7.851   6.805
 4072SOL     OW14174   0.367   8.548   6.087
 4072SOL    HW114175   0.360   8.631   6.031
 4072SOL    HW214176   0.371   8.468   6.027
 4073SOL     OW14177   0.566   7.985   6.451
 4073SOL    HW114178   0.578   8.051   6.377
 4073SOL    HW214179   0.612   8.019   6.534
 4074SOL     OW14180   1.252   8.796   5.974
 4074SOL    HW114181   1.302   8.873   6.014
 4074SOL    HW214182   1.157   8.798   6.006
 4075SOL     OW14183   1.272   8.893   6.728
 4075SOL    HW114184   1.319   8.906   6.815
 4075SOL    HW214185   1.206   8.819   6.737
 4076SOL     OW14186   1.582   8.087   6.058
 4076SOL    HW114187   1.551   8.148   6.131
 4076SOL    HW214188   1.632   8.139   5.989
 4077SOL     OW14189   0.354   8.958   6.915
 4077SOL    HW114190   0.333   8.914   6.828
 4077SOL    HW214191   0.451   8.984   6.918
 4078SOL     OW14192   0.402   8.199   7.184
 4078SOL    HW114193   0.470   8.254   7.137
 4078SOL    HW214194   0.442   8.111   7.211
 4079SOL     OW14195   1.587   8.227   7.256
 4079SOL    HW114196   1.495   8.265   7.251
 4079SOL    HW214197   1.647   8.274   7.191
 4080SOL     OW14198   1.013   7.553   7.356
 4080SOL    HW114199   1.019   7.638   7.304
 4080SOL    HW214200   1.045   7.477   7.299
 4081SOL     OW14201   0.504   7.498   7.326
 4081SOL    HW114202   0.462   7.441   7.256
 4081SOL    HW214203   0.438   7.567   7.358
 4082SOL     OW14204   0.573   8.318   6.615
 4082SOL    HW114205   0.617   8.407   6.606
 4082SOL    HW214206   0.510   8.318   6.692
 4083SOL     OW14207   1.360   8.310   6.631
 4083SOL    HW114208   1.285   8.310   6.565
 4083SOL    HW214209   1.397   8.218   6.640
 4084SOL     OW14210   1.209   7.973   5.861
 4084SOL    HW114211   1.222   7.889   5.915
 4084SOL    HW214212   1.180   8.047   5.921
 4085SOL     OW14213   0.732   8.082   6.650
 4085SOL    HW114214   0.791   8.056   6.574
 4085SOL    HW214215   0.704   8.178   6.639
 4086SOL     OW14216   1.728   8.383   7.440
 4086SOL    HW114217   1.682   8.376   7.351
 4086SOL    HW214218   1.666   8.427   7.506
 4087SOL     OW14219   0.307   7.511   6.204
 4087SOL    HW114220   0.296   7.605   6.237
 4087SOL    HW214221   0.302   7.448   6.281
 4088SOL     OW14222   1.622   7.815   5.960
 4088SOL    HW114223   1.624   7.739   6.024
 4088SOL    HW214224   1.574   7.892   6.000
 4089SOL     OW14225   1.023   8.214   6.552
 4089SOL    HW114226   1.038   8.235   6.648
 4089SOL    HW214227   0.993   8.119   6.543
 4090SOL     OW14228   1.859   8.966   7.191
 4090SOL    HW114229   1.873   8.993   7.096
 4090SOL    HW214230   1.942   8.988   7.244
 4091SOL     OW14231   0.350   8.346   7.390
 4091SOL    HW114232   0.426   8.390   7.438
 4091SOL    HW214233   0.385   8.299   7.308
 4092SOL     OW14234   1.540   7.722   5.711
 4092SOL    HW114235   1.479   7.647   5.734
 4092SOL    HW214236   1.562   7.774   5.794
 4093SOL     OW14237   1.303   8.286   5.628
 4093SOL    HW114238   1.337   8.193   5.643
 4093SOL    HW214239   1.321   8.313   5.533
 4094SOL     OW14240   1.068   8.781   6.435
 4094SOL    HW114241   1.075   8.697   6.380
 4094SOL    HW214242   1.130   8.850   6.399
 4095SOL     OW14243   0.319   8.258   6.535
 4095SOL    HW114244   0.412   8.294   6.540
 4095SOL    HW214245   0.313   8.173   6.587
 4096SOL     OW14246   1.138   7.828   7.264
 4096SOL    HW114247   1.093   7.891   7.328
 4096SOL    HW214248   1.231   7.859   7.247
 4097SOL     OW14249   1.160   7.655   7.063
 4097SOL    HW114250   1.160   7.719   7.140
 4097SOL    HW214251   1.188   7.703   6.980
 4098SOL     OW14252   1.002   8.244   6.824
 4098SOL    HW114253   1.043   8.212   6.910
 4098SOL    HW214254   0.906   8.217   6.821
 4099SOL     OW14255   1.369   8.398   7.246
 4099SOL    HW114256   1.408   8.487   7.266
 4099SOL    HW214257   1.379   8.378   7.149
 4100SOL     OW14258   0.815   8.020   5.911
 4100SOL    HW114259   0.822   7.931   5.865
 4100SOL    HW214260   0.721   8.054   5.903
 4101SOL     OW14261   1.657   8.052   6.792
 4101SOL    HW114262   1.619   7.983   6.854
 4101SOL    HW214263   1.739   8.016   6.748
 4102SOL     OW14264   0.252   0.012   7.330
 4102SOL    HW114265   0.222   0.069   7.406
 4102SOL    HW214266   0.245  -0.085   7.356
 4103SOL     OW14267   0.671   7.912   6.855
 4103SOL    HW114268   0.637   7.823   6.825
 4103SOL    HW214269   0.697   7.966   6.775
 4104SOL     OW14270   0.473   7.948   5.777
 4104SOL    HW114271   0.534   8.028   5.781
 4104SOL    HW214272   0.378   7.979   5.784
 4105SOL     OW14273   1.347   8.507   6.820
 4105SOL    HW114274   1.371   8.444   6.746
 4105SOL    HW214275   1.257   8.547   6.802
 4106SOL     OW14276   1.302   8.303   5.895
 4106SOL    HW114277   1.216   8.272   5.937
 4106SOL    HW214278   1.298   8.289   5.796
 4107SOL     OW14279   0.903   7.534   5.719
 4107SOL    HW114280   0.954   7.535   5.633
 4107SOL    HW214281   0.959   7.492   5.790
 4108SOL     OW14282   1.726   7.583   6.109
 4108SOL    HW114283   1.799   7.566   6.042
 4108SOL    HW214284   1.695   7.496   6.147
 4109SOL     OW14285   1.280   8.375   6.258
 4109SOL    HW114286   1.340   8.294   6.260
 4109SOL    HW214287   1.320   8.444   6.198
 4110SOL     OW14288   0.830   8.721   7.008
 4110SOL    HW114289   0.825   8.754   7.103
 4110SOL    HW214290   0.744   8.740   6.962
 4111SOL     OW14291   1.841   7.623   6.549
 4111SOL    HW114292   1.880   7.538   6.513
 4111SOL    HW214293   1.743   7.625   6.530
 4112SOL     OW14294   0.263   7.774   6.306
 4112SOL    HW114295   0.184   7.825   6.272
 4112SOL    HW214296   0.254   7.759   6.404
 4113SOL     OW14297   0.822   8.450   6.958
 4113SOL    HW114298   0.862   8.449   6.866
 4113SOL    HW214299   0.832   8.542   6.998
 4114SOL     OW14300   0.916   8.358   5.877
 4114SOL    HW114301   0.979   8.396   5.809
 4114SOL    HW214302   0.956   8.275   5.916
 4115SOL     OW14303   0.372   8.736   7.076
 4115SOL    HW114304   0.359   8.829   7.042
 4115SOL    HW214305   0.288   8.684   7.063
 4116SOL     OW14306   1.614   8.740   6.875
 4116SOL    HW114307   1.674   8.743   6.955
 4116SOL    HW214308   1.539   8.804   6.888
 4117SOL     OW14309   1.039   8.546   6.282
 4117SOL    HW114310   0.969   8.499   6.336
 4117SOL    HW214311   1.098   8.478   6.239
 4118SOL     OW14312   1.709   7.833   6.967
 4118SOL    HW114313   1.782   7.902   6.971
 4118SOL    HW214314   1.737   7.758   6.908
 4119SOL     OW14315   0.255   8.796   5.876
 4119SOL    HW114316   0.159   8.797   5.849
 4119SOL    HW214317   0.267   8.849   5.960
 4120SOL     OW14318   0.672   7.651   7.075
 4120SOL    HW114319   0.762   7.635   7.035
 4120SOL    HW214320   0.680   7.656   7.174
 4121SOL     OW14321   1.440   8.304   6.984
 4121SOL    HW114322   1.383   8.356   6.921
 4121SOL    HW214323   1.536   8.316   6.960
 4122SOL     OW14324   1.183   8.783   5.705
 4122SOL    HW114325   1.084   8.772   5.707
 4122SOL    HW214326   1.217   8.798   5.798
 4123SOL     OW14327   0.613   8.290   7.017
 4123SOL    HW114328   0.669   8.371   7.000
 4123SOL    HW214329   0.672   8.210   7.020
 4124SOL     OW14330   0.716   8.013   7.294
 4124SOL    HW114331   0.735   8.078   7.368
 4124SOL    HW214332   0.776   7.933   7.303
 4125SOL     OW14333   1.450   8.668   7.219
 4125SOL    HW114334   1.441   8.658   7.318
 4125SOL    HW214335   1.546   8.661   7.193
 4126SOL     OW14336   1.674   8.331   6.840
 4126SOL    HW114337   1.647   8.242   6.803
 4126SOL    HW214338   1.675   8.399   6.767
 4127SOL     OW14339   1.225   7.773   6.035
 4127SOL    HW114340   1.290   7.699   6.024
 4127SOL    HW214341   1.245   7.823   6.119
 4128SOL     OW14342   0.594   8.193   6.238
 4128SOL    HW114343   0.644   8.278   6.219
 4128SOL    HW214344   0.506   8.195   6.190
 4129SOL     OW14345   1.777   7.790   7.228
 4129SOL    HW114346   1.760   7.821   7.134
 4129SOL    HW214347   1.693   7.753   7.266
 4130SOL     OW14348   1.730   8.382   7.103
 4130SOL    HW114349   1.768   8.473   7.118
 4130SOL    HW214350   1.722   8.365   7.004
 4131SOL     OW14351   0.859   8.822   5.602
 4131SOL    HW114352   0.813   8.837   5.690
 4131SOL    HW214353   0.903   8.907   5.572
 4132SOL     OW14354   0.859   8.404   6.447
 4132SOL    HW114355   0.913   8.335   6.495
 4132SOL    HW214356   0.827   8.473   6.513
 4133SOL     OW14357   1.083   8.432   5.673
 4133SOL    HW114358   1.060   8.485   5.591
 4133SOL    HW214359   1.164   8.376   5.654
 4134SOL     OW14360   0.672   8.839   7.210
 4134SOL    HW114361   0.594   8.789   7.248
 4134SOL    HW214362   0.669   8.934   7.241
 4135SOL     OW14363   1.824   7.640   6.813
 4135SOL    HW114364   1.820   7.550   6.857
 4135SOL    HW214365   1.827   7.629   6.714
 4136SOL     OW14366   1.705   8.935   6.690
 4136SOL    HW114367   1.612   8.910   6.663
 4136SOL    HW214368   1.731   8.885   6.772
 4137SOL     OW14369   1.424   7.662   6.698
 4137SOL    HW114370   1.476   7.597   6.753
 4137SOL    HW214371   1.375   7.725   6.759
 4138SOL     OW14372   1.001   7.482   6.740
 4138SOL    HW114373   0.938   7.410   6.709
 4138SOL    HW214374   1.094   7.446   6.740
 4139SOL     OW14375   0.770   8.778   5.887
 4139SOL    HW114376   0.724   8.691   5.904
 4139SOL    HW214377   0.861   8.775   5.928
 4140SOL     OW14378   0.618   0.015   6.870
 4140SOL    HW114379   0.613   0.097   6.927
 4140SOL    HW214380   0.707   0.012   6.825
 4141SOL     OW14381   1.352   7.500   5.754
 4141SOL    HW114382   1.387   7.459   5.670
 4141SOL    HW214383   1.262   7.462   5.774
 4142SOL     OW14384   1.300   7.901   6.277
 4142SOL    HW114385   1.241   7.981   6.281
 4142SOL    HW214386   1.315   7.866   6.370
 4143SOL     OW14387   1.593   7.669   6.468
 4143SOL    HW114388   1.509   7.668   6.522
 4143SOL    HW214389   1.595   7.752   6.412
 4144SOL     OW14390   0.019   7.816   8.095
 4144SOL    HW114391  -0.063   7.859   8.134
 4144SOL    HW214392  -0.009   7.743   8.032
 4145SOL     OW14393   0.569   8.723   8.613
 4145SOL    HW114394   0.476   8.716   8.576
 4145SOL    HW214395   0.580   8.812   8.657
 4146SOL     OW14396   1.555   8.959   8.151
 4146SOL    HW114397   1.498   8.943   8.232
 4146SOL    HW214398   1.496   8.969   8.071
 4147SOL     OW14399   1.743   8.066   8.304
 4147SOL    HW114400   1.776   8.160   8.304
 4147SOL    HW214401   1.794   8.012   8.370
 4148SOL     OW14402   1.135   8.151   8.165
 4148SOL    HW114403   1.192   8.229   8.140
 4148SOL    HW214404   1.075   8.177   8.241
 4149SOL     OW14405   1.755   8.055   7.679
 4149SOL    HW114406   1.743   8.042   7.580
 4149SOL    HW214407   1.725   7.974   7.728
 4150SOL     OW14408   0.768   8.592   8.471
 4150SOL    HW114409   0.690   8.609   8.531
 4150SOL    HW214410   0.802   8.679   8.435
 4151SOL     OW14411   0.685   8.460   8.113
 4151SOL    HW114412   0.754   8.444   8.183
 4151SOL    HW214413   0.612   8.517   8.151
 4152SOL     OW14414   0.335   8.883   8.509
 4152SOL    HW114415   0.257   8.852   8.456
 4152SOL    HW214416   0.393   8.941   8.452
 4153SOL     OW14417   1.460   8.953   8.787
 4153SOL    HW114418   1.484   9.047   8.813
 4153SOL    HW214419   1.444   8.899   8.869
 4154SOL     OW14420   0.438   7.840   8.947
 4154SOL    HW114421   0.520   7.784   8.956
 4154SOL    HW214422   0.357   7.782   8.951
 4155SOL     OW14423   1.603   7.895   8.185
 4155SOL    HW114424   1.529   7.941   8.135
 4155SOL    HW214425   1.654   7.963   8.238
 4156SOL     OW14426   0.606   8.412   7.571
 4156SOL    HW114427   0.613   8.496   7.517
 4156SOL    HW214428   0.652   8.425   7.659
 4157SOL     OW14429   1.594   7.562   8.928
 4157SOL    HW114430   1.576   7.629   8.856
 4157SOL    HW214431   1.591   7.608   9.017
 4158SOL     OW14432   1.689   8.370   8.060
 4158SOL    HW114433   1.784   8.341   8.068
 4158SOL    HW214434   1.681   8.435   7.985
 4159SOL     OW14435   1.641   8.556   7.880
 4159SOL    HW114436   1.727   8.558   7.828
 4159SOL    HW214437   1.655   8.603   7.968
 4160SOL     OW14438   0.613   8.813   8.174
 4160SOL    HW114439   0.564   8.726   8.183
 4160SOL    HW214440   0.590   8.856   8.087
 4161SOL     OW14441   0.809   7.452   7.950
 4161SOL    HW114442   0.849   7.543   7.941
 4161SOL    HW214443   0.709   7.460   7.956
 4162SOL     OW14444   1.525   8.447   7.638
 4162SOL    HW114445   1.462   8.371   7.651
 4162SOL    HW214446   1.573   8.465   7.724
 4163SOL     OW14447   1.466   8.865   8.401
 4163SOL    HW114448   1.407   8.871   8.481
 4163SOL    HW214449   1.451   8.777   8.355
 4164SOL     OW14450   0.598   8.177   7.718
 4164SOL    HW114451   0.622   8.246   7.650
 4164SOL    HW214452   0.520   8.210   7.772
 4165SOL     OW14453   1.281   7.793   8.392
 4165SOL    HW114454   1.195   7.743   8.379
 4165SOL    HW214455   1.343   7.739   8.448
 4166SOL     OW14456   0.807   8.053   8.913
 4166SOL    HW114457   0.760   8.050   9.002
 4166SOL    HW214458   0.756   7.998   8.847
 4167SOL     OW14459   0.991   7.858   8.690
 4167SOL    HW114460   0.914   7.892   8.744
 4167SOL    HW214461   0.957   7.807   8.611
 4168SOL     OW14462   1.041   8.149   7.877
 4168SOL    HW114463   1.067   8.145   7.973
 4168SOL    HW214464   0.956   8.098   7.863
 4169SOL     OW14465   0.865   7.796   7.643
 4169SOL    HW114466   0.924   7.859   7.594
 4169SOL    HW214467   0.884   7.702   7.614
 4170SOL     OW14468   1.362   8.592   7.993
 4170SOL    HW114469   1.445   8.563   7.945
 4170SOL    HW214470   1.313   8.659   7.937
 4171SOL     OW14471   0.550   7.644   8.333
 4171SOL    HW114472   0.545   7.639   8.433
 4171SOL    HW214473   0.552   7.740   8.304
 4172SOL     OW14474   1.008   8.904   7.925
 4172SOL    HW114475   0.962   8.976   7.873
 4172SOL    HW214476   1.004   8.924   8.023
 4173SOL     OW14477   1.795   8.514   8.321
 4173SOL    HW114478   1.733   8.499   8.245
 4173SOL    HW214479   1.743   8.525   8.406
 4174SOL     OW14480   1.227   8.998   8.954
 4174SOL    HW114481   1.233   8.921   9.018
 4174SOL    HW214482   1.175   8.972   8.874
 4175SOL     OW14483   0.321   8.391   7.690
 4175SOL    HW114484   0.403   8.430   7.648
 4175SOL    HW214485   0.294   8.309   7.641
 4176SOL     OW14486   1.458   8.183   8.176
 4176SOL    HW114487   1.453   8.118   8.251
 4176SOL    HW214488   1.538   8.242   8.189
 4177SOL     OW14489   1.111   0.224   7.685
 4177SOL    HW114490   1.051   0.162   7.735
 4177SOL    HW214491   1.142   0.180   7.600
 4178SOL     OW14492   1.632   8.825   7.529
 4178SOL    HW114493   1.600   8.919   7.519
 4178SOL    HW214494   1.556   8.762   7.517
 4179SOL     OW14495   1.400   7.555   7.874
 4179SOL    HW114496   1.376   7.518   7.784
 4179SOL    HW214497   1.499   7.571   7.878
 4180SOL     OW14498   0.382   8.148   7.928
 4180SOL    HW114499   0.427   8.058   7.925
 4180SOL    HW214500   0.288   8.137   7.961
 4181SOL     OW14501   0.614   7.570   7.565
 4181SOL    HW114502   0.712   7.548   7.572
 4181SOL    HW214503   0.583   7.553   7.472
 4182SOL     OW14504   0.803   8.850   8.372
 4182SOL    HW114505   0.893   8.864   8.330
 4182SOL    HW214506   0.732   8.852   8.301
 4183SOL     OW14507   0.922   7.951   8.347
 4183SOL    HW114508   0.897   7.942   8.251
 4183SOL    HW214509   0.970   7.869   8.378
 4184SOL     OW14510   0.539   7.512   7.960
 4184SOL    HW114511   0.458   7.513   8.018
 4184SOL    HW214512   0.542   7.595   7.905
 4185SOL     OW14513   1.434   8.636   7.489
 4185SOL    HW114514   1.466   8.560   7.546
 4185SOL    HW214515   1.342   8.663   7.519
 4186SOL     OW14516   0.297   7.483   7.619
 4186SOL    HW114517   0.346   7.567   7.598
 4186SOL    HW214518   0.359   7.418   7.664
 4187SOL     OW14519   0.935   7.684   7.928
 4187SOL    HW114520   0.887   7.725   7.850
 4187SOL    HW214521   1.034   7.682   7.909
 4188SOL     OW14522   1.227   0.018   8.241
 4188SOL    HW114523   1.248   0.092   8.176
 4188SOL    HW214524   1.295   0.018   8.314
 4189SOL     OW14525   0.459   8.600   8.189
 4189SOL    HW114526   0.388   8.573   8.254
 4189SOL    HW214527   0.433   8.572   8.096
 4190SOL     OW14528   1.032   7.997   7.464
 4190SOL    HW114529   0.991   8.079   7.425
 4190SOL    HW214530   1.096   8.023   7.537
 4191SOL     OW14531   0.561   7.670   8.595
 4191SOL    HW114532   0.599   7.586   8.632
 4191SOL    HW214533   0.473   7.689   8.639
 4192SOL     OW14534   0.866   7.902   8.090
 4192SOL    HW114535   0.834   7.974   8.028
 4192SOL    HW214536   0.890   7.821   8.037
 4193SOL     OW14537   1.017   7.487   8.201
 4193SOL    HW114538   0.945   7.492   8.132
 4193SOL    HW214539   0.993   7.418   8.270
 4194SOL     OW14540   1.429   8.621   8.315
 4194SOL    HW114541   1.374   8.537   8.308
 4194SOL    HW214542   1.455   8.650   8.223
 4195SOL     OW14543   1.466   8.038   8.440
 4195SOL    HW114544   1.436   7.943   8.447
 4195SOL    HW214545   1.539   8.054   8.506
 4196SOL     OW14546   1.857   8.281   7.825
 4196SOL    HW114547   1.899   8.217   7.889
 4196SOL    HW214548   1.819   8.230   7.747
 4197SOL     OW14549   0.488   8.833   7.622
 4197SOL    HW114550   0.401   8.818   7.669
 4197SOL    HW214551   0.471   8.859   7.527
 4198SOL     OW14552   1.664   8.728   8.105
 4198SOL    HW114553   1.763   8.736   8.119
 4198SOL    HW214554   1.619   8.812   8.136
 4199SOL     OW14555   1.390   8.023   7.526
 4199SOL    HW114556   1.336   8.002   7.607
 4199SOL    HW214557   1.481   7.982   7.535
 4200SOL     OW14558   0.527   7.704   7.776
 4200SOL    HW114559   0.554   7.645   7.701
 4200SOL    HW214560   0.527   7.799   7.745
 4201SOL     OW14561   1.064   8.795   8.788
 4201SOL    HW114562   0.984   8.772   8.843
 4201SOL    HW214563   1.147   8.769   8.837
 4202SOL     OW14564   1.111   8.643   8.548
 4202SOL    HW114565   1.071   8.687   8.629
 4202SOL    HW214566   1.070   8.680   8.465
 4203SOL     OW14567   1.638   8.547   8.527
 4203SOL    HW114568   1.643   8.628   8.586
 4203SOL    HW214569   1.552   8.549   8.476
 4204SOL     OW14570   0.915   7.537   8.850
 4204SOL    HW114571   0.940   7.517   8.755
 4204SOL    HW214572   0.987   7.593   8.892
 4205SOL     OW14573   0.705   8.498   7.816
 4205SOL    HW114574   0.691   8.505   7.915
 4205SOL    HW214575   0.789   8.447   7.798
 4206SOL     OW14576   0.410   8.261   8.699
 4206SOL    HW114577   0.496   8.273   8.749
 4206SOL    HW214578   0.368   8.174   8.726
 4207SOL     OW14579   1.274   7.834   8.710
 4207SOL    HW114580   1.295   7.908   8.774
 4207SOL    HW214581   1.185   7.851   8.667
 4208SOL     OW14582   0.367   8.548   7.949
 4208SOL    HW114583   0.360   8.631   7.893
 4208SOL    HW214584   0.371   8.468   7.889
 4209SOL     OW14585   0.566   7.985   8.313
 4209SOL    HW114586   0.578   8.051   8.239
 4209SOL    HW214587   0.612   8.019   8.396
 4210SOL     OW14588   1.252   8.796   7.836
 4210SOL    HW114589   1.302   8.873   7.876
 4210SOL    HW214590   1.157   8.798   7.868
 4211SOL     OW14591   1.272   8.893   8.590
 4211SOL    HW114592   1.319   8.906   8.677
 4211SOL    HW214593   1.206   8.819   8.599
 4212SOL     OW14594   1.582   8.087   7.920
 4212SOL    HW114595   1.551   8.148   7.993
 4212SOL    HW214596   1.632   8.139   7.851
 4213SOL     OW14597   0.354   8.958   8.777
 4213SOL    HW114598   0.333   8.914   8.690
 4213SOL    HW214599   0.451   8.984   8.780
 4214SOL     OW14600   0.402   8.199   0.046
 4214SOL    HW114601   0.470   8.254  -0.001
 4214SOL    HW214602   0.442   8.111   0.073
 4215SOL     OW14603   1.587   8.227   0.118
 4215SOL    HW114604   1.495   8.265   0.113
 4215SOL    HW214605   1.647   8.274   0.053
 4216SOL     OW14606   0.573   8.318   8.477
 4216SOL    HW114607   0.617   8.407   8.468
 4216SOL    HW214608   0.510   8.318   8.554
 4217SOL     OW14609   1.360   8.310   8.493
 4217SOL    HW114610   1.285   8.310   8.427
 4217SOL    HW214611   1.397   8.218   8.502
 4218SOL     OW14612   1.209   7.973   7.723
 4218SOL    HW114613   1.222   7.889   7.777
 4218SOL    HW214614   1.180   8.047   7.783
 4219SOL     OW14615   0.732   8.082   8.512
 4219SOL    HW114616   0.791   8.056   8.436
 4219SOL    HW214617   0.704   8.178   8.501
 4220SOL     OW14618   0.307   7.511   8.066
 4220SOL    HW114619   0.296   7.605   8.099
 4220SOL    HW214620   0.302   7.448   8.143
 4221SOL     OW14621   1.622   7.815   7.822
 4221SOL    HW114622   1.624   7.739   7.886
 4221SOL    HW214623   1.574   7.892   7.862
 4222SOL     OW14624   1.023   8.214   8.414
 4222SOL    HW114625   1.038   8.235   8.510
 4222SOL    HW214626   0.993   8.119   8.405
 4223SOL     OW14627   1.859   8.966   0.053
 4223SOL    HW114628   1.873   8.993  -0.042
 4223SOL    HW214629   1.942   8.988   0.106
 4224SOL     OW14630   1.540   7.722   7.573
 4224SOL    HW114631   1.479   7.647   7.596
 4224SOL    HW214632   1.562   7.774   7.656
 4225SOL     OW14633   1.303   8.286   7.490
 4225SOL    HW114634   1.337   8.193   7.505
 4225SOL    HW214635   1.321   8.313   7.395
 4226SOL     OW14636   1.068   8.781   8.297
 4226SOL    HW114637   1.075   8.697   8.242
 4226SOL    HW214638   1.130   8.850   8.261
 4227SOL     OW14639   0.319   8.258   8.397
 4227SOL    HW114640   0.412   8.294   8.402
 4227SOL    HW214641   0.313   8.173   8.449
 4228SOL     OW14642   1.138   7.828   0.126
 4228SOL    HW114643   1.093   7.891   0.190
 4228SOL    HW214644   1.231   7.859   0.109
 4229SOL     OW14645   1.160   7.655   8.925
 4229SOL    HW114646   1.160   7.719   9.002
 4229SOL    HW214647   1.188   7.703   8.842
 4230SOL     OW14648   1.002   8.244   8.686
 4230SOL    HW114649   1.043   8.212   8.772
 4230SOL    HW214650   0.906   8.217   8.683
 4231SOL     OW14651   0.815   8.020   7.773
 4231SOL    HW114652   0.822   7.931   7.727
 4231SOL    HW214653   0.721   8.054   7.765
 4232SOL     OW14654   1.657   8.052   8.654
 4232SOL    HW114655   1.619   7.983   8.716
 4232SOL    HW214656   1.739   8.016   8.610
 4233SOL     OW14657   0.671   7.912   8.717
 4233SOL    HW114658   0.637   7.823   8.687
 4233SOL    HW214659   0.697   7.966   8.637
 4234SOL     OW14660   0.473   7.948   7.639
 4234SOL    HW114661   0.534   8.028   7.643
 4234SOL    HW214662   0.378   7.979   7.646
 4235SOL     OW14663   1.347   8.507   8.682
 4235SOL    HW114664   1.371   8.444   8.608
 4235SOL    HW214665   1.257   8.547   8.664
 4236SOL     OW14666   1.302   8.303   7.757
 4236SOL    HW114667   1.216   8.272   7.799
 4236SOL    HW214668   1.298   8.289   7.658
 4237SOL     OW14669   0.903   7.534   7.581
 4237SOL    HW114670   0.954   7.535   7.495
 4237SOL    HW214671   0.959   7.492   7.652
 4238SOL     OW14672   1.726   7.583   7.971
 4238SOL    HW114673   1.799   7.566   7.904
 4238SOL    HW214674   1.695   7.496   8.009
 4239SOL     OW14675   1.280   8.375   8.120
 4239SOL    HW114676   1.340   8.294   8.122
 4239SOL    HW214677   1.320   8.444   8.060
 4240SOL     OW14678   1.841   7.623   8.411
 4240SOL    HW114679   1.880   7.538   8.375
 4240SOL    HW214680   1.743   7.625   8.392
 4241SOL     OW14681   0.263   7.774   8.168
 4241SOL    HW114682   0.184   7.825   8.134
 4241SOL    HW214683   0.254   7.759   8.266
 4242SOL     OW14684   0.822   8.450   8.820
 4242SOL    HW114685   0.862   8.449   8.728
 4242SOL    HW214686   0.832   8.542   8.860
 4243SOL     OW14687   0.916   8.358   7.739
 4243SOL    HW114688   0.979   8.396   7.671
 4243SOL    HW214689   0.956   8.275   7.778
 4244SOL     OW14690   0.372   8.736   8.938
 4244SOL    HW114691   0.359   8.829   8.904
 4244SOL    HW214692   0.288   8.684   8.925
 4245SOL     OW14693   1.614   8.740   8.737
 4245SOL    HW114694   1.674   8.743   8.817
 4245SOL    HW214695   1.539   8.804   8.750
 4246SOL     OW14696   1.039   8.546   8.144
 4246SOL    HW114697   0.969   8.499   8.198
 4246SOL    HW214698   1.098   8.478   8.101
 4247SOL     OW14699   1.014   7.684   8.419
 4247SOL    HW114700   1.006   7.648   8.326
 4247SOL    HW214701   1.012   7.608   8.484
 4248SOL     OW14702   1.709   7.833   8.829
 4248SOL    HW114703   1.782   7.902   8.833
 4248SOL    HW214704   1.737   7.758   8.770
 4249SOL     OW14705   0.255   8.796   7.738
 4249SOL    HW114706   0.159   8.797   7.711
 4249SOL    HW214707   0.267   8.849   7.822
 4250SOL     OW14708   1.440   8.304   8.846
 4250SOL    HW114709   1.383   8.356   8.783
 4250SOL    HW214710   1.536   8.316   8.822
 4251SOL     OW14711   1.183   8.783   7.567
 4251SOL    HW114712   1.084   8.772   7.569
 4251SOL    HW214713   1.217   8.798   7.660
 4252SOL     OW14714   0.613   8.290   8.879
 4252SOL    HW114715   0.669   8.371   8.862
 4252SOL    HW214716   0.672   8.210   8.882
 4253SOL     OW14717   1.674   8.331   8.702
 4253SOL    HW114718   1.647   8.242   8.665
 4253SOL    HW214719   1.675   8.399   8.629
 4254SOL     OW14720   1.225   7.773   7.897
 4254SOL    HW114721   1.290   7.699   7.886
 4254SOL    HW214722   1.245   7.823   7.981
 4255SOL     OW14723   0.594   8.193   8.100
 4255SOL    HW114724   0.644   8.278   8.081
 4255SOL    HW214725   0.506   8.195   8.052
 4256SOL     OW14726   1.777   7.790   0.090
 4256SOL    HW114727   1.760   7.821  -0.004
 4256SOL    HW214728   1.693   7.753   0.128
 4257SOL     OW14729   1.730   8.382   8.965
 4257SOL    HW114730   1.768   8.473   8.980
 4257SOL    HW214731   1.722   8.365   8.866
 4258SOL     OW14732   0.859   8.822   7.464
 4258SOL    HW114733   0.813   8.837   7.552
 4258SOL    HW214734   0.903   8.907   7.434
 4259SOL     OW14735   0.859   8.404   8.309
 4259SOL    HW114736   0.913   8.335   8.357
 4259SOL    HW214737   0.827   8.473   8.375
 4260SOL     OW14738   1.083   8.432   7.535
 4260SOL    HW114739   1.060   8.485   7.453
 4260SOL    HW214740   1.164   8.376   7.516
 4261SOL     OW14741   1.824   7.640   8.675
 4261SOL    HW114742   1.820   7.550   8.719
 4261SOL    HW214743   1.827   7.629   8.576
 4262SOL     OW14744   0.428   7.872   7.968
 4262SOL    HW114745   0.458   7.800   7.906
 4262SOL    HW214746   0.389   7.832   8.051
 4263SOL     OW14747   1.705   8.935   8.552
 4263SOL    HW114748   1.612   8.910   8.525
 4263SOL    HW214749   1.731   8.885   8.634
 4264SOL     OW14750   1.424   7.662   8.560
 4264SOL    HW114751   1.476   7.597   8.615
 4264SOL    HW214752   1.375   7.725   8.621
 4265SOL     OW14753   1.001   7.482   8.602
 4265SOL    HW114754   0.938   7.410   8.571
 4265SOL    HW214755   1.094   7.446   8.602
 4266SOL     OW14756   0.770   8.778   7.749
 4266SOL    HW114757   0.724   8.691   7.766
 4266SOL    HW214758   0.861   8.775   7.790
 4267SOL     OW14759   0.618   0.015   8.732
 4267SOL    HW114760   0.613   0.097   8.789
 4267SOL    HW214761   0.707   0.012   8.687
 4268SOL     OW14762   1.352   7.500   7.616
 4268SOL    HW114763   1.387   7.459   7.532
 4268SOL    HW214764   1.262   7.462   7.636
 4269SOL     OW14765   1.300   7.901   8.139
 4269SOL    HW114766   1.241   7.981   8.143
 4269SOL    HW214767   1.315   7.866   8.232
 4270SOL     OW14768   1.593   7.669   8.330
 4270SOL    HW114769   1.509   7.668   8.384
 4270SOL    HW214770   1.595   7.752   8.274
 4271SOL     OW14771   2.092   0.628   0.113
 4271SOL    HW114772   1.999   0.626   0.150
 4271SOL    HW214773   2.093   0.589   0.021
 4272SOL     OW14774   2.087   0.275   0.996
 4272SOL    HW114775   2.122   0.258   1.088
 4272SOL    HW214776   1.999   0.230   0.984
 4273SOL     OW14777   1.881   0.368   0.647
 4273SOL    HW114778   1.799   0.411   0.686
 4273SOL    HW214779   1.853   0.295   0.584
 4274SOL     OW14780   2.431   1.275   1.165
 4274SOL    HW114781   2.338   1.268   1.128
 4274SOL    HW214782   2.442   1.364   1.209
 4275SOL     OW14783   3.417   1.511   0.703
 4275SOL    HW114784   3.360   1.495   0.784
 4275SOL    HW214785   3.358   1.521   0.623
 4276SOL     OW14786   3.605   0.618   0.856
 4276SOL    HW114787   3.638   0.712   0.856
 4276SOL    HW214788   3.656   0.564   0.922
 4277SOL     OW14789   2.997   0.703   0.717
 4277SOL    HW114790   3.054   0.781   0.692
 4277SOL    HW214791   2.937   0.729   0.793
 4278SOL     OW14792   3.617   0.607   0.231
 4278SOL    HW114793   3.605   0.594   0.132
 4278SOL    HW214794   3.587   0.526   0.280
 4279SOL     OW14795   2.630   1.144   1.023
 4279SOL    HW114796   2.552   1.161   1.083
 4279SOL    HW214797   2.664   1.231   0.987
 4280SOL     OW14798   2.712   0.798   1.823
 4280SOL    HW114799   2.708   0.874   1.888
 4280SOL    HW214800   2.734   0.834   1.732
 4281SOL     OW14801   2.547   1.012   0.665
 4281SOL    HW114802   2.616   0.996   0.735
 4281SOL    HW214803   2.474   1.069   0.703
 4282SOL     OW14804   2.548   1.161   1.803
 4282SOL    HW114805   2.608   1.240   1.817
 4282SOL    HW214806   2.462   1.192   1.762
 4283SOL     OW14807   2.197   1.435   1.061
 4283SOL    HW114808   2.119   1.404   1.008
 4283SOL    HW214809   2.255   1.493   1.004
 4284SOL     OW14810   3.322   1.505   1.339
 4284SOL    HW114811   3.346   1.599   1.365
 4284SOL    HW214812   3.306   1.451   1.421
 4285SOL     OW14813   2.300   0.392   1.499
 4285SOL    HW114814   2.382   0.336   1.508
 4285SOL    HW214815   2.219   0.334   1.503
 4286SOL     OW14816   3.465   0.447   0.737
 4286SOL    HW114817   3.391   0.493   0.687
 4286SOL    HW214818   3.516   0.515   0.790
 4287SOL     OW14819   2.093   1.713   0.483
 4287SOL    HW114820   2.127   1.790   0.537
 4287SOL    HW214821   2.137   1.713   0.393
 4288SOL     OW14822   2.989   1.341   1.690
 4288SOL    HW114823   3.036   1.341   1.778
 4288SOL    HW214824   2.941   1.254   1.679
 4289SOL     OW14825   2.092   1.434   0.538
 4289SOL    HW114826   2.066   1.530   0.538
 4289SOL    HW214827   2.021   1.380   0.583
 4290SOL     OW14828   2.102   1.091   0.886
 4290SOL    HW114829   2.116   1.007   0.938
 4290SOL    HW214830   2.047   1.155   0.941
 4291SOL     OW14831   2.482   1.786   1.439
 4291SOL    HW114832   2.390   1.769   1.474
 4291SOL    HW214833   2.510   1.878   1.465
 4292SOL     OW14834   2.468   0.964   0.123
 4292SOL    HW114835   2.475   1.048   0.069
 4292SOL    HW214836   2.514   0.977   0.211
 4293SOL     OW14837   3.456   0.114   1.480
 4293SOL    HW114838   3.438   0.181   1.408
 4293SOL    HW214839   3.453   0.160   1.569
 4294SOL     OW14840   1.984   0.643   0.563
 4294SOL    HW114841   1.939   0.555   0.580
 4294SOL    HW214842   1.983   0.697   0.647
 4295SOL     OW14843   3.704   1.767   0.359
 4295SOL    HW114844   3.758   1.738   0.439
 4295SOL    HW214845   3.734   1.857   0.330
 4296SOL     OW14846   3.551   0.922   0.612
 4296SOL    HW114847   3.646   0.893   0.620
 4296SOL    HW214848   3.543   0.987   0.537
 4297SOL     OW14849   3.503   1.108   0.432
 4297SOL    HW114850   3.589   1.110   0.380
 4297SOL    HW214851   3.517   1.155   0.520
 4298SOL     OW14852   1.975   0.737   1.597
 4298SOL    HW114853   2.063   0.724   1.642
 4298SOL    HW214854   1.962   0.834   1.575
 4299SOL     OW14855   2.475   1.365   0.726
 4299SOL    HW114856   2.426   1.278   0.735
 4299SOL    HW214857   2.452   1.408   0.639
 4300SOL     OW14858   3.155   1.228   1.423
 4300SOL    HW114859   3.192   1.155   1.365
 4300SOL    HW214860   3.207   1.233   1.508
 4301SOL     OW14861   2.671   0.004   0.502
 4301SOL    HW114862   2.711   0.095   0.493
 4301SOL    HW214863   2.571   0.012   0.508
 4302SOL     OW14864   2.059   0.976   1.264
 4302SOL    HW114865   2.148   0.931   1.250
 4302SOL    HW214866   1.986   0.911   1.245
 4303SOL     OW14867   3.387   0.999   0.190
 4303SOL    HW114868   3.324   0.923   0.203
 4303SOL    HW214869   3.435   1.017   0.276
 4304SOL     OW14870   3.049   1.792   1.616
 4304SOL    HW114871   3.073   1.852   1.540
 4304SOL    HW214872   3.056   1.697   1.586
 4305SOL     OW14873   2.179   0.251   1.801
 4305SOL    HW114874   2.250   0.322   1.807
 4305SOL    HW214875   2.091   0.290   1.829
 4306SOL     OW14876   3.328   1.417   0.953
 4306SOL    HW114877   3.269   1.423   1.033
 4306SOL    HW214878   3.313   1.329   0.907
 4307SOL     OW14879   3.529   1.714   0.572
 4307SOL    HW114880   3.488   1.691   0.484
 4307SOL    HW214881   3.511   1.640   0.637
 4308SOL     OW14882   2.460   0.729   0.270
 4308SOL    HW114883   2.484   0.798   0.202
 4308SOL    HW214884   2.382   0.762   0.324
 4309SOL     OW14885   3.143   0.345   0.944
 4309SOL    HW114886   3.057   0.295   0.931
 4309SOL    HW214887   3.205   0.291   1.000
 4310SOL     OW14888   3.438   1.662   0.307
 4310SOL    HW114889   3.527   1.708   0.310
 4310SOL    HW214890   3.417   1.638   0.212
 4311SOL     OW14891   2.669   0.605   1.465
 4311SOL    HW114892   2.622   0.602   1.554
 4311SOL    HW214893   2.618   0.550   1.399
 4312SOL     OW14894   3.256   0.469   1.674
 4312SOL    HW114895   3.236   0.512   1.762
 4312SOL    HW214896   3.334   0.407   1.683
 4313SOL     OW14897   2.835   0.890   1.572
 4313SOL    HW114898   2.881   0.806   1.543
 4313SOL    HW214899   2.779   0.924   1.497
 4314SOL     OW14900   2.853   0.410   1.242
 4314SOL    HW114901   2.776   0.444   1.296
 4314SOL    HW214902   2.819   0.359   1.163
 4315SOL     OW14903   2.903   0.701   0.429
 4315SOL    HW114904   2.929   0.697   0.525
 4315SOL    HW214905   2.818   0.650   0.415
 4316SOL     OW14906   1.938   0.811   0.789
 4316SOL    HW114907   2.037   0.799   0.798
 4316SOL    HW214908   1.914   0.906   0.810
 4317SOL     OW14909   1.992   1.821   1.571
 4317SOL    HW114910   1.982   1.806   1.670
 4317SOL    HW214911   1.906   1.857   1.535
 4318SOL     OW14912   2.727   0.348   0.195
 4318SOL    HW114913   2.786   0.411   0.146
 4318SOL    HW214914   2.746   0.254   0.166
 4319SOL     OW14915   3.581   0.585   1.831
 4319SOL    HW114916   3.555   0.674   1.795
 4319SOL    HW214917   3.579   0.517   1.758
 4320SOL     OW14918   3.224   1.144   0.545
 4320SOL    HW114919   3.307   1.115   0.497
 4320SOL    HW214920   3.175   1.211   0.489
 4321SOL     OW14921   2.412   0.196   0.885
 4321SOL    HW114922   2.407   0.191   0.985
 4321SOL    HW214923   2.414   0.292   0.856
 4322SOL     OW14924   2.870   1.456   0.477
 4322SOL    HW114925   2.824   1.528   0.425
 4322SOL    HW214926   2.866   1.476   0.575
 4323SOL     OW14927   2.213   1.801   0.853
 4323SOL    HW114928   2.263   1.715   0.859
 4323SOL    HW214929   2.278   1.878   0.850
 4324SOL     OW14930   3.657   1.066   0.873
 4324SOL    HW114931   3.595   1.051   0.797
 4324SOL    HW214932   3.605   1.077   0.958
 4325SOL     OW14933   3.089   1.550   1.506
 4325SOL    HW114934   3.095   1.473   1.570
 4325SOL    HW214935   3.037   1.524   1.426
 4326SOL     OW14936   2.183   0.943   0.242
 4326SOL    HW114937   2.265   0.982   0.200
 4326SOL    HW214938   2.156   0.861   0.193
 4327SOL     OW14939   3.320   0.735   0.728
 4327SOL    HW114940   3.315   0.670   0.803
 4327SOL    HW214941   3.400   0.794   0.741
 4328SOL     OW14942   2.323   1.266   1.727
 4328SOL    HW114943   2.273   1.267   1.641
 4328SOL    HW214944   2.260   1.248   1.803
 4329SOL     OW14945   2.973   1.776   0.237
 4329SOL    HW114946   2.913   1.714   0.287
 4329SOL    HW214947   3.004   1.732   0.152
 4330SOL     OW14948   2.064   0.285   1.498
 4330SOL    HW114949   1.984   0.345   1.485
 4330SOL    HW214950   2.054   0.236   1.584
 4331SOL     OW14951   3.494   1.377   0.081
 4331SOL    HW114952   3.462   1.471   0.071
 4331SOL    HW214953   3.418   1.314   0.069
 4332SOL     OW14954   2.326   1.743   0.323
 4332SOL    HW114955   2.359   1.782   0.409
 4332SOL    HW214956   2.402   1.736   0.258
 4333SOL     OW14957   3.262   0.107   0.426
 4333SOL    HW114958   3.238   0.070   0.336
 4333SOL    HW214959   3.361   0.123   0.430
 4334SOL     OW14960   2.111   1.785   1.241
 4334SOL    HW114961   2.168   1.720   1.291
 4334SOL    HW214962   2.095   1.752   1.148
 4335SOL     OW14963   2.802   1.698   0.904
 4335SOL    HW114964   2.882   1.641   0.925
 4335SOL    HW214965   2.753   1.658   0.827
 4336SOL     OW14966   2.244   0.700   0.480
 4336SOL    HW114967   2.289   0.610   0.477
 4336SOL    HW214968   2.150   0.689   0.513
 4337SOL     OW14969   3.409   0.222   1.729
 4337SOL    HW114970   3.404   0.259   1.821
 4337SOL    HW214971   3.337   0.153   1.717
 4338SOL     OW14972   2.476   0.122   0.117
 4338SOL    HW114973   2.574   0.100   0.124
 4338SOL    HW214974   2.445   0.105   0.024
 4339SOL     OW14975   2.643   0.264   1.749
 4339SOL    HW114976   2.710   0.203   1.792
 4339SOL    HW214977   2.570   0.283   1.814
 4340SOL     OW14978   2.750   1.514   1.195
 4340SOL    HW114979   2.727   1.489   1.101
 4340SOL    HW214980   2.811   1.445   1.234
 4341SOL     OW14981   3.213   0.590   1.433
 4341SOL    HW114982   3.241   0.547   1.518
 4341SOL    HW214983   3.238   0.686   1.434
 4342SOL     OW14984   2.665   1.402   0.924
 4342SOL    HW114985   2.755   1.416   0.882
 4342SOL    HW214986   2.594   1.404   0.853
 4343SOL     OW14987   2.784   0.503   0.899
 4343SOL    HW114988   2.759   0.494   0.803
 4343SOL    HW214989   2.832   0.421   0.930
 4344SOL     OW14990   2.401   0.064   0.512
 4344SOL    HW114991   2.320   0.065   0.570
 4344SOL    HW214992   2.404   0.147   0.457
 4345SOL     OW14993   3.296   1.188   0.041
 4345SOL    HW114994   3.328   1.112   0.098
 4345SOL    HW214995   3.204   1.215   0.071
 4346SOL     OW14996   2.159   0.035   0.171
 4346SOL    HW114997   2.208   0.119   0.150
 4346SOL    HW214998   2.221  -0.030   0.216
 4347SOL     OW14999   2.797   0.236   0.480
 4347SOL    HW115000   2.749   0.277   0.402
 4347SOL    HW215001   2.896   0.234   0.461
 4348SOL     OW15002   2.938   0.683   1.464
 4348SOL    HW115003   2.858   0.622   1.467
 4348SOL    HW215004   3.019   0.630   1.440
 4349SOL     OW15005   3.089   1.570   0.793
 4349SOL    HW115006   3.110   1.644   0.728
 4349SOL    HW215007   3.157   1.570   0.866
 4350SOL     OW15008   2.321   1.152   0.741
 4350SOL    HW115009   2.250   1.125   0.806
 4350SOL    HW215010   2.295   1.124   0.648
 4351SOL     OW15011   3.133   1.797   0.591
 4351SOL    HW115012   3.177   1.861   0.527
 4351SOL    HW215013   3.083   1.849   0.661
 4352SOL     OW15014   2.894   0.549   0.016
 4352SOL    HW115015   2.853   0.631  -0.023
 4352SOL    HW215016   2.958   0.575   0.089
 4353SOL     OW15017   1.940   0.556   1.386
 4353SOL    HW115018   2.032   0.555   1.345
 4353SOL    HW215019   1.934   0.630   1.453
 4354SOL     OW15020   2.423   0.222   1.147
 4354SOL    HW115021   2.461   0.138   1.184
 4354SOL    HW215022   2.335   0.241   1.191
 4355SOL     OW15023   2.728   0.454   0.642
 4355SOL    HW115024   2.696   0.526   0.580
 4355SOL    HW215025   2.752   0.373   0.589
 4356SOL     OW15026   2.879   0.039   0.753
 4356SOL    HW115027   2.807   0.044   0.684
 4356SOL    HW215028   2.855  -0.030   0.822
 4357SOL     OW15029   3.291   1.173   0.867
 4357SOL    HW115030   3.236   1.089   0.860
 4357SOL    HW215031   3.317   1.202   0.775
 4358SOL     OW15032   3.328   0.590   0.992
 4358SOL    HW115033   3.298   0.495   0.999
 4358SOL    HW215034   3.401   0.606   1.058
 4359SOL     OW15035   3.719   0.833   0.377
 4359SOL    HW115036   3.761   0.769   0.441
 4359SOL    HW215037   3.681   0.782   0.299
 4360SOL     OW15038   2.350   1.385   0.174
 4360SOL    HW115039   2.263   1.370   0.221
 4360SOL    HW215040   2.333   1.411   0.079
 4361SOL     OW15041   3.526   1.280   0.657
 4361SOL    HW115042   3.625   1.288   0.671
 4361SOL    HW215043   3.481   1.364   0.688
 4362SOL     OW15044   3.252   0.575   0.078
 4362SOL    HW115045   3.198   0.554   0.159
 4362SOL    HW215046   3.343   0.534   0.087
 4363SOL     OW15047   2.389   0.256   0.328
 4363SOL    HW115048   2.416   0.197   0.253
 4363SOL    HW215049   2.389   0.351   0.297
 4364SOL     OW15050   3.616   1.223   1.588
 4364SOL    HW115051   3.707   1.184   1.575
 4364SOL    HW215052   3.624   1.319   1.612
 4365SOL     OW15053   2.926   1.347   1.340
 4365SOL    HW115054   2.846   1.324   1.395
 4365SOL    HW215055   3.009   1.321   1.389
 4366SOL     OW15056   3.454   1.629   1.625
 4366SOL    HW115057   3.481   1.663   1.535
 4366SOL    HW215058   3.533   1.591   1.671
 4367SOL     OW15059   2.973   1.195   1.100
 4367SOL    HW115060   2.933   1.239   1.181
 4367SOL    HW215061   2.932   1.232   1.017
 4368SOL     OW15062   3.500   1.099   1.079
 4368SOL    HW115063   3.505   1.180   1.138
 4368SOL    HW215064   3.414   1.101   1.028
 4369SOL     OW15065   2.777   0.089   1.402
 4369SOL    HW115066   2.802   0.069   1.307
 4369SOL    HW215067   2.849   0.145   1.444
 4370SOL     OW15068   2.842   1.116   1.719
 4370SOL    HW115069   2.743   1.122   1.729
 4370SOL    HW215070   2.865   1.036   1.663
 4371SOL     OW15071   2.567   1.050   0.368
 4371SOL    HW115072   2.553   1.057   0.467
 4371SOL    HW215073   2.651   0.999   0.350
 4372SOL     OW15074   2.272   0.813   1.251
 4372SOL    HW115075   2.358   0.825   1.301
 4372SOL    HW215076   2.230   0.726   1.278
 4373SOL     OW15077   3.136   0.386   1.262
 4373SOL    HW115078   3.157   0.460   1.326
 4373SOL    HW215079   3.047   0.403   1.219
 4374SOL     OW15080   1.926   1.564   1.331
 4374SOL    HW115081   1.880   1.646   1.297
 4374SOL    HW215082   2.024   1.583   1.340
 4375SOL     OW15083   2.229   1.100   0.501
 4375SOL    HW115084   2.222   1.183   0.445
 4375SOL    HW215085   2.233   1.020   0.441
 4376SOL     OW15086   2.428   0.537   0.865
 4376SOL    HW115087   2.440   0.603   0.791
 4376SOL    HW215088   2.474   0.571   0.948
 4377SOL     OW15089   3.114   1.348   0.388
 4377SOL    HW115090   3.164   1.425   0.428
 4377SOL    HW215091   3.019   1.350   0.420
 4378SOL     OW15092   3.134   1.445   1.142
 4378SOL    HW115093   3.181   1.458   1.229
 4378SOL    HW215094   3.068   1.371   1.151
 4379SOL     OW15095   3.444   0.639   0.472
 4379SOL    HW115096   3.413   0.700   0.545
 4379SOL    HW215097   3.494   0.691   0.403
 4380SOL     OW15098   2.216   1.510   1.329
 4380SOL    HW115099   2.195   1.466   1.242
 4380SOL    HW215100   2.313   1.536   1.332
 4381SOL     OW15101   2.264   0.751   1.598
 4381SOL    HW115102   2.332   0.806   1.551
 4381SOL    HW215103   2.304   0.663   1.625
 4382SOL     OW15104   3.449   0.779   1.670
 4382SOL    HW115105   3.357   0.817   1.665
 4382SOL    HW215106   3.509   0.826   1.605
 4383SOL     OW15107   2.875   0.105   1.770
 4383SOL    HW115108   2.881   0.190   1.718
 4383SOL    HW215109   2.907   0.029   1.713
 4384SOL     OW15110   2.366   0.050   1.740
 4384SOL    HW115111   2.324  -0.007   1.670
 4384SOL    HW215112   2.300   0.119   1.772
 4385SOL     OW15113   2.435   0.870   1.029
 4385SOL    HW115114   2.479   0.959   1.020
 4385SOL    HW215115   2.372   0.870   1.106
 4386SOL     OW15116   3.222   0.862   1.045
 4386SOL    HW115117   3.147   0.862   0.979
 4386SOL    HW215118   3.259   0.770   1.054
 4387SOL     OW15119   3.071   0.525   0.275
 4387SOL    HW115120   3.084   0.441   0.329
 4387SOL    HW215121   3.042   0.599   0.335
 4388SOL     OW15122   2.169   0.213   1.231
 4388SOL    HW115123   2.146   0.250   1.321
 4388SOL    HW215124   2.139   0.118   1.225
 4389SOL     OW15125   1.899   1.310   1.282
 4389SOL    HW115126   1.952   1.261   1.350
 4389SOL    HW215127   1.921   1.408   1.287
 4390SOL     OW15128   2.594   0.634   1.064
 4390SOL    HW115129   2.653   0.608   0.988
 4390SOL    HW215130   2.566   0.730   1.053
 4391SOL     OW15131   3.590   0.935   1.854
 4391SOL    HW115132   3.544   0.928   1.765
 4391SOL    HW215133   3.528   0.979   1.920
 4392SOL     OW15134   2.169   0.063   0.618
 4392SOL    HW115135   2.158   0.157   0.651
 4392SOL    HW215136   2.164   0.000   0.695
 4393SOL     OW15137   3.484   0.367   0.374
 4393SOL    HW115138   3.486   0.291   0.438
 4393SOL    HW215139   3.436   0.444   0.414
 4394SOL     OW15140   2.885   0.766   0.966
 4394SOL    HW115141   2.900   0.787   1.062
 4394SOL    HW215142   2.855   0.671   0.957
 4395SOL     OW15143   2.842   1.573   1.700
 4395SOL    HW115144   2.822   1.617   1.612
 4395SOL    HW215145   2.881   1.482   1.684
 4396SOL     OW15146   3.721   1.518   1.605
 4396SOL    HW115147   3.735   1.545   1.510
 4396SOL    HW215148   3.804   1.540   1.658
 4397SOL     OW15149   2.212   0.898   1.804
 4397SOL    HW115150   2.288   0.942   1.852
 4397SOL    HW215151   2.247   0.851   1.722
 4398SOL     OW15152   3.402   0.274   0.125
 4398SOL    HW115153   3.341   0.199   0.148
 4398SOL    HW215154   3.424   0.326   0.208
 4399SOL     OW15155   3.165   0.838   0.042
 4399SOL    HW115156   3.199   0.745   0.057
 4399SOL    HW215157   3.183   0.865  -0.053
 4400SOL     OW15158   2.930   1.333   0.849
 4400SOL    HW115159   2.937   1.249   0.794
 4400SOL    HW215160   2.992   1.402   0.813
 4401SOL     OW15161   2.181   0.810   0.949
 4401SOL    HW115162   2.274   0.846   0.954
 4401SOL    HW215163   2.175   0.725   1.001
 4402SOL     OW15164   2.201   0.509   1.006
 4402SOL    HW115165   2.149   0.426   0.989
 4402SOL    HW215166   2.278   0.514   0.942
 4403SOL     OW15167   3.000   0.380   1.678
 4403SOL    HW115168   2.955   0.443   1.742
 4403SOL    HW215169   3.093   0.411   1.661
 4404SOL     OW15170   3.022   0.207   1.477
 4404SOL    HW115171   3.022   0.271   1.554
 4404SOL    HW215172   3.050   0.255   1.394
 4405SOL     OW15173   1.870   1.326   0.200
 4405SOL    HW115174   1.777   1.347   0.169
 4405SOL    HW215175   1.880   1.227   0.213
 4406SOL     OW15176   1.950   1.801   0.927
 4406SOL    HW115177   1.908   1.715   0.900
 4406SOL    HW215178   2.044   1.804   0.893
 4407SOL     OW15179   2.366   1.568   0.910
 4407SOL    HW115180   2.432   1.642   0.919
 4407SOL    HW215181   2.410   1.489   0.868
 4408SOL     OW15182   2.864   0.796   1.238
 4408SOL    HW115183   2.905   0.764   1.324
 4408SOL    HW215184   2.768   0.769   1.235
 4409SOL     OW15185   1.902   0.544   1.114
 4409SOL    HW115186   1.987   0.511   1.073
 4409SOL    HW215187   1.915   0.559   1.212
 4410SOL     OW15188   2.051   0.520   1.722
 4410SOL    HW115189   2.110   0.480   1.652
 4410SOL    HW215190   1.993   0.591   1.681
 4411SOL     OW15191   3.231   0.950   1.660
 4411SOL    HW115192   3.270   1.039   1.680
 4411SOL    HW215193   3.241   0.930   1.563
 4412SOL     OW15194   2.677   0.572   0.325
 4412SOL    HW115195   2.684   0.483   0.279
 4412SOL    HW215196   2.583   0.606   0.317
 4413SOL     OW15197   3.519   0.604   1.206
 4413SOL    HW115198   3.481   0.535   1.268
 4413SOL    HW215199   3.601   0.568   1.162
 4414SOL     OW15200   2.114   1.564   1.744
 4414SOL    HW115201   2.084   1.621   1.820
 4414SOL    HW215202   2.107   1.467   1.770
 4415SOL     OW15203   2.533   0.464   1.269
 4415SOL    HW115204   2.499   0.375   1.239
 4415SOL    HW215205   2.559   0.518   1.189
 4416SOL     OW15206   2.792   1.678   1.465
 4416SOL    HW115207   2.768   1.660   1.370
 4416SOL    HW215208   2.822   1.772   1.475
 4417SOL     OW15209   2.335   0.500   0.191
 4417SOL    HW115210   2.396   0.580   0.195
 4417SOL    HW215211   2.240   0.531   0.198
 4418SOL     OW15212   2.021   1.137   1.466
 4418SOL    HW115213   2.043   1.076   1.542
 4418SOL    HW215214   2.031   1.088   1.380
 4419SOL     OW15215   3.209   1.059   1.234
 4419SOL    HW115216   3.233   0.996   1.160
 4419SOL    HW215217   3.119   1.099   1.216
 4420SOL     OW15218   3.164   0.855   0.309
 4420SOL    HW115219   3.078   0.824   0.351
 4420SOL    HW215220   3.160   0.841   0.210
 4421SOL     OW15221   3.621   1.747   1.154
 4421SOL    HW115222   3.682   1.777   1.081
 4421SOL    HW215223   3.583   1.658   1.132
 4422SOL     OW15224   3.114   1.731   1.128
 4422SOL    HW115225   3.198   1.736   1.074
 4422SOL    HW215226   3.091   1.635   1.146
 4423SOL     OW15227   1.945   1.258   1.022
 4423SOL    HW115228   1.940   1.257   1.122
 4423SOL    HW215229   1.862   1.217   0.984
 4424SOL     OW15230   2.550   1.662   1.716
 4424SOL    HW115231   2.494   1.743   1.725
 4424SOL    HW215232   2.602   1.666   1.630
 4425SOL     OW15233   2.765   0.086   0.133
 4425SOL    HW115234   2.816   0.087   0.047
 4425SOL    HW215235   2.821   0.044   0.204
 4426SOL     OW15236   3.588   0.135   0.523
 4426SOL    HW115237   3.661   0.118   0.456
 4426SOL    HW215238   3.557   0.048   0.561
 4427SOL     OW15239   3.250   1.573   0.477
 4427SOL    HW115240   3.317   1.585   0.403
 4427SOL    HW215241   3.210   1.662   0.500
 4428SOL     OW15242   1.992   1.794   1.851
 4428SOL    HW115243   1.951   1.720   1.904
 4428SOL    HW215244   2.056   1.845   1.909
 4429SOL     OW15245   3.142   0.927   0.672
 4429SOL    HW115246   3.202   0.846   0.674
 4429SOL    HW215247   3.182   0.996   0.612
 4430SOL     OW15248   2.692   1.273   1.422
 4430SOL    HW115249   2.687   1.306   1.517
 4430SOL    HW215250   2.606   1.292   1.376
 4431SOL     OW15251   2.534   1.616   0.154
 4431SOL    HW115252   2.543   1.626   0.055
 4431SOL    HW215253   2.494   1.527   0.175
 4432SOL     OW15254   3.512   1.720   1.394
 4432SOL    HW115255   3.565   1.730   1.310
 4432SOL    HW215256   3.485   1.810   1.428
 4433SOL     OW15257   3.703   0.175   0.963
 4433SOL    HW115258   3.742   0.090   0.927
 4433SOL    HW215259   3.605   0.177   0.944
 4434SOL     OW15260   2.125   0.326   0.720
 4434SOL    HW115261   2.046   0.377   0.686
 4434SOL    HW215262   2.116   0.311   0.818
 4435SOL     OW15263   3.056   1.612   0.031
 4435SOL    HW115264   3.062   1.519   0.068
 4435SOL    HW215265   2.997   1.612  -0.049
 4436SOL     OW15266   2.684   1.002   1.372
 4436SOL    HW115267   2.724   1.001   1.280
 4436SOL    HW215268   2.694   1.094   1.412
 4437SOL     OW15269   2.778   0.910   0.291
 4437SOL    HW115270   2.841   0.948   0.223
 4437SOL    HW215271   2.818   0.827   0.330
 4438SOL     OW15272   3.366   1.607   0.044
 4438SOL    HW115273   3.274   1.644   0.051
 4438SOL    HW215274   3.404   1.627  -0.046
 4439SOL     OW15275   2.234   1.288   1.490
 4439SOL    HW115276   2.221   1.381   1.456
 4439SOL    HW215277   2.150   1.236   1.477
 4440SOL     OW15278   3.476   1.292   1.289
 4440SOL    HW115279   3.536   1.295   1.369
 4440SOL    HW215280   3.401   1.356   1.302
 4441SOL     OW15281   2.901   1.098   0.696
 4441SOL    HW115282   2.831   1.051   0.750
 4441SOL    HW215283   2.960   1.030   0.653
 4442SOL     OW15284   2.876   0.236   0.971
 4442SOL    HW115285   2.868   0.200   0.878
 4442SOL    HW215286   2.874   0.160   1.036
 4443SOL     OW15287   2.452   1.487   0.491
 4443SOL    HW115288   2.494   1.429   0.421
 4443SOL    HW215289   2.408   1.566   0.447
 4444SOL     OW15290   3.571   0.385   1.381
 4444SOL    HW115291   3.644   0.454   1.385
 4444SOL    HW215292   3.599   0.310   1.322
 4445SOL     OW15293   2.117   1.348   0.290
 4445SOL    HW115294   2.021   1.349   0.263
 4445SOL    HW215295   2.129   1.401   0.374
 4446SOL     OW15296   1.967   1.013   1.726
 4446SOL    HW115297   1.890   0.980   1.780
 4446SOL    HW215298   2.052   0.983   1.768
 4447SOL     OW15299   2.534   0.203   1.489
 4447SOL    HW115300   2.624   0.187   1.449
 4447SOL    HW215301   2.542   0.208   1.588
 4448SOL     OW15302   3.302   0.856   1.398
 4448SOL    HW115303   3.245   0.908   1.335
 4448SOL    HW215304   3.398   0.868   1.374
 4449SOL     OW15305   1.934   0.166   0.318
 4449SOL    HW115306   1.917   0.249   0.264
 4449SOL    HW215307   2.024   0.129   0.296
 4450SOL     OW15308   3.045   1.335   0.119
 4450SOL    HW115309   2.946   1.324   0.121
 4450SOL    HW215310   3.079   1.350   0.212
 4451SOL     OW15311   2.475   0.842   1.431
 4451SOL    HW115312   2.531   0.923   1.414
 4451SOL    HW215313   2.534   0.762   1.434
 4452SOL     OW15314   3.355   1.767   0.959
 4452SOL    HW115315   3.388   1.831   0.890
 4452SOL    HW215316   3.421   1.761   1.034
 4453SOL     OW15317   2.578   0.565   1.708
 4453SOL    HW115318   2.597   0.630   1.782
 4453SOL    HW215319   2.638   0.485   1.717
 4454SOL     OW15320   3.312   1.220   1.633
 4454SOL    HW115321   3.303   1.210   1.732
 4454SOL    HW215322   3.408   1.213   1.607
 4455SOL     OW15323   2.252   1.741   1.560
 4455SOL    HW115324   2.161   1.782   1.558
 4455SOL    HW215325   2.245   1.647   1.592
 4456SOL     OW15326   3.536   0.883   1.254
 4456SOL    HW115327   3.509   0.794   1.217
 4456SOL    HW215328   3.537   0.951   1.181
 4457SOL     OW15329   3.087   0.325   0.449
 4457SOL    HW115330   3.152   0.251   0.438
 4457SOL    HW215331   3.107   0.375   0.533
 4458SOL     OW15332   2.456   0.745   0.652
 4458SOL    HW115333   2.506   0.830   0.633
 4458SOL    HW215334   2.368   0.747   0.604
 4459SOL     OW15335   3.639   0.342   1.642
 4459SOL    HW115336   3.622   0.373   1.548
 4459SOL    HW215337   3.555   0.305   1.680
 4460SOL     OW15338   3.592   0.934   1.517
 4460SOL    HW115339   3.630   1.025   1.532
 4460SOL    HW215340   3.584   0.917   1.418
 4461SOL     OW15341   2.721   1.374   0.016
 4461SOL    HW115342   2.675   1.389   0.104
 4461SOL    HW215343   2.765   1.459  -0.014
 4462SOL     OW15344   2.523   1.790   0.953
 4462SOL    HW115345   2.477   1.878   0.940
 4462SOL    HW215346   2.622   1.802   0.946
 4463SOL     OW15347   3.270   1.851   1.720
 4463SOL    HW115348   3.174   1.840   1.693
 4463SOL    HW215349   3.326   1.784   1.672
 4464SOL     OW15350   2.721   0.956   0.861
 4464SOL    HW115351   2.775   0.887   0.909
 4464SOL    HW215352   2.689   1.025   0.927
 4465SOL     OW15353   2.945   0.984   0.087
 4465SOL    HW115354   2.922   1.037   0.005
 4465SOL    HW215355   3.026   0.928   0.068
 4466SOL     OW15356   3.723   1.569   0.851
 4466SOL    HW115357   3.652   1.557   0.781
 4466SOL    HW215358   3.724   1.490   0.911
 4467SOL     OW15359   2.083   1.314   1.844
 4467SOL    HW115360   2.018   1.241   1.823
 4467SOL    HW215361   2.087   1.328   1.942
 4468SOL     OW15362   1.941   1.240   0.653
 4468SOL    HW115363   1.940   1.193   0.741
 4468SOL    HW215364   2.023   1.212   0.602
 4469SOL     OW15365   2.534   1.391   1.624
 4469SOL    HW115366   2.456   1.341   1.662
 4469SOL    HW215367   2.531   1.486   1.655
 4470SOL     OW15368   3.686   0.192   1.227
 4470SOL    HW115369   3.682   0.102   1.271
 4470SOL    HW215370   3.689   0.181   1.128
 4471SOL     OW15371   2.290   0.424   0.520
 4471SOL    HW115372   2.320   0.352   0.458
 4471SOL    HW215373   2.251   0.384   0.603
 4472SOL     OW15374   3.567   1.487   1.104
 4472SOL    HW115375   3.474   1.462   1.077
 4472SOL    HW215376   3.593   1.437   1.186
 4473SOL     OW15377   2.179   0.547   1.280
 4473SOL    HW115378   2.217   0.488   1.352
 4473SOL    HW215379   2.219   0.521   1.192
 4474SOL     OW15380   2.674   1.586   0.687
 4474SOL    HW115381   2.706   1.596   0.593
 4474SOL    HW215382   2.595   1.524   0.689
 4475SOL     OW15383   3.286   0.214   1.112
 4475SOL    HW115384   3.338   0.149   1.167
 4475SOL    HW215385   3.237   0.277   1.173
 4476SOL     OW15386   2.863   0.034   1.154
 4476SOL    HW115387   2.800  -0.038   1.123
 4476SOL    HW215388   2.956  -0.002   1.154
 4477SOL     OW15389   2.632   1.330   0.301
 4477SOL    HW115390   2.586   1.243   0.318
 4477SOL    HW215391   2.723   1.327   0.342
 4478SOL     OW15392   2.480   1.567   1.284
 4478SOL    HW115393   2.475   1.649   1.341
 4478SOL    HW215394   2.569   1.564   1.239
 4479SOL     OW15395   3.214   0.052   0.168
 4479SOL    HW115396   3.249   0.011   0.084
 4479SOL    HW215397   3.124   0.014   0.188
 4480SOL     OW15398   3.162   0.453   0.691
 4480SOL    HW115399   3.103   0.533   0.695
 4480SOL    HW215400   3.177   0.418   0.784
 4481SOL     OW15401   3.455   0.221   0.882
 4481SOL    HW115402   3.371   0.220   0.936
 4481SOL    HW215403   3.457   0.304   0.826
 4482SOL     OW15404   1.901   1.077   0.300
 4482SOL    HW115405   2.000   1.066   0.291
 4482SOL    HW215406   1.861   0.991   0.332
 4483SOL     OW15407   2.737   1.646   0.337
 4483SOL    HW115408   2.660   1.611   0.283
 4483SOL    HW215409   2.705   1.717   0.399
 4484SOL     OW15410   2.092   0.628   1.975
 4484SOL    HW115411   1.999   0.626   2.012
 4484SOL    HW215412   2.093   0.589   1.883
 4485SOL     OW15413   2.087   0.275   2.858
 4485SOL    HW115414   2.122   0.258   2.950
 4485SOL    HW215415   1.999   0.230   2.846
 4486SOL     OW15416   1.881   0.368   2.509
 4486SOL    HW115417   1.799   0.411   2.548
 4486SOL    HW215418   1.853   0.295   2.446
 4487SOL     OW15419   2.431   1.275   3.027
 4487SOL    HW115420   2.338   1.268   2.990
 4487SOL    HW215421   2.442   1.364   3.071
 4488SOL     OW15422   3.417   1.511   2.565
 4488SOL    HW115423   3.360   1.495   2.646
 4488SOL    HW215424   3.358   1.521   2.485
 4489SOL     OW15425   3.605   0.618   2.718
 4489SOL    HW115426   3.638   0.712   2.718
 4489SOL    HW215427   3.656   0.564   2.784
 4490SOL     OW15428   2.997   0.703   2.579
 4490SOL    HW115429   3.054   0.781   2.554
 4490SOL    HW215430   2.937   0.729   2.655
 4491SOL     OW15431   3.617   0.607   2.093
 4491SOL    HW115432   3.605   0.594   1.994
 4491SOL    HW215433   3.587   0.526   2.142
 4492SOL     OW15434   2.630   1.144   2.885
 4492SOL    HW115435   2.552   1.161   2.945
 4492SOL    HW215436   2.664   1.231   2.849
 4493SOL     OW15437   2.712   0.798   3.685
 4493SOL    HW115438   2.708   0.874   3.750
 4493SOL    HW215439   2.734   0.834   3.594
 4494SOL     OW15440   2.547   1.012   2.527
 4494SOL    HW115441   2.616   0.996   2.597
 4494SOL    HW215442   2.474   1.069   2.565
 4495SOL     OW15443   2.548   1.161   3.665
 4495SOL    HW115444   2.608   1.240   3.679
 4495SOL    HW215445   2.462   1.192   3.624
 4496SOL     OW15446   2.197   1.435   2.923
 4496SOL    HW115447   2.119   1.404   2.870
 4496SOL    HW215448   2.255   1.493   2.866
 4497SOL     OW15449   3.322   1.505   3.201
 4497SOL    HW115450   3.346   1.599   3.227
 4497SOL    HW215451   3.306   1.451   3.283
 4498SOL     OW15452   2.300   0.392   3.361
 4498SOL    HW115453   2.382   0.336   3.370
 4498SOL    HW215454   2.219   0.334   3.365
 4499SOL     OW15455   3.465   0.447   2.599
 4499SOL    HW115456   3.391   0.493   2.549
 4499SOL    HW215457   3.516   0.515   2.652
 4500SOL     OW15458   2.093   1.713   2.345
 4500SOL    HW115459   2.127   1.790   2.399
 4500SOL    HW215460   2.137   1.713   2.255
 4501SOL     OW15461   2.989   1.341   3.552
 4501SOL    HW115462   3.036   1.341   3.640
 4501SOL    HW215463   2.941   1.254   3.541
 4502SOL     OW15464   2.092   1.434   2.400
 4502SOL    HW115465   2.066   1.530   2.400
 4502SOL    HW215466   2.021   1.380   2.445
 4503SOL     OW15467   2.102   1.091   2.748
 4503SOL    HW115468   2.116   1.007   2.800
 4503SOL    HW215469   2.047   1.155   2.803
 4504SOL     OW15470   2.482   1.786   3.301
 4504SOL    HW115471   2.390   1.769   3.336
 4504SOL    HW215472   2.510   1.878   3.327
 4505SOL     OW15473   2.468   0.964   1.985
 4505SOL    HW115474   2.475   1.048   1.931
 4505SOL    HW215475   2.514   0.977   2.073
 4506SOL     OW15476   3.456   0.114   3.342
 4506SOL    HW115477   3.438   0.181   3.270
 4506SOL    HW215478   3.453   0.160   3.431
 4507SOL     OW15479   1.984   0.643   2.425
 4507SOL    HW115480   1.939   0.555   2.442
 4507SOL    HW215481   1.983   0.697   2.509
 4508SOL     OW15482   3.704   1.767   2.221
 4508SOL    HW115483   3.758   1.738   2.301
 4508SOL    HW215484   3.734   1.857   2.192
 4509SOL     OW15485   1.889   1.596   1.979
 4509SOL    HW115486   1.870   1.500   2.000
 4509SOL    HW215487   1.856   1.654   2.054
 4510SOL     OW15488   3.551   0.922   2.474
 4510SOL    HW115489   3.646   0.893   2.482
 4510SOL    HW215490   3.543   0.987   2.399
 4511SOL     OW15491   3.503   1.108   2.294
 4511SOL    HW115492   3.589   1.110   2.242
 4511SOL    HW215493   3.517   1.155   2.382
 4512SOL     OW15494   1.975   0.737   3.459
 4512SOL    HW115495   2.063   0.724   3.504
 4512SOL    HW215496   1.962   0.834   3.437
 4513SOL     OW15497   2.475   1.365   2.588
 4513SOL    HW115498   2.426   1.278   2.597
 4513SOL    HW215499   2.452   1.408   2.501
 4514SOL     OW15500   3.155   1.228   3.285
 4514SOL    HW115501   3.192   1.155   3.227
 4514SOL    HW215502   3.207   1.233   3.370
 4515SOL     OW15503   2.671   0.004   2.364
 4515SOL    HW115504   2.711   0.095   2.355
 4515SOL    HW215505   2.571   0.012   2.370
 4516SOL     OW15506   2.059   0.976   3.126
 4516SOL    HW115507   2.148   0.931   3.112
 4516SOL    HW215508   1.986   0.911   3.107
 4517SOL     OW15509   3.387   0.999   2.052
 4517SOL    HW115510   3.324   0.923   2.065
 4517SOL    HW215511   3.435   1.017   2.138
 4518SOL     OW15512   3.049   1.792   3.478
 4518SOL    HW115513   3.073   1.852   3.402
 4518SOL    HW215514   3.056   1.697   3.448
 4519SOL     OW15515   2.179   0.251   3.663
 4519SOL    HW115516   2.250   0.322   3.669
 4519SOL    HW215517   2.091   0.290   3.691
 4520SOL     OW15518   3.328   1.417   2.815
 4520SOL    HW115519   3.269   1.423   2.895
 4520SOL    HW215520   3.313   1.329   2.769
 4521SOL     OW15521   3.529   1.714   2.434
 4521SOL    HW115522   3.488   1.691   2.346
 4521SOL    HW215523   3.511   1.640   2.499
 4522SOL     OW15524   2.460   0.729   2.132
 4522SOL    HW115525   2.484   0.798   2.064
 4522SOL    HW215526   2.382   0.762   2.186
 4523SOL     OW15527   3.143   0.345   2.806
 4523SOL    HW115528   3.057   0.295   2.793
 4523SOL    HW215529   3.205   0.291   2.862
 4524SOL     OW15530   3.438   1.662   2.169
 4524SOL    HW115531   3.527   1.708   2.172
 4524SOL    HW215532   3.417   1.638   2.074
 4525SOL     OW15533   2.669   0.605   3.327
 4525SOL    HW115534   2.622   0.602   3.416
 4525SOL    HW215535   2.618   0.550   3.261
 4526SOL     OW15536   3.256   0.469   3.536
 4526SOL    HW115537   3.236   0.512   3.624
 4526SOL    HW215538   3.334   0.407   3.545
 4527SOL     OW15539   2.835   0.890   3.434
 4527SOL    HW115540   2.881   0.806   3.405
 4527SOL    HW215541   2.779   0.924   3.359
 4528SOL     OW15542   2.853   0.410   3.104
 4528SOL    HW115543   2.776   0.444   3.158
 4528SOL    HW215544   2.819   0.359   3.025
 4529SOL     OW15545   2.903   0.701   2.291
 4529SOL    HW115546   2.929   0.697   2.387
 4529SOL    HW215547   2.818   0.650   2.277
 4530SOL     OW15548   1.938   0.811   2.651
 4530SOL    HW115549   2.037   0.799   2.660
 4530SOL    HW215550   1.914   0.906   2.672
 4531SOL     OW15551   1.992   1.821   3.433
 4531SOL    HW115552   1.982   1.806   3.532
 4531SOL    HW215553   1.906   1.857   3.397
 4532SOL     OW15554   2.727   0.348   2.057
 4532SOL    HW115555   2.786   0.411   2.008
 4532SOL    HW215556   2.746   0.254   2.028
 4533SOL     OW15557   3.581   0.585   3.693
 4533SOL    HW115558   3.555   0.674   3.657
 4533SOL    HW215559   3.579   0.517   3.620
 4534SOL     OW15560   3.224   1.144   2.407
 4534SOL    HW115561   3.307   1.115   2.359
 4534SOL    HW215562   3.175   1.211   2.351
 4535SOL     OW15563   2.412   0.196   2.747
 4535SOL    HW115564   2.407   0.191   2.847
 4535SOL    HW215565   2.414   0.292   2.718
 4536SOL     OW15566   2.870   1.456   2.339
 4536SOL    HW115567   2.824   1.528   2.287
 4536SOL    HW215568   2.866   1.476   2.437
 4537SOL     OW15569   2.213   1.801   2.715
 4537SOL    HW115570   2.263   1.715   2.721
 4537SOL    HW215571   2.278   1.878   2.712
 4538SOL     OW15572   3.657   1.066   2.735
 4538SOL    HW115573   3.595   1.051   2.659
 4538SOL    HW215574   3.605   1.077   2.820
 4539SOL     OW15575   3.089   1.550   3.368
 4539SOL    HW115576   3.095   1.473   3.432
 4539SOL    HW215577   3.037   1.524   3.288
 4540SOL     OW15578   2.183   0.943   2.104
 4540SOL    HW115579   2.265   0.982   2.062
 4540SOL    HW215580   2.156   0.861   2.055
 4541SOL     OW15581   3.320   0.735   2.590
 4541SOL    HW115582   3.315   0.670   2.665
 4541SOL    HW215583   3.400   0.794   2.603
 4542SOL     OW15584   2.323   1.266   3.589
 4542SOL    HW115585   2.273   1.267   3.503
 4542SOL    HW215586   2.260   1.248   3.665
 4543SOL     OW15587   2.973   1.776   2.099
 4543SOL    HW115588   2.913   1.714   2.149
 4543SOL    HW215589   3.004   1.732   2.014
 4544SOL     OW15590   2.064   0.285   3.360
 4544SOL    HW115591   1.984   0.345   3.347
 4544SOL    HW215592   2.054   0.236   3.446
 4545SOL     OW15593   3.494   1.377   1.943
 4545SOL    HW115594   3.462   1.471   1.933
 4545SOL    HW215595   3.418   1.314   1.931
 4546SOL     OW15596   2.326   1.743   2.185
 4546SOL    HW115597   2.359   1.782   2.271
 4546SOL    HW215598   2.402   1.736   2.120
 4547SOL     OW15599   3.262   0.107   2.288
 4547SOL    HW115600   3.238   0.070   2.198
 4547SOL    HW215601   3.361   0.123   2.292
 4548SOL     OW15602   2.111   1.785   3.103
 4548SOL    HW115603   2.168   1.720   3.153
 4548SOL    HW215604   2.095   1.752   3.010
 4549SOL     OW15605   2.802   1.698   2.766
 4549SOL    HW115606   2.882   1.641   2.787
 4549SOL    HW215607   2.753   1.658   2.689
 4550SOL     OW15608   2.244   0.700   2.342
 4550SOL    HW115609   2.289   0.610   2.339
 4550SOL    HW215610   2.150   0.689   2.375
 4551SOL     OW15611   3.409   0.222   3.591
 4551SOL    HW115612   3.404   0.259   3.683
 4551SOL    HW215613   3.337   0.153   3.579
 4552SOL     OW15614   2.476   0.122   1.979
 4552SOL    HW115615   2.574   0.100   1.986
 4552SOL    HW215616   2.445   0.105   1.886
 4553SOL     OW15617   2.643   0.264   3.611
 4553SOL    HW115618   2.710   0.203   3.654
 4553SOL    HW215619   2.570   0.283   3.676
 4554SOL     OW15620   2.750   1.514   3.057
 4554SOL    HW115621   2.727   1.489   2.963
 4554SOL    HW215622   2.811   1.445   3.096
 4555SOL     OW15623   3.213   0.590   3.295
 4555SOL    HW115624   3.241   0.547   3.380
 4555SOL    HW215625   3.238   0.686   3.296
 4556SOL     OW15626   2.665   1.402   2.786
 4556SOL    HW115627   2.755   1.416   2.744
 4556SOL    HW215628   2.594   1.404   2.715
 4557SOL     OW15629   2.784   0.503   2.761
 4557SOL    HW115630   2.759   0.494   2.665
 4557SOL    HW215631   2.832   0.421   2.792
 4558SOL     OW15632   2.401   0.064   2.374
 4558SOL    HW115633   2.320   0.065   2.432
 4558SOL    HW215634   2.404   0.147   2.319
 4559SOL     OW15635   3.296   1.188   1.903
 4559SOL    HW115636   3.328   1.112   1.960
 4559SOL    HW215637   3.204   1.215   1.933
 4560SOL     OW15638   2.159   0.035   2.033
 4560SOL    HW115639   2.208   0.119   2.012
 4560SOL    HW215640   2.221  -0.030   2.078
 4561SOL     OW15641   2.797   0.236   2.342
 4561SOL    HW115642   2.749   0.277   2.264
 4561SOL    HW215643   2.896   0.234   2.323
 4562SOL     OW15644   2.938   0.683   3.326
 4562SOL    HW115645   2.858   0.622   3.329
 4562SOL    HW215646   3.019   0.630   3.302
 4563SOL     OW15647   3.089   1.570   2.655
 4563SOL    HW115648   3.110   1.644   2.590
 4563SOL    HW215649   3.157   1.570   2.728
 4564SOL     OW15650   2.321   1.152   2.603
 4564SOL    HW115651   2.250   1.125   2.668
 4564SOL    HW215652   2.295   1.124   2.510
 4565SOL     OW15653   3.133   1.797   2.453
 4565SOL    HW115654   3.177   1.861   2.389
 4565SOL    HW215655   3.083   1.849   2.523
 4566SOL     OW15656   2.894   0.549   1.878
 4566SOL    HW115657   2.853   0.631   1.839
 4566SOL    HW215658   2.958   0.575   1.951
 4567SOL     OW15659   1.940   0.556   3.248
 4567SOL    HW115660   2.032   0.555   3.207
 4567SOL    HW215661   1.934   0.630   3.315
 4568SOL     OW15662   2.423   0.222   3.009
 4568SOL    HW115663   2.461   0.138   3.046
 4568SOL    HW215664   2.335   0.241   3.053
 4569SOL     OW15665   2.728   0.454   2.504
 4569SOL    HW115666   2.696   0.526   2.442
 4569SOL    HW215667   2.752   0.373   2.451
 4570SOL     OW15668   2.879   0.039   2.615
 4570SOL    HW115669   2.807   0.044   2.546
 4570SOL    HW215670   2.855  -0.030   2.684
 4571SOL     OW15671   3.291   1.173   2.729
 4571SOL    HW115672   3.236   1.089   2.722
 4571SOL    HW215673   3.317   1.202   2.637
 4572SOL     OW15674   3.328   0.590   2.854
 4572SOL    HW115675   3.298   0.495   2.861
 4572SOL    HW215676   3.401   0.606   2.920
 4573SOL     OW15677   3.719   0.833   2.239
 4573SOL    HW115678   3.761   0.769   2.303
 4573SOL    HW215679   3.681   0.782   2.161
 4574SOL     OW15680   2.350   1.385   2.036
 4574SOL    HW115681   2.263   1.370   2.083
 4574SOL    HW215682   2.333   1.411   1.941
 4575SOL     OW15683   3.526   1.280   2.519
 4575SOL    HW115684   3.625   1.288   2.533
 4575SOL    HW215685   3.481   1.364   2.550
 4576SOL     OW15686   3.252   0.575   1.940
 4576SOL    HW115687   3.198   0.554   2.021
 4576SOL    HW215688   3.343   0.534   1.949
 4577SOL     OW15689   2.389   0.256   2.190
 4577SOL    HW115690   2.416   0.197   2.115
 4577SOL    HW215691   2.389   0.351   2.159
 4578SOL     OW15692   3.616   1.223   3.450
 4578SOL    HW115693   3.707   1.184   3.437
 4578SOL    HW215694   3.624   1.319   3.474
 4579SOL     OW15695   2.926   1.347   3.202
 4579SOL    HW115696   2.846   1.324   3.257
 4579SOL    HW215697   3.009   1.321   3.251
 4580SOL     OW15698   3.454   1.629   3.487
 4580SOL    HW115699   3.481   1.663   3.397
 4580SOL    HW215700   3.533   1.591   3.533
 4581SOL     OW15701   2.973   1.195   2.962
 4581SOL    HW115702   2.933   1.239   3.043
 4581SOL    HW215703   2.932   1.232   2.879
 4582SOL     OW15704   3.500   1.099   2.941
 4582SOL    HW115705   3.505   1.180   3.000
 4582SOL    HW215706   3.414   1.101   2.890
 4583SOL     OW15707   2.777   0.089   3.264
 4583SOL    HW115708   2.802   0.069   3.169
 4583SOL    HW215709   2.849   0.145   3.306
 4584SOL     OW15710   2.842   1.116   3.581
 4584SOL    HW115711   2.743   1.122   3.591
 4584SOL    HW215712   2.865   1.036   3.525
 4585SOL     OW15713   2.567   1.050   2.230
 4585SOL    HW115714   2.553   1.057   2.329
 4585SOL    HW215715   2.651   0.999   2.212
 4586SOL     OW15716   2.272   0.813   3.113
 4586SOL    HW115717   2.358   0.825   3.163
 4586SOL    HW215718   2.230   0.726   3.140
 4587SOL     OW15719   3.136   0.386   3.124
 4587SOL    HW115720   3.157   0.460   3.188
 4587SOL    HW215721   3.047   0.403   3.081
 4588SOL     OW15722   1.926   1.564   3.193
 4588SOL    HW115723   1.880   1.646   3.159
 4588SOL    HW215724   2.024   1.583   3.202
 4589SOL     OW15725   2.229   1.100   2.363
 4589SOL    HW115726   2.222   1.183   2.307
 4589SOL    HW215727   2.233   1.020   2.303
 4590SOL     OW15728   2.428   0.537   2.727
 4590SOL    HW115729   2.440   0.603   2.653
 4590SOL    HW215730   2.474   0.571   2.810
 4591SOL     OW15731   3.114   1.348   2.250
 4591SOL    HW115732   3.164   1.425   2.290
 4591SOL    HW215733   3.019   1.350   2.282
 4592SOL     OW15734   3.134   1.445   3.004
 4592SOL    HW115735   3.181   1.458   3.091
 4592SOL    HW215736   3.068   1.371   3.013
 4593SOL     OW15737   3.444   0.639   2.334
 4593SOL    HW115738   3.413   0.700   2.407
 4593SOL    HW215739   3.494   0.691   2.265
 4594SOL     OW15740   2.216   1.510   3.191
 4594SOL    HW115741   2.195   1.466   3.104
 4594SOL    HW215742   2.313   1.536   3.194
 4595SOL     OW15743   2.264   0.751   3.460
 4595SOL    HW115744   2.332   0.806   3.413
 4595SOL    HW215745   2.304   0.663   3.487
 4596SOL     OW15746   3.449   0.779   3.532
 4596SOL    HW115747   3.357   0.817   3.527
 4596SOL    HW215748   3.509   0.826   3.467
 4597SOL     OW15749   2.875   0.105   3.632
 4597SOL    HW115750   2.881   0.190   3.580
 4597SOL    HW215751   2.907   0.029   3.575
 4598SOL     OW15752   2.366   0.050   3.602
 4598SOL    HW115753   2.324  -0.007   3.532
 4598SOL    HW215754   2.300   0.119   3.634
 4599SOL     OW15755   2.435   0.870   2.891
 4599SOL    HW115756   2.479   0.959   2.882
 4599SOL    HW215757   2.372   0.870   2.968
 4600SOL     OW15758   3.222   0.862   2.907
 4600SOL    HW115759   3.147   0.862   2.841
 4600SOL    HW215760   3.259   0.770   2.916
 4601SOL     OW15761   3.071   0.525   2.137
 4601SOL    HW115762   3.084   0.441   2.191
 4601SOL    HW215763   3.042   0.599   2.197
 4602SOL     OW15764   2.169   0.213   3.093
 4602SOL    HW115765   2.146   0.250   3.183
 4602SOL    HW215766   2.139   0.118   3.087
 4603SOL     OW15767   1.899   1.310   3.144
 4603SOL    HW115768   1.952   1.261   3.212
 4603SOL    HW215769   1.921   1.408   3.149
 4604SOL     OW15770   2.594   0.634   2.926
 4604SOL    HW115771   2.653   0.608   2.850
 4604SOL    HW215772   2.566   0.730   2.915
 4605SOL     OW15773   3.590   0.935   3.716
 4605SOL    HW115774   3.544   0.928   3.627
 4605SOL    HW215775   3.528   0.979   3.782
 4606SOL     OW15776   2.169   0.063   2.480
 4606SOL    HW115777   2.158   0.157   2.513
 4606SOL    HW215778   2.164   0.000   2.557
 4607SOL     OW15779   3.484   0.367   2.236
 4607SOL    HW115780   3.486   0.291   2.300
 4607SOL    HW215781   3.436   0.444   2.276
 4608SOL     OW15782   2.885   0.766   2.828
 4608SOL    HW115783   2.900   0.787   2.924
 4608SOL    HW215784   2.855   0.671   2.819
 4609SOL     OW15785   2.842   1.573   3.562
 4609SOL    HW115786   2.822   1.617   3.474
 4609SOL    HW215787   2.881   1.482   3.546
 4610SOL     OW15788   3.721   1.518   3.467
 4610SOL    HW115789   3.735   1.545   3.372
 4610SOL    HW215790   3.804   1.540   3.520
 4611SOL     OW15791   2.212   0.898   3.666
 4611SOL    HW115792   2.288   0.942   3.714
 4611SOL    HW215793   2.247   0.851   3.584
 4612SOL     OW15794   3.402   0.274   1.987
 4612SOL    HW115795   3.341   0.199   2.010
 4612SOL    HW215796   3.424   0.326   2.070
 4613SOL     OW15797   3.165   0.838   1.904
 4613SOL    HW115798   3.199   0.745   1.919
 4613SOL    HW215799   3.183   0.865   1.809
 4614SOL     OW15800   2.930   1.333   2.711
 4614SOL    HW115801   2.937   1.249   2.656
 4614SOL    HW215802   2.992   1.402   2.675
 4615SOL     OW15803   2.181   0.810   2.811
 4615SOL    HW115804   2.274   0.846   2.816
 4615SOL    HW215805   2.175   0.725   2.863
 4616SOL     OW15806   2.201   0.509   2.868
 4616SOL    HW115807   2.149   0.426   2.851
 4616SOL    HW215808   2.278   0.514   2.804
 4617SOL     OW15809   3.000   0.380   3.540
 4617SOL    HW115810   2.955   0.443   3.604
 4617SOL    HW215811   3.093   0.411   3.523
 4618SOL     OW15812   3.022   0.207   3.339
 4618SOL    HW115813   3.022   0.271   3.416
 4618SOL    HW215814   3.050   0.255   3.256
 4619SOL     OW15815   1.870   1.326   2.062
 4619SOL    HW115816   1.777   1.347   2.031
 4619SOL    HW215817   1.880   1.227   2.075
 4620SOL     OW15818   1.950   1.801   2.789
 4620SOL    HW115819   1.908   1.715   2.762
 4620SOL    HW215820   2.044   1.804   2.755
 4621SOL     OW15821   2.366   1.568   2.772
 4621SOL    HW115822   2.432   1.642   2.781
 4621SOL    HW215823   2.410   1.489   2.730
 4622SOL     OW15824   2.864   0.796   3.100
 4622SOL    HW115825   2.905   0.764   3.186
 4622SOL    HW215826   2.768   0.769   3.097
 4623SOL     OW15827   1.902   0.544   2.976
 4623SOL    HW115828   1.987   0.511   2.935
 4623SOL    HW215829   1.915   0.559   3.074
 4624SOL     OW15830   2.051   0.520   3.584
 4624SOL    HW115831   2.110   0.480   3.514
 4624SOL    HW215832   1.993   0.591   3.543
 4625SOL     OW15833   3.231   0.950   3.522
 4625SOL    HW115834   3.270   1.039   3.542
 4625SOL    HW215835   3.241   0.930   3.425
 4626SOL     OW15836   2.677   0.572   2.187
 4626SOL    HW115837   2.684   0.483   2.141
 4626SOL    HW215838   2.583   0.606   2.179
 4627SOL     OW15839   3.519   0.604   3.068
 4627SOL    HW115840   3.481   0.535   3.130
 4627SOL    HW215841   3.601   0.568   3.024
 4628SOL     OW15842   2.114   1.564   3.606
 4628SOL    HW115843   2.084   1.621   3.682
 4628SOL    HW215844   2.107   1.467   3.632
 4629SOL     OW15845   2.533   0.464   3.131
 4629SOL    HW115846   2.499   0.375   3.101
 4629SOL    HW215847   2.559   0.518   3.051
 4630SOL     OW15848   2.792   1.678   3.327
 4630SOL    HW115849   2.768   1.660   3.232
 4630SOL    HW215850   2.822   1.772   3.337
 4631SOL     OW15851   2.335   0.500   2.053
 4631SOL    HW115852   2.396   0.580   2.057
 4631SOL    HW215853   2.240   0.531   2.060
 4632SOL     OW15854   2.021   1.137   3.328
 4632SOL    HW115855   2.043   1.076   3.404
 4632SOL    HW215856   2.031   1.088   3.242
 4633SOL     OW15857   3.209   1.059   3.096
 4633SOL    HW115858   3.233   0.996   3.022
 4633SOL    HW215859   3.119   1.099   3.078
 4634SOL     OW15860   3.164   0.855   2.171
 4634SOL    HW115861   3.078   0.824   2.213
 4634SOL    HW215862   3.160   0.841   2.072
 4635SOL     OW15863   3.621   1.747   3.016
 4635SOL    HW115864   3.682   1.777   2.943
 4635SOL    HW215865   3.583   1.658   2.994
 4636SOL     OW15866   3.114   1.731   2.990
 4636SOL    HW115867   3.198   1.736   2.936
 4636SOL    HW215868   3.091   1.635   3.008
 4637SOL     OW15869   1.945   1.258   2.884
 4637SOL    HW115870   1.940   1.257   2.984
 4637SOL    HW215871   1.862   1.217   2.846
 4638SOL     OW15872   2.550   1.662   3.578
 4638SOL    HW115873   2.494   1.743   3.587
 4638SOL    HW215874   2.602   1.666   3.492
 4639SOL     OW15875   3.588   0.135   2.385
 4639SOL    HW115876   3.661   0.118   2.318
 4639SOL    HW215877   3.557   0.048   2.423
 4640SOL     OW15878   3.250   1.573   2.339
 4640SOL    HW115879   3.317   1.585   2.265
 4640SOL    HW215880   3.210   1.662   2.362
 4641SOL     OW15881   1.992   1.794   3.713
 4641SOL    HW115882   1.951   1.720   3.766
 4641SOL    HW215883   2.056   1.845   3.771
 4642SOL     OW15884   3.142   0.927   2.534
 4642SOL    HW115885   3.202   0.846   2.536
 4642SOL    HW215886   3.182   0.996   2.474
 4643SOL     OW15887   2.692   1.273   3.284
 4643SOL    HW115888   2.687   1.306   3.379
 4643SOL    HW215889   2.606   1.292   3.238
 4644SOL     OW15890   2.534   1.616   2.016
 4644SOL    HW115891   2.543   1.626   1.917
 4644SOL    HW215892   2.494   1.527   2.037
 4645SOL     OW15893   3.512   1.720   3.256
 4645SOL    HW115894   3.565   1.730   3.172
 4645SOL    HW215895   3.485   1.810   3.290
 4646SOL     OW15896   3.703   0.175   2.825
 4646SOL    HW115897   3.742   0.090   2.789
 4646SOL    HW215898   3.605   0.177   2.806
 4647SOL     OW15899   2.125   0.326   2.582
 4647SOL    HW115900   2.046   0.377   2.548
 4647SOL    HW215901   2.116   0.311   2.680
 4648SOL     OW15902   3.056   1.612   1.893
 4648SOL    HW115903   3.062   1.519   1.930
 4648SOL    HW215904   2.997   1.612   1.813
 4649SOL     OW15905   2.684   1.002   3.234
 4649SOL    HW115906   2.724   1.001   3.142
 4649SOL    HW215907   2.694   1.094   3.274
 4650SOL     OW15908   2.778   0.910   2.153
 4650SOL    HW115909   2.841   0.948   2.085
 4650SOL    HW215910   2.818   0.827   2.192
 4651SOL     OW15911   3.366   1.607   1.906
 4651SOL    HW115912   3.274   1.644   1.913
 4651SOL    HW215913   3.404   1.627   1.816
 4652SOL     OW15914   2.234   1.288   3.352
 4652SOL    HW115915   2.221   1.381   3.318
 4652SOL    HW215916   2.150   1.236   3.339
 4653SOL     OW15917   3.476   1.292   3.151
 4653SOL    HW115918   3.536   1.295   3.231
 4653SOL    HW215919   3.401   1.356   3.164
 4654SOL     OW15920   2.901   1.098   2.558
 4654SOL    HW115921   2.831   1.051   2.612
 4654SOL    HW215922   2.960   1.030   2.515
 4655SOL     OW15923   2.876   0.236   2.833
 4655SOL    HW115924   2.868   0.200   2.740
 4655SOL    HW215925   2.874   0.160   2.898
 4656SOL     OW15926   2.452   1.487   2.353
 4656SOL    HW115927   2.494   1.429   2.283
 4656SOL    HW215928   2.408   1.566   2.309
 4657SOL     OW15929   3.571   0.385   3.243
 4657SOL    HW115930   3.644   0.454   3.247
 4657SOL    HW215931   3.599   0.310   3.184
 4658SOL     OW15932   2.117   1.348   2.152
 4658SOL    HW115933   2.021   1.349   2.125
 4658SOL    HW215934   2.129   1.401   2.236
 4659SOL     OW15935   1.967   1.013   3.588
 4659SOL    HW115936   1.890   0.980   3.642
 4659SOL    HW215937   2.052   0.983   3.630
 4660SOL     OW15938   2.534   0.203   3.351
 4660SOL    HW115939   2.624   0.187   3.311
 4660SOL    HW215940   2.542   0.208   3.450
 4661SOL     OW15941   1.937   0.345   1.895
 4661SOL    HW115942   1.845   0.317   1.866
 4661SOL    HW215943   1.968   0.422   1.839
 4662SOL     OW15944   3.302   0.856   3.260
 4662SOL    HW115945   3.245   0.908   3.197
 4662SOL    HW215946   3.398   0.868   3.236
 4663SOL     OW15947   1.934   0.166   2.180
 4663SOL    HW115948   1.917   0.249   2.126
 4663SOL    HW215949   2.024   0.129   2.158
 4664SOL     OW15950   3.045   1.335   1.981
 4664SOL    HW115951   2.946   1.324   1.983
 4664SOL    HW215952   3.079   1.350   2.074
 4665SOL     OW15953   2.475   0.842   3.293
 4665SOL    HW115954   2.531   0.923   3.276
 4665SOL    HW215955   2.534   0.762   3.296
 4666SOL     OW15956   3.355   1.767   2.821
 4666SOL    HW115957   3.388   1.831   2.752
 4666SOL    HW215958   3.421   1.761   2.896
 4667SOL     OW15959   2.578   0.565   3.570
 4667SOL    HW115960   2.597   0.630   3.644
 4667SOL    HW215961   2.638   0.485   3.579
 4668SOL     OW15962   3.312   1.220   3.495
 4668SOL    HW115963   3.303   1.210   3.594
 4668SOL    HW215964   3.408   1.213   3.469
 4669SOL     OW15965   2.252   1.741   3.422
 4669SOL    HW115966   2.161   1.782   3.420
 4669SOL    HW215967   2.245   1.647   3.454
 4670SOL     OW15968   3.536   0.883   3.116
 4670SOL    HW115969   3.509   0.794   3.079
 4670SOL    HW215970   3.537   0.951   3.043
 4671SOL     OW15971   3.087   0.325   2.311
 4671SOL    HW115972   3.152   0.251   2.300
 4671SOL    HW215973   3.107   0.375   2.395
 4672SOL     OW15974   2.456   0.745   2.514
 4672SOL    HW115975   2.506   0.830   2.495
 4672SOL    HW215976   2.368   0.747   2.466
 4673SOL     OW15977   3.639   0.342   3.504
 4673SOL    HW115978   3.622   0.373   3.410
 4673SOL    HW215979   3.555   0.305   3.542
 4674SOL     OW15980   3.592   0.934   3.379
 4674SOL    HW115981   3.630   1.025   3.394
 4674SOL    HW215982   3.584   0.917   3.280
 4675SOL     OW15983   2.721   1.374   1.878
 4675SOL    HW115984   2.675   1.389   1.966
 4675SOL    HW215985   2.765   1.459   1.848
 4676SOL     OW15986   2.523   1.790   2.815
 4676SOL    HW115987   2.477   1.878   2.802
 4676SOL    HW215988   2.622   1.802   2.808
 4677SOL     OW15989   3.270   1.851   3.582
 4677SOL    HW115990   3.174   1.840   3.555
 4677SOL    HW215991   3.326   1.784   3.534
 4678SOL     OW15992   2.721   0.956   2.723
 4678SOL    HW115993   2.775   0.887   2.771
 4678SOL    HW215994   2.689   1.025   2.789
 4679SOL     OW15995   2.945   0.984   1.949
 4679SOL    HW115996   2.922   1.037   1.867
 4679SOL    HW215997   3.026   0.928   1.930
 4680SOL     OW15998   3.723   1.569   2.713
 4680SOL    HW115999   3.652   1.557   2.643
 4680SOL    HW216000   3.724   1.490   2.773
 4681SOL     OW16001   2.083   1.314   3.706
 4681SOL    HW116002   2.018   1.241   3.685
 4681SOL    HW216003   2.087   1.328   3.804
 4682SOL     OW16004   1.941   1.240   2.515
 4682SOL    HW116005   1.940   1.193   2.603
 4682SOL    HW216006   2.023   1.212   2.464
 4683SOL     OW16007   2.534   1.391   3.486
 4683SOL    HW116008   2.456   1.341   3.524
 4683SOL    HW216009   2.531   1.486   3.517
 4684SOL     OW16010   3.686   0.192   3.089
 4684SOL    HW116011   3.682   0.102   3.133
 4684SOL    HW216012   3.689   0.181   2.990
 4685SOL     OW16013   2.290   0.424   2.382
 4685SOL    HW116014   2.320   0.352   2.320
 4685SOL    HW216015   2.251   0.384   2.465
 4686SOL     OW16016   3.567   1.487   2.966
 4686SOL    HW116017   3.474   1.462   2.939
 4686SOL    HW216018   3.593   1.437   3.048
 4687SOL     OW16019   2.179   0.547   3.142
 4687SOL    HW116020   2.217   0.488   3.214
 4687SOL    HW216021   2.219   0.521   3.054
 4688SOL     OW16022   2.674   1.586   2.549
 4688SOL    HW116023   2.706   1.596   2.455
 4688SOL    HW216024   2.595   1.524   2.551
 4689SOL     OW16025   3.286   0.214   2.974
 4689SOL    HW116026   3.338   0.149   3.029
 4689SOL    HW216027   3.237   0.277   3.035
 4690SOL     OW16028   2.863   0.034   3.016
 4690SOL    HW116029   2.800  -0.038   2.985
 4690SOL    HW216030   2.956  -0.002   3.016
 4691SOL     OW16031   2.632   1.330   2.163
 4691SOL    HW116032   2.586   1.243   2.180
 4691SOL    HW216033   2.723   1.327   2.204
 4692SOL     OW16034   2.480   1.567   3.146
 4692SOL    HW116035   2.475   1.649   3.203
 4692SOL    HW216036   2.569   1.564   3.101
 4693SOL     OW16037   3.214   0.052   2.030
 4693SOL    HW116038   3.249   0.011   1.946
 4693SOL    HW216039   3.124   0.014   2.050
 4694SOL     OW16040   3.162   0.453   2.553
 4694SOL    HW116041   3.103   0.533   2.557
 4694SOL    HW216042   3.177   0.418   2.646
 4695SOL     OW16043   3.455   0.221   2.744
 4695SOL    HW116044   3.371   0.220   2.798
 4695SOL    HW216045   3.457   0.304   2.688
 4696SOL     OW16046   1.901   1.077   2.162
 4696SOL    HW116047   2.000   1.066   2.153
 4696SOL    HW216048   1.861   0.991   2.194
 4697SOL     OW16049   2.737   1.646   2.199
 4697SOL    HW116050   2.660   1.611   2.145
 4697SOL    HW216051   2.705   1.717   2.261
 4698SOL     OW16052   2.092   0.628   3.837
 4698SOL    HW116053   1.999   0.626   3.874
 4698SOL    HW216054   2.093   0.589   3.745
 4699SOL     OW16055   2.087   0.275   4.720
 4699SOL    HW116056   2.122   0.258   4.812
 4699SOL    HW216057   1.999   0.230   4.708
 4700SOL     OW16058   1.881   0.368   4.371
 4700SOL    HW116059   1.799   0.411   4.410
 4700SOL    HW216060   1.853   0.295   4.308
 4701SOL     OW16061   2.431   1.275   4.889
 4701SOL    HW116062   2.338   1.268   4.852
 4701SOL    HW216063   2.442   1.364   4.933
 4702SOL     OW16064   3.417   1.511   4.427
 4702SOL    HW116065   3.360   1.495   4.508
 4702SOL    HW216066   3.358   1.521   4.347
 4703SOL     OW16067   3.605   0.618   4.580
 4703SOL    HW116068   3.638   0.712   4.580
 4703SOL    HW216069   3.656   0.564   4.646
 4704SOL     OW16070   2.997   0.703   4.441
 4704SOL    HW116071   3.054   0.781   4.416
 4704SOL    HW216072   2.937   0.729   4.517
 4705SOL     OW16073   3.617   0.607   3.955
 4705SOL    HW116074   3.605   0.594   3.856
 4705SOL    HW216075   3.587   0.526   4.004
 4706SOL     OW16076   2.630   1.144   4.747
 4706SOL    HW116077   2.552   1.161   4.807
 4706SOL    HW216078   2.664   1.231   4.711
 4707SOL     OW16079   2.712   0.798   5.547
 4707SOL    HW116080   2.708   0.874   5.612
 4707SOL    HW216081   2.734   0.834   5.456
 4708SOL     OW16082   2.547   1.012   4.389
 4708SOL    HW116083   2.616   0.996   4.459
 4708SOL    HW216084   2.474   1.069   4.427
 4709SOL     OW16085   2.548   1.161   5.527
 4709SOL    HW116086   2.608   1.240   5.541
 4709SOL    HW216087   2.462   1.192   5.486
 4710SOL     OW16088   2.197   1.435   4.785
 4710SOL    HW116089   2.119   1.404   4.732
 4710SOL    HW216090   2.255   1.493   4.728
 4711SOL     OW16091   3.322   1.505   5.063
 4711SOL    HW116092   3.346   1.599   5.089
 4711SOL    HW216093   3.306   1.451   5.145
 4712SOL     OW16094   2.300   0.392   5.223
 4712SOL    HW116095   2.382   0.336   5.232
 4712SOL    HW216096   2.219   0.334   5.227
 4713SOL     OW16097   3.465   0.447   4.461
 4713SOL    HW116098   3.391   0.493   4.411
 4713SOL    HW216099   3.516   0.515   4.514
 4714SOL     OW16100   2.093   1.713   4.207
 4714SOL    HW116101   2.127   1.790   4.261
 4714SOL    HW216102   2.137   1.713   4.117
 4715SOL     OW16103   2.989   1.341   5.414
 4715SOL    HW116104   3.036   1.341   5.502
 4715SOL    HW216105   2.941   1.254   5.403
 4716SOL     OW16106   2.092   1.434   4.262
 4716SOL    HW116107   2.066   1.530   4.262
 4716SOL    HW216108   2.021   1.380   4.307
 4717SOL     OW16109   2.102   1.091   4.610
 4717SOL    HW116110   2.116   1.007   4.662
 4717SOL    HW216111   2.047   1.155   4.665
 4718SOL     OW16112   2.482   1.786   5.163
 4718SOL    HW116113   2.390   1.769   5.198
 4718SOL    HW216114   2.510   1.878   5.189
 4719SOL     OW16115   2.468   0.964   3.847
 4719SOL    HW116116   2.475   1.048   3.793
 4719SOL    HW216117   2.514   0.977   3.935
 4720SOL     OW16118   3.456   0.114   5.204
 4720SOL    HW116119   3.438   0.181   5.132
 4720SOL    HW216120   3.453   0.160   5.293
 4721SOL     OW16121   1.984   0.643   4.287
 4721SOL    HW116122   1.939   0.555   4.304
 4721SOL    HW216123   1.983   0.697   4.371
 4722SOL     OW16124   3.704   1.767   4.083
 4722SOL    HW116125   3.758   1.738   4.163
 4722SOL    HW216126   3.734   1.857   4.054
 4723SOL     OW16127   1.889   1.596   3.841
 4723SOL    HW116128   1.870   1.500   3.862
 4723SOL    HW216129   1.856   1.654   3.916
 4724SOL     OW16130   3.551   0.922   4.336
 4724SOL    HW116131   3.646   0.893   4.344
 4724SOL    HW216132   3.543   0.987   4.261
 4725SOL     OW16133   3.503   1.108   4.156
 4725SOL    HW116134   3.589   1.110   4.104
 4725SOL    HW216135   3.517   1.155   4.244
 4726SOL     OW16136   1.975   0.737   5.321
 4726SOL    HW116137   2.063   0.724   5.366
 4726SOL    HW216138   1.962   0.834   5.299
 4727SOL     OW16139   2.475   1.365   4.450
 4727SOL    HW116140   2.426   1.278   4.459
 4727SOL    HW216141   2.452   1.408   4.363
 4728SOL     OW16142   3.155   1.228   5.147
 4728SOL    HW116143   3.192   1.155   5.089
 4728SOL    HW216144   3.207   1.233   5.232
 4729SOL     OW16145   2.671   0.004   4.226
 4729SOL    HW116146   2.711   0.095   4.217
 4729SOL    HW216147   2.571   0.012   4.232
 4730SOL     OW16148   2.059   0.976   4.988
 4730SOL    HW116149   2.148   0.931   4.974
 4730SOL    HW216150   1.986   0.911   4.969
 4731SOL     OW16151   3.387   0.999   3.914
 4731SOL    HW116152   3.324   0.923   3.927
 4731SOL    HW216153   3.435   1.017   4.000
 4732SOL     OW16154   3.049   1.792   5.340
 4732SOL    HW116155   3.073   1.852   5.264
 4732SOL    HW216156   3.056   1.697   5.310
 4733SOL     OW16157   2.179   0.251   5.525
 4733SOL    HW116158   2.250   0.322   5.531
 4733SOL    HW216159   2.091   0.290   5.553
 4734SOL     OW16160   3.328   1.417   4.677
 4734SOL    HW116161   3.269   1.423   4.757
 4734SOL    HW216162   3.313   1.329   4.631
 4735SOL     OW16163   3.529   1.714   4.296
 4735SOL    HW116164   3.488   1.691   4.208
 4735SOL    HW216165   3.511   1.640   4.361
 4736SOL     OW16166   2.460   0.729   3.994
 4736SOL    HW116167   2.484   0.798   3.926
 4736SOL    HW216168   2.382   0.762   4.048
 4737SOL     OW16169   3.143   0.345   4.668
 4737SOL    HW116170   3.057   0.295   4.655
 4737SOL    HW216171   3.205   0.291   4.724
 4738SOL     OW16172   3.438   1.662   4.031
 4738SOL    HW116173   3.527   1.708   4.034
 4738SOL    HW216174   3.417   1.638   3.936
 4739SOL     OW16175   2.669   0.605   5.189
 4739SOL    HW116176   2.622   0.602   5.278
 4739SOL    HW216177   2.618   0.550   5.123
 4740SOL     OW16178   3.256   0.469   5.398
 4740SOL    HW116179   3.236   0.512   5.486
 4740SOL    HW216180   3.334   0.407   5.407
 4741SOL     OW16181   2.835   0.890   5.296
 4741SOL    HW116182   2.881   0.806   5.267
 4741SOL    HW216183   2.779   0.924   5.221
 4742SOL     OW16184   2.853   0.410   4.966
 4742SOL    HW116185   2.776   0.444   5.020
 4742SOL    HW216186   2.819   0.359   4.887
 4743SOL     OW16187   2.903   0.701   4.153
 4743SOL    HW116188   2.929   0.697   4.249
 4743SOL    HW216189   2.818   0.650   4.139
 4744SOL     OW16190   1.938   0.811   4.513
 4744SOL    HW116191   2.037   0.799   4.522
 4744SOL    HW216192   1.914   0.906   4.534
 4745SOL     OW16193   1.992   1.821   5.295
 4745SOL    HW116194   1.982   1.806   5.394
 4745SOL    HW216195   1.906   1.857   5.259
 4746SOL     OW16196   2.727   0.348   3.919
 4746SOL    HW116197   2.786   0.411   3.870
 4746SOL    HW216198   2.746   0.254   3.890
 4747SOL     OW16199   3.581   0.585   5.555
 4747SOL    HW116200   3.555   0.674   5.519
 4747SOL    HW216201   3.579   0.517   5.482
 4748SOL     OW16202   3.224   1.144   4.269
 4748SOL    HW116203   3.307   1.115   4.221
 4748SOL    HW216204   3.175   1.211   4.213
 4749SOL     OW16205   2.412   0.196   4.609
 4749SOL    HW116206   2.407   0.191   4.709
 4749SOL    HW216207   2.414   0.292   4.580
 4750SOL     OW16208   2.870   1.456   4.201
 4750SOL    HW116209   2.824   1.528   4.149
 4750SOL    HW216210   2.866   1.476   4.299
 4751SOL     OW16211   2.213   1.801   4.577
 4751SOL    HW116212   2.263   1.715   4.583
 4751SOL    HW216213   2.278   1.878   4.574
 4752SOL     OW16214   3.657   1.066   4.597
 4752SOL    HW116215   3.595   1.051   4.521
 4752SOL    HW216216   3.605   1.077   4.682
 4753SOL     OW16217   3.089   1.550   5.230
 4753SOL    HW116218   3.095   1.473   5.294
 4753SOL    HW216219   3.037   1.524   5.150
 4754SOL     OW16220   2.183   0.943   3.966
 4754SOL    HW116221   2.265   0.982   3.924
 4754SOL    HW216222   2.156   0.861   3.917
 4755SOL     OW16223   3.320   0.735   4.452
 4755SOL    HW116224   3.315   0.670   4.527
 4755SOL    HW216225   3.400   0.794   4.465
 4756SOL     OW16226   2.323   1.266   5.451
 4756SOL    HW116227   2.273   1.267   5.365
 4756SOL    HW216228   2.260   1.248   5.527
 4757SOL     OW16229   2.973   1.776   3.961
 4757SOL    HW116230   2.913   1.714   4.011
 4757SOL    HW216231   3.004   1.732   3.876
 4758SOL     OW16232   2.064   0.285   5.222
 4758SOL    HW116233   1.984   0.345   5.209
 4758SOL    HW216234   2.054   0.236   5.308
 4759SOL     OW16235   3.494   1.377   3.805
 4759SOL    HW116236   3.462   1.471   3.795
 4759SOL    HW216237   3.418   1.314   3.793
 4760SOL     OW16238   2.326   1.743   4.047
 4760SOL    HW116239   2.359   1.782   4.133
 4760SOL    HW216240   2.402   1.736   3.982
 4761SOL     OW16241   3.262   0.107   4.150
 4761SOL    HW116242   3.238   0.070   4.060
 4761SOL    HW216243   3.361   0.123   4.154
 4762SOL     OW16244   2.111   1.785   4.965
 4762SOL    HW116245   2.168   1.720   5.015
 4762SOL    HW216246   2.095   1.752   4.872
 4763SOL     OW16247   2.802   1.698   4.628
 4763SOL    HW116248   2.882   1.641   4.649
 4763SOL    HW216249   2.753   1.658   4.551
 4764SOL     OW16250   2.244   0.700   4.204
 4764SOL    HW116251   2.289   0.610   4.201
 4764SOL    HW216252   2.150   0.689   4.237
 4765SOL     OW16253   3.409   0.222   5.453
 4765SOL    HW116254   3.404   0.259   5.545
 4765SOL    HW216255   3.337   0.153   5.441
 4766SOL     OW16256   2.476   0.122   3.841
 4766SOL    HW116257   2.574   0.100   3.848
 4766SOL    HW216258   2.445   0.105   3.748
 4767SOL     OW16259   2.643   0.264   5.473
 4767SOL    HW116260   2.710   0.203   5.516
 4767SOL    HW216261   2.570   0.283   5.538
 4768SOL     OW16262   2.750   1.514   4.919
 4768SOL    HW116263   2.727   1.489   4.825
 4768SOL    HW216264   2.811   1.445   4.958
 4769SOL     OW16265   3.213   0.590   5.157
 4769SOL    HW116266   3.241   0.547   5.242
 4769SOL    HW216267   3.238   0.686   5.158
 4770SOL     OW16268   2.665   1.402   4.648
 4770SOL    HW116269   2.755   1.416   4.606
 4770SOL    HW216270   2.594   1.404   4.577
 4771SOL     OW16271   2.784   0.503   4.623
 4771SOL    HW116272   2.759   0.494   4.527
 4771SOL    HW216273   2.832   0.421   4.654
 4772SOL     OW16274   2.401   0.064   4.236
 4772SOL    HW116275   2.320   0.065   4.294
 4772SOL    HW216276   2.404   0.147   4.181
 4773SOL     OW16277   3.296   1.188   3.765
 4773SOL    HW116278   3.328   1.112   3.822
 4773SOL    HW216279   3.204   1.215   3.795
 4774SOL     OW16280   2.159   0.035   3.895
 4774SOL    HW116281   2.208   0.119   3.874
 4774SOL    HW216282   2.221  -0.030   3.940
 4775SOL     OW16283   2.797   0.236   4.204
 4775SOL    HW116284   2.749   0.277   4.126
 4775SOL    HW216285   2.896   0.234   4.185
 4776SOL     OW16286   2.938   0.683   5.188
 4776SOL    HW116287   2.858   0.622   5.191
 4776SOL    HW216288   3.019   0.630   5.164
 4777SOL     OW16289   3.089   1.570   4.517
 4777SOL    HW116290   3.110   1.644   4.452
 4777SOL    HW216291   3.157   1.570   4.590
 4778SOL     OW16292   2.321   1.152   4.465
 4778SOL    HW116293   2.250   1.125   4.530
 4778SOL    HW216294   2.295   1.124   4.372
 4779SOL     OW16295   3.133   1.797   4.315
 4779SOL    HW116296   3.177   1.861   4.251
 4779SOL    HW216297   3.083   1.849   4.385
 4780SOL     OW16298   2.894   0.549   3.740
 4780SOL    HW116299   2.853   0.631   3.701
 4780SOL    HW216300   2.958   0.575   3.813
 4781SOL     OW16301   1.940   0.556   5.110
 4781SOL    HW116302   2.032   0.555   5.069
 4781SOL    HW216303   1.934   0.630   5.177
 4782SOL     OW16304   2.423   0.222   4.871
 4782SOL    HW116305   2.461   0.138   4.908
 4782SOL    HW216306   2.335   0.241   4.915
 4783SOL     OW16307   2.728   0.454   4.366
 4783SOL    HW116308   2.696   0.526   4.304
 4783SOL    HW216309   2.752   0.373   4.313
 4784SOL     OW16310   2.879   0.039   4.477
 4784SOL    HW116311   2.807   0.044   4.408
 4784SOL    HW216312   2.855  -0.030   4.546
 4785SOL     OW16313   3.291   1.173   4.591
 4785SOL    HW116314   3.236   1.089   4.584
 4785SOL    HW216315   3.317   1.202   4.499
 4786SOL     OW16316   3.328   0.590   4.716
 4786SOL    HW116317   3.298   0.495   4.723
 4786SOL    HW216318   3.401   0.606   4.782
 4787SOL     OW16319   3.719   0.833   4.101
 4787SOL    HW116320   3.761   0.769   4.165
 4787SOL    HW216321   3.681   0.782   4.023
 4788SOL     OW16322   2.350   1.385   3.898
 4788SOL    HW116323   2.263   1.370   3.945
 4788SOL    HW216324   2.333   1.411   3.803
 4789SOL     OW16325   3.526   1.280   4.381
 4789SOL    HW116326   3.625   1.288   4.395
 4789SOL    HW216327   3.481   1.364   4.412
 4790SOL     OW16328   3.252   0.575   3.802
 4790SOL    HW116329   3.198   0.554   3.883
 4790SOL    HW216330   3.343   0.534   3.811
 4791SOL     OW16331   2.389   0.256   4.052
 4791SOL    HW116332   2.416   0.197   3.977
 4791SOL    HW216333   2.389   0.351   4.021
 4792SOL     OW16334   3.616   1.223   5.312
 4792SOL    HW116335   3.707   1.184   5.299
 4792SOL    HW216336   3.624   1.319   5.336
 4793SOL     OW16337   2.926   1.347   5.064
 4793SOL    HW116338   2.846   1.324   5.119
 4793SOL    HW216339   3.009   1.321   5.113
 4794SOL     OW16340   3.454   1.629   5.349
 4794SOL    HW116341   3.481   1.663   5.259
 4794SOL    HW216342   3.533   1.591   5.395
 4795SOL     OW16343   2.973   1.195   4.824
 4795SOL    HW116344   2.933   1.239   4.905
 4795SOL    HW216345   2.932   1.232   4.741
 4796SOL     OW16346   3.500   1.099   4.803
 4796SOL    HW116347   3.505   1.180   4.862
 4796SOL    HW216348   3.414   1.101   4.752
 4797SOL     OW16349   2.777   0.089   5.126
 4797SOL    HW116350   2.802   0.069   5.031
 4797SOL    HW216351   2.849   0.145   5.168
 4798SOL     OW16352   2.842   1.116   5.443
 4798SOL    HW116353   2.743   1.122   5.453
 4798SOL    HW216354   2.865   1.036   5.387
 4799SOL     OW16355   2.567   1.050   4.092
 4799SOL    HW116356   2.553   1.057   4.191
 4799SOL    HW216357   2.651   0.999   4.074
 4800SOL     OW16358   2.272   0.813   4.975
 4800SOL    HW116359   2.358   0.825   5.025
 4800SOL    HW216360   2.230   0.726   5.002
 4801SOL     OW16361   3.136   0.386   4.986
 4801SOL    HW116362   3.157   0.460   5.050
 4801SOL    HW216363   3.047   0.403   4.943
 4802SOL     OW16364   1.926   1.564   5.055
 4802SOL    HW116365   1.880   1.646   5.021
 4802SOL    HW216366   2.024   1.583   5.064
 4803SOL     OW16367   2.229   1.100   4.225
 4803SOL    HW116368   2.222   1.183   4.169
 4803SOL    HW216369   2.233   1.020   4.165
 4804SOL     OW16370   2.428   0.537   4.589
 4804SOL    HW116371   2.440   0.603   4.515
 4804SOL    HW216372   2.474   0.571   4.672
 4805SOL     OW16373   3.114   1.348   4.112
 4805SOL    HW116374   3.164   1.425   4.152
 4805SOL    HW216375   3.019   1.350   4.144
 4806SOL     OW16376   3.134   1.445   4.866
 4806SOL    HW116377   3.181   1.458   4.953
 4806SOL    HW216378   3.068   1.371   4.875
 4807SOL     OW16379   3.444   0.639   4.196
 4807SOL    HW116380   3.413   0.700   4.269
 4807SOL    HW216381   3.494   0.691   4.127
 4808SOL     OW16382   2.216   1.510   5.053
 4808SOL    HW116383   2.195   1.466   4.966
 4808SOL    HW216384   2.313   1.536   5.056
 4809SOL     OW16385   2.264   0.751   5.322
 4809SOL    HW116386   2.332   0.806   5.275
 4809SOL    HW216387   2.304   0.663   5.349
 4810SOL     OW16388   3.449   0.779   5.394
 4810SOL    HW116389   3.357   0.817   5.389
 4810SOL    HW216390   3.509   0.826   5.329
 4811SOL     OW16391   2.875   0.105   5.494
 4811SOL    HW116392   2.881   0.190   5.442
 4811SOL    HW216393   2.907   0.029   5.437
 4812SOL     OW16394   2.366   0.050   5.464
 4812SOL    HW116395   2.324  -0.007   5.394
 4812SOL    HW216396   2.300   0.119   5.496
 4813SOL     OW16397   2.435   0.870   4.753
 4813SOL    HW116398   2.479   0.959   4.744
 4813SOL    HW216399   2.372   0.870   4.830
 4814SOL     OW16400   3.222   0.862   4.769
 4814SOL    HW116401   3.147   0.862   4.703
 4814SOL    HW216402   3.259   0.770   4.778
 4815SOL     OW16403   3.071   0.525   3.999
 4815SOL    HW116404   3.084   0.441   4.053
 4815SOL    HW216405   3.042   0.599   4.059
 4816SOL     OW16406   2.169   0.213   4.955
 4816SOL    HW116407   2.146   0.250   5.045
 4816SOL    HW216408   2.139   0.118   4.949
 4817SOL     OW16409   1.899   1.310   5.006
 4817SOL    HW116410   1.952   1.261   5.074
 4817SOL    HW216411   1.921   1.408   5.011
 4818SOL     OW16412   2.594   0.634   4.788
 4818SOL    HW116413   2.653   0.608   4.712
 4818SOL    HW216414   2.566   0.730   4.777
 4819SOL     OW16415   3.590   0.935   5.578
 4819SOL    HW116416   3.544   0.928   5.489
 4819SOL    HW216417   3.528   0.979   5.644
 4820SOL     OW16418   2.169   0.063   4.342
 4820SOL    HW116419   2.158   0.157   4.375
 4820SOL    HW216420   2.164   0.000   4.419
 4821SOL     OW16421   3.484   0.367   4.098
 4821SOL    HW116422   3.486   0.291   4.162
 4821SOL    HW216423   3.436   0.444   4.138
 4822SOL     OW16424   2.885   0.766   4.690
 4822SOL    HW116425   2.900   0.787   4.786
 4822SOL    HW216426   2.855   0.671   4.681
 4823SOL     OW16427   2.842   1.573   5.424
 4823SOL    HW116428   2.822   1.617   5.336
 4823SOL    HW216429   2.881   1.482   5.408
 4824SOL     OW16430   3.721   1.518   5.329
 4824SOL    HW116431   3.735   1.545   5.234
 4824SOL    HW216432   3.804   1.540   5.382
 4825SOL     OW16433   2.212   0.898   5.528
 4825SOL    HW116434   2.288   0.942   5.576
 4825SOL    HW216435   2.247   0.851   5.446
 4826SOL     OW16436   3.402   0.274   3.849
 4826SOL    HW116437   3.341   0.199   3.872
 4826SOL    HW216438   3.424   0.326   3.932
 4827SOL     OW16439   3.165   0.838   3.766
 4827SOL    HW116440   3.199   0.745   3.781
 4827SOL    HW216441   3.183   0.865   3.671
 4828SOL     OW16442   2.930   1.333   4.573
 4828SOL    HW116443   2.937   1.249   4.518
 4828SOL    HW216444   2.992   1.402   4.537
 4829SOL     OW16445   2.181   0.810   4.673
 4829SOL    HW116446   2.274   0.846   4.678
 4829SOL    HW216447   2.175   0.725   4.725
 4830SOL     OW16448   2.201   0.509   4.730
 4830SOL    HW116449   2.149   0.426   4.713
 4830SOL    HW216450   2.278   0.514   4.666
 4831SOL     OW16451   3.000   0.380   5.402
 4831SOL    HW116452   2.955   0.443   5.466
 4831SOL    HW216453   3.093   0.411   5.385
 4832SOL     OW16454   3.022   0.207   5.201
 4832SOL    HW116455   3.022   0.271   5.278
 4832SOL    HW216456   3.050   0.255   5.118
 4833SOL     OW16457   1.870   1.326   3.924
 4833SOL    HW116458   1.777   1.347   3.893
 4833SOL    HW216459   1.880   1.227   3.937
 4834SOL     OW16460   1.950   1.801   4.651
 4834SOL    HW116461   1.908   1.715   4.624
 4834SOL    HW216462   2.044   1.804   4.617
 4835SOL     OW16463   2.366   1.568   4.634
 4835SOL    HW116464   2.432   1.642   4.643
 4835SOL    HW216465   2.410   1.489   4.592
 4836SOL     OW16466   2.864   0.796   4.962
 4836SOL    HW116467   2.905   0.764   5.048
 4836SOL    HW216468   2.768   0.769   4.959
 4837SOL     OW16469   1.902   0.544   4.838
 4837SOL    HW116470   1.987   0.511   4.797
 4837SOL    HW216471   1.915   0.559   4.936
 4838SOL     OW16472   2.051   0.520   5.446
 4838SOL    HW116473   2.110   0.480   5.376
 4838SOL    HW216474   1.993   0.591   5.405
 4839SOL     OW16475   3.231   0.950   5.384
 4839SOL    HW116476   3.270   1.039   5.404
 4839SOL    HW216477   3.241   0.930   5.287
 4840SOL     OW16478   2.677   0.572   4.049
 4840SOL    HW116479   2.684   0.483   4.003
 4840SOL    HW216480   2.583   0.606   4.041
 4841SOL     OW16481   3.519   0.604   4.930
 4841SOL    HW116482   3.481   0.535   4.992
 4841SOL    HW216483   3.601   0.568   4.886
 4842SOL     OW16484   2.114   1.564   5.468
 4842SOL    HW116485   2.084   1.621   5.544
 4842SOL    HW216486   2.107   1.467   5.494
 4843SOL     OW16487   2.533   0.464   4.993
 4843SOL    HW116488   2.499   0.375   4.963
 4843SOL    HW216489   2.559   0.518   4.913
 4844SOL     OW16490   2.792   1.678   5.189
 4844SOL    HW116491   2.768   1.660   5.094
 4844SOL    HW216492   2.822   1.772   5.199
 4845SOL     OW16493   2.335   0.500   3.915
 4845SOL    HW116494   2.396   0.580   3.919
 4845SOL    HW216495   2.240   0.531   3.922
 4846SOL     OW16496   2.021   1.137   5.190
 4846SOL    HW116497   2.043   1.076   5.266
 4846SOL    HW216498   2.031   1.088   5.104
 4847SOL     OW16499   3.209   1.059   4.958
 4847SOL    HW116500   3.233   0.996   4.884
 4847SOL    HW216501   3.119   1.099   4.940
 4848SOL     OW16502   3.164   0.855   4.033
 4848SOL    HW116503   3.078   0.824   4.075
 4848SOL    HW216504   3.160   0.841   3.934
 4849SOL     OW16505   3.621   1.747   4.878
 4849SOL    HW116506   3.682   1.777   4.805
 4849SOL    HW216507   3.583   1.658   4.856
 4850SOL     OW16508   3.114   1.731   4.852
 4850SOL    HW116509   3.198   1.736   4.798
 4850SOL    HW216510   3.091   1.635   4.870
 4851SOL     OW16511   1.945   1.258   4.746
 4851SOL    HW116512   1.940   1.257   4.846
 4851SOL    HW216513   1.862   1.217   4.708
 4852SOL     OW16514   2.550   1.662   5.440
 4852SOL    HW116515   2.494   1.743   5.449
 4852SOL    HW216516   2.602   1.666   5.354
 4853SOL     OW16517   3.588   0.135   4.247
 4853SOL    HW116518   3.661   0.118   4.180
 4853SOL    HW216519   3.557   0.048   4.285
 4854SOL     OW16520   3.250   1.573   4.201
 4854SOL    HW116521   3.317   1.585   4.127
 4854SOL    HW216522   3.210   1.662   4.224
 4855SOL     OW16523   1.992   1.794   5.575
 4855SOL    HW116524   1.951   1.720   5.628
 4855SOL    HW216525   2.056   1.845   5.633
 4856SOL     OW16526   3.142   0.927   4.396
 4856SOL    HW116527   3.202   0.846   4.398
 4856SOL    HW216528   3.182   0.996   4.336
 4857SOL     OW16529   2.692   1.273   5.146
 4857SOL    HW116530   2.687   1.306   5.241
 4857SOL    HW216531   2.606   1.292   5.100
 4858SOL     OW16532   2.534   1.616   3.878
 4858SOL    HW116533   2.543   1.626   3.779
 4858SOL    HW216534   2.494   1.527   3.899
 4859SOL     OW16535   3.512   1.720   5.118
 4859SOL    HW116536   3.565   1.730   5.034
 4859SOL    HW216537   3.485   1.810   5.152
 4860SOL     OW16538   3.703   0.175   4.687
 4860SOL    HW116539   3.742   0.090   4.651
 4860SOL    HW216540   3.605   0.177   4.668
 4861SOL     OW16541   2.125   0.326   4.444
 4861SOL    HW116542   2.046   0.377   4.410
 4861SOL    HW216543   2.116   0.311   4.542
 4862SOL     OW16544   3.056   1.612   3.755
 4862SOL    HW116545   3.062   1.519   3.792
 4862SOL    HW216546   2.997   1.612   3.675
 4863SOL     OW16547   2.684   1.002   5.096
 4863SOL    HW116548   2.724   1.001   5.004
 4863SOL    HW216549   2.694   1.094   5.136
 4864SOL     OW16550   2.778   0.910   4.015
 4864SOL    HW116551   2.841   0.948   3.947
 4864SOL    HW216552   2.818   0.827   4.054
 4865SOL     OW16553   3.366   1.607   3.768
 4865SOL    HW116554   3.274   1.644   3.775
 4865SOL    HW216555   3.404   1.627   3.678
 4866SOL     OW16556   2.234   1.288   5.214
 4866SOL    HW116557   2.221   1.381   5.180
 4866SOL    HW216558   2.150   1.236   5.201
 4867SOL     OW16559   3.476   1.292   5.013
 4867SOL    HW116560   3.536   1.295   5.093
 4867SOL    HW216561   3.401   1.356   5.026
 4868SOL     OW16562   2.901   1.098   4.420
 4868SOL    HW116563   2.831   1.051   4.474
 4868SOL    HW216564   2.960   1.030   4.377
 4869SOL     OW16565   2.876   0.236   4.695
 4869SOL    HW116566   2.868   0.200   4.602
 4869SOL    HW216567   2.874   0.160   4.760
 4870SOL     OW16568   2.452   1.487   4.215
 4870SOL    HW116569   2.494   1.429   4.145
 4870SOL    HW216570   2.408   1.566   4.171
 4871SOL     OW16571   3.571   0.385   5.105
 4871SOL    HW116572   3.644   0.454   5.109
 4871SOL    HW216573   3.599   0.310   5.046
 4872SOL     OW16574   2.117   1.348   4.014
 4872SOL    HW116575   2.021   1.349   3.987
 4872SOL    HW216576   2.129   1.401   4.098
 4873SOL     OW16577   1.967   1.013   5.450
 4873SOL    HW116578   1.890   0.980   5.504
 4873SOL    HW216579   2.052   0.983   5.492
 4874SOL     OW16580   2.534   0.203   5.213
 4874SOL    HW116581   2.624   0.187   5.173
 4874SOL    HW216582   2.542   0.208   5.312
 4875SOL     OW16583   1.937   0.345   3.757
 4875SOL    HW116584   1.845   0.317   3.728
 4875SOL    HW216585   1.968   0.422   3.701
 4876SOL     OW16586   3.302   0.856   5.122
 4876SOL    HW116587   3.245   0.908   5.059
 4876SOL    HW216588   3.398   0.868   5.098
 4877SOL     OW16589   1.934   0.166   4.042
 4877SOL    HW116590   1.917   0.249   3.988
 4877SOL    HW216591   2.024   0.129   4.020
 4878SOL     OW16592   3.045   1.335   3.843
 4878SOL    HW116593   2.946   1.324   3.845
 4878SOL    HW216594   3.079   1.350   3.936
 4879SOL     OW16595   2.475   0.842   5.155
 4879SOL    HW116596   2.531   0.923   5.138
 4879SOL    HW216597   2.534   0.762   5.158
 4880SOL     OW16598   3.355   1.767   4.683
 4880SOL    HW116599   3.388   1.831   4.614
 4880SOL    HW216600   3.421   1.761   4.758
 4881SOL     OW16601   2.578   0.565   5.432
 4881SOL    HW116602   2.597   0.630   5.506
 4881SOL    HW216603   2.638   0.485   5.441
 4882SOL     OW16604   3.312   1.220   5.357
 4882SOL    HW116605   3.303   1.210   5.456
 4882SOL    HW216606   3.408   1.213   5.331
 4883SOL     OW16607   2.252   1.741   5.284
 4883SOL    HW116608   2.161   1.782   5.282
 4883SOL    HW216609   2.245   1.647   5.316
 4884SOL     OW16610   3.536   0.883   4.978
 4884SOL    HW116611   3.509   0.794   4.941
 4884SOL    HW216612   3.537   0.951   4.905
 4885SOL     OW16613   3.087   0.325   4.173
 4885SOL    HW116614   3.152   0.251   4.162
 4885SOL    HW216615   3.107   0.375   4.257
 4886SOL     OW16616   2.456   0.745   4.376
 4886SOL    HW116617   2.506   0.830   4.357
 4886SOL    HW216618   2.368   0.747   4.328
 4887SOL     OW16619   3.639   0.342   5.366
 4887SOL    HW116620   3.622   0.373   5.272
 4887SOL    HW216621   3.555   0.305   5.404
 4888SOL     OW16622   3.592   0.934   5.241
 4888SOL    HW116623   3.630   1.025   5.256
 4888SOL    HW216624   3.584   0.917   5.142
 4889SOL     OW16625   2.721   1.374   3.740
 4889SOL    HW116626   2.675   1.389   3.828
 4889SOL    HW216627   2.765   1.459   3.710
 4890SOL     OW16628   2.523   1.790   4.677
 4890SOL    HW116629   2.477   1.878   4.664
 4890SOL    HW216630   2.622   1.802   4.670
 4891SOL     OW16631   3.270   1.851   5.444
 4891SOL    HW116632   3.174   1.840   5.417
 4891SOL    HW216633   3.326   1.784   5.396
 4892SOL     OW16634   2.721   0.956   4.585
 4892SOL    HW116635   2.775   0.887   4.633
 4892SOL    HW216636   2.689   1.025   4.651
 4893SOL     OW16637   2.945   0.984   3.811
 4893SOL    HW116638   2.922   1.037   3.729
 4893SOL    HW216639   3.026   0.928   3.792
 4894SOL     OW16640   3.723   1.569   4.575
 4894SOL    HW116641   3.652   1.557   4.505
 4894SOL    HW216642   3.724   1.490   4.635
 4895SOL     OW16643   2.083   1.314   5.568
 4895SOL    HW116644   2.018   1.241   5.547
 4895SOL    HW216645   2.087   1.328   5.666
 4896SOL     OW16646   1.941   1.240   4.377
 4896SOL    HW116647   1.940   1.193   4.465
 4896SOL    HW216648   2.023   1.212   4.326
 4897SOL     OW16649   2.534   1.391   5.348
 4897SOL    HW116650   2.456   1.341   5.386
 4897SOL    HW216651   2.531   1.486   5.379
 4898SOL     OW16652   3.686   0.192   4.951
 4898SOL    HW116653   3.682   0.102   4.995
 4898SOL    HW216654   3.689   0.181   4.852
 4899SOL     OW16655   2.290   0.424   4.244
 4899SOL    HW116656   2.320   0.352   4.182
 4899SOL    HW216657   2.251   0.384   4.327
 4900SOL     OW16658   3.567   1.487   4.828
 4900SOL    HW116659   3.474   1.462   4.801
 4900SOL    HW216660   3.593   1.437   4.910
 4901SOL     OW16661   2.179   0.547   5.004
 4901SOL    HW116662   2.217   0.488   5.076
 4901SOL    HW216663   2.219   0.521   4.916
 4902SOL     OW16664   2.674   1.586   4.411
 4902SOL    HW116665   2.706   1.596   4.317
 4902SOL    HW216666   2.595   1.524   4.413
 4903SOL     OW16667   3.286   0.214   4.836
 4903SOL    HW116668   3.338   0.149   4.891
 4903SOL    HW216669   3.237   0.277   4.897
 4904SOL     OW16670   2.863   0.034   4.878
 4904SOL    HW116671   2.800  -0.038   4.847
 4904SOL    HW216672   2.956  -0.002   4.878
 4905SOL     OW16673   2.632   1.330   4.025
 4905SOL    HW116674   2.586   1.243   4.042
 4905SOL    HW216675   2.723   1.327   4.066
 4906SOL     OW16676   2.480   1.567   5.008
 4906SOL    HW116677   2.475   1.649   5.065
 4906SOL    HW216678   2.569   1.564   4.963
 4907SOL     OW16679   3.214   0.052   3.892
 4907SOL    HW116680   3.249   0.011   3.808
 4907SOL    HW216681   3.124   0.014   3.912
 4908SOL     OW16682   3.162   0.453   4.415
 4908SOL    HW116683   3.103   0.533   4.419
 4908SOL    HW216684   3.177   0.418   4.508
 4909SOL     OW16685   3.455   0.221   4.606
 4909SOL    HW116686   3.371   0.220   4.660
 4909SOL    HW216687   3.457   0.304   4.550
 4910SOL     OW16688   1.901   1.077   4.024
 4910SOL    HW116689   2.000   1.066   4.015
 4910SOL    HW216690   1.861   0.991   4.056
 4911SOL     OW16691   2.737   1.646   4.061
 4911SOL    HW116692   2.660   1.611   4.007
 4911SOL    HW216693   2.705   1.717   4.123
 4912SOL     OW16694   2.092   0.628   5.699
 4912SOL    HW116695   1.999   0.626   5.736
 4912SOL    HW216696   2.093   0.589   5.607
 4913SOL     OW16697   2.087   0.275   6.582
 4913SOL    HW116698   2.122   0.258   6.674
 4913SOL    HW216699   1.999   0.230   6.570
 4914SOL     OW16700   1.881   0.368   6.233
 4914SOL    HW116701   1.799   0.411   6.272
 4914SOL    HW216702   1.853   0.295   6.170
 4915SOL     OW16703   2.431   1.275   6.751
 4915SOL    HW116704   2.338   1.268   6.714
 4915SOL    HW216705   2.442   1.364   6.795
 4916SOL     OW16706   3.417   1.511   6.289
 4916SOL    HW116707   3.360   1.495   6.370
 4916SOL    HW216708   3.358   1.521   6.209
 4917SOL     OW16709   3.605   0.618   6.442
 4917SOL    HW116710   3.638   0.712   6.442
 4917SOL    HW216711   3.656   0.564   6.508
 4918SOL     OW16712   2.997   0.703   6.303
 4918SOL    HW116713   3.054   0.781   6.278
 4918SOL    HW216714   2.937   0.729   6.379
 4919SOL     OW16715   3.617   0.607   5.817
 4919SOL    HW116716   3.605   0.594   5.718
 4919SOL    HW216717   3.587   0.526   5.866
 4920SOL     OW16718   2.630   1.144   6.609
 4920SOL    HW116719   2.552   1.161   6.669
 4920SOL    HW216720   2.664   1.231   6.573
 4921SOL     OW16721   2.712   0.798   7.409
 4921SOL    HW116722   2.708   0.874   7.474
 4921SOL    HW216723   2.734   0.834   7.318
 4922SOL     OW16724   2.547   1.012   6.251
 4922SOL    HW116725   2.616   0.996   6.321
 4922SOL    HW216726   2.474   1.069   6.289
 4923SOL     OW16727   2.548   1.161   7.389
 4923SOL    HW116728   2.608   1.240   7.403
 4923SOL    HW216729   2.462   1.192   7.348
 4924SOL     OW16730   2.197   1.435   6.647
 4924SOL    HW116731   2.119   1.404   6.594
 4924SOL    HW216732   2.255   1.493   6.590
 4925SOL     OW16733   3.322   1.505   6.925
 4925SOL    HW116734   3.346   1.599   6.951
 4925SOL    HW216735   3.306   1.451   7.007
 4926SOL     OW16736   2.300   0.392   7.085
 4926SOL    HW116737   2.382   0.336   7.094
 4926SOL    HW216738   2.219   0.334   7.089
 4927SOL     OW16739   3.465   0.447   6.323
 4927SOL    HW116740   3.391   0.493   6.273
 4927SOL    HW216741   3.516   0.515   6.376
 4928SOL     OW16742   2.093   1.713   6.069
 4928SOL    HW116743   2.127   1.790   6.123
 4928SOL    HW216744   2.137   1.713   5.979
 4929SOL     OW16745   2.989   1.341   7.276
 4929SOL    HW116746   3.036   1.341   7.364
 4929SOL    HW216747   2.941   1.254   7.265
 4930SOL     OW16748   2.092   1.434   6.124
 4930SOL    HW116749   2.066   1.530   6.124
 4930SOL    HW216750   2.021   1.380   6.169
 4931SOL     OW16751   2.102   1.091   6.472
 4931SOL    HW116752   2.116   1.007   6.524
 4931SOL    HW216753   2.047   1.155   6.527
 4932SOL     OW16754   2.482   1.786   7.025
 4932SOL    HW116755   2.390   1.769   7.060
 4932SOL    HW216756   2.510   1.878   7.051
 4933SOL     OW16757   2.468   0.964   5.709
 4933SOL    HW116758   2.475   1.048   5.655
 4933SOL    HW216759   2.514   0.977   5.797
 4934SOL     OW16760   3.456   0.114   7.066
 4934SOL    HW116761   3.438   0.181   6.994
 4934SOL    HW216762   3.453   0.160   7.155
 4935SOL     OW16763   1.984   0.643   6.149
 4935SOL    HW116764   1.939   0.555   6.166
 4935SOL    HW216765   1.983   0.697   6.233
 4936SOL     OW16766   3.704   1.767   5.945
 4936SOL    HW116767   3.758   1.738   6.025
 4936SOL    HW216768   3.734   1.857   5.916
 4937SOL     OW16769   1.889   1.596   5.703
 4937SOL    HW116770   1.870   1.500   5.724
 4937SOL    HW216771   1.856   1.654   5.778
 4938SOL     OW16772   3.551   0.922   6.198
 4938SOL    HW116773   3.646   0.893   6.206
 4938SOL    HW216774   3.543   0.987   6.123
 4939SOL     OW16775   3.503   1.108   6.018
 4939SOL    HW116776   3.589   1.110   5.966
 4939SOL    HW216777   3.517   1.155   6.106
 4940SOL     OW16778   1.975   0.737   7.183
 4940SOL    HW116779   2.063   0.724   7.228
 4940SOL    HW216780   1.962   0.834   7.161
 4941SOL     OW16781   2.475   1.365   6.312
 4941SOL    HW116782   2.426   1.278   6.321
 4941SOL    HW216783   2.452   1.408   6.225
 4942SOL     OW16784   3.155   1.228   7.009
 4942SOL    HW116785   3.192   1.155   6.951
 4942SOL    HW216786   3.207   1.233   7.094
 4943SOL     OW16787   2.671   0.004   6.088
 4943SOL    HW116788   2.711   0.095   6.079
 4943SOL    HW216789   2.571   0.012   6.094
 4944SOL     OW16790   2.059   0.976   6.850
 4944SOL    HW116791   2.148   0.931   6.836
 4944SOL    HW216792   1.986   0.911   6.831
 4945SOL     OW16793   3.387   0.999   5.776
 4945SOL    HW116794   3.324   0.923   5.789
 4945SOL    HW216795   3.435   1.017   5.862
 4946SOL     OW16796   3.049   1.792   7.202
 4946SOL    HW116797   3.073   1.852   7.126
 4946SOL    HW216798   3.056   1.697   7.172
 4947SOL     OW16799   2.179   0.251   7.387
 4947SOL    HW116800   2.250   0.322   7.393
 4947SOL    HW216801   2.091   0.290   7.415
 4948SOL     OW16802   3.328   1.417   6.539
 4948SOL    HW116803   3.269   1.423   6.619
 4948SOL    HW216804   3.313   1.329   6.493
 4949SOL     OW16805   3.529   1.714   6.158
 4949SOL    HW116806   3.488   1.691   6.070
 4949SOL    HW216807   3.511   1.640   6.223
 4950SOL     OW16808   2.460   0.729   5.856
 4950SOL    HW116809   2.484   0.798   5.788
 4950SOL    HW216810   2.382   0.762   5.910
 4951SOL     OW16811   3.143   0.345   6.530
 4951SOL    HW116812   3.057   0.295   6.517
 4951SOL    HW216813   3.205   0.291   6.586
 4952SOL     OW16814   3.438   1.662   5.893
 4952SOL    HW116815   3.527   1.708   5.896
 4952SOL    HW216816   3.417   1.638   5.798
 4953SOL     OW16817   2.669   0.605   7.051
 4953SOL    HW116818   2.622   0.602   7.140
 4953SOL    HW216819   2.618   0.550   6.985
 4954SOL     OW16820   3.256   0.469   7.260
 4954SOL    HW116821   3.236   0.512   7.348
 4954SOL    HW216822   3.334   0.407   7.269
 4955SOL     OW16823   2.835   0.890   7.158
 4955SOL    HW116824   2.881   0.806   7.129
 4955SOL    HW216825   2.779   0.924   7.083
 4956SOL     OW16826   2.853   0.410   6.828
 4956SOL    HW116827   2.776   0.444   6.882
 4956SOL    HW216828   2.819   0.359   6.749
 4957SOL     OW16829   2.903   0.701   6.015
 4957SOL    HW116830   2.929   0.697   6.111
 4957SOL    HW216831   2.818   0.650   6.001
 4958SOL     OW16832   1.938   0.811   6.375
 4958SOL    HW116833   2.037   0.799   6.384
 4958SOL    HW216834   1.914   0.906   6.396
 4959SOL     OW16835   1.992   1.821   7.157
 4959SOL    HW116836   1.982   1.806   7.256
 4959SOL    HW216837   1.906   1.857   7.121
 4960SOL     OW16838   2.727   0.348   5.781
 4960SOL    HW116839   2.786   0.411   5.732
 4960SOL    HW216840   2.746   0.254   5.752
 4961SOL     OW16841   3.581   0.585   7.417
 4961SOL    HW116842   3.555   0.674   7.381
 4961SOL    HW216843   3.579   0.517   7.344
 4962SOL     OW16844   3.224   1.144   6.131
 4962SOL    HW116845   3.307   1.115   6.083
 4962SOL    HW216846   3.175   1.211   6.075
 4963SOL     OW16847   2.412   0.196   6.471
 4963SOL    HW116848   2.407   0.191   6.571
 4963SOL    HW216849   2.414   0.292   6.442
 4964SOL     OW16850   2.870   1.456   6.063
 4964SOL    HW116851   2.824   1.528   6.011
 4964SOL    HW216852   2.866   1.476   6.161
 4965SOL     OW16853   2.213   1.801   6.439
 4965SOL    HW116854   2.263   1.715   6.445
 4965SOL    HW216855   2.278   1.878   6.436
 4966SOL     OW16856   3.657   1.066   6.459
 4966SOL    HW116857   3.595   1.051   6.383
 4966SOL    HW216858   3.605   1.077   6.544
 4967SOL     OW16859   3.089   1.550   7.092
 4967SOL    HW116860   3.095   1.473   7.156
 4967SOL    HW216861   3.037   1.524   7.012
 4968SOL     OW16862   2.183   0.943   5.828
 4968SOL    HW116863   2.265   0.982   5.786
 4968SOL    HW216864   2.156   0.861   5.779
 4969SOL     OW16865   3.320   0.735   6.314
 4969SOL    HW116866   3.315   0.670   6.389
 4969SOL    HW216867   3.400   0.794   6.327
 4970SOL     OW16868   2.323   1.266   7.313
 4970SOL    HW116869   2.273   1.267   7.227
 4970SOL    HW216870   2.260   1.248   7.389
 4971SOL     OW16871   2.973   1.776   5.823
 4971SOL    HW116872   2.913   1.714   5.873
 4971SOL    HW216873   3.004   1.732   5.738
 4972SOL     OW16874   2.064   0.285   7.084
 4972SOL    HW116875   1.984   0.345   7.071
 4972SOL    HW216876   2.054   0.236   7.170
 4973SOL     OW16877   3.494   1.377   5.667
 4973SOL    HW116878   3.462   1.471   5.657
 4973SOL    HW216879   3.418   1.314   5.655
 4974SOL     OW16880   2.326   1.743   5.909
 4974SOL    HW116881   2.359   1.782   5.995
 4974SOL    HW216882   2.402   1.736   5.844
 4975SOL     OW16883   3.262   0.107   6.012
 4975SOL    HW116884   3.238   0.070   5.922
 4975SOL    HW216885   3.361   0.123   6.016
 4976SOL     OW16886   2.111   1.785   6.827
 4976SOL    HW116887   2.168   1.720   6.877
 4976SOL    HW216888   2.095   1.752   6.734
 4977SOL     OW16889   2.802   1.698   6.490
 4977SOL    HW116890   2.882   1.641   6.511
 4977SOL    HW216891   2.753   1.658   6.413
 4978SOL     OW16892   2.244   0.700   6.066
 4978SOL    HW116893   2.289   0.610   6.063
 4978SOL    HW216894   2.150   0.689   6.099
 4979SOL     OW16895   3.409   0.222   7.315
 4979SOL    HW116896   3.404   0.259   7.407
 4979SOL    HW216897   3.337   0.153   7.303
 4980SOL     OW16898   2.476   0.122   5.703
 4980SOL    HW116899   2.574   0.100   5.710
 4980SOL    HW216900   2.445   0.105   5.610
 4981SOL     OW16901   2.643   0.264   7.335
 4981SOL    HW116902   2.710   0.203   7.378
 4981SOL    HW216903   2.570   0.283   7.400
 4982SOL     OW16904   2.750   1.514   6.781
 4982SOL    HW116905   2.727   1.489   6.687
 4982SOL    HW216906   2.811   1.445   6.820
 4983SOL     OW16907   3.213   0.590   7.019
 4983SOL    HW116908   3.241   0.547   7.104
 4983SOL    HW216909   3.238   0.686   7.020
 4984SOL     OW16910   2.665   1.402   6.510
 4984SOL    HW116911   2.755   1.416   6.468
 4984SOL    HW216912   2.594   1.404   6.439
 4985SOL     OW16913   2.784   0.503   6.485
 4985SOL    HW116914   2.759   0.494   6.389
 4985SOL    HW216915   2.832   0.421   6.516
 4986SOL     OW16916   2.401   0.064   6.098
 4986SOL    HW116917   2.320   0.065   6.156
 4986SOL    HW216918   2.404   0.147   6.043
 4987SOL     OW16919   3.296   1.188   5.627
 4987SOL    HW116920   3.328   1.112   5.684
 4987SOL    HW216921   3.204   1.215   5.657
 4988SOL     OW16922   2.159   0.035   5.757
 4988SOL    HW116923   2.208   0.119   5.736
 4988SOL    HW216924   2.221  -0.030   5.802
 4989SOL     OW16925   2.797   0.236   6.066
 4989SOL    HW116926   2.749   0.277   5.988
 4989SOL    HW216927   2.896   0.234   6.047
 4990SOL     OW16928   2.938   0.683   7.050
 4990SOL    HW116929   2.858   0.622   7.053
 4990SOL    HW216930   3.019   0.630   7.026
 4991SOL     OW16931   3.089   1.570   6.379
 4991SOL    HW116932   3.110   1.644   6.314
 4991SOL    HW216933   3.157   1.570   6.452
 4992SOL     OW16934   2.321   1.152   6.327
 4992SOL    HW116935   2.250   1.125   6.392
 4992SOL    HW216936   2.295   1.124   6.234
 4993SOL     OW16937   3.133   1.797   6.177
 4993SOL    HW116938   3.177   1.861   6.113
 4993SOL    HW216939   3.083   1.849   6.247
 4994SOL     OW16940   2.894   0.549   5.602
 4994SOL    HW116941   2.853   0.631   5.563
 4994SOL    HW216942   2.958   0.575   5.675
 4995SOL     OW16943   1.940   0.556   6.972
 4995SOL    HW116944   2.032   0.555   6.931
 4995SOL    HW216945   1.934   0.630   7.039
 4996SOL     OW16946   2.423   0.222   6.733
 4996SOL    HW116947   2.461   0.138   6.770
 4996SOL    HW216948   2.335   0.241   6.777
 4997SOL     OW16949   2.728   0.454   6.228
 4997SOL    HW116950   2.696   0.526   6.166
 4997SOL    HW216951   2.752   0.373   6.175
 4998SOL     OW16952   2.879   0.039   6.339
 4998SOL    HW116953   2.807   0.044   6.270
 4998SOL    HW216954   2.855  -0.030   6.408
 4999SOL     OW16955   3.291   1.173   6.453
 4999SOL    HW116956   3.236   1.089   6.446
 4999SOL    HW216957   3.317   1.202   6.361
 5000SOL     OW16958   3.328   0.590   6.578
 5000SOL    HW116959   3.298   0.495   6.585
 5000SOL    HW216960   3.401   0.606   6.644
 5001SOL     OW16961   3.719   0.833   5.963
 5001SOL    HW116962   3.761   0.769   6.027
 5001SOL    HW216963   3.681   0.782   5.885
 5002SOL     OW16964   2.350   1.385   5.760
 5002SOL    HW116965   2.263   1.370   5.807
 5002SOL    HW216966   2.333   1.411   5.665
 5003SOL     OW16967   3.526   1.280   6.243
 5003SOL    HW116968   3.625   1.288   6.257
 5003SOL    HW216969   3.481   1.364   6.274
 5004SOL     OW16970   3.252   0.575   5.664
 5004SOL    HW116971   3.198   0.554   5.745
 5004SOL    HW216972   3.343   0.534   5.673
 5005SOL     OW16973   2.389   0.256   5.914
 5005SOL    HW116974   2.416   0.197   5.839
 5005SOL    HW216975   2.389   0.351   5.883
 5006SOL     OW16976   3.616   1.223   7.174
 5006SOL    HW116977   3.707   1.184   7.161
 5006SOL    HW216978   3.624   1.319   7.198
 5007SOL     OW16979   2.926   1.347   6.926
 5007SOL    HW116980   2.846   1.324   6.981
 5007SOL    HW216981   3.009   1.321   6.975
 5008SOL     OW16982   3.454   1.629   7.211
 5008SOL    HW116983   3.481   1.663   7.121
 5008SOL    HW216984   3.533   1.591   7.257
 5009SOL     OW16985   2.973   1.195   6.686
 5009SOL    HW116986   2.933   1.239   6.767
 5009SOL    HW216987   2.932   1.232   6.603
 5010SOL     OW16988   3.500   1.099   6.665
 5010SOL    HW116989   3.505   1.180   6.724
 5010SOL    HW216990   3.414   1.101   6.614
 5011SOL     OW16991   2.777   0.089   6.988
 5011SOL    HW116992   2.802   0.069   6.893
 5011SOL    HW216993   2.849   0.145   7.030
 5012SOL     OW16994   2.842   1.116   7.305
 5012SOL    HW116995   2.743   1.122   7.315
 5012SOL    HW216996   2.865   1.036   7.249
 5013SOL     OW16997   2.567   1.050   5.954
 5013SOL    HW116998   2.553   1.057   6.053
 5013SOL    HW216999   2.651   0.999   5.936
 5014SOL     OW17000   2.272   0.813   6.837
 5014SOL    HW117001   2.358   0.825   6.887
 5014SOL    HW217002   2.230   0.726   6.864
 5015SOL     OW17003   3.136   0.386   6.848
 5015SOL    HW117004   3.157   0.460   6.912
 5015SOL    HW217005   3.047   0.403   6.805
 5016SOL     OW17006   1.926   1.564   6.917
 5016SOL    HW117007   1.880   1.646   6.883
 5016SOL    HW217008   2.024   1.583   6.926
 5017SOL     OW17009   2.229   1.100   6.087
 5017SOL    HW117010   2.222   1.183   6.031
 5017SOL    HW217011   2.233   1.020   6.027
 5018SOL     OW17012   2.428   0.537   6.451
 5018SOL    HW117013   2.440   0.603   6.377
 5018SOL    HW217014   2.474   0.571   6.534
 5019SOL     OW17015   3.114   1.348   5.974
 5019SOL    HW117016   3.164   1.425   6.014
 5019SOL    HW217017   3.019   1.350   6.006
 5020SOL     OW17018   3.134   1.445   6.728
 5020SOL    HW117019   3.181   1.458   6.815
 5020SOL    HW217020   3.068   1.371   6.737
 5021SOL     OW17021   3.444   0.639   6.058
 5021SOL    HW117022   3.413   0.700   6.131
 5021SOL    HW217023   3.494   0.691   5.989
 5022SOL     OW17024   2.216   1.510   6.915
 5022SOL    HW117025   2.195   1.466   6.828
 5022SOL    HW217026   2.313   1.536   6.918
 5023SOL     OW17027   2.264   0.751   7.184
 5023SOL    HW117028   2.332   0.806   7.137
 5023SOL    HW217029   2.304   0.663   7.211
 5024SOL     OW17030   3.449   0.779   7.256
 5024SOL    HW117031   3.357   0.817   7.251
 5024SOL    HW217032   3.509   0.826   7.191
 5025SOL     OW17033   2.875   0.105   7.356
 5025SOL    HW117034   2.881   0.190   7.304
 5025SOL    HW217035   2.907   0.029   7.299
 5026SOL     OW17036   2.366   0.050   7.326
 5026SOL    HW117037   2.324  -0.007   7.256
 5026SOL    HW217038   2.300   0.119   7.358
 5027SOL     OW17039   2.435   0.870   6.615
 5027SOL    HW117040   2.479   0.959   6.606
 5027SOL    HW217041   2.372   0.870   6.692
 5028SOL     OW17042   3.222   0.862   6.631
 5028SOL    HW117043   3.147   0.862   6.565
 5028SOL    HW217044   3.259   0.770   6.640
 5029SOL     OW17045   3.071   0.525   5.861
 5029SOL    HW117046   3.084   0.441   5.915
 5029SOL    HW217047   3.042   0.599   5.921
 5030SOL     OW17048   2.169   0.213   6.817
 5030SOL    HW117049   2.146   0.250   6.907
 5030SOL    HW217050   2.139   0.118   6.811
 5031SOL     OW17051   1.899   1.310   6.868
 5031SOL    HW117052   1.952   1.261   6.936
 5031SOL    HW217053   1.921   1.408   6.873
 5032SOL     OW17054   2.594   0.634   6.650
 5032SOL    HW117055   2.653   0.608   6.574
 5032SOL    HW217056   2.566   0.730   6.639
 5033SOL     OW17057   3.590   0.935   7.440
 5033SOL    HW117058   3.544   0.928   7.351
 5033SOL    HW217059   3.528   0.979   7.506
 5034SOL     OW17060   2.169   0.063   6.204
 5034SOL    HW117061   2.158   0.157   6.237
 5034SOL    HW217062   2.164   0.000   6.281
 5035SOL     OW17063   3.484   0.367   5.960
 5035SOL    HW117064   3.486   0.291   6.024
 5035SOL    HW217065   3.436   0.444   6.000
 5036SOL     OW17066   2.885   0.766   6.552
 5036SOL    HW117067   2.900   0.787   6.648
 5036SOL    HW217068   2.855   0.671   6.543
 5037SOL     OW17069   2.842   1.573   7.286
 5037SOL    HW117070   2.822   1.617   7.198
 5037SOL    HW217071   2.881   1.482   7.270
 5038SOL     OW17072   3.721   1.518   7.191
 5038SOL    HW117073   3.735   1.545   7.096
 5038SOL    HW217074   3.804   1.540   7.244
 5039SOL     OW17075   2.212   0.898   7.390
 5039SOL    HW117076   2.288   0.942   7.438
 5039SOL    HW217077   2.247   0.851   7.308
 5040SOL     OW17078   3.402   0.274   5.711
 5040SOL    HW117079   3.341   0.199   5.734
 5040SOL    HW217080   3.424   0.326   5.794
 5041SOL     OW17081   3.165   0.838   5.628
 5041SOL    HW117082   3.199   0.745   5.643
 5041SOL    HW217083   3.183   0.865   5.533
 5042SOL     OW17084   2.930   1.333   6.435
 5042SOL    HW117085   2.937   1.249   6.380
 5042SOL    HW217086   2.992   1.402   6.399
 5043SOL     OW17087   2.181   0.810   6.535
 5043SOL    HW117088   2.274   0.846   6.540
 5043SOL    HW217089   2.175   0.725   6.587
 5044SOL     OW17090   2.201   0.509   6.592
 5044SOL    HW117091   2.149   0.426   6.575
 5044SOL    HW217092   2.278   0.514   6.528
 5045SOL     OW17093   3.000   0.380   7.264
 5045SOL    HW117094   2.955   0.443   7.328
 5045SOL    HW217095   3.093   0.411   7.247
 5046SOL     OW17096   3.022   0.207   7.063
 5046SOL    HW117097   3.022   0.271   7.140
 5046SOL    HW217098   3.050   0.255   6.980
 5047SOL     OW17099   1.870   1.326   5.786
 5047SOL    HW117100   1.777   1.347   5.755
 5047SOL    HW217101   1.880   1.227   5.799
 5048SOL     OW17102   1.950   1.801   6.513
 5048SOL    HW117103   1.908   1.715   6.486
 5048SOL    HW217104   2.044   1.804   6.479
 5049SOL     OW17105   2.366   1.568   6.496
 5049SOL    HW117106   2.432   1.642   6.505
 5049SOL    HW217107   2.410   1.489   6.454
 5050SOL     OW17108   2.864   0.796   6.824
 5050SOL    HW117109   2.905   0.764   6.910
 5050SOL    HW217110   2.768   0.769   6.821
 5051SOL     OW17111   1.902   0.544   6.700
 5051SOL    HW117112   1.987   0.511   6.659
 5051SOL    HW217113   1.915   0.559   6.798
 5052SOL     OW17114   2.051   0.520   7.308
 5052SOL    HW117115   2.110   0.480   7.238
 5052SOL    HW217116   1.993   0.591   7.267
 5053SOL     OW17117   3.231   0.950   7.246
 5053SOL    HW117118   3.270   1.039   7.266
 5053SOL    HW217119   3.241   0.930   7.149
 5054SOL     OW17120   2.677   0.572   5.911
 5054SOL    HW117121   2.684   0.483   5.865
 5054SOL    HW217122   2.583   0.606   5.903
 5055SOL     OW17123   3.519   0.604   6.792
 5055SOL    HW117124   3.481   0.535   6.854
 5055SOL    HW217125   3.601   0.568   6.748
 5056SOL     OW17126   2.114   1.564   7.330
 5056SOL    HW117127   2.084   1.621   7.406
 5056SOL    HW217128   2.107   1.467   7.356
 5057SOL     OW17129   2.533   0.464   6.855
 5057SOL    HW117130   2.499   0.375   6.825
 5057SOL    HW217131   2.559   0.518   6.775
 5058SOL     OW17132   2.792   1.678   7.051
 5058SOL    HW117133   2.768   1.660   6.956
 5058SOL    HW217134   2.822   1.772   7.061
 5059SOL     OW17135   2.335   0.500   5.777
 5059SOL    HW117136   2.396   0.580   5.781
 5059SOL    HW217137   2.240   0.531   5.784
 5060SOL     OW17138   2.021   1.137   7.052
 5060SOL    HW117139   2.043   1.076   7.128
 5060SOL    HW217140   2.031   1.088   6.966
 5061SOL     OW17141   3.209   1.059   6.820
 5061SOL    HW117142   3.233   0.996   6.746
 5061SOL    HW217143   3.119   1.099   6.802
 5062SOL     OW17144   3.164   0.855   5.895
 5062SOL    HW117145   3.078   0.824   5.937
 5062SOL    HW217146   3.160   0.841   5.796
 5063SOL     OW17147   3.621   1.747   6.740
 5063SOL    HW117148   3.682   1.777   6.667
 5063SOL    HW217149   3.583   1.658   6.718
 5064SOL     OW17150   3.114   1.731   6.714
 5064SOL    HW117151   3.198   1.736   6.660
 5064SOL    HW217152   3.091   1.635   6.732
 5065SOL     OW17153   1.945   1.258   6.608
 5065SOL    HW117154   1.940   1.257   6.708
 5065SOL    HW217155   1.862   1.217   6.570
 5066SOL     OW17156   2.550   1.662   7.302
 5066SOL    HW117157   2.494   1.743   7.311
 5066SOL    HW217158   2.602   1.666   7.216
 5067SOL     OW17159   3.588   0.135   6.109
 5067SOL    HW117160   3.661   0.118   6.042
 5067SOL    HW217161   3.557   0.048   6.147
 5068SOL     OW17162   3.250   1.573   6.063
 5068SOL    HW117163   3.317   1.585   5.989
 5068SOL    HW217164   3.210   1.662   6.086
 5069SOL     OW17165   1.992   1.794   7.437
 5069SOL    HW117166   1.951   1.720   7.490
 5069SOL    HW217167   2.056   1.845   7.495
 5070SOL     OW17168   3.142   0.927   6.258
 5070SOL    HW117169   3.202   0.846   6.260
 5070SOL    HW217170   3.182   0.996   6.198
 5071SOL     OW17171   2.692   1.273   7.008
 5071SOL    HW117172   2.687   1.306   7.103
 5071SOL    HW217173   2.606   1.292   6.962
 5072SOL     OW17174   2.534   1.616   5.740
 5072SOL    HW117175   2.543   1.626   5.641
 5072SOL    HW217176   2.494   1.527   5.761
 5073SOL     OW17177   3.512   1.720   6.980
 5073SOL    HW117178   3.565   1.730   6.896
 5073SOL    HW217179   3.485   1.810   7.014
 5074SOL     OW17180   3.703   0.175   6.549
 5074SOL    HW117181   3.742   0.090   6.513
 5074SOL    HW217182   3.605   0.177   6.530
 5075SOL     OW17183   2.125   0.326   6.306
 5075SOL    HW117184   2.046   0.377   6.272
 5075SOL    HW217185   2.116   0.311   6.404
 5076SOL     OW17186   3.056   1.612   5.617
 5076SOL    HW117187   3.062   1.519   5.654
 5076SOL    HW217188   2.997   1.612   5.537
 5077SOL     OW17189   2.684   1.002   6.958
 5077SOL    HW117190   2.724   1.001   6.866
 5077SOL    HW217191   2.694   1.094   6.998
 5078SOL     OW17192   2.778   0.910   5.877
 5078SOL    HW117193   2.841   0.948   5.809
 5078SOL    HW217194   2.818   0.827   5.916
 5079SOL     OW17195   3.366   1.607   5.630
 5079SOL    HW117196   3.274   1.644   5.637
 5079SOL    HW217197   3.404   1.627   5.540
 5080SOL     OW17198   2.234   1.288   7.076
 5080SOL    HW117199   2.221   1.381   7.042
 5080SOL    HW217200   2.150   1.236   7.063
 5081SOL     OW17201   3.476   1.292   6.875
 5081SOL    HW117202   3.536   1.295   6.955
 5081SOL    HW217203   3.401   1.356   6.888
 5082SOL     OW17204   2.901   1.098   6.282
 5082SOL    HW117205   2.831   1.051   6.336
 5082SOL    HW217206   2.960   1.030   6.239
 5083SOL     OW17207   2.876   0.236   6.557
 5083SOL    HW117208   2.868   0.200   6.464
 5083SOL    HW217209   2.874   0.160   6.622
 5084SOL     OW17210   2.452   1.487   6.077
 5084SOL    HW117211   2.494   1.429   6.007
 5084SOL    HW217212   2.408   1.566   6.033
 5085SOL     OW17213   3.571   0.385   6.967
 5085SOL    HW117214   3.644   0.454   6.971
 5085SOL    HW217215   3.599   0.310   6.908
 5086SOL     OW17216   2.117   1.348   5.876
 5086SOL    HW117217   2.021   1.349   5.849
 5086SOL    HW217218   2.129   1.401   5.960
 5087SOL     OW17219   1.967   1.013   7.312
 5087SOL    HW117220   1.890   0.980   7.366
 5087SOL    HW217221   2.052   0.983   7.354
 5088SOL     OW17222   2.534   0.203   7.075
 5088SOL    HW117223   2.624   0.187   7.035
 5088SOL    HW217224   2.542   0.208   7.174
 5089SOL     OW17225   1.937   0.345   5.619
 5089SOL    HW117226   1.845   0.317   5.590
 5089SOL    HW217227   1.968   0.422   5.563
 5090SOL     OW17228   3.302   0.856   6.984
 5090SOL    HW117229   3.245   0.908   6.921
 5090SOL    HW217230   3.398   0.868   6.960
 5091SOL     OW17231   1.934   0.166   5.904
 5091SOL    HW117232   1.917   0.249   5.850
 5091SOL    HW217233   2.024   0.129   5.882
 5092SOL     OW17234   3.045   1.335   5.705
 5092SOL    HW117235   2.946   1.324   5.707
 5092SOL    HW217236   3.079   1.350   5.798
 5093SOL     OW17237   2.475   0.842   7.017
 5093SOL    HW117238   2.531   0.923   7.000
 5093SOL    HW217239   2.534   0.762   7.020
 5094SOL     OW17240   3.355   1.767   6.545
 5094SOL    HW117241   3.388   1.831   6.476
 5094SOL    HW217242   3.421   1.761   6.620
 5095SOL     OW17243   2.578   0.565   7.294
 5095SOL    HW117244   2.597   0.630   7.368
 5095SOL    HW217245   2.638   0.485   7.303
 5096SOL     OW17246   3.312   1.220   7.219
 5096SOL    HW117247   3.303   1.210   7.318
 5096SOL    HW217248   3.408   1.213   7.193
 5097SOL     OW17249   2.252   1.741   7.146
 5097SOL    HW117250   2.161   1.782   7.144
 5097SOL    HW217251   2.245   1.647   7.178
 5098SOL     OW17252   3.536   0.883   6.840
 5098SOL    HW117253   3.509   0.794   6.803
 5098SOL    HW217254   3.537   0.951   6.767
 5099SOL     OW17255   3.087   0.325   6.035
 5099SOL    HW117256   3.152   0.251   6.024
 5099SOL    HW217257   3.107   0.375   6.119
 5100SOL     OW17258   2.456   0.745   6.238
 5100SOL    HW117259   2.506   0.830   6.219
 5100SOL    HW217260   2.368   0.747   6.190
 5101SOL     OW17261   3.639   0.342   7.228
 5101SOL    HW117262   3.622   0.373   7.134
 5101SOL    HW217263   3.555   0.305   7.266
 5102SOL     OW17264   3.592   0.934   7.103
 5102SOL    HW117265   3.630   1.025   7.118
 5102SOL    HW217266   3.584   0.917   7.004
 5103SOL     OW17267   2.721   1.374   5.602
 5103SOL    HW117268   2.675   1.389   5.690
 5103SOL    HW217269   2.765   1.459   5.572
 5104SOL     OW17270   2.523   1.790   6.539
 5104SOL    HW117271   2.477   1.878   6.526
 5104SOL    HW217272   2.622   1.802   6.532
 5105SOL     OW17273   3.270   1.851   7.306
 5105SOL    HW117274   3.174   1.840   7.279
 5105SOL    HW217275   3.326   1.784   7.258
 5106SOL     OW17276   2.721   0.956   6.447
 5106SOL    HW117277   2.775   0.887   6.495
 5106SOL    HW217278   2.689   1.025   6.513
 5107SOL     OW17279   2.945   0.984   5.673
 5107SOL    HW117280   2.922   1.037   5.591
 5107SOL    HW217281   3.026   0.928   5.654
 5108SOL     OW17282   3.723   1.569   6.437
 5108SOL    HW117283   3.652   1.557   6.367
 5108SOL    HW217284   3.724   1.490   6.497
 5109SOL     OW17285   2.083   1.314   7.430
 5109SOL    HW117286   2.018   1.241   7.409
 5109SOL    HW217287   2.087   1.328   7.528
 5110SOL     OW17288   1.941   1.240   6.239
 5110SOL    HW117289   1.940   1.193   6.327
 5110SOL    HW217290   2.023   1.212   6.188
 5111SOL     OW17291   2.534   1.391   7.210
 5111SOL    HW117292   2.456   1.341   7.248
 5111SOL    HW217293   2.531   1.486   7.241
 5112SOL     OW17294   3.686   0.192   6.813
 5112SOL    HW117295   3.682   0.102   6.857
 5112SOL    HW217296   3.689   0.181   6.714
 5113SOL     OW17297   2.290   0.424   6.106
 5113SOL    HW117298   2.320   0.352   6.044
 5113SOL    HW217299   2.251   0.384   6.189
 5114SOL     OW17300   3.567   1.487   6.690
 5114SOL    HW117301   3.474   1.462   6.663
 5114SOL    HW217302   3.593   1.437   6.772
 5115SOL     OW17303   2.179   0.547   6.866
 5115SOL    HW117304   2.217   0.488   6.938
 5115SOL    HW217305   2.219   0.521   6.778
 5116SOL     OW17306   2.674   1.586   6.273
 5116SOL    HW117307   2.706   1.596   6.179
 5116SOL    HW217308   2.595   1.524   6.275
 5117SOL     OW17309   3.286   0.214   6.698
 5117SOL    HW117310   3.338   0.149   6.753
 5117SOL    HW217311   3.237   0.277   6.759
 5118SOL     OW17312   2.863   0.034   6.740
 5118SOL    HW117313   2.800  -0.038   6.709
 5118SOL    HW217314   2.956  -0.002   6.740
 5119SOL     OW17315   2.632   1.330   5.887
 5119SOL    HW117316   2.586   1.243   5.904
 5119SOL    HW217317   2.723   1.327   5.928
 5120SOL     OW17318   2.480   1.567   6.870
 5120SOL    HW117319   2.475   1.649   6.927
 5120SOL    HW217320   2.569   1.564   6.825
 5121SOL     OW17321   3.214   0.052   5.754
 5121SOL    HW117322   3.249   0.011   5.670
 5121SOL    HW217323   3.124   0.014   5.774
 5122SOL     OW17324   3.162   0.453   6.277
 5122SOL    HW117325   3.103   0.533   6.281
 5122SOL    HW217326   3.177   0.418   6.370
 5123SOL     OW17327   3.455   0.221   6.468
 5123SOL    HW117328   3.371   0.220   6.522
 5123SOL    HW217329   3.457   0.304   6.412
 5124SOL     OW17330   1.901   1.077   5.886
 5124SOL    HW117331   2.000   1.066   5.877
 5124SOL    HW217332   1.861   0.991   5.918
 5125SOL     OW17333   2.737   1.646   5.923
 5125SOL    HW117334   2.660   1.611   5.869
 5125SOL    HW217335   2.705   1.717   5.985
 5126SOL     OW17336   2.092   0.628   7.561
 5126SOL    HW117337   1.999   0.626   7.598
 5126SOL    HW217338   2.093   0.589   7.469
 5127SOL     OW17339   2.087   0.275   8.444
 5127SOL    HW117340   2.122   0.258   8.536
 5127SOL    HW217341   1.999   0.230   8.432
 5128SOL     OW17342   1.881   0.368   8.095
 5128SOL    HW117343   1.799   0.411   8.134
 5128SOL    HW217344   1.853   0.295   8.032
 5129SOL     OW17345   2.431   1.275   8.613
 5129SOL    HW117346   2.338   1.268   8.576
 5129SOL    HW217347   2.442   1.364   8.657
 5130SOL     OW17348   3.417   1.511   8.151
 5130SOL    HW117349   3.360   1.495   8.232
 5130SOL    HW217350   3.358   1.521   8.071
 5131SOL     OW17351   3.605   0.618   8.304
 5131SOL    HW117352   3.638   0.712   8.304
 5131SOL    HW217353   3.656   0.564   8.370
 5132SOL     OW17354   2.997   0.703   8.165
 5132SOL    HW117355   3.054   0.781   8.140
 5132SOL    HW217356   2.937   0.729   8.241
 5133SOL     OW17357   3.617   0.607   7.679
 5133SOL    HW117358   3.605   0.594   7.580
 5133SOL    HW217359   3.587   0.526   7.728
 5134SOL     OW17360   2.630   1.144   8.471
 5134SOL    HW117361   2.552   1.161   8.531
 5134SOL    HW217362   2.664   1.231   8.435
 5135SOL     OW17363   2.547   1.012   8.113
 5135SOL    HW117364   2.616   0.996   8.183
 5135SOL    HW217365   2.474   1.069   8.151
 5136SOL     OW17366   2.197   1.435   8.509
 5136SOL    HW117367   2.119   1.404   8.456
 5136SOL    HW217368   2.255   1.493   8.452
 5137SOL     OW17369   3.322   1.505   8.787
 5137SOL    HW117370   3.346   1.599   8.813
 5137SOL    HW217371   3.306   1.451   8.869
 5138SOL     OW17372   2.300   0.392   8.947
 5138SOL    HW117373   2.382   0.336   8.956
 5138SOL    HW217374   2.219   0.334   8.951
 5139SOL     OW17375   3.465   0.447   8.185
 5139SOL    HW117376   3.391   0.493   8.135
 5139SOL    HW217377   3.516   0.515   8.238
 5140SOL     OW17378   2.093   1.713   7.931
 5140SOL    HW117379   2.127   1.790   7.985
 5140SOL    HW217380   2.137   1.713   7.841
 5141SOL     OW17381   2.092   1.434   7.986
 5141SOL    HW117382   2.066   1.530   7.986
 5141SOL    HW217383   2.021   1.380   8.031
 5142SOL     OW17384   2.102   1.091   8.334
 5142SOL    HW117385   2.116   1.007   8.386
 5142SOL    HW217386   2.047   1.155   8.389
 5143SOL     OW17387   2.482   1.786   8.887
 5143SOL    HW117388   2.390   1.769   8.922
 5143SOL    HW217389   2.510   1.878   8.913
 5144SOL     OW17390   2.468   0.964   7.571
 5144SOL    HW117391   2.475   1.048   7.517
 5144SOL    HW217392   2.514   0.977   7.659
 5145SOL     OW17393   3.456   0.114   8.928
 5145SOL    HW117394   3.438   0.181   8.856
 5145SOL    HW217395   3.453   0.160   9.017
 5146SOL     OW17396   1.984   0.643   8.011
 5146SOL    HW117397   1.939   0.555   8.028
 5146SOL    HW217398   1.983   0.697   8.095
 5147SOL     OW17399   3.704   1.767   7.807
 5147SOL    HW117400   3.758   1.738   7.887
 5147SOL    HW217401   3.734   1.857   7.778
 5148SOL     OW17402   1.889   1.596   7.565
 5148SOL    HW117403   1.870   1.500   7.586
 5148SOL    HW217404   1.856   1.654   7.640
 5149SOL     OW17405   3.551   0.922   8.060
 5149SOL    HW117406   3.646   0.893   8.068
 5149SOL    HW217407   3.543   0.987   7.985
 5150SOL     OW17408   3.503   1.108   7.880
 5150SOL    HW117409   3.589   1.110   7.828
 5150SOL    HW217410   3.517   1.155   7.968
 5151SOL     OW17411   2.475   1.365   8.174
 5151SOL    HW117412   2.426   1.278   8.183
 5151SOL    HW217413   2.452   1.408   8.087
 5152SOL     OW17414   2.671   0.004   7.950
 5152SOL    HW117415   2.711   0.095   7.941
 5152SOL    HW217416   2.571   0.012   7.956
 5153SOL     OW17417   2.059   0.976   8.712
 5153SOL    HW117418   2.148   0.931   8.698
 5153SOL    HW217419   1.986   0.911   8.693
 5154SOL     OW17420   3.387   0.999   7.638
 5154SOL    HW117421   3.324   0.923   7.651
 5154SOL    HW217422   3.435   1.017   7.724
 5155SOL     OW17423   3.328   1.417   8.401
 5155SOL    HW117424   3.269   1.423   8.481
 5155SOL    HW217425   3.313   1.329   8.355
 5156SOL     OW17426   3.529   1.714   8.020
 5156SOL    HW117427   3.488   1.691   7.932
 5156SOL    HW217428   3.511   1.640   8.085
 5157SOL     OW17429   2.460   0.729   7.718
 5157SOL    HW117430   2.484   0.798   7.650
 5157SOL    HW217431   2.382   0.762   7.772
 5158SOL     OW17432   3.143   0.345   8.392
 5158SOL    HW117433   3.057   0.295   8.379
 5158SOL    HW217434   3.205   0.291   8.448
 5159SOL     OW17435   3.438   1.662   7.755
 5159SOL    HW117436   3.527   1.708   7.758
 5159SOL    HW217437   3.417   1.638   7.660
 5160SOL     OW17438   2.669   0.605   8.913
 5160SOL    HW117439   2.622   0.602   9.002
 5160SOL    HW217440   2.618   0.550   8.847
 5161SOL     OW17441   2.853   0.410   8.690
 5161SOL    HW117442   2.776   0.444   8.744
 5161SOL    HW217443   2.819   0.359   8.611
 5162SOL     OW17444   2.903   0.701   7.877
 5162SOL    HW117445   2.929   0.697   7.973
 5162SOL    HW217446   2.818   0.650   7.863
 5163SOL     OW17447   1.938   0.811   8.237
 5163SOL    HW117448   2.037   0.799   8.246
 5163SOL    HW217449   1.914   0.906   8.258
 5164SOL     OW17450   1.992   1.821   0.019
 5164SOL    HW117451   1.982   1.806   0.118
 5164SOL    HW217452   1.906   1.857  -0.017
 5165SOL     OW17453   2.727   0.348   7.643
 5165SOL    HW117454   2.786   0.411   7.594
 5165SOL    HW217455   2.746   0.254   7.614
 5166SOL     OW17456   3.224   1.144   7.993
 5166SOL    HW117457   3.307   1.115   7.945
 5166SOL    HW217458   3.175   1.211   7.937
 5167SOL     OW17459   2.412   0.196   8.333
 5167SOL    HW117460   2.407   0.191   8.433
 5167SOL    HW217461   2.414   0.292   8.304
 5168SOL     OW17462   2.870   1.456   7.925
 5168SOL    HW117463   2.824   1.528   7.873
 5168SOL    HW217464   2.866   1.476   8.023
 5169SOL     OW17465   2.213   1.801   8.301
 5169SOL    HW117466   2.263   1.715   8.307
 5169SOL    HW217467   2.278   1.878   8.298
 5170SOL     OW17468   3.657   1.066   8.321
 5170SOL    HW117469   3.595   1.051   8.245
 5170SOL    HW217470   3.605   1.077   8.406
 5171SOL     OW17471   2.183   0.943   7.690
 5171SOL    HW117472   2.265   0.982   7.648
 5171SOL    HW217473   2.156   0.861   7.641
 5172SOL     OW17474   3.320   0.735   8.176
 5172SOL    HW117475   3.315   0.670   8.251
 5172SOL    HW217476   3.400   0.794   8.189
 5173SOL     OW17477   2.973   1.776   7.685
 5173SOL    HW117478   2.913   1.714   7.735
 5173SOL    HW217479   3.004   1.732   7.600
 5174SOL     OW17480   2.064   0.285   8.946
 5174SOL    HW117481   1.984   0.345   8.933
 5174SOL    HW217482   2.054   0.236   9.032
 5175SOL     OW17483   3.494   1.377   7.529
 5175SOL    HW117484   3.462   1.471   7.519
 5175SOL    HW217485   3.418   1.314   7.517
 5176SOL     OW17486   2.326   1.743   7.771
 5176SOL    HW117487   2.359   1.782   7.857
 5176SOL    HW217488   2.402   1.736   7.706
 5177SOL     OW17489   3.262   0.107   7.874
 5177SOL    HW117490   3.238   0.070   7.784
 5177SOL    HW217491   3.361   0.123   7.878
 5178SOL     OW17492   2.111   1.785   8.689
 5178SOL    HW117493   2.168   1.720   8.739
 5178SOL    HW217494   2.095   1.752   8.596
 5179SOL     OW17495   2.802   1.698   8.352
 5179SOL    HW117496   2.882   1.641   8.373
 5179SOL    HW217497   2.753   1.658   8.275
 5180SOL     OW17498   2.244   0.700   7.928
 5180SOL    HW117499   2.289   0.610   7.925
 5180SOL    HW217500   2.150   0.689   7.961
 5181SOL     OW17501   2.476   0.122   7.565
 5181SOL    HW117502   2.574   0.100   7.572
 5181SOL    HW217503   2.445   0.105   7.472
 5182SOL     OW17504   2.750   1.514   8.643
 5182SOL    HW117505   2.727   1.489   8.549
 5182SOL    HW217506   2.811   1.445   8.682
 5183SOL     OW17507   2.665   1.402   8.372
 5183SOL    HW117508   2.755   1.416   8.330
 5183SOL    HW217509   2.594   1.404   8.301
 5184SOL     OW17510   2.784   0.503   8.347
 5184SOL    HW117511   2.759   0.494   8.251
 5184SOL    HW217512   2.832   0.421   8.378
 5185SOL     OW17513   2.401   0.064   7.960
 5185SOL    HW117514   2.320   0.065   8.018
 5185SOL    HW217515   2.404   0.147   7.905
 5186SOL     OW17516   3.296   1.188   7.489
 5186SOL    HW117517   3.328   1.112   7.546
 5186SOL    HW217518   3.204   1.215   7.519
 5187SOL     OW17519   2.159   0.035   7.619
 5187SOL    HW117520   2.208   0.119   7.598
 5187SOL    HW217521   2.221  -0.030   7.664
 5188SOL     OW17522   2.797   0.236   7.928
 5188SOL    HW117523   2.749   0.277   7.850
 5188SOL    HW217524   2.896   0.234   7.909
 5189SOL     OW17525   3.089   1.570   8.241
 5189SOL    HW117526   3.110   1.644   8.176
 5189SOL    HW217527   3.157   1.570   8.314
 5190SOL     OW17528   2.321   1.152   8.189
 5190SOL    HW117529   2.250   1.125   8.254
 5190SOL    HW217530   2.295   1.124   8.096
 5191SOL     OW17531   3.133   1.797   8.039
 5191SOL    HW117532   3.177   1.861   7.975
 5191SOL    HW217533   3.083   1.849   8.109
 5192SOL     OW17534   2.894   0.549   7.464
 5192SOL    HW117535   2.853   0.631   7.425
 5192SOL    HW217536   2.958   0.575   7.537
 5193SOL     OW17537   1.940   0.556   8.834
 5193SOL    HW117538   2.032   0.555   8.793
 5193SOL    HW217539   1.934   0.630   8.901
 5194SOL     OW17540   2.423   0.222   8.595
 5194SOL    HW117541   2.461   0.138   8.632
 5194SOL    HW217542   2.335   0.241   8.639
 5195SOL     OW17543   2.728   0.454   8.090
 5195SOL    HW117544   2.696   0.526   8.028
 5195SOL    HW217545   2.752   0.373   8.037
 5196SOL     OW17546   2.879   0.039   8.201
 5196SOL    HW117547   2.807   0.044   8.132
 5196SOL    HW217548   2.855  -0.030   8.270
 5197SOL     OW17549   3.291   1.173   8.315
 5197SOL    HW117550   3.236   1.089   8.308
 5197SOL    HW217551   3.317   1.202   8.223
 5198SOL     OW17552   3.328   0.590   8.440
 5198SOL    HW117553   3.298   0.495   8.447
 5198SOL    HW217554   3.401   0.606   8.506
 5199SOL     OW17555   3.719   0.833   7.825
 5199SOL    HW117556   3.761   0.769   7.889
 5199SOL    HW217557   3.681   0.782   7.747
 5200SOL     OW17558   2.350   1.385   7.622
 5200SOL    HW117559   2.263   1.370   7.669
 5200SOL    HW217560   2.333   1.411   7.527
 5201SOL     OW17561   3.526   1.280   8.105
 5201SOL    HW117562   3.625   1.288   8.119
 5201SOL    HW217563   3.481   1.364   8.136
 5202SOL     OW17564   3.252   0.575   7.526
 5202SOL    HW117565   3.198   0.554   7.607
 5202SOL    HW217566   3.343   0.534   7.535
 5203SOL     OW17567   2.389   0.256   7.776
 5203SOL    HW117568   2.416   0.197   7.701
 5203SOL    HW217569   2.389   0.351   7.745
 5204SOL     OW17570   2.926   1.347   8.788
 5204SOL    HW117571   2.846   1.324   8.843
 5204SOL    HW217572   3.009   1.321   8.837
 5205SOL     OW17573   2.973   1.195   8.548
 5205SOL    HW117574   2.933   1.239   8.629
 5205SOL    HW217575   2.932   1.232   8.465
 5206SOL     OW17576   3.500   1.099   8.527
 5206SOL    HW117577   3.505   1.180   8.586
 5206SOL    HW217578   3.414   1.101   8.476
 5207SOL     OW17579   2.777   0.089   8.850
 5207SOL    HW117580   2.802   0.069   8.755
 5207SOL    HW217581   2.849   0.145   8.892
 5208SOL     OW17582   2.567   1.050   7.816
 5208SOL    HW117583   2.553   1.057   7.915
 5208SOL    HW217584   2.651   0.999   7.798
 5209SOL     OW17585   2.272   0.813   8.699
 5209SOL    HW117586   2.358   0.825   8.749
 5209SOL    HW217587   2.230   0.726   8.726
 5210SOL     OW17588   3.136   0.386   8.710
 5210SOL    HW117589   3.157   0.460   8.774
 5210SOL    HW217590   3.047   0.403   8.667
 5211SOL     OW17591   1.926   1.564   8.779
 5211SOL    HW117592   1.880   1.646   8.745
 5211SOL    HW217593   2.024   1.583   8.788
 5212SOL     OW17594   2.229   1.100   7.949
 5212SOL    HW117595   2.222   1.183   7.893
 5212SOL    HW217596   2.233   1.020   7.889
 5213SOL     OW17597   2.428   0.537   8.313
 5213SOL    HW117598   2.440   0.603   8.239
 5213SOL    HW217599   2.474   0.571   8.396
 5214SOL     OW17600   3.114   1.348   7.836
 5214SOL    HW117601   3.164   1.425   7.876
 5214SOL    HW217602   3.019   1.350   7.868
 5215SOL     OW17603   3.134   1.445   8.590
 5215SOL    HW117604   3.181   1.458   8.677
 5215SOL    HW217605   3.068   1.371   8.599
 5216SOL     OW17606   3.444   0.639   7.920
 5216SOL    HW117607   3.413   0.700   7.993
 5216SOL    HW217608   3.494   0.691   7.851
 5217SOL     OW17609   2.216   1.510   8.777
 5217SOL    HW117610   2.195   1.466   8.690
 5217SOL    HW217611   2.313   1.536   8.780
 5218SOL     OW17612   2.264   0.751   0.046
 5218SOL    HW117613   2.332   0.806  -0.001
 5218SOL    HW217614   2.304   0.663   0.073
 5219SOL     OW17615   3.449   0.779   0.118
 5219SOL    HW117616   3.357   0.817   0.113
 5219SOL    HW217617   3.509   0.826   0.053
 5220SOL     OW17618   2.435   0.870   8.477
 5220SOL    HW117619   2.479   0.959   8.468
 5220SOL    HW217620   2.372   0.870   8.554
 5221SOL     OW17621   3.222   0.862   8.493
 5221SOL    HW117622   3.147   0.862   8.427
 5221SOL    HW217623   3.259   0.770   8.502
 5222SOL     OW17624   3.071   0.525   7.723
 5222SOL    HW117625   3.084   0.441   7.777
 5222SOL    HW217626   3.042   0.599   7.783
 5223SOL     OW17627   2.169   0.213   8.679
 5223SOL    HW117628   2.146   0.250   8.769
 5223SOL    HW217629   2.139   0.118   8.673
 5224SOL     OW17630   1.899   1.310   8.730
 5224SOL    HW117631   1.952   1.261   8.798
 5224SOL    HW217632   1.921   1.408   8.735
 5225SOL     OW17633   2.594   0.634   8.512
 5225SOL    HW117634   2.653   0.608   8.436
 5225SOL    HW217635   2.566   0.730   8.501
 5226SOL     OW17636   2.169   0.063   8.066
 5226SOL    HW117637   2.158   0.157   8.099
 5226SOL    HW217638   2.164   0.000   8.143
 5227SOL     OW17639   3.484   0.367   7.822
 5227SOL    HW117640   3.486   0.291   7.886
 5227SOL    HW217641   3.436   0.444   7.862
 5228SOL     OW17642   2.885   0.766   8.414
 5228SOL    HW117643   2.900   0.787   8.510
 5228SOL    HW217644   2.855   0.671   8.405
 5229SOL     OW17645   2.842   1.573   0.148
 5229SOL    HW117646   2.822   1.617   0.060
 5229SOL    HW217647   2.881   1.482   0.132
 5230SOL     OW17648   3.721   1.518   0.053
 5230SOL    HW117649   3.735   1.545  -0.042
 5230SOL    HW217650   3.804   1.540   0.106
 5231SOL     OW17651   3.402   0.274   7.573
 5231SOL    HW117652   3.341   0.199   7.596
 5231SOL    HW217653   3.424   0.326   7.656
 5232SOL     OW17654   3.165   0.838   7.490
 5232SOL    HW117655   3.199   0.745   7.505
 5232SOL    HW217656   3.183   0.865   7.395
 5233SOL     OW17657   2.930   1.333   8.297
 5233SOL    HW117658   2.937   1.249   8.242
 5233SOL    HW217659   2.992   1.402   8.261
 5234SOL     OW17660   2.181   0.810   8.397
 5234SOL    HW117661   2.274   0.846   8.402
 5234SOL    HW217662   2.175   0.725   8.449
 5235SOL     OW17663   2.201   0.509   8.454
 5235SOL    HW117664   2.149   0.426   8.437
 5235SOL    HW217665   2.278   0.514   8.390
 5236SOL     OW17666   3.000   0.380   0.126
 5236SOL    HW117667   2.955   0.443   0.190
 5236SOL    HW217668   3.093   0.411   0.109
 5237SOL     OW17669   3.022   0.207   8.925
 5237SOL    HW117670   3.022   0.271   9.002
 5237SOL    HW217671   3.050   0.255   8.842
 5238SOL     OW17672   1.870   1.326   7.648
 5238SOL    HW117673   1.777   1.347   7.617
 5238SOL    HW217674   1.880   1.227   7.661
 5239SOL     OW17675   1.950   1.801   8.375
 5239SOL    HW117676   1.908   1.715   8.348
 5239SOL    HW217677   2.044   1.804   8.341
 5240SOL     OW17678   2.366   1.568   8.358
 5240SOL    HW117679   2.432   1.642   8.367
 5240SOL    HW217680   2.410   1.489   8.316
 5241SOL     OW17681   2.864   0.796   8.686
 5241SOL    HW117682   2.905   0.764   8.772
 5241SOL    HW217683   2.768   0.769   8.683
 5242SOL     OW17684   1.902   0.544   8.562
 5242SOL    HW117685   1.987   0.511   8.521
 5242SOL    HW217686   1.915   0.559   8.660
 5243SOL     OW17687   2.677   0.572   7.773
 5243SOL    HW117688   2.684   0.483   7.727
 5243SOL    HW217689   2.583   0.606   7.765
 5244SOL     OW17690   3.519   0.604   8.654
 5244SOL    HW117691   3.481   0.535   8.716
 5244SOL    HW217692   3.601   0.568   8.610
 5245SOL     OW17693   2.533   0.464   8.717
 5245SOL    HW117694   2.499   0.375   8.687
 5245SOL    HW217695   2.559   0.518   8.637
 5246SOL     OW17696   2.792   1.678   8.913
 5246SOL    HW117697   2.768   1.660   8.818
 5246SOL    HW217698   2.822   1.772   8.923
 5247SOL     OW17699   2.335   0.500   7.639
 5247SOL    HW117700   2.396   0.580   7.643
 5247SOL    HW217701   2.240   0.531   7.646
 5248SOL     OW17702   2.021   1.137   8.914
 5248SOL    HW117703   2.043   1.076   8.990
 5248SOL    HW217704   2.031   1.088   8.828
 5249SOL     OW17705   3.209   1.059   8.682
 5249SOL    HW117706   3.233   0.996   8.608
 5249SOL    HW217707   3.119   1.099   8.664
 5250SOL     OW17708   3.164   0.855   7.757
 5250SOL    HW117709   3.078   0.824   7.799
 5250SOL    HW217710   3.160   0.841   7.658
 5251SOL     OW17711   3.621   1.747   8.602
 5251SOL    HW117712   3.682   1.777   8.529
 5251SOL    HW217713   3.583   1.658   8.580
 5252SOL     OW17714   3.114   1.731   8.576
 5252SOL    HW117715   3.198   1.736   8.522
 5252SOL    HW217716   3.091   1.635   8.594
 5253SOL     OW17717   1.945   1.258   8.470
 5253SOL    HW117718   1.940   1.257   8.570
 5253SOL    HW217719   1.862   1.217   8.432
 5254SOL     OW17720   3.588   0.135   7.971
 5254SOL    HW117721   3.661   0.118   7.904
 5254SOL    HW217722   3.557   0.048   8.009
 5255SOL     OW17723   3.250   1.573   7.925
 5255SOL    HW117724   3.317   1.585   7.851
 5255SOL    HW217725   3.210   1.662   7.948
 5256SOL     OW17726   3.142   0.927   8.120
 5256SOL    HW117727   3.202   0.846   8.122
 5256SOL    HW217728   3.182   0.996   8.060
 5257SOL     OW17729   2.534   1.616   7.602
 5257SOL    HW117730   2.543   1.626   7.503
 5257SOL    HW217731   2.494   1.527   7.623
 5258SOL     OW17732   3.512   1.720   8.842
 5258SOL    HW117733   3.565   1.730   8.758
 5258SOL    HW217734   3.485   1.810   8.876
 5259SOL     OW17735   3.703   0.175   8.411
 5259SOL    HW117736   3.742   0.090   8.375
 5259SOL    HW217737   3.605   0.177   8.392
 5260SOL     OW17738   2.125   0.326   8.168
 5260SOL    HW117739   2.046   0.377   8.134
 5260SOL    HW217740   2.116   0.311   8.266
 5261SOL     OW17741   3.056   1.612   7.479
 5261SOL    HW117742   3.062   1.519   7.516
 5261SOL    HW217743   2.997   1.612   7.399
 5262SOL     OW17744   2.684   1.002   8.820
 5262SOL    HW117745   2.724   1.001   8.728
 5262SOL    HW217746   2.694   1.094   8.860
 5263SOL     OW17747   2.778   0.910   7.739
 5263SOL    HW117748   2.841   0.948   7.671
 5263SOL    HW217749   2.818   0.827   7.778
 5264SOL     OW17750   3.366   1.607   7.492
 5264SOL    HW117751   3.274   1.644   7.499
 5264SOL    HW217752   3.404   1.627   7.402
 5265SOL     OW17753   2.234   1.288   8.938
 5265SOL    HW117754   2.221   1.381   8.904
 5265SOL    HW217755   2.150   1.236   8.925
 5266SOL     OW17756   3.476   1.292   8.737
 5266SOL    HW117757   3.536   1.295   8.817
 5266SOL    HW217758   3.401   1.356   8.750
 5267SOL     OW17759   2.901   1.098   8.144
 5267SOL    HW117760   2.831   1.051   8.198
 5267SOL    HW217761   2.960   1.030   8.101
 5268SOL     OW17762   2.876   0.236   8.419
 5268SOL    HW117763   2.868   0.200   8.326
 5268SOL    HW217764   2.874   0.160   8.484
 5269SOL     OW17765   2.452   1.487   7.939
 5269SOL    HW117766   2.494   1.429   7.869
 5269SOL    HW217767   2.408   1.566   7.895
 5270SOL     OW17768   3.571   0.385   8.829
 5270SOL    HW117769   3.644   0.454   8.833
 5270SOL    HW217770   3.599   0.310   8.770
 5271SOL     OW17771   2.117   1.348   7.738
 5271SOL    HW117772   2.021   1.349   7.711
 5271SOL    HW217773   2.129   1.401   7.822
 5272SOL     OW17774   1.937   0.345   7.481
 5272SOL    HW117775   1.845   0.317   7.452
 5272SOL    HW217776   1.968   0.422   7.425
 5273SOL     OW17777   3.302   0.856   8.846
 5273SOL    HW117778   3.245   0.908   8.783
 5273SOL    HW217779   3.398   0.868   8.822
 5274SOL     OW17780   1.934   0.166   7.766
 5274SOL    HW117781   1.917   0.249   7.712
 5274SOL    HW217782   2.024   0.129   7.744
 5275SOL     OW17783   3.045   1.335   7.567
 5275SOL    HW117784   2.946   1.324   7.569
 5275SOL    HW217785   3.079   1.350   7.660
 5276SOL     OW17786   2.475   0.842   8.879
 5276SOL    HW117787   2.531   0.923   8.862
 5276SOL    HW217788   2.534   0.762   8.882
 5277SOL     OW17789   3.355   1.767   8.407
 5277SOL    HW117790   3.388   1.831   8.338
 5277SOL    HW217791   3.421   1.761   8.482
 5278SOL     OW17792   2.252   1.741   0.008
 5278SOL    HW117793   2.161   1.782   0.006
 5278SOL    HW217794   2.245   1.647   0.040
 5279SOL     OW17795   3.536   0.883   8.702
 5279SOL    HW117796   3.509   0.794   8.665
 5279SOL    HW217797   3.537   0.951   8.629
 5280SOL     OW17798   3.087   0.325   7.897
 5280SOL    HW117799   3.152   0.251   7.886
 5280SOL    HW217800   3.107   0.375   7.981
 5281SOL     OW17801   2.456   0.745   8.100
 5281SOL    HW117802   2.506   0.830   8.081
 5281SOL    HW217803   2.368   0.747   8.052
 5282SOL     OW17804   3.639   0.342   0.090
 5282SOL    HW117805   3.622   0.373  -0.004
 5282SOL    HW217806   3.555   0.305   0.128
 5283SOL     OW17807   3.592   0.934   8.965
 5283SOL    HW117808   3.630   1.025   8.980
 5283SOL    HW217809   3.584   0.917   8.866
 5284SOL     OW17810   2.721   1.374   7.464
 5284SOL    HW117811   2.675   1.389   7.552
 5284SOL    HW217812   2.765   1.459   7.434
 5285SOL     OW17813   2.523   1.790   8.401
 5285SOL    HW117814   2.477   1.878   8.388
 5285SOL    HW217815   2.622   1.802   8.394
 5286SOL     OW17816   3.270   1.851   0.168
 5286SOL    HW117817   3.174   1.840   0.141
 5286SOL    HW217818   3.326   1.784   0.120
 5287SOL     OW17819   2.721   0.956   8.309
 5287SOL    HW117820   2.775   0.887   8.357
 5287SOL    HW217821   2.689   1.025   8.375
 5288SOL     OW17822   2.945   0.984   7.535
 5288SOL    HW117823   2.922   1.037   7.453
 5288SOL    HW217824   3.026   0.928   7.516
 5289SOL     OW17825   3.723   1.569   8.299
 5289SOL    HW117826   3.652   1.557   8.229
 5289SOL    HW217827   3.724   1.490   8.359
 5290SOL     OW17828   1.941   1.240   8.101
 5290SOL    HW117829   1.940   1.193   8.189
 5290SOL    HW217830   2.023   1.212   8.050
 5291SOL     OW17831   3.686   0.192   8.675
 5291SOL    HW117832   3.682   0.102   8.719
 5291SOL    HW217833   3.689   0.181   8.576
 5292SOL     OW17834   2.290   0.424   7.968
 5292SOL    HW117835   2.320   0.352   7.906
 5292SOL    HW217836   2.251   0.384   8.051
 5293SOL     OW17837   3.567   1.487   8.552
 5293SOL    HW117838   3.474   1.462   8.525
 5293SOL    HW217839   3.593   1.437   8.634
 5294SOL     OW17840   2.179   0.547   8.728
 5294SOL    HW117841   2.217   0.488   8.800
 5294SOL    HW217842   2.219   0.521   8.640
 5295SOL     OW17843   2.674   1.586   8.135
 5295SOL    HW117844   2.706   1.596   8.041
 5295SOL    HW217845   2.595   1.524   8.137
 5296SOL     OW17846   3.286   0.214   8.560
 5296SOL    HW117847   3.338   0.149   8.615
 5296SOL    HW217848   3.237   0.277   8.621
 5297SOL     OW17849   2.863   0.034   8.602
 5297SOL    HW117850   2.800  -0.038   8.571
 5297SOL    HW217851   2.956  -0.002   8.602
 5298SOL     OW17852   2.632   1.330   7.749
 5298SOL    HW117853   2.586   1.243   7.766
 5298SOL    HW217854   2.723   1.327   7.790
 5299SOL     OW17855   2.480   1.567   8.732
 5299SOL    HW117856   2.475   1.649   8.789
 5299SOL    HW217857   2.569   1.564   8.687
 5300SOL     OW17858   3.214   0.052   7.616
 5300SOL    HW117859   3.249   0.011   7.532
 5300SOL    HW217860   3.124   0.014   7.636
 5301SOL     OW17861   3.162   0.453   8.139
 5301SOL    HW117862   3.103   0.533   8.143
 5301SOL    HW217863   3.177   0.418   8.232
 5302SOL     OW17864   3.455   0.221   8.330
 5302SOL    HW117865   3.371   0.220   8.384
 5302SOL    HW217866   3.457   0.304   8.274
 5303SOL     OW17867   1.901   1.077   7.748
 5303SOL    HW117868   2.000   1.066   7.739
 5303SOL    HW217869   1.861   0.991   7.780
 5304SOL     OW17870   2.737   1.646   7.785
 5304SOL    HW117871   2.660   1.611   7.731
 5304SOL    HW217872   2.705   1.717   7.847
 5305SOL     OW17873   2.092   2.490   0.113
 5305SOL    HW117874   1.999   2.488   0.150
 5305SOL    HW217875   2.093   2.451   0.021
 5306SOL     OW17876   2.087   2.137   0.996
 5306SOL    HW117877   2.122   2.120   1.088
 5306SOL    HW217878   1.999   2.092   0.984
 5307SOL     OW17879   1.881   2.230   0.647
 5307SOL    HW117880   1.799   2.273   0.686
 5307SOL    HW217881   1.853   2.157   0.584
 5308SOL     OW17882   2.431   3.137   1.165
 5308SOL    HW117883   2.338   3.130   1.128
 5308SOL    HW217884   2.442   3.226   1.209
 5309SOL     OW17885   3.417   3.373   0.703
 5309SOL    HW117886   3.360   3.357   0.784
 5309SOL    HW217887   3.358   3.383   0.623
 5310SOL     OW17888   3.605   2.480   0.856
 5310SOL    HW117889   3.638   2.574   0.856
 5310SOL    HW217890   3.656   2.426   0.922
 5311SOL     OW17891   2.997   2.565   0.717
 5311SOL    HW117892   3.054   2.643   0.692
 5311SOL    HW217893   2.937   2.591   0.793
 5312SOL     OW17894   3.617   2.469   0.231
 5312SOL    HW117895   3.605   2.456   0.132
 5312SOL    HW217896   3.587   2.388   0.280
 5313SOL     OW17897   2.630   3.006   1.023
 5313SOL    HW117898   2.552   3.023   1.083
 5313SOL    HW217899   2.664   3.093   0.987
 5314SOL     OW17900   2.712   2.660   1.823
 5314SOL    HW117901   2.708   2.736   1.888
 5314SOL    HW217902   2.734   2.696   1.732
 5315SOL     OW17903   2.547   2.874   0.665
 5315SOL    HW117904   2.616   2.858   0.735
 5315SOL    HW217905   2.474   2.931   0.703
 5316SOL     OW17906   2.548   3.023   1.803
 5316SOL    HW117907   2.608   3.102   1.817
 5316SOL    HW217908   2.462   3.054   1.762
 5317SOL     OW17909   2.197   3.297   1.061
 5317SOL    HW117910   2.119   3.266   1.008
 5317SOL    HW217911   2.255   3.355   1.004
 5318SOL     OW17912   3.322   3.367   1.339
 5318SOL    HW117913   3.346   3.461   1.365
 5318SOL    HW217914   3.306   3.313   1.421
 5319SOL     OW17915   2.300   2.254   1.499
 5319SOL    HW117916   2.382   2.198   1.508
 5319SOL    HW217917   2.219   2.196   1.503
 5320SOL     OW17918   3.465   2.309   0.737
 5320SOL    HW117919   3.391   2.355   0.687
 5320SOL    HW217920   3.516   2.377   0.790
 5321SOL     OW17921   2.989   3.203   1.690
 5321SOL    HW117922   3.036   3.203   1.778
 5321SOL    HW217923   2.941   3.116   1.679
 5322SOL     OW17924   2.102   2.953   0.886
 5322SOL    HW117925   2.116   2.869   0.938
 5322SOL    HW217926   2.047   3.017   0.941
 5323SOL     OW17927   2.482   3.648   1.439
 5323SOL    HW117928   2.390   3.631   1.474
 5323SOL    HW217929   2.510   3.740   1.465
 5324SOL     OW17930   2.468   2.826   0.123
 5324SOL    HW117931   2.475   2.910   0.069
 5324SOL    HW217932   2.514   2.839   0.211
 5325SOL     OW17933   3.456   1.976   1.480
 5325SOL    HW117934   3.438   2.043   1.408
 5325SOL    HW217935   3.453   2.022   1.569
 5326SOL     OW17936   1.984   2.505   0.563
 5326SOL    HW117937   1.939   2.417   0.580
 5326SOL    HW217938   1.983   2.559   0.647
 5327SOL     OW17939   3.704   3.629   0.359
 5327SOL    HW117940   3.758   3.600   0.439
 5327SOL    HW217941   3.734   3.719   0.330
 5328SOL     OW17942   3.551   2.784   0.612
 5328SOL    HW117943   3.646   2.755   0.620
 5328SOL    HW217944   3.543   2.849   0.537
 5329SOL     OW17945   3.503   2.970   0.432
 5329SOL    HW117946   3.589   2.972   0.380
 5329SOL    HW217947   3.517   3.017   0.520
 5330SOL     OW17948   1.975   2.599   1.597
 5330SOL    HW117949   2.063   2.586   1.642
 5330SOL    HW217950   1.962   2.696   1.575
 5331SOL     OW17951   3.155   3.090   1.423
 5331SOL    HW117952   3.192   3.017   1.365
 5331SOL    HW217953   3.207   3.095   1.508
 5332SOL     OW17954   2.671   1.866   0.502
 5332SOL    HW117955   2.711   1.957   0.493
 5332SOL    HW217956   2.571   1.874   0.508
 5333SOL     OW17957   2.059   2.838   1.264
 5333SOL    HW117958   2.148   2.793   1.250
 5333SOL    HW217959   1.986   2.773   1.245
 5334SOL     OW17960   3.387   2.861   0.190
 5334SOL    HW117961   3.324   2.785   0.203
 5334SOL    HW217962   3.435   2.879   0.276
 5335SOL     OW17963   3.049   3.654   1.616
 5335SOL    HW117964   3.073   3.714   1.540
 5335SOL    HW217965   3.056   3.559   1.586
 5336SOL     OW17966   2.179   2.113   1.801
 5336SOL    HW117967   2.250   2.184   1.807
 5336SOL    HW217968   2.091   2.152   1.829
 5337SOL     OW17969   3.328   3.279   0.953
 5337SOL    HW117970   3.269   3.285   1.033
 5337SOL    HW217971   3.313   3.191   0.907
 5338SOL     OW17972   3.529   3.576   0.572
 5338SOL    HW117973   3.488   3.553   0.484
 5338SOL    HW217974   3.511   3.502   0.637
 5339SOL     OW17975   2.460   2.591   0.270
 5339SOL    HW117976   2.484   2.660   0.202
 5339SOL    HW217977   2.382   2.624   0.324
 5340SOL     OW17978   3.143   2.207   0.944
 5340SOL    HW117979   3.057   2.157   0.931
 5340SOL    HW217980   3.205   2.153   1.000
 5341SOL     OW17981   3.438   3.524   0.307
 5341SOL    HW117982   3.527   3.570   0.310
 5341SOL    HW217983   3.417   3.500   0.212
 5342SOL     OW17984   2.669   2.467   1.465
 5342SOL    HW117985   2.622   2.464   1.554
 5342SOL    HW217986   2.618   2.412   1.399
 5343SOL     OW17987   3.256   2.331   1.674
 5343SOL    HW117988   3.236   2.374   1.762
 5343SOL    HW217989   3.334   2.269   1.683
 5344SOL     OW17990   2.835   2.752   1.572
 5344SOL    HW117991   2.881   2.668   1.543
 5344SOL    HW217992   2.779   2.786   1.497
 5345SOL     OW17993   2.853   2.272   1.242
 5345SOL    HW117994   2.776   2.306   1.296
 5345SOL    HW217995   2.819   2.221   1.163
 5346SOL     OW17996   2.903   2.563   0.429
 5346SOL    HW117997   2.929   2.559   0.525
 5346SOL    HW217998   2.818   2.512   0.415
 5347SOL     OW17999   1.938   2.673   0.789
 5347SOL    HW118000   2.037   2.661   0.798
 5347SOL    HW218001   1.914   2.768   0.810
 5348SOL     OW18002   1.992   3.683   1.571
 5348SOL    HW118003   1.982   3.668   1.670
 5348SOL    HW218004   1.906   3.719   1.535
 5349SOL     OW18005   2.727   2.210   0.195
 5349SOL    HW118006   2.786   2.273   0.146
 5349SOL    HW218007   2.746   2.116   0.166
 5350SOL     OW18008   3.581   2.447   1.831
 5350SOL    HW118009   3.555   2.536   1.795
 5350SOL    HW218010   3.579   2.379   1.758
 5351SOL     OW18011   3.224   3.006   0.545
 5351SOL    HW118012   3.307   2.977   0.497
 5351SOL    HW218013   3.175   3.073   0.489
 5352SOL     OW18014   2.412   2.058   0.885
 5352SOL    HW118015   2.407   2.053   0.985
 5352SOL    HW218016   2.414   2.154   0.856
 5353SOL     OW18017   2.870   3.318   0.477
 5353SOL    HW118018   2.824   3.390   0.425
 5353SOL    HW218019   2.866   3.338   0.575
 5354SOL     OW18020   2.213   3.663   0.853
 5354SOL    HW118021   2.263   3.577   0.859
 5354SOL    HW218022   2.278   3.740   0.850
 5355SOL     OW18023   3.657   2.928   0.873
 5355SOL    HW118024   3.595   2.913   0.797
 5355SOL    HW218025   3.605   2.939   0.958
 5356SOL     OW18026   3.089   3.412   1.506
 5356SOL    HW118027   3.095   3.335   1.570
 5356SOL    HW218028   3.037   3.386   1.426
 5357SOL     OW18029   2.183   2.805   0.242
 5357SOL    HW118030   2.265   2.844   0.200
 5357SOL    HW218031   2.156   2.723   0.193
 5358SOL     OW18032   3.320   2.597   0.728
 5358SOL    HW118033   3.315   2.532   0.803
 5358SOL    HW218034   3.400   2.656   0.741
 5359SOL     OW18035   2.323   3.128   1.727
 5359SOL    HW118036   2.273   3.129   1.641
 5359SOL    HW218037   2.260   3.110   1.803
 5360SOL     OW18038   2.973   3.638   0.237
 5360SOL    HW118039   2.913   3.576   0.287
 5360SOL    HW218040   3.004   3.594   0.152
 5361SOL     OW18041   2.064   2.147   1.498
 5361SOL    HW118042   1.984   2.207   1.485
 5361SOL    HW218043   2.054   2.098   1.584
 5362SOL     OW18044   3.494   3.239   0.081
 5362SOL    HW118045   3.462   3.333   0.071
 5362SOL    HW218046   3.418   3.176   0.069
 5363SOL     OW18047   3.262   1.969   0.426
 5363SOL    HW118048   3.238   1.932   0.336
 5363SOL    HW218049   3.361   1.985   0.430
 5364SOL     OW18050   2.111   3.647   1.241
 5364SOL    HW118051   2.168   3.582   1.291
 5364SOL    HW218052   2.095   3.614   1.148
 5365SOL     OW18053   2.802   3.560   0.904
 5365SOL    HW118054   2.882   3.503   0.925
 5365SOL    HW218055   2.753   3.520   0.827
 5366SOL     OW18056   2.244   2.562   0.480
 5366SOL    HW118057   2.289   2.472   0.477
 5366SOL    HW218058   2.150   2.551   0.513
 5367SOL     OW18059   3.409   2.084   1.729
 5367SOL    HW118060   3.404   2.121   1.821
 5367SOL    HW218061   3.337   2.015   1.717
 5368SOL     OW18062   2.476   1.984   0.117
 5368SOL    HW118063   2.574   1.962   0.124
 5368SOL    HW218064   2.445   1.967   0.024
 5369SOL     OW18065   2.643   2.126   1.749
 5369SOL    HW118066   2.710   2.065   1.792
 5369SOL    HW218067   2.570   2.145   1.814
 5370SOL     OW18068   2.750   3.376   1.195
 5370SOL    HW118069   2.727   3.351   1.101
 5370SOL    HW218070   2.811   3.307   1.234
 5371SOL     OW18071   3.213   2.452   1.433
 5371SOL    HW118072   3.241   2.409   1.518
 5371SOL    HW218073   3.238   2.548   1.434
 5372SOL     OW18074   2.784   2.365   0.899
 5372SOL    HW118075   2.759   2.356   0.803
 5372SOL    HW218076   2.832   2.283   0.930
 5373SOL     OW18077   2.401   1.926   0.512
 5373SOL    HW118078   2.320   1.927   0.570
 5373SOL    HW218079   2.404   2.009   0.457
 5374SOL     OW18080   3.296   3.050   0.041
 5374SOL    HW118081   3.328   2.974   0.098
 5374SOL    HW218082   3.204   3.077   0.071
 5375SOL     OW18083   2.159   1.897   0.171
 5375SOL    HW118084   2.208   1.981   0.150
 5375SOL    HW218085   2.221   1.832   0.216
 5376SOL     OW18086   2.797   2.098   0.480
 5376SOL    HW118087   2.749   2.139   0.402
 5376SOL    HW218088   2.896   2.096   0.461
 5377SOL     OW18089   2.938   2.545   1.464
 5377SOL    HW118090   2.858   2.484   1.467
 5377SOL    HW218091   3.019   2.492   1.440
 5378SOL     OW18092   3.089   3.432   0.793
 5378SOL    HW118093   3.110   3.506   0.728
 5378SOL    HW218094   3.157   3.432   0.866
 5379SOL     OW18095   2.321   3.014   0.741
 5379SOL    HW118096   2.250   2.987   0.806
 5379SOL    HW218097   2.295   2.986   0.648
 5380SOL     OW18098   3.133   3.659   0.591
 5380SOL    HW118099   3.177   3.723   0.527
 5380SOL    HW218100   3.083   3.711   0.661
 5381SOL     OW18101   2.894   2.411   0.016
 5381SOL    HW118102   2.853   2.493  -0.023
 5381SOL    HW218103   2.958   2.437   0.089
 5382SOL     OW18104   1.940   2.418   1.386
 5382SOL    HW118105   2.032   2.417   1.345
 5382SOL    HW218106   1.934   2.492   1.453
 5383SOL     OW18107   2.423   2.084   1.147
 5383SOL    HW118108   2.461   2.000   1.184
 5383SOL    HW218109   2.335   2.103   1.191
 5384SOL     OW18110   2.728   2.316   0.642
 5384SOL    HW118111   2.696   2.388   0.580
 5384SOL    HW218112   2.752   2.235   0.589
 5385SOL     OW18113   2.879   1.901   0.753
 5385SOL    HW118114   2.807   1.906   0.684
 5385SOL    HW218115   2.855   1.832   0.822
 5386SOL     OW18116   3.291   3.035   0.867
 5386SOL    HW118117   3.236   2.951   0.860
 5386SOL    HW218118   3.317   3.064   0.775
 5387SOL     OW18119   3.328   2.452   0.992
 5387SOL    HW118120   3.298   2.357   0.999
 5387SOL    HW218121   3.401   2.468   1.058
 5388SOL     OW18122   3.719   2.695   0.377
 5388SOL    HW118123   3.761   2.631   0.441
 5388SOL    HW218124   3.681   2.644   0.299
 5389SOL     OW18125   3.526   3.142   0.657
 5389SOL    HW118126   3.625   3.150   0.671
 5389SOL    HW218127   3.481   3.226   0.688
 5390SOL     OW18128   3.252   2.437   0.078
 5390SOL    HW118129   3.198   2.416   0.159
 5390SOL    HW218130   3.343   2.396   0.087
 5391SOL     OW18131   2.389   2.118   0.328
 5391SOL    HW118132   2.416   2.059   0.253
 5391SOL    HW218133   2.389   2.213   0.297
 5392SOL     OW18134   3.616   3.085   1.588
 5392SOL    HW118135   3.707   3.046   1.575
 5392SOL    HW218136   3.624   3.181   1.612
 5393SOL     OW18137   2.926   3.209   1.340
 5393SOL    HW118138   2.846   3.186   1.395
 5393SOL    HW218139   3.009   3.183   1.389
 5394SOL     OW18140   3.454   3.491   1.625
 5394SOL    HW118141   3.481   3.525   1.535
 5394SOL    HW218142   3.533   3.453   1.671
 5395SOL     OW18143   2.973   3.057   1.100
 5395SOL    HW118144   2.933   3.101   1.181
 5395SOL    HW218145   2.932   3.094   1.017
 5396SOL     OW18146   3.500   2.961   1.079
 5396SOL    HW118147   3.505   3.042   1.138
 5396SOL    HW218148   3.414   2.963   1.028
 5397SOL     OW18149   2.777   1.951   1.402
 5397SOL    HW118150   2.802   1.931   1.307
 5397SOL    HW218151   2.849   2.007   1.444
 5398SOL     OW18152   2.842   2.978   1.719
 5398SOL    HW118153   2.743   2.984   1.729
 5398SOL    HW218154   2.865   2.898   1.663
 5399SOL     OW18155   2.567   2.912   0.368
 5399SOL    HW118156   2.553   2.919   0.467
 5399SOL    HW218157   2.651   2.861   0.350
 5400SOL     OW18158   2.272   2.675   1.251
 5400SOL    HW118159   2.358   2.687   1.301
 5400SOL    HW218160   2.230   2.588   1.278
 5401SOL     OW18161   3.136   2.248   1.262
 5401SOL    HW118162   3.157   2.322   1.326
 5401SOL    HW218163   3.047   2.265   1.219
 5402SOL     OW18164   1.926   3.426   1.331
 5402SOL    HW118165   1.880   3.508   1.297
 5402SOL    HW218166   2.024   3.445   1.340
 5403SOL     OW18167   2.229   2.962   0.501
 5403SOL    HW118168   2.222   3.045   0.445
 5403SOL    HW218169   2.233   2.882   0.441
 5404SOL     OW18170   2.428   2.399   0.865
 5404SOL    HW118171   2.440   2.465   0.791
 5404SOL    HW218172   2.474   2.433   0.948
 5405SOL     OW18173   3.114   3.210   0.388
 5405SOL    HW118174   3.164   3.287   0.428
 5405SOL    HW218175   3.019   3.212   0.420
 5406SOL     OW18176   3.444   2.501   0.472
 5406SOL    HW118177   3.413   2.562   0.545
 5406SOL    HW218178   3.494   2.553   0.403
 5407SOL     OW18179   2.216   3.372   1.329
 5407SOL    HW118180   2.195   3.328   1.242
 5407SOL    HW218181   2.313   3.398   1.332
 5408SOL     OW18182   2.264   2.613   1.598
 5408SOL    HW118183   2.332   2.668   1.551
 5408SOL    HW218184   2.304   2.525   1.625
 5409SOL     OW18185   3.449   2.641   1.670
 5409SOL    HW118186   3.357   2.679   1.665
 5409SOL    HW218187   3.509   2.688   1.605
 5410SOL     OW18188   2.875   1.967   1.770
 5410SOL    HW118189   2.881   2.052   1.718
 5410SOL    HW218190   2.907   1.891   1.713
 5411SOL     OW18191   2.366   1.912   1.740
 5411SOL    HW118192   2.324   1.855   1.670
 5411SOL    HW218193   2.300   1.981   1.772
 5412SOL     OW18194   2.435   2.732   1.029
 5412SOL    HW118195   2.479   2.821   1.020
 5412SOL    HW218196   2.372   2.732   1.106
 5413SOL     OW18197   3.222   2.724   1.045
 5413SOL    HW118198   3.147   2.724   0.979
 5413SOL    HW218199   3.259   2.632   1.054
 5414SOL     OW18200   3.071   2.387   0.275
 5414SOL    HW118201   3.084   2.303   0.329
 5414SOL    HW218202   3.042   2.461   0.335
 5415SOL     OW18203   2.169   2.075   1.231
 5415SOL    HW118204   2.146   2.112   1.321
 5415SOL    HW218205   2.139   1.980   1.225
 5416SOL     OW18206   1.899   3.172   1.282
 5416SOL    HW118207   1.952   3.123   1.350
 5416SOL    HW218208   1.921   3.270   1.287
 5417SOL     OW18209   2.594   2.496   1.064
 5417SOL    HW118210   2.653   2.470   0.988
 5417SOL    HW218211   2.566   2.592   1.053
 5418SOL     OW18212   3.590   2.797   1.854
 5418SOL    HW118213   3.544   2.790   1.765
 5418SOL    HW218214   3.528   2.841   1.920
 5419SOL     OW18215   2.169   1.925   0.618
 5419SOL    HW118216   2.158   2.019   0.651
 5419SOL    HW218217   2.164   1.862   0.695
 5420SOL     OW18218   3.484   2.229   0.374
 5420SOL    HW118219   3.486   2.153   0.438
 5420SOL    HW218220   3.436   2.306   0.414
 5421SOL     OW18221   2.885   2.628   0.966
 5421SOL    HW118222   2.900   2.649   1.062
 5421SOL    HW218223   2.855   2.533   0.957
 5422SOL     OW18224   2.842   3.435   1.700
 5422SOL    HW118225   2.822   3.479   1.612
 5422SOL    HW218226   2.881   3.344   1.684
 5423SOL     OW18227   3.721   3.380   1.605
 5423SOL    HW118228   3.735   3.407   1.510
 5423SOL    HW218229   3.804   3.402   1.658
 5424SOL     OW18230   2.212   2.760   1.804
 5424SOL    HW118231   2.288   2.804   1.852
 5424SOL    HW218232   2.247   2.713   1.722
 5425SOL     OW18233   3.402   2.136   0.125
 5425SOL    HW118234   3.341   2.061   0.148
 5425SOL    HW218235   3.424   2.188   0.208
 5426SOL     OW18236   3.165   2.700   0.042
 5426SOL    HW118237   3.199   2.607   0.057
 5426SOL    HW218238   3.183   2.727  -0.053
 5427SOL     OW18239   2.181   2.672   0.949
 5427SOL    HW118240   2.274   2.708   0.954
 5427SOL    HW218241   2.175   2.587   1.001
 5428SOL     OW18242   2.201   2.371   1.006
 5428SOL    HW118243   2.149   2.288   0.989
 5428SOL    HW218244   2.278   2.376   0.942
 5429SOL     OW18245   2.373   2.277   1.808
 5429SOL    HW118246   2.355   2.322   1.896
 5429SOL    HW218247   2.415   2.342   1.745
 5430SOL     OW18248   3.000   2.242   1.678
 5430SOL    HW118249   2.955   2.305   1.742
 5430SOL    HW218250   3.093   2.273   1.661
 5431SOL     OW18251   3.022   2.069   1.477
 5431SOL    HW118252   3.022   2.133   1.554
 5431SOL    HW218253   3.050   2.117   1.394
 5432SOL     OW18254   1.870   3.188   0.200
 5432SOL    HW118255   1.777   3.209   0.169
 5432SOL    HW218256   1.880   3.089   0.213
 5433SOL     OW18257   1.950   3.663   0.927
 5433SOL    HW118258   1.908   3.577   0.900
 5433SOL    HW218259   2.044   3.666   0.893
 5434SOL     OW18260   2.366   3.430   0.910
 5434SOL    HW118261   2.432   3.504   0.919
 5434SOL    HW218262   2.410   3.351   0.868
 5435SOL     OW18263   2.864   2.658   1.238
 5435SOL    HW118264   2.905   2.626   1.324
 5435SOL    HW218265   2.768   2.631   1.235
 5436SOL     OW18266   1.902   2.406   1.114
 5436SOL    HW118267   1.987   2.373   1.073
 5436SOL    HW218268   1.915   2.421   1.212
 5437SOL     OW18269   2.051   2.382   1.722
 5437SOL    HW118270   2.110   2.342   1.652
 5437SOL    HW218271   1.993   2.453   1.681
 5438SOL     OW18272   3.231   2.812   1.660
 5438SOL    HW118273   3.270   2.901   1.680
 5438SOL    HW218274   3.241   2.792   1.563
 5439SOL     OW18275   2.677   2.434   0.325
 5439SOL    HW118276   2.684   2.345   0.279
 5439SOL    HW218277   2.583   2.468   0.317
 5440SOL     OW18278   3.519   2.466   1.206
 5440SOL    HW118279   3.481   2.397   1.268
 5440SOL    HW218280   3.601   2.430   1.162
 5441SOL     OW18281   2.114   3.426   1.744
 5441SOL    HW118282   2.084   3.483   1.820
 5441SOL    HW218283   2.107   3.329   1.770
 5442SOL     OW18284   2.533   2.326   1.269
 5442SOL    HW118285   2.499   2.237   1.239
 5442SOL    HW218286   2.559   2.380   1.189
 5443SOL     OW18287   2.792   3.540   1.465
 5443SOL    HW118288   2.768   3.522   1.370
 5443SOL    HW218289   2.822   3.634   1.475
 5444SOL     OW18290   2.335   2.362   0.191
 5444SOL    HW118291   2.396   2.442   0.195
 5444SOL    HW218292   2.240   2.393   0.198
 5445SOL     OW18293   2.021   2.999   1.466
 5445SOL    HW118294   2.043   2.938   1.542
 5445SOL    HW218295   2.031   2.950   1.380
 5446SOL     OW18296   3.209   2.921   1.234
 5446SOL    HW118297   3.233   2.858   1.160
 5446SOL    HW218298   3.119   2.961   1.216
 5447SOL     OW18299   3.164   2.717   0.309
 5447SOL    HW118300   3.078   2.686   0.351
 5447SOL    HW218301   3.160   2.703   0.210
 5448SOL     OW18302   3.621   3.609   1.154
 5448SOL    HW118303   3.682   3.639   1.081
 5448SOL    HW218304   3.583   3.520   1.132
 5449SOL     OW18305   1.945   3.120   1.022
 5449SOL    HW118306   1.940   3.119   1.122
 5449SOL    HW218307   1.862   3.079   0.984
 5450SOL     OW18308   2.550   3.524   1.716
 5450SOL    HW118309   2.494   3.605   1.725
 5450SOL    HW218310   2.602   3.528   1.630
 5451SOL     OW18311   2.765   1.948   0.133
 5451SOL    HW118312   2.816   1.949   0.047
 5451SOL    HW218313   2.821   1.906   0.204
 5452SOL     OW18314   3.588   1.997   0.523
 5452SOL    HW118315   3.661   1.980   0.456
 5452SOL    HW218316   3.557   1.910   0.561
 5453SOL     OW18317   3.250   3.435   0.477
 5453SOL    HW118318   3.317   3.447   0.403
 5453SOL    HW218319   3.210   3.524   0.500
 5454SOL     OW18320   1.992   3.656   1.851
 5454SOL    HW118321   1.951   3.582   1.904
 5454SOL    HW218322   2.056   3.707   1.909
 5455SOL     OW18323   3.142   2.789   0.672
 5455SOL    HW118324   3.202   2.708   0.674
 5455SOL    HW218325   3.182   2.858   0.612
 5456SOL     OW18326   2.692   3.135   1.422
 5456SOL    HW118327   2.687   3.168   1.517
 5456SOL    HW218328   2.606   3.154   1.376
 5457SOL     OW18329   2.534   3.478   0.154
 5457SOL    HW118330   2.543   3.488   0.055
 5457SOL    HW218331   2.494   3.389   0.175
 5458SOL     OW18332   3.703   2.037   0.963
 5458SOL    HW118333   3.742   1.952   0.927
 5458SOL    HW218334   3.605   2.039   0.944
 5459SOL     OW18335   2.125   2.188   0.720
 5459SOL    HW118336   2.046   2.239   0.686
 5459SOL    HW218337   2.116   2.173   0.818
 5460SOL     OW18338   3.056   3.474   0.031
 5460SOL    HW118339   3.062   3.381   0.068
 5460SOL    HW218340   2.997   3.474  -0.049
 5461SOL     OW18341   2.684   2.864   1.372
 5461SOL    HW118342   2.724   2.863   1.280
 5461SOL    HW218343   2.694   2.956   1.412
 5462SOL     OW18344   2.778   2.772   0.291
 5462SOL    HW118345   2.841   2.810   0.223
 5462SOL    HW218346   2.818   2.689   0.330
 5463SOL     OW18347   3.366   3.469   0.044
 5463SOL    HW118348   3.274   3.506   0.051
 5463SOL    HW218349   3.404   3.489  -0.046
 5464SOL     OW18350   2.234   3.150   1.490
 5464SOL    HW118351   2.221   3.243   1.456
 5464SOL    HW218352   2.150   3.098   1.477
 5465SOL     OW18353   3.476   3.154   1.289
 5465SOL    HW118354   3.536   3.157   1.369
 5465SOL    HW218355   3.401   3.218   1.302
 5466SOL     OW18356   2.901   2.960   0.696
 5466SOL    HW118357   2.831   2.913   0.750
 5466SOL    HW218358   2.960   2.892   0.653
 5467SOL     OW18359   2.876   2.098   0.971
 5467SOL    HW118360   2.868   2.062   0.878
 5467SOL    HW218361   2.874   2.022   1.036
 5468SOL     OW18362   3.571   2.247   1.381
 5468SOL    HW118363   3.644   2.316   1.385
 5468SOL    HW218364   3.599   2.172   1.322
 5469SOL     OW18365   1.967   2.875   1.726
 5469SOL    HW118366   1.890   2.842   1.780
 5469SOL    HW218367   2.052   2.845   1.768
 5470SOL     OW18368   2.534   2.065   1.489
 5470SOL    HW118369   2.624   2.049   1.449
 5470SOL    HW218370   2.542   2.070   1.588
 5471SOL     OW18371   3.302   2.718   1.398
 5471SOL    HW118372   3.245   2.770   1.335
 5471SOL    HW218373   3.398   2.730   1.374
 5472SOL     OW18374   1.934   2.028   0.318
 5472SOL    HW118375   1.917   2.111   0.264
 5472SOL    HW218376   2.024   1.991   0.296
 5473SOL     OW18377   3.045   3.197   0.119
 5473SOL    HW118378   2.946   3.186   0.121
 5473SOL    HW218379   3.079   3.212   0.212
 5474SOL     OW18380   2.475   2.704   1.431
 5474SOL    HW118381   2.531   2.785   1.414
 5474SOL    HW218382   2.534   2.624   1.434
 5475SOL     OW18383   2.578   2.427   1.708
 5475SOL    HW118384   2.597   2.492   1.782
 5475SOL    HW218385   2.638   2.347   1.717
 5476SOL     OW18386   3.312   3.082   1.633
 5476SOL    HW118387   3.303   3.072   1.732
 5476SOL    HW218388   3.408   3.075   1.607
 5477SOL     OW18389   2.252   3.603   1.560
 5477SOL    HW118390   2.161   3.644   1.558
 5477SOL    HW218391   2.245   3.509   1.592
 5478SOL     OW18392   3.536   2.745   1.254
 5478SOL    HW118393   3.509   2.656   1.217
 5478SOL    HW218394   3.537   2.813   1.181
 5479SOL     OW18395   3.087   2.187   0.449
 5479SOL    HW118396   3.152   2.113   0.438
 5479SOL    HW218397   3.107   2.237   0.533
 5480SOL     OW18398   2.456   2.607   0.652
 5480SOL    HW118399   2.506   2.692   0.633
 5480SOL    HW218400   2.368   2.609   0.604
 5481SOL     OW18401   3.639   2.204   1.642
 5481SOL    HW118402   3.622   2.235   1.548
 5481SOL    HW218403   3.555   2.167   1.680
 5482SOL     OW18404   3.592   2.796   1.517
 5482SOL    HW118405   3.630   2.887   1.532
 5482SOL    HW218406   3.584   2.779   1.418
 5483SOL     OW18407   2.721   3.236   0.016
 5483SOL    HW118408   2.675   3.251   0.104
 5483SOL    HW218409   2.765   3.321  -0.014
 5484SOL     OW18410   3.270   3.713   1.720
 5484SOL    HW118411   3.174   3.702   1.693
 5484SOL    HW218412   3.326   3.646   1.672
 5485SOL     OW18413   2.721   2.818   0.861
 5485SOL    HW118414   2.775   2.749   0.909
 5485SOL    HW218415   2.689   2.887   0.927
 5486SOL     OW18416   2.945   2.846   0.087
 5486SOL    HW118417   2.922   2.899   0.005
 5486SOL    HW218418   3.026   2.790   0.068
 5487SOL     OW18419   3.723   3.431   0.851
 5487SOL    HW118420   3.652   3.419   0.781
 5487SOL    HW218421   3.724   3.352   0.911
 5488SOL     OW18422   2.083   3.176   1.844
 5488SOL    HW118423   2.018   3.103   1.823
 5488SOL    HW218424   2.087   3.190   1.942
 5489SOL     OW18425   1.941   3.102   0.653
 5489SOL    HW118426   1.940   3.055   0.741
 5489SOL    HW218427   2.023   3.074   0.602
 5490SOL     OW18428   2.534   3.253   1.624
 5490SOL    HW118429   2.456   3.203   1.662
 5490SOL    HW218430   2.531   3.348   1.655
 5491SOL     OW18431   3.686   2.054   1.227
 5491SOL    HW118432   3.682   1.964   1.271
 5491SOL    HW218433   3.689   2.043   1.128
 5492SOL     OW18434   2.290   2.286   0.520
 5492SOL    HW118435   2.320   2.214   0.458
 5492SOL    HW218436   2.251   2.246   0.603
 5493SOL     OW18437   3.567   3.349   1.104
 5493SOL    HW118438   3.474   3.324   1.077
 5493SOL    HW218439   3.593   3.299   1.186
 5494SOL     OW18440   2.179   2.409   1.280
 5494SOL    HW118441   2.217   2.350   1.352
 5494SOL    HW218442   2.219   2.383   1.192
 5495SOL     OW18443   3.286   2.076   1.112
 5495SOL    HW118444   3.338   2.011   1.167
 5495SOL    HW218445   3.237   2.139   1.173
 5496SOL     OW18446   2.863   1.896   1.154
 5496SOL    HW118447   2.800   1.824   1.123
 5496SOL    HW218448   2.956   1.860   1.154
 5497SOL     OW18449   2.480   3.429   1.284
 5497SOL    HW118450   2.475   3.511   1.341
 5497SOL    HW218451   2.569   3.426   1.239
 5498SOL     OW18452   3.162   2.315   0.691
 5498SOL    HW118453   3.103   2.395   0.695
 5498SOL    HW218454   3.177   2.280   0.784
 5499SOL     OW18455   3.455   2.083   0.882
 5499SOL    HW118456   3.371   2.082   0.936
 5499SOL    HW218457   3.457   2.166   0.826
 5500SOL     OW18458   1.901   2.939   0.300
 5500SOL    HW118459   2.000   2.928   0.291
 5500SOL    HW218460   1.861   2.853   0.332
 5501SOL     OW18461   2.092   2.490   1.975
 5501SOL    HW118462   1.999   2.488   2.012
 5501SOL    HW218463   2.093   2.451   1.883
 5502SOL     OW18464   2.087   2.137   2.858
 5502SOL    HW118465   2.122   2.120   2.950
 5502SOL    HW218466   1.999   2.092   2.846
 5503SOL     OW18467   1.881   2.230   2.509
 5503SOL    HW118468   1.799   2.273   2.548
 5503SOL    HW218469   1.853   2.157   2.446
 5504SOL     OW18470   2.431   3.137   3.027
 5504SOL    HW118471   2.338   3.130   2.990
 5504SOL    HW218472   2.442   3.226   3.071
 5505SOL     OW18473   3.417   3.373   2.565
 5505SOL    HW118474   3.360   3.357   2.646
 5505SOL    HW218475   3.358   3.383   2.485
 5506SOL     OW18476   3.605   2.480   2.718
 5506SOL    HW118477   3.638   2.574   2.718
 5506SOL    HW218478   3.656   2.426   2.784
 5507SOL     OW18479   2.997   2.565   2.579
 5507SOL    HW118480   3.054   2.643   2.554
 5507SOL    HW218481   2.937   2.591   2.655
 5508SOL     OW18482   3.617   2.469   2.093
 5508SOL    HW118483   3.605   2.456   1.994
 5508SOL    HW218484   3.587   2.388   2.142
 5509SOL     OW18485   2.630   3.006   2.885
 5509SOL    HW118486   2.552   3.023   2.945
 5509SOL    HW218487   2.664   3.093   2.849
 5510SOL     OW18488   2.712   2.660   3.685
 5510SOL    HW118489   2.708   2.736   3.750
 5510SOL    HW218490   2.734   2.696   3.594
 5511SOL     OW18491   2.547   2.874   2.527
 5511SOL    HW118492   2.616   2.858   2.597
 5511SOL    HW218493   2.474   2.931   2.565
 5512SOL     OW18494   2.548   3.023   3.665
 5512SOL    HW118495   2.608   3.102   3.679
 5512SOL    HW218496   2.462   3.054   3.624
 5513SOL     OW18497   2.197   3.297   2.923
 5513SOL    HW118498   2.119   3.266   2.870
 5513SOL    HW218499   2.255   3.355   2.866
 5514SOL     OW18500   3.322   3.367   3.201
 5514SOL    HW118501   3.346   3.461   3.227
 5514SOL    HW218502   3.306   3.313   3.283
 5515SOL     OW18503   2.300   2.254   3.361
 5515SOL    HW118504   2.382   2.198   3.370
 5515SOL    HW218505   2.219   2.196   3.365
 5516SOL     OW18506   3.465   2.309   2.599
 5516SOL    HW118507   3.391   2.355   2.549
 5516SOL    HW218508   3.516   2.377   2.652
 5517SOL     OW18509   2.093   3.575   2.345
 5517SOL    HW118510   2.127   3.652   2.399
 5517SOL    HW218511   2.137   3.575   2.255
 5518SOL     OW18512   2.989   3.203   3.552
 5518SOL    HW118513   3.036   3.203   3.640
 5518SOL    HW218514   2.941   3.116   3.541
 5519SOL     OW18515   2.092   3.296   2.400
 5519SOL    HW118516   2.066   3.392   2.400
 5519SOL    HW218517   2.021   3.242   2.445
 5520SOL     OW18518   2.102   2.953   2.748
 5520SOL    HW118519   2.116   2.869   2.800
 5520SOL    HW218520   2.047   3.017   2.803
 5521SOL     OW18521   2.482   3.648   3.301
 5521SOL    HW118522   2.390   3.631   3.336
 5521SOL    HW218523   2.510   3.740   3.327
 5522SOL     OW18524   2.468   2.826   1.985
 5522SOL    HW118525   2.475   2.910   1.931
 5522SOL    HW218526   2.514   2.839   2.073
 5523SOL     OW18527   3.456   1.976   3.342
 5523SOL    HW118528   3.438   2.043   3.270
 5523SOL    HW218529   3.453   2.022   3.431
 5524SOL     OW18530   1.984   2.505   2.425
 5524SOL    HW118531   1.939   2.417   2.442
 5524SOL    HW218532   1.983   2.559   2.509
 5525SOL     OW18533   3.704   3.629   2.221
 5525SOL    HW118534   3.758   3.600   2.301
 5525SOL    HW218535   3.734   3.719   2.192
 5526SOL     OW18536   1.889   3.458   1.979
 5526SOL    HW118537   1.870   3.362   2.000
 5526SOL    HW218538   1.856   3.516   2.054
 5527SOL     OW18539   3.551   2.784   2.474
 5527SOL    HW118540   3.646   2.755   2.482
 5527SOL    HW218541   3.543   2.849   2.399
 5528SOL     OW18542   3.503   2.970   2.294
 5528SOL    HW118543   3.589   2.972   2.242
 5528SOL    HW218544   3.517   3.017   2.382
 5529SOL     OW18545   1.975   2.599   3.459
 5529SOL    HW118546   2.063   2.586   3.504
 5529SOL    HW218547   1.962   2.696   3.437
 5530SOL     OW18548   2.475   3.227   2.588
 5530SOL    HW118549   2.426   3.140   2.597
 5530SOL    HW218550   2.452   3.270   2.501
 5531SOL     OW18551   3.155   3.090   3.285
 5531SOL    HW118552   3.192   3.017   3.227
 5531SOL    HW218553   3.207   3.095   3.370
 5532SOL     OW18554   2.671   1.866   2.364
 5532SOL    HW118555   2.711   1.957   2.355
 5532SOL    HW218556   2.571   1.874   2.370
 5533SOL     OW18557   2.059   2.838   3.126
 5533SOL    HW118558   2.148   2.793   3.112
 5533SOL    HW218559   1.986   2.773   3.107
 5534SOL     OW18560   3.387   2.861   2.052
 5534SOL    HW118561   3.324   2.785   2.065
 5534SOL    HW218562   3.435   2.879   2.138
 5535SOL     OW18563   3.049   3.654   3.478
 5535SOL    HW118564   3.073   3.714   3.402
 5535SOL    HW218565   3.056   3.559   3.448
 5536SOL     OW18566   2.179   2.113   3.663
 5536SOL    HW118567   2.250   2.184   3.669
 5536SOL    HW218568   2.091   2.152   3.691
 5537SOL     OW18569   3.328   3.279   2.815
 5537SOL    HW118570   3.269   3.285   2.895
 5537SOL    HW218571   3.313   3.191   2.769
 5538SOL     OW18572   3.529   3.576   2.434
 5538SOL    HW118573   3.488   3.553   2.346
 5538SOL    HW218574   3.511   3.502   2.499
 5539SOL     OW18575   2.460   2.591   2.132
 5539SOL    HW118576   2.484   2.660   2.064
 5539SOL    HW218577   2.382   2.624   2.186
 5540SOL     OW18578   3.143   2.207   2.806
 5540SOL    HW118579   3.057   2.157   2.793
 5540SOL    HW218580   3.205   2.153   2.862
 5541SOL     OW18581   3.438   3.524   2.169
 5541SOL    HW118582   3.527   3.570   2.172
 5541SOL    HW218583   3.417   3.500   2.074
 5542SOL     OW18584   2.669   2.467   3.327
 5542SOL    HW118585   2.622   2.464   3.416
 5542SOL    HW218586   2.618   2.412   3.261
 5543SOL     OW18587   3.256   2.331   3.536
 5543SOL    HW118588   3.236   2.374   3.624
 5543SOL    HW218589   3.334   2.269   3.545
 5544SOL     OW18590   2.835   2.752   3.434
 5544SOL    HW118591   2.881   2.668   3.405
 5544SOL    HW218592   2.779   2.786   3.359
 5545SOL     OW18593   2.853   2.272   3.104
 5545SOL    HW118594   2.776   2.306   3.158
 5545SOL    HW218595   2.819   2.221   3.025
 5546SOL     OW18596   2.903   2.563   2.291
 5546SOL    HW118597   2.929   2.559   2.387
 5546SOL    HW218598   2.818   2.512   2.277
 5547SOL     OW18599   1.938   2.673   2.651
 5547SOL    HW118600   2.037   2.661   2.660
 5547SOL    HW218601   1.914   2.768   2.672
 5548SOL     OW18602   1.992   3.683   3.433
 5548SOL    HW118603   1.982   3.668   3.532
 5548SOL    HW218604   1.906   3.719   3.397
 5549SOL     OW18605   2.727   2.210   2.057
 5549SOL    HW118606   2.786   2.273   2.008
 5549SOL    HW218607   2.746   2.116   2.028
 5550SOL     OW18608   3.581   2.447   3.693
 5550SOL    HW118609   3.555   2.536   3.657
 5550SOL    HW218610   3.579   2.379   3.620
 5551SOL     OW18611   3.224   3.006   2.407
 5551SOL    HW118612   3.307   2.977   2.359
 5551SOL    HW218613   3.175   3.073   2.351
 5552SOL     OW18614   2.412   2.058   2.747
 5552SOL    HW118615   2.407   2.053   2.847
 5552SOL    HW218616   2.414   2.154   2.718
 5553SOL     OW18617   2.870   3.318   2.339
 5553SOL    HW118618   2.824   3.390   2.287
 5553SOL    HW218619   2.866   3.338   2.437
 5554SOL     OW18620   2.213   3.663   2.715
 5554SOL    HW118621   2.263   3.577   2.721
 5554SOL    HW218622   2.278   3.740   2.712
 5555SOL     OW18623   3.657   2.928   2.735
 5555SOL    HW118624   3.595   2.913   2.659
 5555SOL    HW218625   3.605   2.939   2.820
 5556SOL     OW18626   3.089   3.412   3.368
 5556SOL    HW118627   3.095   3.335   3.432
 5556SOL    HW218628   3.037   3.386   3.288
 5557SOL     OW18629   2.183   2.805   2.104
 5557SOL    HW118630   2.265   2.844   2.062
 5557SOL    HW218631   2.156   2.723   2.055
 5558SOL     OW18632   3.320   2.597   2.590
 5558SOL    HW118633   3.315   2.532   2.665
 5558SOL    HW218634   3.400   2.656   2.603
 5559SOL     OW18635   2.323   3.128   3.589
 5559SOL    HW118636   2.273   3.129   3.503
 5559SOL    HW218637   2.260   3.110   3.665
 5560SOL     OW18638   2.973   3.638   2.099
 5560SOL    HW118639   2.913   3.576   2.149
 5560SOL    HW218640   3.004   3.594   2.014
 5561SOL     OW18641   2.064   2.147   3.360
 5561SOL    HW118642   1.984   2.207   3.347
 5561SOL    HW218643   2.054   2.098   3.446
 5562SOL     OW18644   3.494   3.239   1.943
 5562SOL    HW118645   3.462   3.333   1.933
 5562SOL    HW218646   3.418   3.176   1.931
 5563SOL     OW18647   2.326   3.605   2.185
 5563SOL    HW118648   2.359   3.644   2.271
 5563SOL    HW218649   2.402   3.598   2.120
 5564SOL     OW18650   3.262   1.969   2.288
 5564SOL    HW118651   3.238   1.932   2.198
 5564SOL    HW218652   3.361   1.985   2.292
 5565SOL     OW18653   2.111   3.647   3.103
 5565SOL    HW118654   2.168   3.582   3.153
 5565SOL    HW218655   2.095   3.614   3.010
 5566SOL     OW18656   2.802   3.560   2.766
 5566SOL    HW118657   2.882   3.503   2.787
 5566SOL    HW218658   2.753   3.520   2.689
 5567SOL     OW18659   2.244   2.562   2.342
 5567SOL    HW118660   2.289   2.472   2.339
 5567SOL    HW218661   2.150   2.551   2.375
 5568SOL     OW18662   3.409   2.084   3.591
 5568SOL    HW118663   3.404   2.121   3.683
 5568SOL    HW218664   3.337   2.015   3.579
 5569SOL     OW18665   2.476   1.984   1.979
 5569SOL    HW118666   2.574   1.962   1.986
 5569SOL    HW218667   2.445   1.967   1.886
 5570SOL     OW18668   2.643   2.126   3.611
 5570SOL    HW118669   2.710   2.065   3.654
 5570SOL    HW218670   2.570   2.145   3.676
 5571SOL     OW18671   2.750   3.376   3.057
 5571SOL    HW118672   2.727   3.351   2.963
 5571SOL    HW218673   2.811   3.307   3.096
 5572SOL     OW18674   3.213   2.452   3.295
 5572SOL    HW118675   3.241   2.409   3.380
 5572SOL    HW218676   3.238   2.548   3.296
 5573SOL     OW18677   2.665   3.264   2.786
 5573SOL    HW118678   2.755   3.278   2.744
 5573SOL    HW218679   2.594   3.266   2.715
 5574SOL     OW18680   2.784   2.365   2.761
 5574SOL    HW118681   2.759   2.356   2.665
 5574SOL    HW218682   2.832   2.283   2.792
 5575SOL     OW18683   2.401   1.926   2.374
 5575SOL    HW118684   2.320   1.927   2.432
 5575SOL    HW218685   2.404   2.009   2.319
 5576SOL     OW18686   3.296   3.050   1.903
 5576SOL    HW118687   3.328   2.974   1.960
 5576SOL    HW218688   3.204   3.077   1.933
 5577SOL     OW18689   2.159   1.897   2.033
 5577SOL    HW118690   2.208   1.981   2.012
 5577SOL    HW218691   2.221   1.832   2.078
 5578SOL     OW18692   2.797   2.098   2.342
 5578SOL    HW118693   2.749   2.139   2.264
 5578SOL    HW218694   2.896   2.096   2.323
 5579SOL     OW18695   2.938   2.545   3.326
 5579SOL    HW118696   2.858   2.484   3.329
 5579SOL    HW218697   3.019   2.492   3.302
 5580SOL     OW18698   3.089   3.432   2.655
 5580SOL    HW118699   3.110   3.506   2.590
 5580SOL    HW218700   3.157   3.432   2.728
 5581SOL     OW18701   2.321   3.014   2.603
 5581SOL    HW118702   2.250   2.987   2.668
 5581SOL    HW218703   2.295   2.986   2.510
 5582SOL     OW18704   3.133   3.659   2.453
 5582SOL    HW118705   3.177   3.723   2.389
 5582SOL    HW218706   3.083   3.711   2.523
 5583SOL     OW18707   2.894   2.411   1.878
 5583SOL    HW118708   2.853   2.493   1.839
 5583SOL    HW218709   2.958   2.437   1.951
 5584SOL     OW18710   1.940   2.418   3.248
 5584SOL    HW118711   2.032   2.417   3.207
 5584SOL    HW218712   1.934   2.492   3.315
 5585SOL     OW18713   2.423   2.084   3.009
 5585SOL    HW118714   2.461   2.000   3.046
 5585SOL    HW218715   2.335   2.103   3.053
 5586SOL     OW18716   2.728   2.316   2.504
 5586SOL    HW118717   2.696   2.388   2.442
 5586SOL    HW218718   2.752   2.235   2.451
 5587SOL     OW18719   2.879   1.901   2.615
 5587SOL    HW118720   2.807   1.906   2.546
 5587SOL    HW218721   2.855   1.832   2.684
 5588SOL     OW18722   3.291   3.035   2.729
 5588SOL    HW118723   3.236   2.951   2.722
 5588SOL    HW218724   3.317   3.064   2.637
 5589SOL     OW18725   3.328   2.452   2.854
 5589SOL    HW118726   3.298   2.357   2.861
 5589SOL    HW218727   3.401   2.468   2.920
 5590SOL     OW18728   3.719   2.695   2.239
 5590SOL    HW118729   3.761   2.631   2.303
 5590SOL    HW218730   3.681   2.644   2.161
 5591SOL     OW18731   2.350   3.247   2.036
 5591SOL    HW118732   2.263   3.232   2.083
 5591SOL    HW218733   2.333   3.273   1.941
 5592SOL     OW18734   3.526   3.142   2.519
 5592SOL    HW118735   3.625   3.150   2.533
 5592SOL    HW218736   3.481   3.226   2.550
 5593SOL     OW18737   3.252   2.437   1.940
 5593SOL    HW118738   3.198   2.416   2.021
 5593SOL    HW218739   3.343   2.396   1.949
 5594SOL     OW18740   2.389   2.118   2.190
 5594SOL    HW118741   2.416   2.059   2.115
 5594SOL    HW218742   2.389   2.213   2.159
 5595SOL     OW18743   3.616   3.085   3.450
 5595SOL    HW118744   3.707   3.046   3.437
 5595SOL    HW218745   3.624   3.181   3.474
 5596SOL     OW18746   2.926   3.209   3.202
 5596SOL    HW118747   2.846   3.186   3.257
 5596SOL    HW218748   3.009   3.183   3.251
 5597SOL     OW18749   3.454   3.491   3.487
 5597SOL    HW118750   3.481   3.525   3.397
 5597SOL    HW218751   3.533   3.453   3.533
 5598SOL     OW18752   2.973   3.057   2.962
 5598SOL    HW118753   2.933   3.101   3.043
 5598SOL    HW218754   2.932   3.094   2.879
 5599SOL     OW18755   3.500   2.961   2.941
 5599SOL    HW118756   3.505   3.042   3.000
 5599SOL    HW218757   3.414   2.963   2.890
 5600SOL     OW18758   2.777   1.951   3.264
 5600SOL    HW118759   2.802   1.931   3.169
 5600SOL    HW218760   2.849   2.007   3.306
 5601SOL     OW18761   2.842   2.978   3.581
 5601SOL    HW118762   2.743   2.984   3.591
 5601SOL    HW218763   2.865   2.898   3.525
 5602SOL     OW18764   2.567   2.912   2.230
 5602SOL    HW118765   2.553   2.919   2.329
 5602SOL    HW218766   2.651   2.861   2.212
 5603SOL     OW18767   2.272   2.675   3.113
 5603SOL    HW118768   2.358   2.687   3.163
 5603SOL    HW218769   2.230   2.588   3.140
 5604SOL     OW18770   3.136   2.248   3.124
 5604SOL    HW118771   3.157   2.322   3.188
 5604SOL    HW218772   3.047   2.265   3.081
 5605SOL     OW18773   1.926   3.426   3.193
 5605SOL    HW118774   1.880   3.508   3.159
 5605SOL    HW218775   2.024   3.445   3.202
 5606SOL     OW18776   2.229   2.962   2.363
 5606SOL    HW118777   2.222   3.045   2.307
 5606SOL    HW218778   2.233   2.882   2.303
 5607SOL     OW18779   2.428   2.399   2.727
 5607SOL    HW118780   2.440   2.465   2.653
 5607SOL    HW218781   2.474   2.433   2.810
 5608SOL     OW18782   3.114   3.210   2.250
 5608SOL    HW118783   3.164   3.287   2.290
 5608SOL    HW218784   3.019   3.212   2.282
 5609SOL     OW18785   3.134   3.307   3.004
 5609SOL    HW118786   3.181   3.320   3.091
 5609SOL    HW218787   3.068   3.233   3.013
 5610SOL     OW18788   3.444   2.501   2.334
 5610SOL    HW118789   3.413   2.562   2.407
 5610SOL    HW218790   3.494   2.553   2.265
 5611SOL     OW18791   2.216   3.372   3.191
 5611SOL    HW118792   2.195   3.328   3.104
 5611SOL    HW218793   2.313   3.398   3.194
 5612SOL     OW18794   2.264   2.613   3.460
 5612SOL    HW118795   2.332   2.668   3.413
 5612SOL    HW218796   2.304   2.525   3.487
 5613SOL     OW18797   3.449   2.641   3.532
 5613SOL    HW118798   3.357   2.679   3.527
 5613SOL    HW218799   3.509   2.688   3.467
 5614SOL     OW18800   2.875   1.967   3.632
 5614SOL    HW118801   2.881   2.052   3.580
 5614SOL    HW218802   2.907   1.891   3.575
 5615SOL     OW18803   2.366   1.912   3.602
 5615SOL    HW118804   2.324   1.855   3.532
 5615SOL    HW218805   2.300   1.981   3.634
 5616SOL     OW18806   2.435   2.732   2.891
 5616SOL    HW118807   2.479   2.821   2.882
 5616SOL    HW218808   2.372   2.732   2.968
 5617SOL     OW18809   3.222   2.724   2.907
 5617SOL    HW118810   3.147   2.724   2.841
 5617SOL    HW218811   3.259   2.632   2.916
 5618SOL     OW18812   3.071   2.387   2.137
 5618SOL    HW118813   3.084   2.303   2.191
 5618SOL    HW218814   3.042   2.461   2.197
 5619SOL     OW18815   2.169   2.075   3.093
 5619SOL    HW118816   2.146   2.112   3.183
 5619SOL    HW218817   2.139   1.980   3.087
 5620SOL     OW18818   1.899   3.172   3.144
 5620SOL    HW118819   1.952   3.123   3.212
 5620SOL    HW218820   1.921   3.270   3.149
 5621SOL     OW18821   2.594   2.496   2.926
 5621SOL    HW118822   2.653   2.470   2.850
 5621SOL    HW218823   2.566   2.592   2.915
 5622SOL     OW18824   3.590   2.797   3.716
 5622SOL    HW118825   3.544   2.790   3.627
 5622SOL    HW218826   3.528   2.841   3.782
 5623SOL     OW18827   2.169   1.925   2.480
 5623SOL    HW118828   2.158   2.019   2.513
 5623SOL    HW218829   2.164   1.862   2.557
 5624SOL     OW18830   3.484   2.229   2.236
 5624SOL    HW118831   3.486   2.153   2.300
 5624SOL    HW218832   3.436   2.306   2.276
 5625SOL     OW18833   2.885   2.628   2.828
 5625SOL    HW118834   2.900   2.649   2.924
 5625SOL    HW218835   2.855   2.533   2.819
 5626SOL     OW18836   2.842   3.435   3.562
 5626SOL    HW118837   2.822   3.479   3.474
 5626SOL    HW218838   2.881   3.344   3.546
 5627SOL     OW18839   3.721   3.380   3.467
 5627SOL    HW118840   3.735   3.407   3.372
 5627SOL    HW218841   3.804   3.402   3.520
 5628SOL     OW18842   2.212   2.760   3.666
 5628SOL    HW118843   2.288   2.804   3.714
 5628SOL    HW218844   2.247   2.713   3.584
 5629SOL     OW18845   3.402   2.136   1.987
 5629SOL    HW118846   3.341   2.061   2.010
 5629SOL    HW218847   3.424   2.188   2.070
 5630SOL     OW18848   3.165   2.700   1.904
 5630SOL    HW118849   3.199   2.607   1.919
 5630SOL    HW218850   3.183   2.727   1.809
 5631SOL     OW18851   2.930   3.195   2.711
 5631SOL    HW118852   2.937   3.111   2.656
 5631SOL    HW218853   2.992   3.264   2.675
 5632SOL     OW18854   2.181   2.672   2.811
 5632SOL    HW118855   2.274   2.708   2.816
 5632SOL    HW218856   2.175   2.587   2.863
 5633SOL     OW18857   2.201   2.371   2.868
 5633SOL    HW118858   2.149   2.288   2.851
 5633SOL    HW218859   2.278   2.376   2.804
 5634SOL     OW18860   2.373   2.277   3.670
 5634SOL    HW118861   2.355   2.322   3.758
 5634SOL    HW218862   2.415   2.342   3.607
 5635SOL     OW18863   3.000   2.242   3.540
 5635SOL    HW118864   2.955   2.305   3.604
 5635SOL    HW218865   3.093   2.273   3.523
 5636SOL     OW18866   3.022   2.069   3.339
 5636SOL    HW118867   3.022   2.133   3.416
 5636SOL    HW218868   3.050   2.117   3.256
 5637SOL     OW18869   1.870   3.188   2.062
 5637SOL    HW118870   1.777   3.209   2.031
 5637SOL    HW218871   1.880   3.089   2.075
 5638SOL     OW18872   1.950   3.663   2.789
 5638SOL    HW118873   1.908   3.577   2.762
 5638SOL    HW218874   2.044   3.666   2.755
 5639SOL     OW18875   2.366   3.430   2.772
 5639SOL    HW118876   2.432   3.504   2.781
 5639SOL    HW218877   2.410   3.351   2.730
 5640SOL     OW18878   2.864   2.658   3.100
 5640SOL    HW118879   2.905   2.626   3.186
 5640SOL    HW218880   2.768   2.631   3.097
 5641SOL     OW18881   1.902   2.406   2.976
 5641SOL    HW118882   1.987   2.373   2.935
 5641SOL    HW218883   1.915   2.421   3.074
 5642SOL     OW18884   2.051   2.382   3.584
 5642SOL    HW118885   2.110   2.342   3.514
 5642SOL    HW218886   1.993   2.453   3.543
 5643SOL     OW18887   3.231   2.812   3.522
 5643SOL    HW118888   3.270   2.901   3.542
 5643SOL    HW218889   3.241   2.792   3.425
 5644SOL     OW18890   2.677   2.434   2.187
 5644SOL    HW118891   2.684   2.345   2.141
 5644SOL    HW218892   2.583   2.468   2.179
 5645SOL     OW18893   3.519   2.466   3.068
 5645SOL    HW118894   3.481   2.397   3.130
 5645SOL    HW218895   3.601   2.430   3.024
 5646SOL     OW18896   2.114   3.426   3.606
 5646SOL    HW118897   2.084   3.483   3.682
 5646SOL    HW218898   2.107   3.329   3.632
 5647SOL     OW18899   2.533   2.326   3.131
 5647SOL    HW118900   2.499   2.237   3.101
 5647SOL    HW218901   2.559   2.380   3.051
 5648SOL     OW18902   2.792   3.540   3.327
 5648SOL    HW118903   2.768   3.522   3.232
 5648SOL    HW218904   2.822   3.634   3.337
 5649SOL     OW18905   2.335   2.362   2.053
 5649SOL    HW118906   2.396   2.442   2.057
 5649SOL    HW218907   2.240   2.393   2.060
 5650SOL     OW18908   2.021   2.999   3.328
 5650SOL    HW118909   2.043   2.938   3.404
 5650SOL    HW218910   2.031   2.950   3.242
 5651SOL     OW18911   3.209   2.921   3.096
 5651SOL    HW118912   3.233   2.858   3.022
 5651SOL    HW218913   3.119   2.961   3.078
 5652SOL     OW18914   3.164   2.717   2.171
 5652SOL    HW118915   3.078   2.686   2.213
 5652SOL    HW218916   3.160   2.703   2.072
 5653SOL     OW18917   3.621   3.609   3.016
 5653SOL    HW118918   3.682   3.639   2.943
 5653SOL    HW218919   3.583   3.520   2.994
 5654SOL     OW18920   3.114   3.593   2.990
 5654SOL    HW118921   3.198   3.598   2.936
 5654SOL    HW218922   3.091   3.497   3.008
 5655SOL     OW18923   1.945   3.120   2.884
 5655SOL    HW118924   1.940   3.119   2.984
 5655SOL    HW218925   1.862   3.079   2.846
 5656SOL     OW18926   2.550   3.524   3.578
 5656SOL    HW118927   2.494   3.605   3.587
 5656SOL    HW218928   2.602   3.528   3.492
 5657SOL     OW18929   2.765   1.948   1.995
 5657SOL    HW118930   2.816   1.949   1.909
 5657SOL    HW218931   2.821   1.906   2.066
 5658SOL     OW18932   3.588   1.997   2.385
 5658SOL    HW118933   3.661   1.980   2.318
 5658SOL    HW218934   3.557   1.910   2.423
 5659SOL     OW18935   3.250   3.435   2.339
 5659SOL    HW118936   3.317   3.447   2.265
 5659SOL    HW218937   3.210   3.524   2.362
 5660SOL     OW18938   1.992   3.656   3.713
 5660SOL    HW118939   1.951   3.582   3.766
 5660SOL    HW218940   2.056   3.707   3.771
 5661SOL     OW18941   3.142   2.789   2.534
 5661SOL    HW118942   3.202   2.708   2.536
 5661SOL    HW218943   3.182   2.858   2.474
 5662SOL     OW18944   2.692   3.135   3.284
 5662SOL    HW118945   2.687   3.168   3.379
 5662SOL    HW218946   2.606   3.154   3.238
 5663SOL     OW18947   2.534   3.478   2.016
 5663SOL    HW118948   2.543   3.488   1.917
 5663SOL    HW218949   2.494   3.389   2.037
 5664SOL     OW18950   3.512   3.582   3.256
 5664SOL    HW118951   3.565   3.592   3.172
 5664SOL    HW218952   3.485   3.672   3.290
 5665SOL     OW18953   3.703   2.037   2.825
 5665SOL    HW118954   3.742   1.952   2.789
 5665SOL    HW218955   3.605   2.039   2.806
 5666SOL     OW18956   2.125   2.188   2.582
 5666SOL    HW118957   2.046   2.239   2.548
 5666SOL    HW218958   2.116   2.173   2.680
 5667SOL     OW18959   3.056   3.474   1.893
 5667SOL    HW118960   3.062   3.381   1.930
 5667SOL    HW218961   2.997   3.474   1.813
 5668SOL     OW18962   2.684   2.864   3.234
 5668SOL    HW118963   2.724   2.863   3.142
 5668SOL    HW218964   2.694   2.956   3.274
 5669SOL     OW18965   2.778   2.772   2.153
 5669SOL    HW118966   2.841   2.810   2.085
 5669SOL    HW218967   2.818   2.689   2.192
 5670SOL     OW18968   3.366   3.469   1.906
 5670SOL    HW118969   3.274   3.506   1.913
 5670SOL    HW218970   3.404   3.489   1.816
 5671SOL     OW18971   2.234   3.150   3.352
 5671SOL    HW118972   2.221   3.243   3.318
 5671SOL    HW218973   2.150   3.098   3.339
 5672SOL     OW18974   3.476   3.154   3.151
 5672SOL    HW118975   3.536   3.157   3.231
 5672SOL    HW218976   3.401   3.218   3.164
 5673SOL     OW18977   2.901   2.960   2.558
 5673SOL    HW118978   2.831   2.913   2.612
 5673SOL    HW218979   2.960   2.892   2.515
 5674SOL     OW18980   2.876   2.098   2.833
 5674SOL    HW118981   2.868   2.062   2.740
 5674SOL    HW218982   2.874   2.022   2.898
 5675SOL     OW18983   2.452   3.349   2.353
 5675SOL    HW118984   2.494   3.291   2.283
 5675SOL    HW218985   2.408   3.428   2.309
 5676SOL     OW18986   3.571   2.247   3.243
 5676SOL    HW118987   3.644   2.316   3.247
 5676SOL    HW218988   3.599   2.172   3.184
 5677SOL     OW18989   2.117   3.210   2.152
 5677SOL    HW118990   2.021   3.211   2.125
 5677SOL    HW218991   2.129   3.263   2.236
 5678SOL     OW18992   1.967   2.875   3.588
 5678SOL    HW118993   1.890   2.842   3.642
 5678SOL    HW218994   2.052   2.845   3.630
 5679SOL     OW18995   2.534   2.065   3.351
 5679SOL    HW118996   2.624   2.049   3.311
 5679SOL    HW218997   2.542   2.070   3.450
 5680SOL     OW18998   1.937   2.207   1.895
 5680SOL    HW118999   1.845   2.179   1.866
 5680SOL    HW219000   1.968   2.284   1.839
 5681SOL     OW19001   3.302   2.718   3.260
 5681SOL    HW119002   3.245   2.770   3.197
 5681SOL    HW219003   3.398   2.730   3.236
 5682SOL     OW19004   1.934   2.028   2.180
 5682SOL    HW119005   1.917   2.111   2.126
 5682SOL    HW219006   2.024   1.991   2.158
 5683SOL     OW19007   3.045   3.197   1.981
 5683SOL    HW119008   2.946   3.186   1.983
 5683SOL    HW219009   3.079   3.212   2.074
 5684SOL     OW19010   2.475   2.704   3.293
 5684SOL    HW119011   2.531   2.785   3.276
 5684SOL    HW219012   2.534   2.624   3.296
 5685SOL     OW19013   3.355   3.629   2.821
 5685SOL    HW119014   3.388   3.693   2.752
 5685SOL    HW219015   3.421   3.623   2.896
 5686SOL     OW19016   2.578   2.427   3.570
 5686SOL    HW119017   2.597   2.492   3.644
 5686SOL    HW219018   2.638   2.347   3.579
 5687SOL     OW19019   3.312   3.082   3.495
 5687SOL    HW119020   3.303   3.072   3.594
 5687SOL    HW219021   3.408   3.075   3.469
 5688SOL     OW19022   2.252   3.603   3.422
 5688SOL    HW119023   2.161   3.644   3.420
 5688SOL    HW219024   2.245   3.509   3.454
 5689SOL     OW19025   3.536   2.745   3.116
 5689SOL    HW119026   3.509   2.656   3.079
 5689SOL    HW219027   3.537   2.813   3.043
 5690SOL     OW19028   3.087   2.187   2.311
 5690SOL    HW119029   3.152   2.113   2.300
 5690SOL    HW219030   3.107   2.237   2.395
 5691SOL     OW19031   2.456   2.607   2.514
 5691SOL    HW119032   2.506   2.692   2.495
 5691SOL    HW219033   2.368   2.609   2.466
 5692SOL     OW19034   3.639   2.204   3.504
 5692SOL    HW119035   3.622   2.235   3.410
 5692SOL    HW219036   3.555   2.167   3.542
 5693SOL     OW19037   3.592   2.796   3.379
 5693SOL    HW119038   3.630   2.887   3.394
 5693SOL    HW219039   3.584   2.779   3.280
 5694SOL     OW19040   2.721   3.236   1.878
 5694SOL    HW119041   2.675   3.251   1.966
 5694SOL    HW219042   2.765   3.321   1.848
 5695SOL     OW19043   2.523   3.652   2.815
 5695SOL    HW119044   2.477   3.740   2.802
 5695SOL    HW219045   2.622   3.664   2.808
 5696SOL     OW19046   3.270   3.713   3.582
 5696SOL    HW119047   3.174   3.702   3.555
 5696SOL    HW219048   3.326   3.646   3.534
 5697SOL     OW19049   2.721   2.818   2.723
 5697SOL    HW119050   2.775   2.749   2.771
 5697SOL    HW219051   2.689   2.887   2.789
 5698SOL     OW19052   2.945   2.846   1.949
 5698SOL    HW119053   2.922   2.899   1.867
 5698SOL    HW219054   3.026   2.790   1.930
 5699SOL     OW19055   3.723   3.431   2.713
 5699SOL    HW119056   3.652   3.419   2.643
 5699SOL    HW219057   3.724   3.352   2.773
 5700SOL     OW19058   2.083   3.176   3.706
 5700SOL    HW119059   2.018   3.103   3.685
 5700SOL    HW219060   2.087   3.190   3.804
 5701SOL     OW19061   1.941   3.102   2.515
 5701SOL    HW119062   1.940   3.055   2.603
 5701SOL    HW219063   2.023   3.074   2.464
 5702SOL     OW19064   2.534   3.253   3.486
 5702SOL    HW119065   2.456   3.203   3.524
 5702SOL    HW219066   2.531   3.348   3.517
 5703SOL     OW19067   3.686   2.054   3.089
 5703SOL    HW119068   3.682   1.964   3.133
 5703SOL    HW219069   3.689   2.043   2.990
 5704SOL     OW19070   2.290   2.286   2.382
 5704SOL    HW119071   2.320   2.214   2.320
 5704SOL    HW219072   2.251   2.246   2.465
 5705SOL     OW19073   3.567   3.349   2.966
 5705SOL    HW119074   3.474   3.324   2.939
 5705SOL    HW219075   3.593   3.299   3.048
 5706SOL     OW19076   2.179   2.409   3.142
 5706SOL    HW119077   2.217   2.350   3.214
 5706SOL    HW219078   2.219   2.383   3.054
 5707SOL     OW19079   2.674   3.448   2.549
 5707SOL    HW119080   2.706   3.458   2.455
 5707SOL    HW219081   2.595   3.386   2.551
 5708SOL     OW19082   3.286   2.076   2.974
 5708SOL    HW119083   3.338   2.011   3.029
 5708SOL    HW219084   3.237   2.139   3.035
 5709SOL     OW19085   2.863   1.896   3.016
 5709SOL    HW119086   2.800   1.824   2.985
 5709SOL    HW219087   2.956   1.860   3.016
 5710SOL     OW19088   2.632   3.192   2.163
 5710SOL    HW119089   2.586   3.105   2.180
 5710SOL    HW219090   2.723   3.189   2.204
 5711SOL     OW19091   2.480   3.429   3.146
 5711SOL    HW119092   2.475   3.511   3.203
 5711SOL    HW219093   2.569   3.426   3.101
 5712SOL     OW19094   3.214   1.914   2.030
 5712SOL    HW119095   3.249   1.873   1.946
 5712SOL    HW219096   3.124   1.876   2.050
 5713SOL     OW19097   3.162   2.315   2.553
 5713SOL    HW119098   3.103   2.395   2.557
 5713SOL    HW219099   3.177   2.280   2.646
 5714SOL     OW19100   3.455   2.083   2.744
 5714SOL    HW119101   3.371   2.082   2.798
 5714SOL    HW219102   3.457   2.166   2.688
 5715SOL     OW19103   1.901   2.939   2.162
 5715SOL    HW119104   2.000   2.928   2.153
 5715SOL    HW219105   1.861   2.853   2.194
 5716SOL     OW19106   2.737   3.508   2.199
 5716SOL    HW119107   2.660   3.473   2.145
 5716SOL    HW219108   2.705   3.579   2.261
 5717SOL     OW19109   2.092   2.490   3.837
 5717SOL    HW119110   1.999   2.488   3.874
 5717SOL    HW219111   2.093   2.451   3.745
 5718SOL     OW19112   2.087   2.137   4.720
 5718SOL    HW119113   2.122   2.120   4.812
 5718SOL    HW219114   1.999   2.092   4.708
 5719SOL     OW19115   1.881   2.230   4.371
 5719SOL    HW119116   1.799   2.273   4.410
 5719SOL    HW219117   1.853   2.157   4.308
 5720SOL     OW19118   2.431   3.137   4.889
 5720SOL    HW119119   2.338   3.130   4.852
 5720SOL    HW219120   2.442   3.226   4.933
 5721SOL     OW19121   3.605   2.480   4.580
 5721SOL    HW119122   3.638   2.574   4.580
 5721SOL    HW219123   3.656   2.426   4.646
 5722SOL     OW19124   2.997   2.565   4.441
 5722SOL    HW119125   3.054   2.643   4.416
 5722SOL    HW219126   2.937   2.591   4.517
 5723SOL     OW19127   3.617   2.469   3.955
 5723SOL    HW119128   3.605   2.456   3.856
 5723SOL    HW219129   3.587   2.388   4.004
 5724SOL     OW19130   2.630   3.006   4.747
 5724SOL    HW119131   2.552   3.023   4.807
 5724SOL    HW219132   2.664   3.093   4.711
 5725SOL     OW19133   2.712   2.660   5.547
 5725SOL    HW119134   2.708   2.736   5.612
 5725SOL    HW219135   2.734   2.696   5.456
 5726SOL     OW19136   2.547   2.874   4.389
 5726SOL    HW119137   2.616   2.858   4.459
 5726SOL    HW219138   2.474   2.931   4.427
 5727SOL     OW19139   2.548   3.023   5.527
 5727SOL    HW119140   2.608   3.102   5.541
 5727SOL    HW219141   2.462   3.054   5.486
 5728SOL     OW19142   2.197   3.297   4.785
 5728SOL    HW119143   2.119   3.266   4.732
 5728SOL    HW219144   2.255   3.355   4.728
 5729SOL     OW19145   3.322   3.367   5.063
 5729SOL    HW119146   3.346   3.461   5.089
 5729SOL    HW219147   3.306   3.313   5.145
 5730SOL     OW19148   2.300   2.254   5.223
 5730SOL    HW119149   2.382   2.198   5.232
 5730SOL    HW219150   2.219   2.196   5.227
 5731SOL     OW19151   3.465   2.309   4.461
 5731SOL    HW119152   3.391   2.355   4.411
 5731SOL    HW219153   3.516   2.377   4.514
 5732SOL     OW19154   2.093   3.575   4.207
 5732SOL    HW119155   2.127   3.652   4.261
 5732SOL    HW219156   2.137   3.575   4.117
 5733SOL     OW19157   2.989   3.203   5.414
 5733SOL    HW119158   3.036   3.203   5.502
 5733SOL    HW219159   2.941   3.116   5.403
 5734SOL     OW19160   2.092   3.296   4.262
 5734SOL    HW119161   2.066   3.392   4.262
 5734SOL    HW219162   2.021   3.242   4.307
 5735SOL     OW19163   2.102   2.953   4.610
 5735SOL    HW119164   2.116   2.869   4.662
 5735SOL    HW219165   2.047   3.017   4.665
 5736SOL     OW19166   2.482   3.648   5.163
 5736SOL    HW119167   2.390   3.631   5.198
 5736SOL    HW219168   2.510   3.740   5.189
 5737SOL     OW19169   2.468   2.826   3.847
 5737SOL    HW119170   2.475   2.910   3.793
 5737SOL    HW219171   2.514   2.839   3.935
 5738SOL     OW19172   3.456   1.976   5.204
 5738SOL    HW119173   3.438   2.043   5.132
 5738SOL    HW219174   3.453   2.022   5.293
 5739SOL     OW19175   1.984   2.505   4.287
 5739SOL    HW119176   1.939   2.417   4.304
 5739SOL    HW219177   1.983   2.559   4.371
 5740SOL     OW19178   3.704   3.629   4.083
 5740SOL    HW119179   3.758   3.600   4.163
 5740SOL    HW219180   3.734   3.719   4.054
 5741SOL     OW19181   1.889   3.458   3.841
 5741SOL    HW119182   1.870   3.362   3.862
 5741SOL    HW219183   1.856   3.516   3.916
 5742SOL     OW19184   3.551   2.784   4.336
 5742SOL    HW119185   3.646   2.755   4.344
 5742SOL    HW219186   3.543   2.849   4.261
 5743SOL     OW19187   3.503   2.970   4.156
 5743SOL    HW119188   3.589   2.972   4.104
 5743SOL    HW219189   3.517   3.017   4.244
 5744SOL     OW19190   1.975   2.599   5.321
 5744SOL    HW119191   2.063   2.586   5.366
 5744SOL    HW219192   1.962   2.696   5.299
 5745SOL     OW19193   2.475   3.227   4.450
 5745SOL    HW119194   2.426   3.140   4.459
 5745SOL    HW219195   2.452   3.270   4.363
 5746SOL     OW19196   3.155   3.090   5.147
 5746SOL    HW119197   3.192   3.017   5.089
 5746SOL    HW219198   3.207   3.095   5.232
 5747SOL     OW19199   2.671   1.866   4.226
 5747SOL    HW119200   2.711   1.957   4.217
 5747SOL    HW219201   2.571   1.874   4.232
 5748SOL     OW19202   2.059   2.838   4.988
 5748SOL    HW119203   2.148   2.793   4.974
 5748SOL    HW219204   1.986   2.773   4.969
 5749SOL     OW19205   3.387   2.861   3.914
 5749SOL    HW119206   3.324   2.785   3.927
 5749SOL    HW219207   3.435   2.879   4.000
 5750SOL     OW19208   3.049   3.654   5.340
 5750SOL    HW119209   3.073   3.714   5.264
 5750SOL    HW219210   3.056   3.559   5.310
 5751SOL     OW19211   2.179   2.113   5.525
 5751SOL    HW119212   2.250   2.184   5.531
 5751SOL    HW219213   2.091   2.152   5.553
 5752SOL     OW19214   3.529   3.576   4.296
 5752SOL    HW119215   3.488   3.553   4.208
 5752SOL    HW219216   3.511   3.502   4.361
 5753SOL     OW19217   2.460   2.591   3.994
 5753SOL    HW119218   2.484   2.660   3.926
 5753SOL    HW219219   2.382   2.624   4.048
 5754SOL     OW19220   3.143   2.207   4.668
 5754SOL    HW119221   3.057   2.157   4.655
 5754SOL    HW219222   3.205   2.153   4.724
 5755SOL     OW19223   3.438   3.524   4.031
 5755SOL    HW119224   3.527   3.570   4.034
 5755SOL    HW219225   3.417   3.500   3.936
 5756SOL     OW19226   2.669   2.467   5.189
 5756SOL    HW119227   2.622   2.464   5.278
 5756SOL    HW219228   2.618   2.412   5.123
 5757SOL     OW19229   3.256   2.331   5.398
 5757SOL    HW119230   3.236   2.374   5.486
 5757SOL    HW219231   3.334   2.269   5.407
 5758SOL     OW19232   2.835   2.752   5.296
 5758SOL    HW119233   2.881   2.668   5.267
 5758SOL    HW219234   2.779   2.786   5.221
 5759SOL     OW19235   2.853   2.272   4.966
 5759SOL    HW119236   2.776   2.306   5.020
 5759SOL    HW219237   2.819   2.221   4.887
 5760SOL     OW19238   2.903   2.563   4.153
 5760SOL    HW119239   2.929   2.559   4.249
 5760SOL    HW219240   2.818   2.512   4.139
 5761SOL     OW19241   1.938   2.673   4.513
 5761SOL    HW119242   2.037   2.661   4.522
 5761SOL    HW219243   1.914   2.768   4.534
 5762SOL     OW19244   1.992   3.683   5.295
 5762SOL    HW119245   1.982   3.668   5.394
 5762SOL    HW219246   1.906   3.719   5.259
 5763SOL     OW19247   2.727   2.210   3.919
 5763SOL    HW119248   2.786   2.273   3.870
 5763SOL    HW219249   2.746   2.116   3.890
 5764SOL     OW19250   3.581   2.447   5.555
 5764SOL    HW119251   3.555   2.536   5.519
 5764SOL    HW219252   3.579   2.379   5.482
 5765SOL     OW19253   3.224   3.006   4.269
 5765SOL    HW119254   3.307   2.977   4.221
 5765SOL    HW219255   3.175   3.073   4.213
 5766SOL     OW19256   2.412   2.058   4.609
 5766SOL    HW119257   2.407   2.053   4.709
 5766SOL    HW219258   2.414   2.154   4.580
 5767SOL     OW19259   2.870   3.318   4.201
 5767SOL    HW119260   2.824   3.390   4.149
 5767SOL    HW219261   2.866   3.338   4.299
 5768SOL     OW19262   2.213   3.663   4.577
 5768SOL    HW119263   2.263   3.577   4.583
 5768SOL    HW219264   2.278   3.740   4.574
 5769SOL     OW19265   3.657   2.928   4.597
 5769SOL    HW119266   3.595   2.913   4.521
 5769SOL    HW219267   3.605   2.939   4.682
 5770SOL     OW19268   3.089   3.412   5.230
 5770SOL    HW119269   3.095   3.335   5.294
 5770SOL    HW219270   3.037   3.386   5.150
 5771SOL     OW19271   2.183   2.805   3.966
 5771SOL    HW119272   2.265   2.844   3.924
 5771SOL    HW219273   2.156   2.723   3.917
 5772SOL     OW19274   3.320   2.597   4.452
 5772SOL    HW119275   3.315   2.532   4.527
 5772SOL    HW219276   3.400   2.656   4.465
 5773SOL     OW19277   2.323   3.128   5.451
 5773SOL    HW119278   2.273   3.129   5.365
 5773SOL    HW219279   2.260   3.110   5.527
 5774SOL     OW19280   2.973   3.638   3.961
 5774SOL    HW119281   2.913   3.576   4.011
 5774SOL    HW219282   3.004   3.594   3.876
 5775SOL     OW19283   2.064   2.147   5.222
 5775SOL    HW119284   1.984   2.207   5.209
 5775SOL    HW219285   2.054   2.098   5.308
 5776SOL     OW19286   3.494   3.239   3.805
 5776SOL    HW119287   3.462   3.333   3.795
 5776SOL    HW219288   3.418   3.176   3.793
 5777SOL     OW19289   2.326   3.605   4.047
 5777SOL    HW119290   2.359   3.644   4.133
 5777SOL    HW219291   2.402   3.598   3.982
 5778SOL     OW19292   3.262   1.969   4.150
 5778SOL    HW119293   3.238   1.932   4.060
 5778SOL    HW219294   3.361   1.985   4.154
 5779SOL     OW19295   2.111   3.647   4.965
 5779SOL    HW119296   2.168   3.582   5.015
 5779SOL    HW219297   2.095   3.614   4.872
 5780SOL     OW19298   2.802   3.560   4.628
 5780SOL    HW119299   2.882   3.503   4.649
 5780SOL    HW219300   2.753   3.520   4.551
 5781SOL     OW19301   2.244   2.562   4.204
 5781SOL    HW119302   2.289   2.472   4.201
 5781SOL    HW219303   2.150   2.551   4.237
 5782SOL     OW19304   3.409   2.084   5.453
 5782SOL    HW119305   3.404   2.121   5.545
 5782SOL    HW219306   3.337   2.015   5.441
 5783SOL     OW19307   2.476   1.984   3.841
 5783SOL    HW119308   2.574   1.962   3.848
 5783SOL    HW219309   2.445   1.967   3.748
 5784SOL     OW19310   2.643   2.126   5.473
 5784SOL    HW119311   2.710   2.065   5.516
 5784SOL    HW219312   2.570   2.145   5.538
 5785SOL     OW19313   2.750   3.376   4.919
 5785SOL    HW119314   2.727   3.351   4.825
 5785SOL    HW219315   2.811   3.307   4.958
 5786SOL     OW19316   3.213   2.452   5.157
 5786SOL    HW119317   3.241   2.409   5.242
 5786SOL    HW219318   3.238   2.548   5.158
 5787SOL     OW19319   2.665   3.264   4.648
 5787SOL    HW119320   2.755   3.278   4.606
 5787SOL    HW219321   2.594   3.266   4.577
 5788SOL     OW19322   2.784   2.365   4.623
 5788SOL    HW119323   2.759   2.356   4.527
 5788SOL    HW219324   2.832   2.283   4.654
 5789SOL     OW19325   2.401   1.926   4.236
 5789SOL    HW119326   2.320   1.927   4.294
 5789SOL    HW219327   2.404   2.009   4.181
 5790SOL     OW19328   3.296   3.050   3.765
 5790SOL    HW119329   3.328   2.974   3.822
 5790SOL    HW219330   3.204   3.077   3.795
 5791SOL     OW19331   2.159   1.897   3.895
 5791SOL    HW119332   2.208   1.981   3.874
 5791SOL    HW219333   2.221   1.832   3.940
 5792SOL     OW19334   2.797   2.098   4.204
 5792SOL    HW119335   2.749   2.139   4.126
 5792SOL    HW219336   2.896   2.096   4.185
 5793SOL     OW19337   2.938   2.545   5.188
 5793SOL    HW119338   2.858   2.484   5.191
 5793SOL    HW219339   3.019   2.492   5.164
 5794SOL     OW19340   2.321   3.014   4.465
 5794SOL    HW119341   2.250   2.987   4.530
 5794SOL    HW219342   2.295   2.986   4.372
 5795SOL     OW19343   3.133   3.659   4.315
 5795SOL    HW119344   3.177   3.723   4.251
 5795SOL    HW219345   3.083   3.711   4.385
 5796SOL     OW19346   2.894   2.411   3.740
 5796SOL    HW119347   2.853   2.493   3.701
 5796SOL    HW219348   2.958   2.437   3.813
 5797SOL     OW19349   1.940   2.418   5.110
 5797SOL    HW119350   2.032   2.417   5.069
 5797SOL    HW219351   1.934   2.492   5.177
 5798SOL     OW19352   2.423   2.084   4.871
 5798SOL    HW119353   2.461   2.000   4.908
 5798SOL    HW219354   2.335   2.103   4.915
 5799SOL     OW19355   2.728   2.316   4.366
 5799SOL    HW119356   2.696   2.388   4.304
 5799SOL    HW219357   2.752   2.235   4.313
 5800SOL     OW19358   2.879   1.901   4.477
 5800SOL    HW119359   2.807   1.906   4.408
 5800SOL    HW219360   2.855   1.832   4.546
 5801SOL     OW19361   3.291   3.035   4.591
 5801SOL    HW119362   3.236   2.951   4.584
 5801SOL    HW219363   3.317   3.064   4.499
 5802SOL     OW19364   3.328   2.452   4.716
 5802SOL    HW119365   3.298   2.357   4.723
 5802SOL    HW219366   3.401   2.468   4.782
 5803SOL     OW19367   3.719   2.695   4.101
 5803SOL    HW119368   3.761   2.631   4.165
 5803SOL    HW219369   3.681   2.644   4.023
 5804SOL     OW19370   2.350   3.247   3.898
 5804SOL    HW119371   2.263   3.232   3.945
 5804SOL    HW219372   2.333   3.273   3.803
 5805SOL     OW19373   3.252   2.437   3.802
 5805SOL    HW119374   3.198   2.416   3.883
 5805SOL    HW219375   3.343   2.396   3.811
 5806SOL     OW19376   2.389   2.118   4.052
 5806SOL    HW119377   2.416   2.059   3.977
 5806SOL    HW219378   2.389   2.213   4.021
 5807SOL     OW19379   3.616   3.085   5.312
 5807SOL    HW119380   3.707   3.046   5.299
 5807SOL    HW219381   3.624   3.181   5.336
 5808SOL     OW19382   2.926   3.209   5.064
 5808SOL    HW119383   2.846   3.186   5.119
 5808SOL    HW219384   3.009   3.183   5.113
 5809SOL     OW19385   3.454   3.491   5.349
 5809SOL    HW119386   3.481   3.525   5.259
 5809SOL    HW219387   3.533   3.453   5.395
 5810SOL     OW19388   2.973   3.057   4.824
 5810SOL    HW119389   2.933   3.101   4.905
 5810SOL    HW219390   2.932   3.094   4.741
 5811SOL     OW19391   3.500   2.961   4.803
 5811SOL    HW119392   3.505   3.042   4.862
 5811SOL    HW219393   3.414   2.963   4.752
 5812SOL     OW19394   2.777   1.951   5.126
 5812SOL    HW119395   2.802   1.931   5.031
 5812SOL    HW219396   2.849   2.007   5.168
 5813SOL     OW19397   2.842   2.978   5.443
 5813SOL    HW119398   2.743   2.984   5.453
 5813SOL    HW219399   2.865   2.898   5.387
 5814SOL     OW19400   2.567   2.912   4.092
 5814SOL    HW119401   2.553   2.919   4.191
 5814SOL    HW219402   2.651   2.861   4.074
 5815SOL     OW19403   2.272   2.675   4.975
 5815SOL    HW119404   2.358   2.687   5.025
 5815SOL    HW219405   2.230   2.588   5.002
 5816SOL     OW19406   3.136   2.248   4.986
 5816SOL    HW119407   3.157   2.322   5.050
 5816SOL    HW219408   3.047   2.265   4.943
 5817SOL     OW19409   1.926   3.426   5.055
 5817SOL    HW119410   1.880   3.508   5.021
 5817SOL    HW219411   2.024   3.445   5.064
 5818SOL     OW19412   2.229   2.962   4.225
 5818SOL    HW119413   2.222   3.045   4.169
 5818SOL    HW219414   2.233   2.882   4.165
 5819SOL     OW19415   2.428   2.399   4.589
 5819SOL    HW119416   2.440   2.465   4.515
 5819SOL    HW219417   2.474   2.433   4.672
 5820SOL     OW19418   3.114   3.210   4.112
 5820SOL    HW119419   3.164   3.287   4.152
 5820SOL    HW219420   3.019   3.212   4.144
 5821SOL     OW19421   3.134   3.307   4.866
 5821SOL    HW119422   3.181   3.320   4.953
 5821SOL    HW219423   3.068   3.233   4.875
 5822SOL     OW19424   3.444   2.501   4.196
 5822SOL    HW119425   3.413   2.562   4.269
 5822SOL    HW219426   3.494   2.553   4.127
 5823SOL     OW19427   2.216   3.372   5.053
 5823SOL    HW119428   2.195   3.328   4.966
 5823SOL    HW219429   2.313   3.398   5.056
 5824SOL     OW19430   2.264   2.613   5.322
 5824SOL    HW119431   2.332   2.668   5.275
 5824SOL    HW219432   2.304   2.525   5.349
 5825SOL     OW19433   3.449   2.641   5.394
 5825SOL    HW119434   3.357   2.679   5.389
 5825SOL    HW219435   3.509   2.688   5.329
 5826SOL     OW19436   2.875   1.967   5.494
 5826SOL    HW119437   2.881   2.052   5.442
 5826SOL    HW219438   2.907   1.891   5.437
 5827SOL     OW19439   2.366   1.912   5.464
 5827SOL    HW119440   2.324   1.855   5.394
 5827SOL    HW219441   2.300   1.981   5.496
 5828SOL     OW19442   2.435   2.732   4.753
 5828SOL    HW119443   2.479   2.821   4.744
 5828SOL    HW219444   2.372   2.732   4.830
 5829SOL     OW19445   3.222   2.724   4.769
 5829SOL    HW119446   3.147   2.724   4.703
 5829SOL    HW219447   3.259   2.632   4.778
 5830SOL     OW19448   3.071   2.387   3.999
 5830SOL    HW119449   3.084   2.303   4.053
 5830SOL    HW219450   3.042   2.461   4.059
 5831SOL     OW19451   2.169   2.075   4.955
 5831SOL    HW119452   2.146   2.112   5.045
 5831SOL    HW219453   2.139   1.980   4.949
 5832SOL     OW19454   1.899   3.172   5.006
 5832SOL    HW119455   1.952   3.123   5.074
 5832SOL    HW219456   1.921   3.270   5.011
 5833SOL     OW19457   2.594   2.496   4.788
 5833SOL    HW119458   2.653   2.470   4.712
 5833SOL    HW219459   2.566   2.592   4.777
 5834SOL     OW19460   3.590   2.797   5.578
 5834SOL    HW119461   3.544   2.790   5.489
 5834SOL    HW219462   3.528   2.841   5.644
 5835SOL     OW19463   2.169   1.925   4.342
 5835SOL    HW119464   2.158   2.019   4.375
 5835SOL    HW219465   2.164   1.862   4.419
 5836SOL     OW19466   3.484   2.229   4.098
 5836SOL    HW119467   3.486   2.153   4.162
 5836SOL    HW219468   3.436   2.306   4.138
 5837SOL     OW19469   2.885   2.628   4.690
 5837SOL    HW119470   2.900   2.649   4.786
 5837SOL    HW219471   2.855   2.533   4.681
 5838SOL     OW19472   2.842   3.435   5.424
 5838SOL    HW119473   2.822   3.479   5.336
 5838SOL    HW219474   2.881   3.344   5.408
 5839SOL     OW19475   3.721   3.380   5.329
 5839SOL    HW119476   3.735   3.407   5.234
 5839SOL    HW219477   3.804   3.402   5.382
 5840SOL     OW19478   2.212   2.760   5.528
 5840SOL    HW119479   2.288   2.804   5.576
 5840SOL    HW219480   2.247   2.713   5.446
 5841SOL     OW19481   3.402   2.136   3.849
 5841SOL    HW119482   3.341   2.061   3.872
 5841SOL    HW219483   3.424   2.188   3.932
 5842SOL     OW19484   3.165   2.700   3.766
 5842SOL    HW119485   3.199   2.607   3.781
 5842SOL    HW219486   3.183   2.727   3.671
 5843SOL     OW19487   2.930   3.195   4.573
 5843SOL    HW119488   2.937   3.111   4.518
 5843SOL    HW219489   2.992   3.264   4.537
 5844SOL     OW19490   2.181   2.672   4.673
 5844SOL    HW119491   2.274   2.708   4.678
 5844SOL    HW219492   2.175   2.587   4.725
 5845SOL     OW19493   2.201   2.371   4.730
 5845SOL    HW119494   2.149   2.288   4.713
 5845SOL    HW219495   2.278   2.376   4.666
 5846SOL     OW19496   2.373   2.277   5.532
 5846SOL    HW119497   2.355   2.322   5.620
 5846SOL    HW219498   2.415   2.342   5.469
 5847SOL     OW19499   3.000   2.242   5.402
 5847SOL    HW119500   2.955   2.305   5.466
 5847SOL    HW219501   3.093   2.273   5.385
 5848SOL     OW19502   3.022   2.069   5.201
 5848SOL    HW119503   3.022   2.133   5.278
 5848SOL    HW219504   3.050   2.117   5.118
 5849SOL     OW19505   1.870   3.188   3.924
 5849SOL    HW119506   1.777   3.209   3.893
 5849SOL    HW219507   1.880   3.089   3.937
 5850SOL     OW19508   1.950   3.663   4.651
 5850SOL    HW119509   1.908   3.577   4.624
 5850SOL    HW219510   2.044   3.666   4.617
 5851SOL     OW19511   2.366   3.430   4.634
 5851SOL    HW119512   2.432   3.504   4.643
 5851SOL    HW219513   2.410   3.351   4.592
 5852SOL     OW19514   2.864   2.658   4.962
 5852SOL    HW119515   2.905   2.626   5.048
 5852SOL    HW219516   2.768   2.631   4.959
 5853SOL     OW19517   1.902   2.406   4.838
 5853SOL    HW119518   1.987   2.373   4.797
 5853SOL    HW219519   1.915   2.421   4.936
 5854SOL     OW19520   2.051   2.382   5.446
 5854SOL    HW119521   2.110   2.342   5.376
 5854SOL    HW219522   1.993   2.453   5.405
 5855SOL     OW19523   3.231   2.812   5.384
 5855SOL    HW119524   3.270   2.901   5.404
 5855SOL    HW219525   3.241   2.792   5.287
 5856SOL     OW19526   2.677   2.434   4.049
 5856SOL    HW119527   2.684   2.345   4.003
 5856SOL    HW219528   2.583   2.468   4.041
 5857SOL     OW19529   3.519   2.466   4.930
 5857SOL    HW119530   3.481   2.397   4.992
 5857SOL    HW219531   3.601   2.430   4.886
 5858SOL     OW19532   2.114   3.426   5.468
 5858SOL    HW119533   2.084   3.483   5.544
 5858SOL    HW219534   2.107   3.329   5.494
 5859SOL     OW19535   2.533   2.326   4.993
 5859SOL    HW119536   2.499   2.237   4.963
 5859SOL    HW219537   2.559   2.380   4.913
 5860SOL     OW19538   2.792   3.540   5.189
 5860SOL    HW119539   2.768   3.522   5.094
 5860SOL    HW219540   2.822   3.634   5.199
 5861SOL     OW19541   2.335   2.362   3.915
 5861SOL    HW119542   2.396   2.442   3.919
 5861SOL    HW219543   2.240   2.393   3.922
 5862SOL     OW19544   2.021   2.999   5.190
 5862SOL    HW119545   2.043   2.938   5.266
 5862SOL    HW219546   2.031   2.950   5.104
 5863SOL     OW19547   3.209   2.921   4.958
 5863SOL    HW119548   3.233   2.858   4.884
 5863SOL    HW219549   3.119   2.961   4.940
 5864SOL     OW19550   3.164   2.717   4.033
 5864SOL    HW119551   3.078   2.686   4.075
 5864SOL    HW219552   3.160   2.703   3.934
 5865SOL     OW19553   1.945   3.120   4.746
 5865SOL    HW119554   1.940   3.119   4.846
 5865SOL    HW219555   1.862   3.079   4.708
 5866SOL     OW19556   2.550   3.524   5.440
 5866SOL    HW119557   2.494   3.605   5.449
 5866SOL    HW219558   2.602   3.528   5.354
 5867SOL     OW19559   2.765   1.948   3.857
 5867SOL    HW119560   2.816   1.949   3.771
 5867SOL    HW219561   2.821   1.906   3.928
 5868SOL     OW19562   3.588   1.997   4.247
 5868SOL    HW119563   3.661   1.980   4.180
 5868SOL    HW219564   3.557   1.910   4.285
 5869SOL     OW19565   3.250   3.435   4.201
 5869SOL    HW119566   3.317   3.447   4.127
 5869SOL    HW219567   3.210   3.524   4.224
 5870SOL     OW19568   1.992   3.656   5.575
 5870SOL    HW119569   1.951   3.582   5.628
 5870SOL    HW219570   2.056   3.707   5.633
 5871SOL     OW19571   3.142   2.789   4.396
 5871SOL    HW119572   3.202   2.708   4.398
 5871SOL    HW219573   3.182   2.858   4.336
 5872SOL     OW19574   2.692   3.135   5.146
 5872SOL    HW119575   2.687   3.168   5.241
 5872SOL    HW219576   2.606   3.154   5.100
 5873SOL     OW19577   2.534   3.478   3.878
 5873SOL    HW119578   2.543   3.488   3.779
 5873SOL    HW219579   2.494   3.389   3.899
 5874SOL     OW19580   3.703   2.037   4.687
 5874SOL    HW119581   3.742   1.952   4.651
 5874SOL    HW219582   3.605   2.039   4.668
 5875SOL     OW19583   2.125   2.188   4.444
 5875SOL    HW119584   2.046   2.239   4.410
 5875SOL    HW219585   2.116   2.173   4.542
 5876SOL     OW19586   3.056   3.474   3.755
 5876SOL    HW119587   3.062   3.381   3.792
 5876SOL    HW219588   2.997   3.474   3.675
 5877SOL     OW19589   2.684   2.864   5.096
 5877SOL    HW119590   2.724   2.863   5.004
 5877SOL    HW219591   2.694   2.956   5.136
 5878SOL     OW19592   2.778   2.772   4.015
 5878SOL    HW119593   2.841   2.810   3.947
 5878SOL    HW219594   2.818   2.689   4.054
 5879SOL     OW19595   3.366   3.469   3.768
 5879SOL    HW119596   3.274   3.506   3.775
 5879SOL    HW219597   3.404   3.489   3.678
 5880SOL     OW19598   2.234   3.150   5.214
 5880SOL    HW119599   2.221   3.243   5.180
 5880SOL    HW219600   2.150   3.098   5.201
 5881SOL     OW19601   3.476   3.154   5.013
 5881SOL    HW119602   3.536   3.157   5.093
 5881SOL    HW219603   3.401   3.218   5.026
 5882SOL     OW19604   2.901   2.960   4.420
 5882SOL    HW119605   2.831   2.913   4.474
 5882SOL    HW219606   2.960   2.892   4.377
 5883SOL     OW19607   2.876   2.098   4.695
 5883SOL    HW119608   2.868   2.062   4.602
 5883SOL    HW219609   2.874   2.022   4.760
 5884SOL     OW19610   2.452   3.349   4.215
 5884SOL    HW119611   2.494   3.291   4.145
 5884SOL    HW219612   2.408   3.428   4.171
 5885SOL     OW19613   3.571   2.247   5.105
 5885SOL    HW119614   3.644   2.316   5.109
 5885SOL    HW219615   3.599   2.172   5.046
 5886SOL     OW19616   2.117   3.210   4.014
 5886SOL    HW119617   2.021   3.211   3.987
 5886SOL    HW219618   2.129   3.263   4.098
 5887SOL     OW19619   1.967   2.875   5.450
 5887SOL    HW119620   1.890   2.842   5.504
 5887SOL    HW219621   2.052   2.845   5.492
 5888SOL     OW19622   2.534   2.065   5.213
 5888SOL    HW119623   2.624   2.049   5.173
 5888SOL    HW219624   2.542   2.070   5.312
 5889SOL     OW19625   1.937   2.207   3.757
 5889SOL    HW119626   1.845   2.179   3.728
 5889SOL    HW219627   1.968   2.284   3.701
 5890SOL     OW19628   3.302   2.718   5.122
 5890SOL    HW119629   3.245   2.770   5.059
 5890SOL    HW219630   3.398   2.730   5.098
 5891SOL     OW19631   1.934   2.028   4.042
 5891SOL    HW119632   1.917   2.111   3.988
 5891SOL    HW219633   2.024   1.991   4.020
 5892SOL     OW19634   3.045   3.197   3.843
 5892SOL    HW119635   2.946   3.186   3.845
 5892SOL    HW219636   3.079   3.212   3.936
 5893SOL     OW19637   2.475   2.704   5.155
 5893SOL    HW119638   2.531   2.785   5.138
 5893SOL    HW219639   2.534   2.624   5.158
 5894SOL     OW19640   2.578   2.427   5.432
 5894SOL    HW119641   2.597   2.492   5.506
 5894SOL    HW219642   2.638   2.347   5.441
 5895SOL     OW19643   3.312   3.082   5.357
 5895SOL    HW119644   3.303   3.072   5.456
 5895SOL    HW219645   3.408   3.075   5.331
 5896SOL     OW19646   2.252   3.603   5.284
 5896SOL    HW119647   2.161   3.644   5.282
 5896SOL    HW219648   2.245   3.509   5.316
 5897SOL     OW19649   3.536   2.745   4.978
 5897SOL    HW119650   3.509   2.656   4.941
 5897SOL    HW219651   3.537   2.813   4.905
 5898SOL     OW19652   3.087   2.187   4.173
 5898SOL    HW119653   3.152   2.113   4.162
 5898SOL    HW219654   3.107   2.237   4.257
 5899SOL     OW19655   2.456   2.607   4.376
 5899SOL    HW119656   2.506   2.692   4.357
 5899SOL    HW219657   2.368   2.609   4.328
 5900SOL     OW19658   3.639   2.204   5.366
 5900SOL    HW119659   3.622   2.235   5.272
 5900SOL    HW219660   3.555   2.167   5.404
 5901SOL     OW19661   3.592   2.796   5.241
 5901SOL    HW119662   3.630   2.887   5.256
 5901SOL    HW219663   3.584   2.779   5.142
 5902SOL     OW19664   2.721   3.236   3.740
 5902SOL    HW119665   2.675   3.251   3.828
 5902SOL    HW219666   2.765   3.321   3.710
 5903SOL     OW19667   2.523   3.652   4.677
 5903SOL    HW119668   2.477   3.740   4.664
 5903SOL    HW219669   2.622   3.664   4.670
 5904SOL     OW19670   3.270   3.713   5.444
 5904SOL    HW119671   3.174   3.702   5.417
 5904SOL    HW219672   3.326   3.646   5.396
 5905SOL     OW19673   2.721   2.818   4.585
 5905SOL    HW119674   2.775   2.749   4.633
 5905SOL    HW219675   2.689   2.887   4.651
 5906SOL     OW19676   2.945   2.846   3.811
 5906SOL    HW119677   2.922   2.899   3.729
 5906SOL    HW219678   3.026   2.790   3.792
 5907SOL     OW19679   3.723   3.431   4.575
 5907SOL    HW119680   3.652   3.419   4.505
 5907SOL    HW219681   3.724   3.352   4.635
 5908SOL     OW19682   2.083   3.176   5.568
 5908SOL    HW119683   2.018   3.103   5.547
 5908SOL    HW219684   2.087   3.190   5.666
 5909SOL     OW19685   1.941   3.102   4.377
 5909SOL    HW119686   1.940   3.055   4.465
 5909SOL    HW219687   2.023   3.074   4.326
 5910SOL     OW19688   2.534   3.253   5.348
 5910SOL    HW119689   2.456   3.203   5.386
 5910SOL    HW219690   2.531   3.348   5.379
 5911SOL     OW19691   3.686   2.054   4.951
 5911SOL    HW119692   3.682   1.964   4.995
 5911SOL    HW219693   3.689   2.043   4.852
 5912SOL     OW19694   2.290   2.286   4.244
 5912SOL    HW119695   2.320   2.214   4.182
 5912SOL    HW219696   2.251   2.246   4.327
 5913SOL     OW19697   2.179   2.409   5.004
 5913SOL    HW119698   2.217   2.350   5.076
 5913SOL    HW219699   2.219   2.383   4.916
 5914SOL     OW19700   2.674   3.448   4.411
 5914SOL    HW119701   2.706   3.458   4.317
 5914SOL    HW219702   2.595   3.386   4.413
 5915SOL     OW19703   3.286   2.076   4.836
 5915SOL    HW119704   3.338   2.011   4.891
 5915SOL    HW219705   3.237   2.139   4.897
 5916SOL     OW19706   2.863   1.896   4.878
 5916SOL    HW119707   2.800   1.824   4.847
 5916SOL    HW219708   2.956   1.860   4.878
 5917SOL     OW19709   2.632   3.192   4.025
 5917SOL    HW119710   2.586   3.105   4.042
 5917SOL    HW219711   2.723   3.189   4.066
 5918SOL     OW19712   2.480   3.429   5.008
 5918SOL    HW119713   2.475   3.511   5.065
 5918SOL    HW219714   2.569   3.426   4.963
 5919SOL     OW19715   3.214   1.914   3.892
 5919SOL    HW119716   3.249   1.873   3.808
 5919SOL    HW219717   3.124   1.876   3.912
 5920SOL     OW19718   3.162   2.315   4.415
 5920SOL    HW119719   3.103   2.395   4.419
 5920SOL    HW219720   3.177   2.280   4.508
 5921SOL     OW19721   3.455   2.083   4.606
 5921SOL    HW119722   3.371   2.082   4.660
 5921SOL    HW219723   3.457   2.166   4.550
 5922SOL     OW19724   1.901   2.939   4.024
 5922SOL    HW119725   2.000   2.928   4.015
 5922SOL    HW219726   1.861   2.853   4.056
 5923SOL     OW19727   2.737   3.508   4.061
 5923SOL    HW119728   2.660   3.473   4.007
 5923SOL    HW219729   2.705   3.579   4.123
 5924SOL     OW19730   2.092   2.490   5.699
 5924SOL    HW119731   1.999   2.488   5.736
 5924SOL    HW219732   2.093   2.451   5.607
 5925SOL     OW19733   2.087   2.137   6.582
 5925SOL    HW119734   2.122   2.120   6.674
 5925SOL    HW219735   1.999   2.092   6.570
 5926SOL     OW19736   1.881   2.230   6.233
 5926SOL    HW119737   1.799   2.273   6.272
 5926SOL    HW219738   1.853   2.157   6.170
 5927SOL     OW19739   2.431   3.137   6.751
 5927SOL    HW119740   2.338   3.130   6.714
 5927SOL    HW219741   2.442   3.226   6.795
 5928SOL     OW19742   3.417   3.373   6.289
 5928SOL    HW119743   3.360   3.357   6.370
 5928SOL    HW219744   3.358   3.383   6.209
 5929SOL     OW19745   3.605   2.480   6.442
 5929SOL    HW119746   3.638   2.574   6.442
 5929SOL    HW219747   3.656   2.426   6.508
 5930SOL     OW19748   2.997   2.565   6.303
 5930SOL    HW119749   3.054   2.643   6.278
 5930SOL    HW219750   2.937   2.591   6.379
 5931SOL     OW19751   3.617   2.469   5.817
 5931SOL    HW119752   3.605   2.456   5.718
 5931SOL    HW219753   3.587   2.388   5.866
 5932SOL     OW19754   2.630   3.006   6.609
 5932SOL    HW119755   2.552   3.023   6.669
 5932SOL    HW219756   2.664   3.093   6.573
 5933SOL     OW19757   2.712   2.660   7.409
 5933SOL    HW119758   2.708   2.736   7.474
 5933SOL    HW219759   2.734   2.696   7.318
 5934SOL     OW19760   2.547   2.874   6.251
 5934SOL    HW119761   2.616   2.858   6.321
 5934SOL    HW219762   2.474   2.931   6.289
 5935SOL     OW19763   2.548   3.023   7.389
 5935SOL    HW119764   2.608   3.102   7.403
 5935SOL    HW219765   2.462   3.054   7.348
 5936SOL     OW19766   2.197   3.297   6.647
 5936SOL    HW119767   2.119   3.266   6.594
 5936SOL    HW219768   2.255   3.355   6.590
 5937SOL     OW19769   3.322   3.367   6.925
 5937SOL    HW119770   3.346   3.461   6.951
 5937SOL    HW219771   3.306   3.313   7.007
 5938SOL     OW19772   2.300   2.254   7.085
 5938SOL    HW119773   2.382   2.198   7.094
 5938SOL    HW219774   2.219   2.196   7.089
 5939SOL     OW19775   3.465   2.309   6.323
 5939SOL    HW119776   3.391   2.355   6.273
 5939SOL    HW219777   3.516   2.377   6.376
 5940SOL     OW19778   2.093   3.575   6.069
 5940SOL    HW119779   2.127   3.652   6.123
 5940SOL    HW219780   2.137   3.575   5.979
 5941SOL     OW19781   2.989   3.203   7.276
 5941SOL    HW119782   3.036   3.203   7.364
 5941SOL    HW219783   2.941   3.116   7.265
 5942SOL     OW19784   2.092   3.296   6.124
 5942SOL    HW119785   2.066   3.392   6.124
 5942SOL    HW219786   2.021   3.242   6.169
 5943SOL     OW19787   2.102   2.953   6.472
 5943SOL    HW119788   2.116   2.869   6.524
 5943SOL    HW219789   2.047   3.017   6.527
 5944SOL     OW19790   2.482   3.648   7.025
 5944SOL    HW119791   2.390   3.631   7.060
 5944SOL    HW219792   2.510   3.740   7.051
 5945SOL     OW19793   2.468   2.826   5.709
 5945SOL    HW119794   2.475   2.910   5.655
 5945SOL    HW219795   2.514   2.839   5.797
 5946SOL     OW19796   3.456   1.976   7.066
 5946SOL    HW119797   3.438   2.043   6.994
 5946SOL    HW219798   3.453   2.022   7.155
 5947SOL     OW19799   1.984   2.505   6.149
 5947SOL    HW119800   1.939   2.417   6.166
 5947SOL    HW219801   1.983   2.559   6.233
 5948SOL     OW19802   3.704   3.629   5.945
 5948SOL    HW119803   3.758   3.600   6.025
 5948SOL    HW219804   3.734   3.719   5.916
 5949SOL     OW19805   1.889   3.458   5.703
 5949SOL    HW119806   1.870   3.362   5.724
 5949SOL    HW219807   1.856   3.516   5.778
 5950SOL     OW19808   3.551   2.784   6.198
 5950SOL    HW119809   3.646   2.755   6.206
 5950SOL    HW219810   3.543   2.849   6.123
 5951SOL     OW19811   3.503   2.970   6.018
 5951SOL    HW119812   3.589   2.972   5.966
 5951SOL    HW219813   3.517   3.017   6.106
 5952SOL     OW19814   1.975   2.599   7.183
 5952SOL    HW119815   2.063   2.586   7.228
 5952SOL    HW219816   1.962   2.696   7.161
 5953SOL     OW19817   2.475   3.227   6.312
 5953SOL    HW119818   2.426   3.140   6.321
 5953SOL    HW219819   2.452   3.270   6.225
 5954SOL     OW19820   3.155   3.090   7.009
 5954SOL    HW119821   3.192   3.017   6.951
 5954SOL    HW219822   3.207   3.095   7.094
 5955SOL     OW19823   2.671   1.866   6.088
 5955SOL    HW119824   2.711   1.957   6.079
 5955SOL    HW219825   2.571   1.874   6.094
 5956SOL     OW19826   2.059   2.838   6.850
 5956SOL    HW119827   2.148   2.793   6.836
 5956SOL    HW219828   1.986   2.773   6.831
 5957SOL     OW19829   3.387   2.861   5.776
 5957SOL    HW119830   3.324   2.785   5.789
 5957SOL    HW219831   3.435   2.879   5.862
 5958SOL     OW19832   3.049   3.654   7.202
 5958SOL    HW119833   3.073   3.714   7.126
 5958SOL    HW219834   3.056   3.559   7.172
 5959SOL     OW19835   2.179   2.113   7.387
 5959SOL    HW119836   2.250   2.184   7.393
 5959SOL    HW219837   2.091   2.152   7.415
 5960SOL     OW19838   3.328   3.279   6.539
 5960SOL    HW119839   3.269   3.285   6.619
 5960SOL    HW219840   3.313   3.191   6.493
 5961SOL     OW19841   3.529   3.576   6.158
 5961SOL    HW119842   3.488   3.553   6.070
 5961SOL    HW219843   3.511   3.502   6.223
 5962SOL     OW19844   2.460   2.591   5.856
 5962SOL    HW119845   2.484   2.660   5.788
 5962SOL    HW219846   2.382   2.624   5.910
 5963SOL     OW19847   3.143   2.207   6.530
 5963SOL    HW119848   3.057   2.157   6.517
 5963SOL    HW219849   3.205   2.153   6.586
 5964SOL     OW19850   3.438   3.524   5.893
 5964SOL    HW119851   3.527   3.570   5.896
 5964SOL    HW219852   3.417   3.500   5.798
 5965SOL     OW19853   2.669   2.467   7.051
 5965SOL    HW119854   2.622   2.464   7.140
 5965SOL    HW219855   2.618   2.412   6.985
 5966SOL     OW19856   3.256   2.331   7.260
 5966SOL    HW119857   3.236   2.374   7.348
 5966SOL    HW219858   3.334   2.269   7.269
 5967SOL     OW19859   2.835   2.752   7.158
 5967SOL    HW119860   2.881   2.668   7.129
 5967SOL    HW219861   2.779   2.786   7.083
 5968SOL     OW19862   2.853   2.272   6.828
 5968SOL    HW119863   2.776   2.306   6.882
 5968SOL    HW219864   2.819   2.221   6.749
 5969SOL     OW19865   2.903   2.563   6.015
 5969SOL    HW119866   2.929   2.559   6.111
 5969SOL    HW219867   2.818   2.512   6.001
 5970SOL     OW19868   1.938   2.673   6.375
 5970SOL    HW119869   2.037   2.661   6.384
 5970SOL    HW219870   1.914   2.768   6.396
 5971SOL     OW19871   1.992   3.683   7.157
 5971SOL    HW119872   1.982   3.668   7.256
 5971SOL    HW219873   1.906   3.719   7.121
 5972SOL     OW19874   2.727   2.210   5.781
 5972SOL    HW119875   2.786   2.273   5.732
 5972SOL    HW219876   2.746   2.116   5.752
 5973SOL     OW19877   3.581   2.447   7.417
 5973SOL    HW119878   3.555   2.536   7.381
 5973SOL    HW219879   3.579   2.379   7.344
 5974SOL     OW19880   3.224   3.006   6.131
 5974SOL    HW119881   3.307   2.977   6.083
 5974SOL    HW219882   3.175   3.073   6.075
 5975SOL     OW19883   2.412   2.058   6.471
 5975SOL    HW119884   2.407   2.053   6.571
 5975SOL    HW219885   2.414   2.154   6.442
 5976SOL     OW19886   2.870   3.318   6.063
 5976SOL    HW119887   2.824   3.390   6.011
 5976SOL    HW219888   2.866   3.338   6.161
 5977SOL     OW19889   2.213   3.663   6.439
 5977SOL    HW119890   2.263   3.577   6.445
 5977SOL    HW219891   2.278   3.740   6.436
 5978SOL     OW19892   3.657   2.928   6.459
 5978SOL    HW119893   3.595   2.913   6.383
 5978SOL    HW219894   3.605   2.939   6.544
 5979SOL     OW19895   3.089   3.412   7.092
 5979SOL    HW119896   3.095   3.335   7.156
 5979SOL    HW219897   3.037   3.386   7.012
 5980SOL     OW19898   2.183   2.805   5.828
 5980SOL    HW119899   2.265   2.844   5.786
 5980SOL    HW219900   2.156   2.723   5.779
 5981SOL     OW19901   3.320   2.597   6.314
 5981SOL    HW119902   3.315   2.532   6.389
 5981SOL    HW219903   3.400   2.656   6.327
 5982SOL     OW19904   2.323   3.128   7.313
 5982SOL    HW119905   2.273   3.129   7.227
 5982SOL    HW219906   2.260   3.110   7.389
 5983SOL     OW19907   2.973   3.638   5.823
 5983SOL    HW119908   2.913   3.576   5.873
 5983SOL    HW219909   3.004   3.594   5.738
 5984SOL     OW19910   2.064   2.147   7.084
 5984SOL    HW119911   1.984   2.207   7.071
 5984SOL    HW219912   2.054   2.098   7.170
 5985SOL     OW19913   3.494   3.239   5.667
 5985SOL    HW119914   3.462   3.333   5.657
 5985SOL    HW219915   3.418   3.176   5.655
 5986SOL     OW19916   2.326   3.605   5.909
 5986SOL    HW119917   2.359   3.644   5.995
 5986SOL    HW219918   2.402   3.598   5.844
 5987SOL     OW19919   3.262   1.969   6.012
 5987SOL    HW119920   3.238   1.932   5.922
 5987SOL    HW219921   3.361   1.985   6.016
 5988SOL     OW19922   2.111   3.647   6.827
 5988SOL    HW119923   2.168   3.582   6.877
 5988SOL    HW219924   2.095   3.614   6.734
 5989SOL     OW19925   2.802   3.560   6.490
 5989SOL    HW119926   2.882   3.503   6.511
 5989SOL    HW219927   2.753   3.520   6.413
 5990SOL     OW19928   2.244   2.562   6.066
 5990SOL    HW119929   2.289   2.472   6.063
 5990SOL    HW219930   2.150   2.551   6.099
 5991SOL     OW19931   3.409   2.084   7.315
 5991SOL    HW119932   3.404   2.121   7.407
 5991SOL    HW219933   3.337   2.015   7.303
 5992SOL     OW19934   2.476   1.984   5.703
 5992SOL    HW119935   2.574   1.962   5.710
 5992SOL    HW219936   2.445   1.967   5.610
 5993SOL     OW19937   2.643   2.126   7.335
 5993SOL    HW119938   2.710   2.065   7.378
 5993SOL    HW219939   2.570   2.145   7.400
 5994SOL     OW19940   2.750   3.376   6.781
 5994SOL    HW119941   2.727   3.351   6.687
 5994SOL    HW219942   2.811   3.307   6.820
 5995SOL     OW19943   3.213   2.452   7.019
 5995SOL    HW119944   3.241   2.409   7.104
 5995SOL    HW219945   3.238   2.548   7.020
 5996SOL     OW19946   2.665   3.264   6.510
 5996SOL    HW119947   2.755   3.278   6.468
 5996SOL    HW219948   2.594   3.266   6.439
 5997SOL     OW19949   2.784   2.365   6.485
 5997SOL    HW119950   2.759   2.356   6.389
 5997SOL    HW219951   2.832   2.283   6.516
 5998SOL     OW19952   2.401   1.926   6.098
 5998SOL    HW119953   2.320   1.927   6.156
 5998SOL    HW219954   2.404   2.009   6.043
 5999SOL     OW19955   3.296   3.050   5.627
 5999SOL    HW119956   3.328   2.974   5.684
 5999SOL    HW219957   3.204   3.077   5.657
 6000SOL     OW19958   2.159   1.897   5.757
 6000SOL    HW119959   2.208   1.981   5.736
 6000SOL    HW219960   2.221   1.832   5.802
 6001SOL     OW19961   2.797   2.098   6.066
 6001SOL    HW119962   2.749   2.139   5.988
 6001SOL    HW219963   2.896   2.096   6.047
 6002SOL     OW19964   2.938   2.545   7.050
 6002SOL    HW119965   2.858   2.484   7.053
 6002SOL    HW219966   3.019   2.492   7.026
 6003SOL     OW19967   3.089   3.432   6.379
 6003SOL    HW119968   3.110   3.506   6.314
 6003SOL    HW219969   3.157   3.432   6.452
 6004SOL     OW19970   2.321   3.014   6.327
 6004SOL    HW119971   2.250   2.987   6.392
 6004SOL    HW219972   2.295   2.986   6.234
 6005SOL     OW19973   3.133   3.659   6.177
 6005SOL    HW119974   3.177   3.723   6.113
 6005SOL    HW219975   3.083   3.711   6.247
 6006SOL     OW19976   2.894   2.411   5.602
 6006SOL    HW119977   2.853   2.493   5.563
 6006SOL    HW219978   2.958   2.437   5.675
 6007SOL     OW19979   1.940   2.418   6.972
 6007SOL    HW119980   2.032   2.417   6.931
 6007SOL    HW219981   1.934   2.492   7.039
 6008SOL     OW19982   2.423   2.084   6.733
 6008SOL    HW119983   2.461   2.000   6.770
 6008SOL    HW219984   2.335   2.103   6.777
 6009SOL     OW19985   2.728   2.316   6.228
 6009SOL    HW119986   2.696   2.388   6.166
 6009SOL    HW219987   2.752   2.235   6.175
 6010SOL     OW19988   2.879   1.901   6.339
 6010SOL    HW119989   2.807   1.906   6.270
 6010SOL    HW219990   2.855   1.832   6.408
 6011SOL     OW19991   3.291   3.035   6.453
 6011SOL    HW119992   3.236   2.951   6.446
 6011SOL    HW219993   3.317   3.064   6.361
 6012SOL     OW19994   3.328   2.452   6.578
 6012SOL    HW119995   3.298   2.357   6.585
 6012SOL    HW219996   3.401   2.468   6.644
 6013SOL     OW19997   3.719   2.695   5.963
 6013SOL    HW119998   3.761   2.631   6.027
 6013SOL    HW219999   3.681   2.644   5.885
 6014SOL     OW20000   2.350   3.247   5.760
 6014SOL    HW120001   2.263   3.232   5.807
 6014SOL    HW220002   2.333   3.273   5.665
 6015SOL     OW20003   3.526   3.142   6.243
 6015SOL    HW120004   3.625   3.150   6.257
 6015SOL    HW220005   3.481   3.226   6.274
 6016SOL     OW20006   3.252   2.437   5.664
 6016SOL    HW120007   3.198   2.416   5.745
 6016SOL    HW220008   3.343   2.396   5.673
 6017SOL     OW20009   2.389   2.118   5.914
 6017SOL    HW120010   2.416   2.059   5.839
 6017SOL    HW220011   2.389   2.213   5.883
 6018SOL     OW20012   3.616   3.085   7.174
 6018SOL    HW120013   3.707   3.046   7.161
 6018SOL    HW220014   3.624   3.181   7.198
 6019SOL     OW20015   2.926   3.209   6.926
 6019SOL    HW120016   2.846   3.186   6.981
 6019SOL    HW220017   3.009   3.183   6.975
 6020SOL     OW20018   3.454   3.491   7.211
 6020SOL    HW120019   3.481   3.525   7.121
 6020SOL    HW220020   3.533   3.453   7.257
 6021SOL     OW20021   2.973   3.057   6.686
 6021SOL    HW120022   2.933   3.101   6.767
 6021SOL    HW220023   2.932   3.094   6.603
 6022SOL     OW20024   3.500   2.961   6.665
 6022SOL    HW120025   3.505   3.042   6.724
 6022SOL    HW220026   3.414   2.963   6.614
 6023SOL     OW20027   2.777   1.951   6.988
 6023SOL    HW120028   2.802   1.931   6.893
 6023SOL    HW220029   2.849   2.007   7.030
 6024SOL     OW20030   2.842   2.978   7.305
 6024SOL    HW120031   2.743   2.984   7.315
 6024SOL    HW220032   2.865   2.898   7.249
 6025SOL     OW20033   2.567   2.912   5.954
 6025SOL    HW120034   2.553   2.919   6.053
 6025SOL    HW220035   2.651   2.861   5.936
 6026SOL     OW20036   2.272   2.675   6.837
 6026SOL    HW120037   2.358   2.687   6.887
 6026SOL    HW220038   2.230   2.588   6.864
 6027SOL     OW20039   3.136   2.248   6.848
 6027SOL    HW120040   3.157   2.322   6.912
 6027SOL    HW220041   3.047   2.265   6.805
 6028SOL     OW20042   1.926   3.426   6.917
 6028SOL    HW120043   1.880   3.508   6.883
 6028SOL    HW220044   2.024   3.445   6.926
 6029SOL     OW20045   2.229   2.962   6.087
 6029SOL    HW120046   2.222   3.045   6.031
 6029SOL    HW220047   2.233   2.882   6.027
 6030SOL     OW20048   2.428   2.399   6.451
 6030SOL    HW120049   2.440   2.465   6.377
 6030SOL    HW220050   2.474   2.433   6.534
 6031SOL     OW20051   3.114   3.210   5.974
 6031SOL    HW120052   3.164   3.287   6.014
 6031SOL    HW220053   3.019   3.212   6.006
 6032SOL     OW20054   3.134   3.307   6.728
 6032SOL    HW120055   3.181   3.320   6.815
 6032SOL    HW220056   3.068   3.233   6.737
 6033SOL     OW20057   3.444   2.501   6.058
 6033SOL    HW120058   3.413   2.562   6.131
 6033SOL    HW220059   3.494   2.553   5.989
 6034SOL     OW20060   2.216   3.372   6.915
 6034SOL    HW120061   2.195   3.328   6.828
 6034SOL    HW220062   2.313   3.398   6.918
 6035SOL     OW20063   2.264   2.613   7.184
 6035SOL    HW120064   2.332   2.668   7.137
 6035SOL    HW220065   2.304   2.525   7.211
 6036SOL     OW20066   3.449   2.641   7.256
 6036SOL    HW120067   3.357   2.679   7.251
 6036SOL    HW220068   3.509   2.688   7.191
 6037SOL     OW20069   2.875   1.967   7.356
 6037SOL    HW120070   2.881   2.052   7.304
 6037SOL    HW220071   2.907   1.891   7.299
 6038SOL     OW20072   2.366   1.912   7.326
 6038SOL    HW120073   2.324   1.855   7.256
 6038SOL    HW220074   2.300   1.981   7.358
 6039SOL     OW20075   2.435   2.732   6.615
 6039SOL    HW120076   2.479   2.821   6.606
 6039SOL    HW220077   2.372   2.732   6.692
 6040SOL     OW20078   3.222   2.724   6.631
 6040SOL    HW120079   3.147   2.724   6.565
 6040SOL    HW220080   3.259   2.632   6.640
 6041SOL     OW20081   3.071   2.387   5.861
 6041SOL    HW120082   3.084   2.303   5.915
 6041SOL    HW220083   3.042   2.461   5.921
 6042SOL     OW20084   2.169   2.075   6.817
 6042SOL    HW120085   2.146   2.112   6.907
 6042SOL    HW220086   2.139   1.980   6.811
 6043SOL     OW20087   1.899   3.172   6.868
 6043SOL    HW120088   1.952   3.123   6.936
 6043SOL    HW220089   1.921   3.270   6.873
 6044SOL     OW20090   2.594   2.496   6.650
 6044SOL    HW120091   2.653   2.470   6.574
 6044SOL    HW220092   2.566   2.592   6.639
 6045SOL     OW20093   3.590   2.797   7.440
 6045SOL    HW120094   3.544   2.790   7.351
 6045SOL    HW220095   3.528   2.841   7.506
 6046SOL     OW20096   2.169   1.925   6.204
 6046SOL    HW120097   2.158   2.019   6.237
 6046SOL    HW220098   2.164   1.862   6.281
 6047SOL     OW20099   3.484   2.229   5.960
 6047SOL    HW120100   3.486   2.153   6.024
 6047SOL    HW220101   3.436   2.306   6.000
 6048SOL     OW20102   2.885   2.628   6.552
 6048SOL    HW120103   2.900   2.649   6.648
 6048SOL    HW220104   2.855   2.533   6.543
 6049SOL     OW20105   2.842   3.435   7.286
 6049SOL    HW120106   2.822   3.479   7.198
 6049SOL    HW220107   2.881   3.344   7.270
 6050SOL     OW20108   3.721   3.380   7.191
 6050SOL    HW120109   3.735   3.407   7.096
 6050SOL    HW220110   3.804   3.402   7.244
 6051SOL     OW20111   2.212   2.760   7.390
 6051SOL    HW120112   2.288   2.804   7.438
 6051SOL    HW220113   2.247   2.713   7.308
 6052SOL     OW20114   3.402   2.136   5.711
 6052SOL    HW120115   3.341   2.061   5.734
 6052SOL    HW220116   3.424   2.188   5.794
 6053SOL     OW20117   3.165   2.700   5.628
 6053SOL    HW120118   3.199   2.607   5.643
 6053SOL    HW220119   3.183   2.727   5.533
 6054SOL     OW20120   2.930   3.195   6.435
 6054SOL    HW120121   2.937   3.111   6.380
 6054SOL    HW220122   2.992   3.264   6.399
 6055SOL     OW20123   2.181   2.672   6.535
 6055SOL    HW120124   2.274   2.708   6.540
 6055SOL    HW220125   2.175   2.587   6.587
 6056SOL     OW20126   2.201   2.371   6.592
 6056SOL    HW120127   2.149   2.288   6.575
 6056SOL    HW220128   2.278   2.376   6.528
 6057SOL     OW20129   2.373   2.277   7.394
 6057SOL    HW120130   2.355   2.322   7.482
 6057SOL    HW220131   2.415   2.342   7.331
 6058SOL     OW20132   3.000   2.242   7.264
 6058SOL    HW120133   2.955   2.305   7.328
 6058SOL    HW220134   3.093   2.273   7.247
 6059SOL     OW20135   3.022   2.069   7.063
 6059SOL    HW120136   3.022   2.133   7.140
 6059SOL    HW220137   3.050   2.117   6.980
 6060SOL     OW20138   1.870   3.188   5.786
 6060SOL    HW120139   1.777   3.209   5.755
 6060SOL    HW220140   1.880   3.089   5.799
 6061SOL     OW20141   1.950   3.663   6.513
 6061SOL    HW120142   1.908   3.577   6.486
 6061SOL    HW220143   2.044   3.666   6.479
 6062SOL     OW20144   2.366   3.430   6.496
 6062SOL    HW120145   2.432   3.504   6.505
 6062SOL    HW220146   2.410   3.351   6.454
 6063SOL     OW20147   2.864   2.658   6.824
 6063SOL    HW120148   2.905   2.626   6.910
 6063SOL    HW220149   2.768   2.631   6.821
 6064SOL     OW20150   1.902   2.406   6.700
 6064SOL    HW120151   1.987   2.373   6.659
 6064SOL    HW220152   1.915   2.421   6.798
 6065SOL     OW20153   2.051   2.382   7.308
 6065SOL    HW120154   2.110   2.342   7.238
 6065SOL    HW220155   1.993   2.453   7.267
 6066SOL     OW20156   3.231   2.812   7.246
 6066SOL    HW120157   3.270   2.901   7.266
 6066SOL    HW220158   3.241   2.792   7.149
 6067SOL     OW20159   2.677   2.434   5.911
 6067SOL    HW120160   2.684   2.345   5.865
 6067SOL    HW220161   2.583   2.468   5.903
 6068SOL     OW20162   3.519   2.466   6.792
 6068SOL    HW120163   3.481   2.397   6.854
 6068SOL    HW220164   3.601   2.430   6.748
 6069SOL     OW20165   2.114   3.426   7.330
 6069SOL    HW120166   2.084   3.483   7.406
 6069SOL    HW220167   2.107   3.329   7.356
 6070SOL     OW20168   2.533   2.326   6.855
 6070SOL    HW120169   2.499   2.237   6.825
 6070SOL    HW220170   2.559   2.380   6.775
 6071SOL     OW20171   2.792   3.540   7.051
 6071SOL    HW120172   2.768   3.522   6.956
 6071SOL    HW220173   2.822   3.634   7.061
 6072SOL     OW20174   2.335   2.362   5.777
 6072SOL    HW120175   2.396   2.442   5.781
 6072SOL    HW220176   2.240   2.393   5.784
 6073SOL     OW20177   2.021   2.999   7.052
 6073SOL    HW120178   2.043   2.938   7.128
 6073SOL    HW220179   2.031   2.950   6.966
 6074SOL     OW20180   3.209   2.921   6.820
 6074SOL    HW120181   3.233   2.858   6.746
 6074SOL    HW220182   3.119   2.961   6.802
 6075SOL     OW20183   3.164   2.717   5.895
 6075SOL    HW120184   3.078   2.686   5.937
 6075SOL    HW220185   3.160   2.703   5.796
 6076SOL     OW20186   3.621   3.609   6.740
 6076SOL    HW120187   3.682   3.639   6.667
 6076SOL    HW220188   3.583   3.520   6.718
 6077SOL     OW20189   3.114   3.593   6.714
 6077SOL    HW120190   3.198   3.598   6.660
 6077SOL    HW220191   3.091   3.497   6.732
 6078SOL     OW20192   1.945   3.120   6.608
 6078SOL    HW120193   1.940   3.119   6.708
 6078SOL    HW220194   1.862   3.079   6.570
 6079SOL     OW20195   2.550   3.524   7.302
 6079SOL    HW120196   2.494   3.605   7.311
 6079SOL    HW220197   2.602   3.528   7.216
 6080SOL     OW20198   2.765   1.948   5.719
 6080SOL    HW120199   2.816   1.949   5.633
 6080SOL    HW220200   2.821   1.906   5.790
 6081SOL     OW20201   3.588   1.997   6.109
 6081SOL    HW120202   3.661   1.980   6.042
 6081SOL    HW220203   3.557   1.910   6.147
 6082SOL     OW20204   3.250   3.435   6.063
 6082SOL    HW120205   3.317   3.447   5.989
 6082SOL    HW220206   3.210   3.524   6.086
 6083SOL     OW20207   1.992   3.656   7.437
 6083SOL    HW120208   1.951   3.582   7.490
 6083SOL    HW220209   2.056   3.707   7.495
 6084SOL     OW20210   3.142   2.789   6.258
 6084SOL    HW120211   3.202   2.708   6.260
 6084SOL    HW220212   3.182   2.858   6.198
 6085SOL     OW20213   2.692   3.135   7.008
 6085SOL    HW120214   2.687   3.168   7.103
 6085SOL    HW220215   2.606   3.154   6.962
 6086SOL     OW20216   2.534   3.478   5.740
 6086SOL    HW120217   2.543   3.488   5.641
 6086SOL    HW220218   2.494   3.389   5.761
 6087SOL     OW20219   3.512   3.582   6.980
 6087SOL    HW120220   3.565   3.592   6.896
 6087SOL    HW220221   3.485   3.672   7.014
 6088SOL     OW20222   3.703   2.037   6.549
 6088SOL    HW120223   3.742   1.952   6.513
 6088SOL    HW220224   3.605   2.039   6.530
 6089SOL     OW20225   2.125   2.188   6.306
 6089SOL    HW120226   2.046   2.239   6.272
 6089SOL    HW220227   2.116   2.173   6.404
 6090SOL     OW20228   3.056   3.474   5.617
 6090SOL    HW120229   3.062   3.381   5.654
 6090SOL    HW220230   2.997   3.474   5.537
 6091SOL     OW20231   2.684   2.864   6.958
 6091SOL    HW120232   2.724   2.863   6.866
 6091SOL    HW220233   2.694   2.956   6.998
 6092SOL     OW20234   2.778   2.772   5.877
 6092SOL    HW120235   2.841   2.810   5.809
 6092SOL    HW220236   2.818   2.689   5.916
 6093SOL     OW20237   3.366   3.469   5.630
 6093SOL    HW120238   3.274   3.506   5.637
 6093SOL    HW220239   3.404   3.489   5.540
 6094SOL     OW20240   2.234   3.150   7.076
 6094SOL    HW120241   2.221   3.243   7.042
 6094SOL    HW220242   2.150   3.098   7.063
 6095SOL     OW20243   3.476   3.154   6.875
 6095SOL    HW120244   3.536   3.157   6.955
 6095SOL    HW220245   3.401   3.218   6.888
 6096SOL     OW20246   2.901   2.960   6.282
 6096SOL    HW120247   2.831   2.913   6.336
 6096SOL    HW220248   2.960   2.892   6.239
 6097SOL     OW20249   2.876   2.098   6.557
 6097SOL    HW120250   2.868   2.062   6.464
 6097SOL    HW220251   2.874   2.022   6.622
 6098SOL     OW20252   2.452   3.349   6.077
 6098SOL    HW120253   2.494   3.291   6.007
 6098SOL    HW220254   2.408   3.428   6.033
 6099SOL     OW20255   3.571   2.247   6.967
 6099SOL    HW120256   3.644   2.316   6.971
 6099SOL    HW220257   3.599   2.172   6.908
 6100SOL     OW20258   2.117   3.210   5.876
 6100SOL    HW120259   2.021   3.211   5.849
 6100SOL    HW220260   2.129   3.263   5.960
 6101SOL     OW20261   1.967   2.875   7.312
 6101SOL    HW120262   1.890   2.842   7.366
 6101SOL    HW220263   2.052   2.845   7.354
 6102SOL     OW20264   2.534   2.065   7.075
 6102SOL    HW120265   2.624   2.049   7.035
 6102SOL    HW220266   2.542   2.070   7.174
 6103SOL     OW20267   1.937   2.207   5.619
 6103SOL    HW120268   1.845   2.179   5.590
 6103SOL    HW220269   1.968   2.284   5.563
 6104SOL     OW20270   3.302   2.718   6.984
 6104SOL    HW120271   3.245   2.770   6.921
 6104SOL    HW220272   3.398   2.730   6.960
 6105SOL     OW20273   1.934   2.028   5.904
 6105SOL    HW120274   1.917   2.111   5.850
 6105SOL    HW220275   2.024   1.991   5.882
 6106SOL     OW20276   3.045   3.197   5.705
 6106SOL    HW120277   2.946   3.186   5.707
 6106SOL    HW220278   3.079   3.212   5.798
 6107SOL     OW20279   2.475   2.704   7.017
 6107SOL    HW120280   2.531   2.785   7.000
 6107SOL    HW220281   2.534   2.624   7.020
 6108SOL     OW20282   3.355   3.629   6.545
 6108SOL    HW120283   3.388   3.693   6.476
 6108SOL    HW220284   3.421   3.623   6.620
 6109SOL     OW20285   2.578   2.427   7.294
 6109SOL    HW120286   2.597   2.492   7.368
 6109SOL    HW220287   2.638   2.347   7.303
 6110SOL     OW20288   3.312   3.082   7.219
 6110SOL    HW120289   3.303   3.072   7.318
 6110SOL    HW220290   3.408   3.075   7.193
 6111SOL     OW20291   2.252   3.603   7.146
 6111SOL    HW120292   2.161   3.644   7.144
 6111SOL    HW220293   2.245   3.509   7.178
 6112SOL     OW20294   3.536   2.745   6.840
 6112SOL    HW120295   3.509   2.656   6.803
 6112SOL    HW220296   3.537   2.813   6.767
 6113SOL     OW20297   3.087   2.187   6.035
 6113SOL    HW120298   3.152   2.113   6.024
 6113SOL    HW220299   3.107   2.237   6.119
 6114SOL     OW20300   2.456   2.607   6.238
 6114SOL    HW120301   2.506   2.692   6.219
 6114SOL    HW220302   2.368   2.609   6.190
 6115SOL     OW20303   3.639   2.204   7.228
 6115SOL    HW120304   3.622   2.235   7.134
 6115SOL    HW220305   3.555   2.167   7.266
 6116SOL     OW20306   3.592   2.796   7.103
 6116SOL    HW120307   3.630   2.887   7.118
 6116SOL    HW220308   3.584   2.779   7.004
 6117SOL     OW20309   2.721   3.236   5.602
 6117SOL    HW120310   2.675   3.251   5.690
 6117SOL    HW220311   2.765   3.321   5.572
 6118SOL     OW20312   2.523   3.652   6.539
 6118SOL    HW120313   2.477   3.740   6.526
 6118SOL    HW220314   2.622   3.664   6.532
 6119SOL     OW20315   3.270   3.713   7.306
 6119SOL    HW120316   3.174   3.702   7.279
 6119SOL    HW220317   3.326   3.646   7.258
 6120SOL     OW20318   2.721   2.818   6.447
 6120SOL    HW120319   2.775   2.749   6.495
 6120SOL    HW220320   2.689   2.887   6.513
 6121SOL     OW20321   2.945   2.846   5.673
 6121SOL    HW120322   2.922   2.899   5.591
 6121SOL    HW220323   3.026   2.790   5.654
 6122SOL     OW20324   3.723   3.431   6.437
 6122SOL    HW120325   3.652   3.419   6.367
 6122SOL    HW220326   3.724   3.352   6.497
 6123SOL     OW20327   2.083   3.176   7.430
 6123SOL    HW120328   2.018   3.103   7.409
 6123SOL    HW220329   2.087   3.190   7.528
 6124SOL     OW20330   1.941   3.102   6.239
 6124SOL    HW120331   1.940   3.055   6.327
 6124SOL    HW220332   2.023   3.074   6.188
 6125SOL     OW20333   2.534   3.253   7.210
 6125SOL    HW120334   2.456   3.203   7.248
 6125SOL    HW220335   2.531   3.348   7.241
 6126SOL     OW20336   3.686   2.054   6.813
 6126SOL    HW120337   3.682   1.964   6.857
 6126SOL    HW220338   3.689   2.043   6.714
 6127SOL     OW20339   2.290   2.286   6.106
 6127SOL    HW120340   2.320   2.214   6.044
 6127SOL    HW220341   2.251   2.246   6.189
 6128SOL     OW20342   3.567   3.349   6.690
 6128SOL    HW120343   3.474   3.324   6.663
 6128SOL    HW220344   3.593   3.299   6.772
 6129SOL     OW20345   2.179   2.409   6.866
 6129SOL    HW120346   2.217   2.350   6.938
 6129SOL    HW220347   2.219   2.383   6.778
 6130SOL     OW20348   2.674   3.448   6.273
 6130SOL    HW120349   2.706   3.458   6.179
 6130SOL    HW220350   2.595   3.386   6.275
 6131SOL     OW20351   3.286   2.076   6.698
 6131SOL    HW120352   3.338   2.011   6.753
 6131SOL    HW220353   3.237   2.139   6.759
 6132SOL     OW20354   2.863   1.896   6.740
 6132SOL    HW120355   2.800   1.824   6.709
 6132SOL    HW220356   2.956   1.860   6.740
 6133SOL     OW20357   2.632   3.192   5.887
 6133SOL    HW120358   2.586   3.105   5.904
 6133SOL    HW220359   2.723   3.189   5.928
 6134SOL     OW20360   2.480   3.429   6.870
 6134SOL    HW120361   2.475   3.511   6.927
 6134SOL    HW220362   2.569   3.426   6.825
 6135SOL     OW20363   3.214   1.914   5.754
 6135SOL    HW120364   3.249   1.873   5.670
 6135SOL    HW220365   3.124   1.876   5.774
 6136SOL     OW20366   3.162   2.315   6.277
 6136SOL    HW120367   3.103   2.395   6.281
 6136SOL    HW220368   3.177   2.280   6.370
 6137SOL     OW20369   3.455   2.083   6.468
 6137SOL    HW120370   3.371   2.082   6.522
 6137SOL    HW220371   3.457   2.166   6.412
 6138SOL     OW20372   1.901   2.939   5.886
 6138SOL    HW120373   2.000   2.928   5.877
 6138SOL    HW220374   1.861   2.853   5.918
 6139SOL     OW20375   2.737   3.508   5.923
 6139SOL    HW120376   2.660   3.473   5.869
 6139SOL    HW220377   2.705   3.579   5.985
 6140SOL     OW20378   2.092   2.490   7.561
 6140SOL    HW120379   1.999   2.488   7.598
 6140SOL    HW220380   2.093   2.451   7.469
 6141SOL     OW20381   2.087   2.137   8.444
 6141SOL    HW120382   2.122   2.120   8.536
 6141SOL    HW220383   1.999   2.092   8.432
 6142SOL     OW20384   1.881   2.230   8.095
 6142SOL    HW120385   1.799   2.273   8.134
 6142SOL    HW220386   1.853   2.157   8.032
 6143SOL     OW20387   2.431   3.137   8.613
 6143SOL    HW120388   2.338   3.130   8.576
 6143SOL    HW220389   2.442   3.226   8.657
 6144SOL     OW20390   3.417   3.373   8.151
 6144SOL    HW120391   3.360   3.357   8.232
 6144SOL    HW220392   3.358   3.383   8.071
 6145SOL     OW20393   3.605   2.480   8.304
 6145SOL    HW120394   3.638   2.574   8.304
 6145SOL    HW220395   3.656   2.426   8.370
 6146SOL     OW20396   2.997   2.565   8.165
 6146SOL    HW120397   3.054   2.643   8.140
 6146SOL    HW220398   2.937   2.591   8.241
 6147SOL     OW20399   3.617   2.469   7.679
 6147SOL    HW120400   3.605   2.456   7.580
 6147SOL    HW220401   3.587   2.388   7.728
 6148SOL     OW20402   2.630   3.006   8.471
 6148SOL    HW120403   2.552   3.023   8.531
 6148SOL    HW220404   2.664   3.093   8.435
 6149SOL     OW20405   2.547   2.874   8.113
 6149SOL    HW120406   2.616   2.858   8.183
 6149SOL    HW220407   2.474   2.931   8.151
 6150SOL     OW20408   2.197   3.297   8.509
 6150SOL    HW120409   2.119   3.266   8.456
 6150SOL    HW220410   2.255   3.355   8.452
 6151SOL     OW20411   3.322   3.367   8.787
 6151SOL    HW120412   3.346   3.461   8.813
 6151SOL    HW220413   3.306   3.313   8.869
 6152SOL     OW20414   2.300   2.254   8.947
 6152SOL    HW120415   2.382   2.198   8.956
 6152SOL    HW220416   2.219   2.196   8.951
 6153SOL     OW20417   3.465   2.309   8.185
 6153SOL    HW120418   3.391   2.355   8.135
 6153SOL    HW220419   3.516   2.377   8.238
 6154SOL     OW20420   2.093   3.575   7.931
 6154SOL    HW120421   2.127   3.652   7.985
 6154SOL    HW220422   2.137   3.575   7.841
 6155SOL     OW20423   2.092   3.296   7.986
 6155SOL    HW120424   2.066   3.392   7.986
 6155SOL    HW220425   2.021   3.242   8.031
 6156SOL     OW20426   2.102   2.953   8.334
 6156SOL    HW120427   2.116   2.869   8.386
 6156SOL    HW220428   2.047   3.017   8.389
 6157SOL     OW20429   2.482   3.648   8.887
 6157SOL    HW120430   2.390   3.631   8.922
 6157SOL    HW220431   2.510   3.740   8.913
 6158SOL     OW20432   2.468   2.826   7.571
 6158SOL    HW120433   2.475   2.910   7.517
 6158SOL    HW220434   2.514   2.839   7.659
 6159SOL     OW20435   3.456   1.976   8.928
 6159SOL    HW120436   3.438   2.043   8.856
 6159SOL    HW220437   3.453   2.022   9.017
 6160SOL     OW20438   1.984   2.505   8.011
 6160SOL    HW120439   1.939   2.417   8.028
 6160SOL    HW220440   1.983   2.559   8.095
 6161SOL     OW20441   3.704   3.629   7.807
 6161SOL    HW120442   3.758   3.600   7.887
 6161SOL    HW220443   3.734   3.719   7.778
 6162SOL     OW20444   1.889   3.458   7.565
 6162SOL    HW120445   1.870   3.362   7.586
 6162SOL    HW220446   1.856   3.516   7.640
 6163SOL     OW20447   3.551   2.784   8.060
 6163SOL    HW120448   3.646   2.755   8.068
 6163SOL    HW220449   3.543   2.849   7.985
 6164SOL     OW20450   3.503   2.970   7.880
 6164SOL    HW120451   3.589   2.972   7.828
 6164SOL    HW220452   3.517   3.017   7.968
 6165SOL     OW20453   2.475   3.227   8.174
 6165SOL    HW120454   2.426   3.140   8.183
 6165SOL    HW220455   2.452   3.270   8.087
 6166SOL     OW20456   2.671   1.866   7.950
 6166SOL    HW120457   2.711   1.957   7.941
 6166SOL    HW220458   2.571   1.874   7.956
 6167SOL     OW20459   2.059   2.838   8.712
 6167SOL    HW120460   2.148   2.793   8.698
 6167SOL    HW220461   1.986   2.773   8.693
 6168SOL     OW20462   3.387   2.861   7.638
 6168SOL    HW120463   3.324   2.785   7.651
 6168SOL    HW220464   3.435   2.879   7.724
 6169SOL     OW20465   3.328   3.279   8.401
 6169SOL    HW120466   3.269   3.285   8.481
 6169SOL    HW220467   3.313   3.191   8.355
 6170SOL     OW20468   3.529   3.576   8.020
 6170SOL    HW120469   3.488   3.553   7.932
 6170SOL    HW220470   3.511   3.502   8.085
 6171SOL     OW20471   2.460   2.591   7.718
 6171SOL    HW120472   2.484   2.660   7.650
 6171SOL    HW220473   2.382   2.624   7.772
 6172SOL     OW20474   3.143   2.207   8.392
 6172SOL    HW120475   3.057   2.157   8.379
 6172SOL    HW220476   3.205   2.153   8.448
 6173SOL     OW20477   3.438   3.524   7.755
 6173SOL    HW120478   3.527   3.570   7.758
 6173SOL    HW220479   3.417   3.500   7.660
 6174SOL     OW20480   2.669   2.467   8.913
 6174SOL    HW120481   2.622   2.464   9.002
 6174SOL    HW220482   2.618   2.412   8.847
 6175SOL     OW20483   2.853   2.272   8.690
 6175SOL    HW120484   2.776   2.306   8.744
 6175SOL    HW220485   2.819   2.221   8.611
 6176SOL     OW20486   2.903   2.563   7.877
 6176SOL    HW120487   2.929   2.559   7.973
 6176SOL    HW220488   2.818   2.512   7.863
 6177SOL     OW20489   1.938   2.673   8.237
 6177SOL    HW120490   2.037   2.661   8.246
 6177SOL    HW220491   1.914   2.768   8.258
 6178SOL     OW20492   1.992   3.683   0.019
 6178SOL    HW120493   1.982   3.668   0.118
 6178SOL    HW220494   1.906   3.719  -0.017
 6179SOL     OW20495   2.727   2.210   7.643
 6179SOL    HW120496   2.786   2.273   7.594
 6179SOL    HW220497   2.746   2.116   7.614
 6180SOL     OW20498   3.224   3.006   7.993
 6180SOL    HW120499   3.307   2.977   7.945
 6180SOL    HW220500   3.175   3.073   7.937
 6181SOL     OW20501   2.412   2.058   8.333
 6181SOL    HW120502   2.407   2.053   8.433
 6181SOL    HW220503   2.414   2.154   8.304
 6182SOL     OW20504   2.870   3.318   7.925
 6182SOL    HW120505   2.824   3.390   7.873
 6182SOL    HW220506   2.866   3.338   8.023
 6183SOL     OW20507   2.213   3.663   8.301
 6183SOL    HW120508   2.263   3.577   8.307
 6183SOL    HW220509   2.278   3.740   8.298
 6184SOL     OW20510   3.657   2.928   8.321
 6184SOL    HW120511   3.595   2.913   8.245
 6184SOL    HW220512   3.605   2.939   8.406
 6185SOL     OW20513   2.183   2.805   7.690
 6185SOL    HW120514   2.265   2.844   7.648
 6185SOL    HW220515   2.156   2.723   7.641
 6186SOL     OW20516   3.320   2.597   8.176
 6186SOL    HW120517   3.315   2.532   8.251
 6186SOL    HW220518   3.400   2.656   8.189
 6187SOL     OW20519   2.973   3.638   7.685
 6187SOL    HW120520   2.913   3.576   7.735
 6187SOL    HW220521   3.004   3.594   7.600
 6188SOL     OW20522   2.064   2.147   8.946
 6188SOL    HW120523   1.984   2.207   8.933
 6188SOL    HW220524   2.054   2.098   9.032
 6189SOL     OW20525   3.494   3.239   7.529
 6189SOL    HW120526   3.462   3.333   7.519
 6189SOL    HW220527   3.418   3.176   7.517
 6190SOL     OW20528   2.326   3.605   7.771
 6190SOL    HW120529   2.359   3.644   7.857
 6190SOL    HW220530   2.402   3.598   7.706
 6191SOL     OW20531   3.262   1.969   7.874
 6191SOL    HW120532   3.238   1.932   7.784
 6191SOL    HW220533   3.361   1.985   7.878
 6192SOL     OW20534   2.111   3.647   8.689
 6192SOL    HW120535   2.168   3.582   8.739
 6192SOL    HW220536   2.095   3.614   8.596
 6193SOL     OW20537   2.802   3.560   8.352
 6193SOL    HW120538   2.882   3.503   8.373
 6193SOL    HW220539   2.753   3.520   8.275
 6194SOL     OW20540   2.244   2.562   7.928
 6194SOL    HW120541   2.289   2.472   7.925
 6194SOL    HW220542   2.150   2.551   7.961
 6195SOL     OW20543   2.476   1.984   7.565
 6195SOL    HW120544   2.574   1.962   7.572
 6195SOL    HW220545   2.445   1.967   7.472
 6196SOL     OW20546   2.750   3.376   8.643
 6196SOL    HW120547   2.727   3.351   8.549
 6196SOL    HW220548   2.811   3.307   8.682
 6197SOL     OW20549   2.665   3.264   8.372
 6197SOL    HW120550   2.755   3.278   8.330
 6197SOL    HW220551   2.594   3.266   8.301
 6198SOL     OW20552   2.784   2.365   8.347
 6198SOL    HW120553   2.759   2.356   8.251
 6198SOL    HW220554   2.832   2.283   8.378
 6199SOL     OW20555   2.401   1.926   7.960
 6199SOL    HW120556   2.320   1.927   8.018
 6199SOL    HW220557   2.404   2.009   7.905
 6200SOL     OW20558   3.296   3.050   7.489
 6200SOL    HW120559   3.328   2.974   7.546
 6200SOL    HW220560   3.204   3.077   7.519
 6201SOL     OW20561   2.159   1.897   7.619
 6201SOL    HW120562   2.208   1.981   7.598
 6201SOL    HW220563   2.221   1.832   7.664
 6202SOL     OW20564   2.797   2.098   7.928
 6202SOL    HW120565   2.749   2.139   7.850
 6202SOL    HW220566   2.896   2.096   7.909
 6203SOL     OW20567   3.089   3.432   8.241
 6203SOL    HW120568   3.110   3.506   8.176
 6203SOL    HW220569   3.157   3.432   8.314
 6204SOL     OW20570   2.321   3.014   8.189
 6204SOL    HW120571   2.250   2.987   8.254
 6204SOL    HW220572   2.295   2.986   8.096
 6205SOL     OW20573   3.133   3.659   8.039
 6205SOL    HW120574   3.177   3.723   7.975
 6205SOL    HW220575   3.083   3.711   8.109
 6206SOL     OW20576   2.894   2.411   7.464
 6206SOL    HW120577   2.853   2.493   7.425
 6206SOL    HW220578   2.958   2.437   7.537
 6207SOL     OW20579   1.940   2.418   8.834
 6207SOL    HW120580   2.032   2.417   8.793
 6207SOL    HW220581   1.934   2.492   8.901
 6208SOL     OW20582   2.423   2.084   8.595
 6208SOL    HW120583   2.461   2.000   8.632
 6208SOL    HW220584   2.335   2.103   8.639
 6209SOL     OW20585   2.728   2.316   8.090
 6209SOL    HW120586   2.696   2.388   8.028
 6209SOL    HW220587   2.752   2.235   8.037
 6210SOL     OW20588   2.879   1.901   8.201
 6210SOL    HW120589   2.807   1.906   8.132
 6210SOL    HW220590   2.855   1.832   8.270
 6211SOL     OW20591   3.291   3.035   8.315
 6211SOL    HW120592   3.236   2.951   8.308
 6211SOL    HW220593   3.317   3.064   8.223
 6212SOL     OW20594   3.328   2.452   8.440
 6212SOL    HW120595   3.298   2.357   8.447
 6212SOL    HW220596   3.401   2.468   8.506
 6213SOL     OW20597   3.719   2.695   7.825
 6213SOL    HW120598   3.761   2.631   7.889
 6213SOL    HW220599   3.681   2.644   7.747
 6214SOL     OW20600   2.350   3.247   7.622
 6214SOL    HW120601   2.263   3.232   7.669
 6214SOL    HW220602   2.333   3.273   7.527
 6215SOL     OW20603   3.526   3.142   8.105
 6215SOL    HW120604   3.625   3.150   8.119
 6215SOL    HW220605   3.481   3.226   8.136
 6216SOL     OW20606   3.252   2.437   7.526
 6216SOL    HW120607   3.198   2.416   7.607
 6216SOL    HW220608   3.343   2.396   7.535
 6217SOL     OW20609   2.389   2.118   7.776
 6217SOL    HW120610   2.416   2.059   7.701
 6217SOL    HW220611   2.389   2.213   7.745
 6218SOL     OW20612   2.926   3.209   8.788
 6218SOL    HW120613   2.846   3.186   8.843
 6218SOL    HW220614   3.009   3.183   8.837
 6219SOL     OW20615   2.973   3.057   8.548
 6219SOL    HW120616   2.933   3.101   8.629
 6219SOL    HW220617   2.932   3.094   8.465
 6220SOL     OW20618   3.500   2.961   8.527
 6220SOL    HW120619   3.505   3.042   8.586
 6220SOL    HW220620   3.414   2.963   8.476
 6221SOL     OW20621   2.777   1.951   8.850
 6221SOL    HW120622   2.802   1.931   8.755
 6221SOL    HW220623   2.849   2.007   8.892
 6222SOL     OW20624   2.567   2.912   7.816
 6222SOL    HW120625   2.553   2.919   7.915
 6222SOL    HW220626   2.651   2.861   7.798
 6223SOL     OW20627   2.272   2.675   8.699
 6223SOL    HW120628   2.358   2.687   8.749
 6223SOL    HW220629   2.230   2.588   8.726
 6224SOL     OW20630   3.136   2.248   8.710
 6224SOL    HW120631   3.157   2.322   8.774
 6224SOL    HW220632   3.047   2.265   8.667
 6225SOL     OW20633   1.926   3.426   8.779
 6225SOL    HW120634   1.880   3.508   8.745
 6225SOL    HW220635   2.024   3.445   8.788
 6226SOL     OW20636   2.229   2.962   7.949
 6226SOL    HW120637   2.222   3.045   7.893
 6226SOL    HW220638   2.233   2.882   7.889
 6227SOL     OW20639   2.428   2.399   8.313
 6227SOL    HW120640   2.440   2.465   8.239
 6227SOL    HW220641   2.474   2.433   8.396
 6228SOL     OW20642   3.114   3.210   7.836
 6228SOL    HW120643   3.164   3.287   7.876
 6228SOL    HW220644   3.019   3.212   7.868
 6229SOL     OW20645   3.134   3.307   8.590
 6229SOL    HW120646   3.181   3.320   8.677
 6229SOL    HW220647   3.068   3.233   8.599
 6230SOL     OW20648   3.444   2.501   7.920
 6230SOL    HW120649   3.413   2.562   7.993
 6230SOL    HW220650   3.494   2.553   7.851
 6231SOL     OW20651   2.216   3.372   8.777
 6231SOL    HW120652   2.195   3.328   8.690
 6231SOL    HW220653   2.313   3.398   8.780
 6232SOL     OW20654   2.264   2.613   0.046
 6232SOL    HW120655   2.332   2.668  -0.001
 6232SOL    HW220656   2.304   2.525   0.073
 6233SOL     OW20657   3.449   2.641   0.118
 6233SOL    HW120658   3.357   2.679   0.113
 6233SOL    HW220659   3.509   2.688   0.053
 6234SOL     OW20660   2.435   2.732   8.477
 6234SOL    HW120661   2.479   2.821   8.468
 6234SOL    HW220662   2.372   2.732   8.554
 6235SOL     OW20663   3.222   2.724   8.493
 6235SOL    HW120664   3.147   2.724   8.427
 6235SOL    HW220665   3.259   2.632   8.502
 6236SOL     OW20666   3.071   2.387   7.723
 6236SOL    HW120667   3.084   2.303   7.777
 6236SOL    HW220668   3.042   2.461   7.783
 6237SOL     OW20669   2.169   2.075   8.679
 6237SOL    HW120670   2.146   2.112   8.769
 6237SOL    HW220671   2.139   1.980   8.673
 6238SOL     OW20672   1.899   3.172   8.730
 6238SOL    HW120673   1.952   3.123   8.798
 6238SOL    HW220674   1.921   3.270   8.735
 6239SOL     OW20675   2.594   2.496   8.512
 6239SOL    HW120676   2.653   2.470   8.436
 6239SOL    HW220677   2.566   2.592   8.501
 6240SOL     OW20678   2.169   1.925   8.066
 6240SOL    HW120679   2.158   2.019   8.099
 6240SOL    HW220680   2.164   1.862   8.143
 6241SOL     OW20681   3.484   2.229   7.822
 6241SOL    HW120682   3.486   2.153   7.886
 6241SOL    HW220683   3.436   2.306   7.862
 6242SOL     OW20684   2.885   2.628   8.414
 6242SOL    HW120685   2.900   2.649   8.510
 6242SOL    HW220686   2.855   2.533   8.405
 6243SOL     OW20687   2.842   3.435   0.148
 6243SOL    HW120688   2.822   3.479   0.060
 6243SOL    HW220689   2.881   3.344   0.132
 6244SOL     OW20690   3.721   3.380   0.053
 6244SOL    HW120691   3.735   3.407  -0.042
 6244SOL    HW220692   3.804   3.402   0.106
 6245SOL     OW20693   3.402   2.136   7.573
 6245SOL    HW120694   3.341   2.061   7.596
 6245SOL    HW220695   3.424   2.188   7.656
 6246SOL     OW20696   3.165   2.700   7.490
 6246SOL    HW120697   3.199   2.607   7.505
 6246SOL    HW220698   3.183   2.727   7.395
 6247SOL     OW20699   2.930   3.195   8.297
 6247SOL    HW120700   2.937   3.111   8.242
 6247SOL    HW220701   2.992   3.264   8.261
 6248SOL     OW20702   2.181   2.672   8.397
 6248SOL    HW120703   2.274   2.708   8.402
 6248SOL    HW220704   2.175   2.587   8.449
 6249SOL     OW20705   2.201   2.371   8.454
 6249SOL    HW120706   2.149   2.288   8.437
 6249SOL    HW220707   2.278   2.376   8.390
 6250SOL     OW20708   3.000   2.242   0.126
 6250SOL    HW120709   2.955   2.305   0.190
 6250SOL    HW220710   3.093   2.273   0.109
 6251SOL     OW20711   3.022   2.069   8.925
 6251SOL    HW120712   3.022   2.133   9.002
 6251SOL    HW220713   3.050   2.117   8.842
 6252SOL     OW20714   1.870   3.188   7.648
 6252SOL    HW120715   1.777   3.209   7.617
 6252SOL    HW220716   1.880   3.089   7.661
 6253SOL     OW20717   1.950   3.663   8.375
 6253SOL    HW120718   1.908   3.577   8.348
 6253SOL    HW220719   2.044   3.666   8.341
 6254SOL     OW20720   2.366   3.430   8.358
 6254SOL    HW120721   2.432   3.504   8.367
 6254SOL    HW220722   2.410   3.351   8.316
 6255SOL     OW20723   2.864   2.658   8.686
 6255SOL    HW120724   2.905   2.626   8.772
 6255SOL    HW220725   2.768   2.631   8.683
 6256SOL     OW20726   1.902   2.406   8.562
 6256SOL    HW120727   1.987   2.373   8.521
 6256SOL    HW220728   1.915   2.421   8.660
 6257SOL     OW20729   2.677   2.434   7.773
 6257SOL    HW120730   2.684   2.345   7.727
 6257SOL    HW220731   2.583   2.468   7.765
 6258SOL     OW20732   3.519   2.466   8.654
 6258SOL    HW120733   3.481   2.397   8.716
 6258SOL    HW220734   3.601   2.430   8.610
 6259SOL     OW20735   2.533   2.326   8.717
 6259SOL    HW120736   2.499   2.237   8.687
 6259SOL    HW220737   2.559   2.380   8.637
 6260SOL     OW20738   2.792   3.540   8.913
 6260SOL    HW120739   2.768   3.522   8.818
 6260SOL    HW220740   2.822   3.634   8.923
 6261SOL     OW20741   2.335   2.362   7.639
 6261SOL    HW120742   2.396   2.442   7.643
 6261SOL    HW220743   2.240   2.393   7.646
 6262SOL     OW20744   2.021   2.999   8.914
 6262SOL    HW120745   2.043   2.938   8.990
 6262SOL    HW220746   2.031   2.950   8.828
 6263SOL     OW20747   3.209   2.921   8.682
 6263SOL    HW120748   3.233   2.858   8.608
 6263SOL    HW220749   3.119   2.961   8.664
 6264SOL     OW20750   3.164   2.717   7.757
 6264SOL    HW120751   3.078   2.686   7.799
 6264SOL    HW220752   3.160   2.703   7.658
 6265SOL     OW20753   3.621   3.609   8.602
 6265SOL    HW120754   3.682   3.639   8.529
 6265SOL    HW220755   3.583   3.520   8.580
 6266SOL     OW20756   3.114   3.593   8.576
 6266SOL    HW120757   3.198   3.598   8.522
 6266SOL    HW220758   3.091   3.497   8.594
 6267SOL     OW20759   1.945   3.120   8.470
 6267SOL    HW120760   1.940   3.119   8.570
 6267SOL    HW220761   1.862   3.079   8.432
 6268SOL     OW20762   2.765   1.948   7.581
 6268SOL    HW120763   2.816   1.949   7.495
 6268SOL    HW220764   2.821   1.906   7.652
 6269SOL     OW20765   3.588   1.997   7.971
 6269SOL    HW120766   3.661   1.980   7.904
 6269SOL    HW220767   3.557   1.910   8.009
 6270SOL     OW20768   3.250   3.435   7.925
 6270SOL    HW120769   3.317   3.447   7.851
 6270SOL    HW220770   3.210   3.524   7.948
 6271SOL     OW20771   3.142   2.789   8.120
 6271SOL    HW120772   3.202   2.708   8.122
 6271SOL    HW220773   3.182   2.858   8.060
 6272SOL     OW20774   2.534   3.478   7.602
 6272SOL    HW120775   2.543   3.488   7.503
 6272SOL    HW220776   2.494   3.389   7.623
 6273SOL     OW20777   3.512   3.582   8.842
 6273SOL    HW120778   3.565   3.592   8.758
 6273SOL    HW220779   3.485   3.672   8.876
 6274SOL     OW20780   3.703   2.037   8.411
 6274SOL    HW120781   3.742   1.952   8.375
 6274SOL    HW220782   3.605   2.039   8.392
 6275SOL     OW20783   2.125   2.188   8.168
 6275SOL    HW120784   2.046   2.239   8.134
 6275SOL    HW220785   2.116   2.173   8.266
 6276SOL     OW20786   3.056   3.474   7.479
 6276SOL    HW120787   3.062   3.381   7.516
 6276SOL    HW220788   2.997   3.474   7.399
 6277SOL     OW20789   2.684   2.864   8.820
 6277SOL    HW120790   2.724   2.863   8.728
 6277SOL    HW220791   2.694   2.956   8.860
 6278SOL     OW20792   2.778   2.772   7.739
 6278SOL    HW120793   2.841   2.810   7.671
 6278SOL    HW220794   2.818   2.689   7.778
 6279SOL     OW20795   3.366   3.469   7.492
 6279SOL    HW120796   3.274   3.506   7.499
 6279SOL    HW220797   3.404   3.489   7.402
 6280SOL     OW20798   2.234   3.150   8.938
 6280SOL    HW120799   2.221   3.243   8.904
 6280SOL    HW220800   2.150   3.098   8.925
 6281SOL     OW20801   3.476   3.154   8.737
 6281SOL    HW120802   3.536   3.157   8.817
 6281SOL    HW220803   3.401   3.218   8.750
 6282SOL     OW20804   2.901   2.960   8.144
 6282SOL    HW120805   2.831   2.913   8.198
 6282SOL    HW220806   2.960   2.892   8.101
 6283SOL     OW20807   2.876   2.098   8.419
 6283SOL    HW120808   2.868   2.062   8.326
 6283SOL    HW220809   2.874   2.022   8.484
 6284SOL     OW20810   2.452   3.349   7.939
 6284SOL    HW120811   2.494   3.291   7.869
 6284SOL    HW220812   2.408   3.428   7.895
 6285SOL     OW20813   3.571   2.247   8.829
 6285SOL    HW120814   3.644   2.316   8.833
 6285SOL    HW220815   3.599   2.172   8.770
 6286SOL     OW20816   2.117   3.210   7.738
 6286SOL    HW120817   2.021   3.211   7.711
 6286SOL    HW220818   2.129   3.263   7.822
 6287SOL     OW20819   1.937   2.207   7.481
 6287SOL    HW120820   1.845   2.179   7.452
 6287SOL    HW220821   1.968   2.284   7.425
 6288SOL     OW20822   3.302   2.718   8.846
 6288SOL    HW120823   3.245   2.770   8.783
 6288SOL    HW220824   3.398   2.730   8.822
 6289SOL     OW20825   1.934   2.028   7.766
 6289SOL    HW120826   1.917   2.111   7.712
 6289SOL    HW220827   2.024   1.991   7.744
 6290SOL     OW20828   3.045   3.197   7.567
 6290SOL    HW120829   2.946   3.186   7.569
 6290SOL    HW220830   3.079   3.212   7.660
 6291SOL     OW20831   2.475   2.704   8.879
 6291SOL    HW120832   2.531   2.785   8.862
 6291SOL    HW220833   2.534   2.624   8.882
 6292SOL     OW20834   3.355   3.629   8.407
 6292SOL    HW120835   3.388   3.693   8.338
 6292SOL    HW220836   3.421   3.623   8.482
 6293SOL     OW20837   2.252   3.603   0.008
 6293SOL    HW120838   2.161   3.644   0.006
 6293SOL    HW220839   2.245   3.509   0.040
 6294SOL     OW20840   3.536   2.745   8.702
 6294SOL    HW120841   3.509   2.656   8.665
 6294SOL    HW220842   3.537   2.813   8.629
 6295SOL     OW20843   3.087   2.187   7.897
 6295SOL    HW120844   3.152   2.113   7.886
 6295SOL    HW220845   3.107   2.237   7.981
 6296SOL     OW20846   2.456   2.607   8.100
 6296SOL    HW120847   2.506   2.692   8.081
 6296SOL    HW220848   2.368   2.609   8.052
 6297SOL     OW20849   3.639   2.204   0.090
 6297SOL    HW120850   3.622   2.235  -0.004
 6297SOL    HW220851   3.555   2.167   0.128
 6298SOL     OW20852   3.592   2.796   8.965
 6298SOL    HW120853   3.630   2.887   8.980
 6298SOL    HW220854   3.584   2.779   8.866
 6299SOL     OW20855   2.721   3.236   7.464
 6299SOL    HW120856   2.675   3.251   7.552
 6299SOL    HW220857   2.765   3.321   7.434
 6300SOL     OW20858   2.523   3.652   8.401
 6300SOL    HW120859   2.477   3.740   8.388
 6300SOL    HW220860   2.622   3.664   8.394
 6301SOL     OW20861   3.270   3.713   0.168
 6301SOL    HW120862   3.174   3.702   0.141
 6301SOL    HW220863   3.326   3.646   0.120
 6302SOL     OW20864   2.721   2.818   8.309
 6302SOL    HW120865   2.775   2.749   8.357
 6302SOL    HW220866   2.689   2.887   8.375
 6303SOL     OW20867   2.945   2.846   7.535
 6303SOL    HW120868   2.922   2.899   7.453
 6303SOL    HW220869   3.026   2.790   7.516
 6304SOL     OW20870   3.723   3.431   8.299
 6304SOL    HW120871   3.652   3.419   8.229
 6304SOL    HW220872   3.724   3.352   8.359
 6305SOL     OW20873   1.941   3.102   8.101
 6305SOL    HW120874   1.940   3.055   8.189
 6305SOL    HW220875   2.023   3.074   8.050
 6306SOL     OW20876   3.686   2.054   8.675
 6306SOL    HW120877   3.682   1.964   8.719
 6306SOL    HW220878   3.689   2.043   8.576
 6307SOL     OW20879   2.290   2.286   7.968
 6307SOL    HW120880   2.320   2.214   7.906
 6307SOL    HW220881   2.251   2.246   8.051
 6308SOL     OW20882   3.567   3.349   8.552
 6308SOL    HW120883   3.474   3.324   8.525
 6308SOL    HW220884   3.593   3.299   8.634
 6309SOL     OW20885   2.179   2.409   8.728
 6309SOL    HW120886   2.217   2.350   8.800
 6309SOL    HW220887   2.219   2.383   8.640
 6310SOL     OW20888   2.674   3.448   8.135
 6310SOL    HW120889   2.706   3.458   8.041
 6310SOL    HW220890   2.595   3.386   8.137
 6311SOL     OW20891   3.286   2.076   8.560
 6311SOL    HW120892   3.338   2.011   8.615
 6311SOL    HW220893   3.237   2.139   8.621
 6312SOL     OW20894   2.863   1.896   8.602
 6312SOL    HW120895   2.800   1.824   8.571
 6312SOL    HW220896   2.956   1.860   8.602
 6313SOL     OW20897   2.632   3.192   7.749
 6313SOL    HW120898   2.586   3.105   7.766
 6313SOL    HW220899   2.723   3.189   7.790
 6314SOL     OW20900   2.480   3.429   8.732
 6314SOL    HW120901   2.475   3.511   8.789
 6314SOL    HW220902   2.569   3.426   8.687
 6315SOL     OW20903   3.214   1.914   7.616
 6315SOL    HW120904   3.249   1.873   7.532
 6315SOL    HW220905   3.124   1.876   7.636
 6316SOL     OW20906   3.162   2.315   8.139
 6316SOL    HW120907   3.103   2.395   8.143
 6316SOL    HW220908   3.177   2.280   8.232
 6317SOL     OW20909   3.455   2.083   8.330
 6317SOL    HW120910   3.371   2.082   8.384
 6317SOL    HW220911   3.457   2.166   8.274
 6318SOL     OW20912   1.901   2.939   7.748
 6318SOL    HW120913   2.000   2.928   7.739
 6318SOL    HW220914   1.861   2.853   7.780
 6319SOL     OW20915   2.737   3.508   7.785
 6319SOL    HW120916   2.660   3.473   7.731
 6319SOL    HW220917   2.705   3.579   7.847
 6320SOL     OW20918   2.092   4.352   0.113
 6320SOL    HW120919   1.999   4.350   0.150
 6320SOL    HW220920   2.093   4.313   0.021
 6321SOL     OW20921   2.087   3.999   0.996
 6321SOL    HW120922   2.122   3.982   1.088
 6321SOL    HW220923   1.999   3.954   0.984
 6322SOL     OW20924   1.881   4.092   0.647
 6322SOL    HW120925   1.799   4.135   0.686
 6322SOL    HW220926   1.853   4.019   0.584
 6323SOL     OW20927   2.431   4.999   1.165
 6323SOL    HW120928   2.338   4.992   1.128
 6323SOL    HW220929   2.442   5.088   1.209
 6324SOL     OW20930   3.417   5.235   0.703
 6324SOL    HW120931   3.360   5.219   0.784
 6324SOL    HW220932   3.358   5.245   0.623
 6325SOL     OW20933   2.997   4.427   0.717
 6325SOL    HW120934   3.054   4.505   0.692
 6325SOL    HW220935   2.937   4.453   0.793
 6326SOL     OW20936   3.617   4.331   0.231
 6326SOL    HW120937   3.605   4.318   0.132
 6326SOL    HW220938   3.587   4.250   0.280
 6327SOL     OW20939   2.630   4.868   1.023
 6327SOL    HW120940   2.552   4.885   1.083
 6327SOL    HW220941   2.664   4.955   0.987
 6328SOL     OW20942   2.712   4.522   1.823
 6328SOL    HW120943   2.708   4.598   1.888
 6328SOL    HW220944   2.734   4.558   1.732
 6329SOL     OW20945   2.547   4.736   0.665
 6329SOL    HW120946   2.616   4.720   0.735
 6329SOL    HW220947   2.474   4.793   0.703
 6330SOL     OW20948   2.548   4.885   1.803
 6330SOL    HW120949   2.608   4.964   1.817
 6330SOL    HW220950   2.462   4.916   1.762
 6331SOL     OW20951   2.197   5.159   1.061
 6331SOL    HW120952   2.119   5.128   1.008
 6331SOL    HW220953   2.255   5.217   1.004
 6332SOL     OW20954   3.322   5.229   1.339
 6332SOL    HW120955   3.346   5.323   1.365
 6332SOL    HW220956   3.306   5.175   1.421
 6333SOL     OW20957   2.300   4.116   1.499
 6333SOL    HW120958   2.382   4.060   1.508
 6333SOL    HW220959   2.219   4.058   1.503
 6334SOL     OW20960   3.465   4.171   0.737
 6334SOL    HW120961   3.391   4.217   0.687
 6334SOL    HW220962   3.516   4.239   0.790
 6335SOL     OW20963   2.093   5.437   0.483
 6335SOL    HW120964   2.127   5.514   0.537
 6335SOL    HW220965   2.137   5.437   0.393
 6336SOL     OW20966   2.989   5.065   1.690
 6336SOL    HW120967   3.036   5.065   1.778
 6336SOL    HW220968   2.941   4.978   1.679
 6337SOL     OW20969   2.092   5.158   0.538
 6337SOL    HW120970   2.066   5.254   0.538
 6337SOL    HW220971   2.021   5.104   0.583
 6338SOL     OW20972   2.102   4.815   0.886
 6338SOL    HW120973   2.116   4.731   0.938
 6338SOL    HW220974   2.047   4.879   0.941
 6339SOL     OW20975   2.482   5.510   1.439
 6339SOL    HW120976   2.390   5.493   1.474
 6339SOL    HW220977   2.510   5.602   1.465
 6340SOL     OW20978   2.468   4.688   0.123
 6340SOL    HW120979   2.475   4.772   0.069
 6340SOL    HW220980   2.514   4.701   0.211
 6341SOL     OW20981   1.984   4.367   0.563
 6341SOL    HW120982   1.939   4.279   0.580
 6341SOL    HW220983   1.983   4.421   0.647
 6342SOL     OW20984   3.704   5.491   0.359
 6342SOL    HW120985   3.758   5.462   0.439
 6342SOL    HW220986   3.734   5.581   0.330
 6343SOL     OW20987   3.551   4.646   0.612
 6343SOL    HW120988   3.646   4.617   0.620
 6343SOL    HW220989   3.543   4.711   0.537
 6344SOL     OW20990   3.503   4.832   0.432
 6344SOL    HW120991   3.589   4.834   0.380
 6344SOL    HW220992   3.517   4.879   0.520
 6345SOL     OW20993   1.975   4.461   1.597
 6345SOL    HW120994   2.063   4.448   1.642
 6345SOL    HW220995   1.962   4.558   1.575
 6346SOL     OW20996   2.475   5.089   0.726
 6346SOL    HW120997   2.426   5.002   0.735
 6346SOL    HW220998   2.452   5.132   0.639
 6347SOL     OW20999   3.155   4.952   1.423
 6347SOL    HW121000   3.192   4.879   1.365
 6347SOL    HW221001   3.207   4.957   1.508
 6348SOL     OW21002   2.059   4.700   1.264
 6348SOL    HW121003   2.148   4.655   1.250
 6348SOL    HW221004   1.986   4.635   1.245
 6349SOL     OW21005   3.387   4.723   0.190
 6349SOL    HW121006   3.324   4.647   0.203
 6349SOL    HW221007   3.435   4.741   0.276
 6350SOL     OW21008   3.049   5.516   1.616
 6350SOL    HW121009   3.073   5.576   1.540
 6350SOL    HW221010   3.056   5.421   1.586
 6351SOL     OW21011   2.179   3.975   1.801
 6351SOL    HW121012   2.250   4.046   1.807
 6351SOL    HW221013   2.091   4.014   1.829
 6352SOL     OW21014   3.328   5.141   0.953
 6352SOL    HW121015   3.269   5.147   1.033
 6352SOL    HW221016   3.313   5.053   0.907
 6353SOL     OW21017   3.529   5.438   0.572
 6353SOL    HW121018   3.488   5.415   0.484
 6353SOL    HW221019   3.511   5.364   0.637
 6354SOL     OW21020   2.460   4.453   0.270
 6354SOL    HW121021   2.484   4.522   0.202
 6354SOL    HW221022   2.382   4.486   0.324
 6355SOL     OW21023   3.438   5.386   0.307
 6355SOL    HW121024   3.527   5.432   0.310
 6355SOL    HW221025   3.417   5.362   0.212
 6356SOL     OW21026   2.669   4.329   1.465
 6356SOL    HW121027   2.622   4.326   1.554
 6356SOL    HW221028   2.618   4.274   1.399
 6357SOL     OW21029   3.256   4.193   1.674
 6357SOL    HW121030   3.236   4.236   1.762
 6357SOL    HW221031   3.334   4.131   1.683
 6358SOL     OW21032   2.835   4.614   1.572
 6358SOL    HW121033   2.881   4.530   1.543
 6358SOL    HW221034   2.779   4.648   1.497
 6359SOL     OW21035   2.903   4.425   0.429
 6359SOL    HW121036   2.929   4.421   0.525
 6359SOL    HW221037   2.818   4.374   0.415
 6360SOL     OW21038   1.938   4.535   0.789
 6360SOL    HW121039   2.037   4.523   0.798
 6360SOL    HW221040   1.914   4.630   0.810
 6361SOL     OW21041   1.992   5.545   1.571
 6361SOL    HW121042   1.982   5.530   1.670
 6361SOL    HW221043   1.906   5.581   1.535
 6362SOL     OW21044   2.727   4.072   0.195
 6362SOL    HW121045   2.786   4.135   0.146
 6362SOL    HW221046   2.746   3.978   0.166
 6363SOL     OW21047   3.581   4.309   1.831
 6363SOL    HW121048   3.555   4.398   1.795
 6363SOL    HW221049   3.579   4.241   1.758
 6364SOL     OW21050   3.224   4.868   0.545
 6364SOL    HW121051   3.307   4.839   0.497
 6364SOL    HW221052   3.175   4.935   0.489
 6365SOL     OW21053   2.870   5.180   0.477
 6365SOL    HW121054   2.824   5.252   0.425
 6365SOL    HW221055   2.866   5.200   0.575
 6366SOL     OW21056   2.213   5.525   0.853
 6366SOL    HW121057   2.263   5.439   0.859
 6366SOL    HW221058   2.278   5.602   0.850
 6367SOL     OW21059   3.657   4.790   0.873
 6367SOL    HW121060   3.595   4.775   0.797
 6367SOL    HW221061   3.605   4.801   0.958
 6368SOL     OW21062   3.089   5.274   1.506
 6368SOL    HW121063   3.095   5.197   1.570
 6368SOL    HW221064   3.037   5.248   1.426
 6369SOL     OW21065   2.183   4.667   0.242
 6369SOL    HW121066   2.265   4.706   0.200
 6369SOL    HW221067   2.156   4.585   0.193
 6370SOL     OW21068   3.320   4.459   0.728
 6370SOL    HW121069   3.315   4.394   0.803
 6370SOL    HW221070   3.400   4.518   0.741
 6371SOL     OW21071   2.323   4.990   1.727
 6371SOL    HW121072   2.273   4.991   1.641
 6371SOL    HW221073   2.260   4.972   1.803
 6372SOL     OW21074   2.973   5.500   0.237
 6372SOL    HW121075   2.913   5.438   0.287
 6372SOL    HW221076   3.004   5.456   0.152
 6373SOL     OW21077   2.064   4.009   1.498
 6373SOL    HW121078   1.984   4.069   1.485
 6373SOL    HW221079   2.054   3.960   1.584
 6374SOL     OW21080   3.494   5.101   0.081
 6374SOL    HW121081   3.462   5.195   0.071
 6374SOL    HW221082   3.418   5.038   0.069
 6375SOL     OW21083   2.326   5.467   0.323
 6375SOL    HW121084   2.359   5.506   0.409
 6375SOL    HW221085   2.402   5.460   0.258
 6376SOL     OW21086   3.262   3.831   0.426
 6376SOL    HW121087   3.238   3.794   0.336
 6376SOL    HW221088   3.361   3.847   0.430
 6377SOL     OW21089   2.111   5.509   1.241
 6377SOL    HW121090   2.168   5.444   1.291
 6377SOL    HW221091   2.095   5.476   1.148
 6378SOL     OW21092   2.802   5.422   0.904
 6378SOL    HW121093   2.882   5.365   0.925
 6378SOL    HW221094   2.753   5.382   0.827
 6379SOL     OW21095   2.244   4.424   0.480
 6379SOL    HW121096   2.289   4.334   0.477
 6379SOL    HW221097   2.150   4.413   0.513
 6380SOL     OW21098   3.409   3.946   1.729
 6380SOL    HW121099   3.404   3.983   1.821
 6380SOL    HW221100   3.337   3.877   1.717
 6381SOL     OW21101   2.476   3.846   0.117
 6381SOL    HW121102   2.574   3.824   0.124
 6381SOL    HW221103   2.445   3.829   0.024
 6382SOL     OW21104   2.643   3.988   1.749
 6382SOL    HW121105   2.710   3.927   1.792
 6382SOL    HW221106   2.570   4.007   1.814
 6383SOL     OW21107   2.750   5.238   1.195
 6383SOL    HW121108   2.727   5.213   1.101
 6383SOL    HW221109   2.811   5.169   1.234
 6384SOL     OW21110   3.213   4.314   1.433
 6384SOL    HW121111   3.241   4.271   1.518
 6384SOL    HW221112   3.238   4.410   1.434
 6385SOL     OW21113   2.665   5.126   0.924
 6385SOL    HW121114   2.755   5.140   0.882
 6385SOL    HW221115   2.594   5.128   0.853
 6386SOL     OW21116   2.401   3.788   0.512
 6386SOL    HW121117   2.320   3.789   0.570
 6386SOL    HW221118   2.404   3.871   0.457
 6387SOL     OW21119   3.296   4.912   0.041
 6387SOL    HW121120   3.328   4.836   0.098
 6387SOL    HW221121   3.204   4.939   0.071
 6388SOL     OW21122   3.089   5.294   0.793
 6388SOL    HW121123   3.110   5.368   0.728
 6388SOL    HW221124   3.157   5.294   0.866
 6389SOL     OW21125   2.321   4.876   0.741
 6389SOL    HW121126   2.250   4.849   0.806
 6389SOL    HW221127   2.295   4.848   0.648
 6390SOL     OW21128   3.133   5.521   0.591
 6390SOL    HW121129   3.177   5.585   0.527
 6390SOL    HW221130   3.083   5.573   0.661
 6391SOL     OW21131   2.894   4.273   0.016
 6391SOL    HW121132   2.853   4.355  -0.023
 6391SOL    HW221133   2.958   4.299   0.089
 6392SOL     OW21134   1.940   4.280   1.386
 6392SOL    HW121135   2.032   4.279   1.345
 6392SOL    HW221136   1.934   4.354   1.453
 6393SOL     OW21137   2.728   4.178   0.642
 6393SOL    HW121138   2.696   4.250   0.580
 6393SOL    HW221139   2.752   4.097   0.589
 6394SOL     OW21140   3.291   4.897   0.867
 6394SOL    HW121141   3.236   4.813   0.860
 6394SOL    HW221142   3.317   4.926   0.775
 6395SOL     OW21143   3.328   4.314   0.992
 6395SOL    HW121144   3.298   4.219   0.999
 6395SOL    HW221145   3.401   4.330   1.058
 6396SOL     OW21146   3.719   4.557   0.377
 6396SOL    HW121147   3.761   4.493   0.441
 6396SOL    HW221148   3.681   4.506   0.299
 6397SOL     OW21149   2.350   5.109   0.174
 6397SOL    HW121150   2.263   5.094   0.221
 6397SOL    HW221151   2.333   5.135   0.079
 6398SOL     OW21152   3.526   5.004   0.657
 6398SOL    HW121153   3.625   5.012   0.671
 6398SOL    HW221154   3.481   5.088   0.688
 6399SOL     OW21155   3.252   4.299   0.078
 6399SOL    HW121156   3.198   4.278   0.159
 6399SOL    HW221157   3.343   4.258   0.087
 6400SOL     OW21158   3.616   4.947   1.588
 6400SOL    HW121159   3.707   4.908   1.575
 6400SOL    HW221160   3.624   5.043   1.612
 6401SOL     OW21161   2.926   5.071   1.340
 6401SOL    HW121162   2.846   5.048   1.395
 6401SOL    HW221163   3.009   5.045   1.389
 6402SOL     OW21164   3.454   5.353   1.625
 6402SOL    HW121165   3.481   5.387   1.535
 6402SOL    HW221166   3.533   5.315   1.671
 6403SOL     OW21167   2.973   4.919   1.100
 6403SOL    HW121168   2.933   4.963   1.181
 6403SOL    HW221169   2.932   4.956   1.017
 6404SOL     OW21170   3.500   4.823   1.079
 6404SOL    HW121171   3.505   4.904   1.138
 6404SOL    HW221172   3.414   4.825   1.028
 6405SOL     OW21173   2.777   3.813   1.402
 6405SOL    HW121174   2.802   3.793   1.307
 6405SOL    HW221175   2.849   3.869   1.444
 6406SOL     OW21176   2.842   4.840   1.719
 6406SOL    HW121177   2.743   4.846   1.729
 6406SOL    HW221178   2.865   4.760   1.663
 6407SOL     OW21179   2.567   4.774   0.368
 6407SOL    HW121180   2.553   4.781   0.467
 6407SOL    HW221181   2.651   4.723   0.350
 6408SOL     OW21182   2.272   4.537   1.251
 6408SOL    HW121183   2.358   4.549   1.301
 6408SOL    HW221184   2.230   4.450   1.278
 6409SOL     OW21185   1.926   5.288   1.331
 6409SOL    HW121186   1.880   5.370   1.297
 6409SOL    HW221187   2.024   5.307   1.340
 6410SOL     OW21188   2.229   4.824   0.501
 6410SOL    HW121189   2.222   4.907   0.445
 6410SOL    HW221190   2.233   4.744   0.441
 6411SOL     OW21191   2.428   4.261   0.865
 6411SOL    HW121192   2.440   4.327   0.791
 6411SOL    HW221193   2.474   4.295   0.948
 6412SOL     OW21194   3.114   5.072   0.388
 6412SOL    HW121195   3.164   5.149   0.428
 6412SOL    HW221196   3.019   5.074   0.420
 6413SOL     OW21197   3.134   5.169   1.142
 6413SOL    HW121198   3.181   5.182   1.229
 6413SOL    HW221199   3.068   5.095   1.151
 6414SOL     OW21200   3.444   4.363   0.472
 6414SOL    HW121201   3.413   4.424   0.545
 6414SOL    HW221202   3.494   4.415   0.403
 6415SOL     OW21203   2.216   5.234   1.329
 6415SOL    HW121204   2.195   5.190   1.242
 6415SOL    HW221205   2.313   5.260   1.332
 6416SOL     OW21206   2.264   4.475   1.598
 6416SOL    HW121207   2.332   4.530   1.551
 6416SOL    HW221208   2.304   4.387   1.625
 6417SOL     OW21209   3.449   4.503   1.670
 6417SOL    HW121210   3.357   4.541   1.665
 6417SOL    HW221211   3.509   4.550   1.605
 6418SOL     OW21212   2.875   3.829   1.770
 6418SOL    HW121213   2.881   3.914   1.718
 6418SOL    HW221214   2.907   3.753   1.713
 6419SOL     OW21215   2.366   3.774   1.740
 6419SOL    HW121216   2.324   3.717   1.670
 6419SOL    HW221217   2.300   3.843   1.772
 6420SOL     OW21218   2.435   4.594   1.029
 6420SOL    HW121219   2.479   4.683   1.020
 6420SOL    HW221220   2.372   4.594   1.106
 6421SOL     OW21221   3.222   4.586   1.045
 6421SOL    HW121222   3.147   4.586   0.979
 6421SOL    HW221223   3.259   4.494   1.054
 6422SOL     OW21224   3.071   4.249   0.275
 6422SOL    HW121225   3.084   4.165   0.329
 6422SOL    HW221226   3.042   4.323   0.335
 6423SOL     OW21227   2.169   3.937   1.231
 6423SOL    HW121228   2.146   3.974   1.321
 6423SOL    HW221229   2.139   3.842   1.225
 6424SOL     OW21230   1.899   5.034   1.282
 6424SOL    HW121231   1.952   4.985   1.350
 6424SOL    HW221232   1.921   5.132   1.287
 6425SOL     OW21233   2.594   4.358   1.064
 6425SOL    HW121234   2.653   4.332   0.988
 6425SOL    HW221235   2.566   4.454   1.053
 6426SOL     OW21236   3.590   4.659   1.854
 6426SOL    HW121237   3.544   4.652   1.765
 6426SOL    HW221238   3.528   4.703   1.920
 6427SOL     OW21239   2.169   3.787   0.618
 6427SOL    HW121240   2.158   3.881   0.651
 6427SOL    HW221241   2.164   3.724   0.695
 6428SOL     OW21242   3.484   4.091   0.374
 6428SOL    HW121243   3.486   4.015   0.438
 6428SOL    HW221244   3.436   4.168   0.414
 6429SOL     OW21245   2.885   4.490   0.966
 6429SOL    HW121246   2.900   4.511   1.062
 6429SOL    HW221247   2.855   4.395   0.957
 6430SOL     OW21248   2.842   5.297   1.700
 6430SOL    HW121249   2.822   5.341   1.612
 6430SOL    HW221250   2.881   5.206   1.684
 6431SOL     OW21251   3.721   5.242   1.605
 6431SOL    HW121252   3.735   5.269   1.510
 6431SOL    HW221253   3.804   5.264   1.658
 6432SOL     OW21254   2.212   4.622   1.804
 6432SOL    HW121255   2.288   4.666   1.852
 6432SOL    HW221256   2.247   4.575   1.722
 6433SOL     OW21257   3.402   3.998   0.125
 6433SOL    HW121258   3.341   3.923   0.148
 6433SOL    HW221259   3.424   4.050   0.208
 6434SOL     OW21260   3.165   4.562   0.042
 6434SOL    HW121261   3.199   4.469   0.057
 6434SOL    HW221262   3.183   4.589  -0.053
 6435SOL     OW21263   2.930   5.057   0.849
 6435SOL    HW121264   2.937   4.973   0.794
 6435SOL    HW221265   2.992   5.126   0.813
 6436SOL     OW21266   2.181   4.534   0.949
 6436SOL    HW121267   2.274   4.570   0.954
 6436SOL    HW221268   2.175   4.449   1.001
 6437SOL     OW21269   2.201   4.233   1.006
 6437SOL    HW121270   2.149   4.150   0.989
 6437SOL    HW221271   2.278   4.238   0.942
 6438SOL     OW21272   2.373   4.139   1.808
 6438SOL    HW121273   2.355   4.184   1.896
 6438SOL    HW221274   2.415   4.204   1.745
 6439SOL     OW21275   3.000   4.104   1.678
 6439SOL    HW121276   2.955   4.167   1.742
 6439SOL    HW221277   3.093   4.135   1.661
 6440SOL     OW21278   1.870   5.050   0.200
 6440SOL    HW121279   1.777   5.071   0.169
 6440SOL    HW221280   1.880   4.951   0.213
 6441SOL     OW21281   1.950   5.525   0.927
 6441SOL    HW121282   1.908   5.439   0.900
 6441SOL    HW221283   2.044   5.528   0.893
 6442SOL     OW21284   2.366   5.292   0.910
 6442SOL    HW121285   2.432   5.366   0.919
 6442SOL    HW221286   2.410   5.213   0.868
 6443SOL     OW21287   2.864   4.520   1.238
 6443SOL    HW121288   2.905   4.488   1.324
 6443SOL    HW221289   2.768   4.493   1.235
 6444SOL     OW21290   1.902   4.268   1.114
 6444SOL    HW121291   1.987   4.235   1.073
 6444SOL    HW221292   1.915   4.283   1.212
 6445SOL     OW21293   2.051   4.244   1.722
 6445SOL    HW121294   2.110   4.204   1.652
 6445SOL    HW221295   1.993   4.315   1.681
 6446SOL     OW21296   3.231   4.674   1.660
 6446SOL    HW121297   3.270   4.763   1.680
 6446SOL    HW221298   3.241   4.654   1.563
 6447SOL     OW21299   2.677   4.296   0.325
 6447SOL    HW121300   2.684   4.207   0.279
 6447SOL    HW221301   2.583   4.330   0.317
 6448SOL     OW21302   3.519   4.328   1.206
 6448SOL    HW121303   3.481   4.259   1.268
 6448SOL    HW221304   3.601   4.292   1.162
 6449SOL     OW21305   2.114   5.288   1.744
 6449SOL    HW121306   2.084   5.345   1.820
 6449SOL    HW221307   2.107   5.191   1.770
 6450SOL     OW21308   2.533   4.188   1.269
 6450SOL    HW121309   2.499   4.099   1.239
 6450SOL    HW221310   2.559   4.242   1.189
 6451SOL     OW21311   2.792   5.402   1.465
 6451SOL    HW121312   2.768   5.384   1.370
 6451SOL    HW221313   2.822   5.496   1.475
 6452SOL     OW21314   2.335   4.224   0.191
 6452SOL    HW121315   2.396   4.304   0.195
 6452SOL    HW221316   2.240   4.255   0.198
 6453SOL     OW21317   2.021   4.861   1.466
 6453SOL    HW121318   2.043   4.800   1.542
 6453SOL    HW221319   2.031   4.812   1.380
 6454SOL     OW21320   3.209   4.783   1.234
 6454SOL    HW121321   3.233   4.720   1.160
 6454SOL    HW221322   3.119   4.823   1.216
 6455SOL     OW21323   3.164   4.579   0.309
 6455SOL    HW121324   3.078   4.548   0.351
 6455SOL    HW221325   3.160   4.565   0.210
 6456SOL     OW21326   3.621   5.471   1.154
 6456SOL    HW121327   3.682   5.501   1.081
 6456SOL    HW221328   3.583   5.382   1.132
 6457SOL     OW21329   3.114   5.455   1.128
 6457SOL    HW121330   3.198   5.460   1.074
 6457SOL    HW221331   3.091   5.359   1.146
 6458SOL     OW21332   1.945   4.982   1.022
 6458SOL    HW121333   1.940   4.981   1.122
 6458SOL    HW221334   1.862   4.941   0.984
 6459SOL     OW21335   2.550   5.386   1.716
 6459SOL    HW121336   2.494   5.467   1.725
 6459SOL    HW221337   2.602   5.390   1.630
 6460SOL     OW21338   2.765   3.810   0.133
 6460SOL    HW121339   2.816   3.811   0.047
 6460SOL    HW221340   2.821   3.768   0.204
 6461SOL     OW21341   3.250   5.297   0.477
 6461SOL    HW121342   3.317   5.309   0.403
 6461SOL    HW221343   3.210   5.386   0.500
 6462SOL     OW21344   1.992   5.518   1.851
 6462SOL    HW121345   1.951   5.444   1.904
 6462SOL    HW221346   2.056   5.569   1.909
 6463SOL     OW21347   3.142   4.651   0.672
 6463SOL    HW121348   3.202   4.570   0.674
 6463SOL    HW221349   3.182   4.720   0.612
 6464SOL     OW21350   2.692   4.997   1.422
 6464SOL    HW121351   2.687   5.030   1.517
 6464SOL    HW221352   2.606   5.016   1.376
 6465SOL     OW21353   2.534   5.340   0.154
 6465SOL    HW121354   2.543   5.350   0.055
 6465SOL    HW221355   2.494   5.251   0.175
 6466SOL     OW21356   3.512   5.444   1.394
 6466SOL    HW121357   3.565   5.454   1.310
 6466SOL    HW221358   3.485   5.534   1.428
 6467SOL     OW21359   2.125   4.050   0.720
 6467SOL    HW121360   2.046   4.101   0.686
 6467SOL    HW221361   2.116   4.035   0.818
 6468SOL     OW21362   3.056   5.336   0.031
 6468SOL    HW121363   3.062   5.243   0.068
 6468SOL    HW221364   2.997   5.336  -0.049
 6469SOL     OW21365   2.684   4.726   1.372
 6469SOL    HW121366   2.724   4.725   1.280
 6469SOL    HW221367   2.694   4.818   1.412
 6470SOL     OW21368   2.778   4.634   0.291
 6470SOL    HW121369   2.841   4.672   0.223
 6470SOL    HW221370   2.818   4.551   0.330
 6471SOL     OW21371   3.366   5.331   0.044
 6471SOL    HW121372   3.274   5.368   0.051
 6471SOL    HW221373   3.404   5.351  -0.046
 6472SOL     OW21374   2.234   5.012   1.490
 6472SOL    HW121375   2.221   5.105   1.456
 6472SOL    HW221376   2.150   4.960   1.477
 6473SOL     OW21377   3.476   5.016   1.289
 6473SOL    HW121378   3.536   5.019   1.369
 6473SOL    HW221379   3.401   5.080   1.302
 6474SOL     OW21380   2.901   4.822   0.696
 6474SOL    HW121381   2.831   4.775   0.750
 6474SOL    HW221382   2.960   4.754   0.653
 6475SOL     OW21383   2.452   5.211   0.491
 6475SOL    HW121384   2.494   5.153   0.421
 6475SOL    HW221385   2.408   5.290   0.447
 6476SOL     OW21386   2.117   5.072   0.290
 6476SOL    HW121387   2.021   5.073   0.263
 6476SOL    HW221388   2.129   5.125   0.374
 6477SOL     OW21389   1.967   4.737   1.726
 6477SOL    HW121390   1.890   4.704   1.780
 6477SOL    HW221391   2.052   4.707   1.768
 6478SOL     OW21392   2.534   3.927   1.489
 6478SOL    HW121393   2.624   3.911   1.449
 6478SOL    HW221394   2.542   3.932   1.588
 6479SOL     OW21395   3.302   4.580   1.398
 6479SOL    HW121396   3.245   4.632   1.335
 6479SOL    HW221397   3.398   4.592   1.374
 6480SOL     OW21398   1.934   3.890   0.318
 6480SOL    HW121399   1.917   3.973   0.264
 6480SOL    HW221400   2.024   3.853   0.296
 6481SOL     OW21401   3.045   5.059   0.119
 6481SOL    HW121402   2.946   5.048   0.121
 6481SOL    HW221403   3.079   5.074   0.212
 6482SOL     OW21404   2.475   4.566   1.431
 6482SOL    HW121405   2.531   4.647   1.414
 6482SOL    HW221406   2.534   4.486   1.434
 6483SOL     OW21407   3.355   5.491   0.959
 6483SOL    HW121408   3.388   5.555   0.890
 6483SOL    HW221409   3.421   5.485   1.034
 6484SOL     OW21410   2.578   4.289   1.708
 6484SOL    HW121411   2.597   4.354   1.782
 6484SOL    HW221412   2.638   4.209   1.717
 6485SOL     OW21413   3.312   4.944   1.633
 6485SOL    HW121414   3.303   4.934   1.732
 6485SOL    HW221415   3.408   4.937   1.607
 6486SOL     OW21416   2.252   5.465   1.560
 6486SOL    HW121417   2.161   5.506   1.558
 6486SOL    HW221418   2.245   5.371   1.592
 6487SOL     OW21419   3.536   4.607   1.254
 6487SOL    HW121420   3.509   4.518   1.217
 6487SOL    HW221421   3.537   4.675   1.181
 6488SOL     OW21422   2.456   4.469   0.652
 6488SOL    HW121423   2.506   4.554   0.633
 6488SOL    HW221424   2.368   4.471   0.604
 6489SOL     OW21425   3.592   4.658   1.517
 6489SOL    HW121426   3.630   4.749   1.532
 6489SOL    HW221427   3.584   4.641   1.418
 6490SOL     OW21428   2.721   5.098   0.016
 6490SOL    HW121429   2.675   5.113   0.104
 6490SOL    HW221430   2.765   5.183  -0.014
 6491SOL     OW21431   2.523   5.514   0.953
 6491SOL    HW121432   2.477   5.602   0.940
 6491SOL    HW221433   2.622   5.526   0.946
 6492SOL     OW21434   3.270   5.575   1.720
 6492SOL    HW121435   3.174   5.564   1.693
 6492SOL    HW221436   3.326   5.508   1.672
 6493SOL     OW21437   2.721   4.680   0.861
 6493SOL    HW121438   2.775   4.611   0.909
 6493SOL    HW221439   2.689   4.749   0.927
 6494SOL     OW21440   2.945   4.708   0.087
 6494SOL    HW121441   2.922   4.761   0.005
 6494SOL    HW221442   3.026   4.652   0.068
 6495SOL     OW21443   3.723   5.293   0.851
 6495SOL    HW121444   3.652   5.281   0.781
 6495SOL    HW221445   3.724   5.214   0.911
 6496SOL     OW21446   2.083   5.038   1.844
 6496SOL    HW121447   2.018   4.965   1.823
 6496SOL    HW221448   2.087   5.052   1.942
 6497SOL     OW21449   1.941   4.964   0.653
 6497SOL    HW121450   1.940   4.917   0.741
 6497SOL    HW221451   2.023   4.936   0.602
 6498SOL     OW21452   2.534   5.115   1.624
 6498SOL    HW121453   2.456   5.065   1.662
 6498SOL    HW221454   2.531   5.210   1.655
 6499SOL     OW21455   2.290   4.148   0.520
 6499SOL    HW121456   2.320   4.076   0.458
 6499SOL    HW221457   2.251   4.108   0.603
 6500SOL     OW21458   3.567   5.211   1.104
 6500SOL    HW121459   3.474   5.186   1.077
 6500SOL    HW221460   3.593   5.161   1.186
 6501SOL     OW21461   2.179   4.271   1.280
 6501SOL    HW121462   2.217   4.212   1.352
 6501SOL    HW221463   2.219   4.245   1.192
 6502SOL     OW21464   2.674   5.310   0.687
 6502SOL    HW121465   2.706   5.320   0.593
 6502SOL    HW221466   2.595   5.248   0.689
 6503SOL     OW21467   2.632   5.054   0.301
 6503SOL    HW121468   2.586   4.967   0.318
 6503SOL    HW221469   2.723   5.051   0.342
 6504SOL     OW21470   2.480   5.291   1.284
 6504SOL    HW121471   2.475   5.373   1.341
 6504SOL    HW221472   2.569   5.288   1.239
 6505SOL     OW21473   3.162   4.177   0.691
 6505SOL    HW121474   3.103   4.257   0.695
 6505SOL    HW221475   3.177   4.142   0.784
 6506SOL     OW21476   3.455   3.945   0.882
 6506SOL    HW121477   3.371   3.944   0.936
 6506SOL    HW221478   3.457   4.028   0.826
 6507SOL     OW21479   1.901   4.801   0.300
 6507SOL    HW121480   2.000   4.790   0.291
 6507SOL    HW221481   1.861   4.715   0.332
 6508SOL     OW21482   2.737   5.370   0.337
 6508SOL    HW121483   2.660   5.335   0.283
 6508SOL    HW221484   2.705   5.441   0.399
 6509SOL     OW21485   2.092   4.352   1.975
 6509SOL    HW121486   1.999   4.350   2.012
 6509SOL    HW221487   2.093   4.313   1.883
 6510SOL     OW21488   2.087   3.999   2.858
 6510SOL    HW121489   2.122   3.982   2.950
 6510SOL    HW221490   1.999   3.954   2.846
 6511SOL     OW21491   1.881   4.092   2.509
 6511SOL    HW121492   1.799   4.135   2.548
 6511SOL    HW221493   1.853   4.019   2.446
 6512SOL     OW21494   3.417   5.235   2.565
 6512SOL    HW121495   3.360   5.219   2.646
 6512SOL    HW221496   3.358   5.245   2.485
 6513SOL     OW21497   3.605   4.342   2.718
 6513SOL    HW121498   3.638   4.436   2.718
 6513SOL    HW221499   3.656   4.288   2.784
 6514SOL     OW21500   2.997   4.427   2.579
 6514SOL    HW121501   3.054   4.505   2.554
 6514SOL    HW221502   2.937   4.453   2.655
 6515SOL     OW21503   3.617   4.331   2.093
 6515SOL    HW121504   3.605   4.318   1.994
 6515SOL    HW221505   3.587   4.250   2.142
 6516SOL     OW21506   2.630   4.868   2.885
 6516SOL    HW121507   2.552   4.885   2.945
 6516SOL    HW221508   2.664   4.955   2.849
 6517SOL     OW21509   2.712   4.522   3.685
 6517SOL    HW121510   2.708   4.598   3.750
 6517SOL    HW221511   2.734   4.558   3.594
 6518SOL     OW21512   2.548   4.885   3.665
 6518SOL    HW121513   2.608   4.964   3.679
 6518SOL    HW221514   2.462   4.916   3.624
 6519SOL     OW21515   2.197   5.159   2.923
 6519SOL    HW121516   2.119   5.128   2.870
 6519SOL    HW221517   2.255   5.217   2.866
 6520SOL     OW21518   3.322   5.229   3.201
 6520SOL    HW121519   3.346   5.323   3.227
 6520SOL    HW221520   3.306   5.175   3.283
 6521SOL     OW21521   2.300   4.116   3.361
 6521SOL    HW121522   2.382   4.060   3.370
 6521SOL    HW221523   2.219   4.058   3.365
 6522SOL     OW21524   3.465   4.171   2.599
 6522SOL    HW121525   3.391   4.217   2.549
 6522SOL    HW221526   3.516   4.239   2.652
 6523SOL     OW21527   2.093   5.437   2.345
 6523SOL    HW121528   2.127   5.514   2.399
 6523SOL    HW221529   2.137   5.437   2.255
 6524SOL     OW21530   2.989   5.065   3.552
 6524SOL    HW121531   3.036   5.065   3.640
 6524SOL    HW221532   2.941   4.978   3.541
 6525SOL     OW21533   2.092   5.158   2.400
 6525SOL    HW121534   2.066   5.254   2.400
 6525SOL    HW221535   2.021   5.104   2.445
 6526SOL     OW21536   2.482   5.510   3.301
 6526SOL    HW121537   2.390   5.493   3.336
 6526SOL    HW221538   2.510   5.602   3.327
 6527SOL     OW21539   2.468   4.688   1.985
 6527SOL    HW121540   2.475   4.772   1.931
 6527SOL    HW221541   2.514   4.701   2.073
 6528SOL     OW21542   3.456   3.838   3.342
 6528SOL    HW121543   3.438   3.905   3.270
 6528SOL    HW221544   3.453   3.884   3.431
 6529SOL     OW21545   1.984   4.367   2.425
 6529SOL    HW121546   1.939   4.279   2.442
 6529SOL    HW221547   1.983   4.421   2.509
 6530SOL     OW21548   3.704   5.491   2.221
 6530SOL    HW121549   3.758   5.462   2.301
 6530SOL    HW221550   3.734   5.581   2.192
 6531SOL     OW21551   1.889   5.320   1.979
 6531SOL    HW121552   1.870   5.224   2.000
 6531SOL    HW221553   1.856   5.378   2.054
 6532SOL     OW21554   3.551   4.646   2.474
 6532SOL    HW121555   3.646   4.617   2.482
 6532SOL    HW221556   3.543   4.711   2.399
 6533SOL     OW21557   3.503   4.832   2.294
 6533SOL    HW121558   3.589   4.834   2.242
 6533SOL    HW221559   3.517   4.879   2.382
 6534SOL     OW21560   1.975   4.461   3.459
 6534SOL    HW121561   2.063   4.448   3.504
 6534SOL    HW221562   1.962   4.558   3.437
 6535SOL     OW21563   3.155   4.952   3.285
 6535SOL    HW121564   3.192   4.879   3.227
 6535SOL    HW221565   3.207   4.957   3.370
 6536SOL     OW21566   2.671   3.728   2.364
 6536SOL    HW121567   2.711   3.819   2.355
 6536SOL    HW221568   2.571   3.736   2.370
 6537SOL     OW21569   2.059   4.700   3.126
 6537SOL    HW121570   2.148   4.655   3.112
 6537SOL    HW221571   1.986   4.635   3.107
 6538SOL     OW21572   3.387   4.723   2.052
 6538SOL    HW121573   3.324   4.647   2.065
 6538SOL    HW221574   3.435   4.741   2.138
 6539SOL     OW21575   2.179   3.975   3.663
 6539SOL    HW121576   2.250   4.046   3.669
 6539SOL    HW221577   2.091   4.014   3.691
 6540SOL     OW21578   3.328   5.141   2.815
 6540SOL    HW121579   3.269   5.147   2.895
 6540SOL    HW221580   3.313   5.053   2.769
 6541SOL     OW21581   3.529   5.438   2.434
 6541SOL    HW121582   3.488   5.415   2.346
 6541SOL    HW221583   3.511   5.364   2.499
 6542SOL     OW21584   2.460   4.453   2.132
 6542SOL    HW121585   2.484   4.522   2.064
 6542SOL    HW221586   2.382   4.486   2.186
 6543SOL     OW21587   3.143   4.069   2.806
 6543SOL    HW121588   3.057   4.019   2.793
 6543SOL    HW221589   3.205   4.015   2.862
 6544SOL     OW21590   3.438   5.386   2.169
 6544SOL    HW121591   3.527   5.432   2.172
 6544SOL    HW221592   3.417   5.362   2.074
 6545SOL     OW21593   2.669   4.329   3.327
 6545SOL    HW121594   2.622   4.326   3.416
 6545SOL    HW221595   2.618   4.274   3.261
 6546SOL     OW21596   3.256   4.193   3.536
 6546SOL    HW121597   3.236   4.236   3.624
 6546SOL    HW221598   3.334   4.131   3.545
 6547SOL     OW21599   2.835   4.614   3.434
 6547SOL    HW121600   2.881   4.530   3.405
 6547SOL    HW221601   2.779   4.648   3.359
 6548SOL     OW21602   2.853   4.134   3.104
 6548SOL    HW121603   2.776   4.168   3.158
 6548SOL    HW221604   2.819   4.083   3.025
 6549SOL     OW21605   2.903   4.425   2.291
 6549SOL    HW121606   2.929   4.421   2.387
 6549SOL    HW221607   2.818   4.374   2.277
 6550SOL     OW21608   1.938   4.535   2.651
 6550SOL    HW121609   2.037   4.523   2.660
 6550SOL    HW221610   1.914   4.630   2.672
 6551SOL     OW21611   1.992   5.545   3.433
 6551SOL    HW121612   1.982   5.530   3.532
 6551SOL    HW221613   1.906   5.581   3.397
 6552SOL     OW21614   2.727   4.072   2.057
 6552SOL    HW121615   2.786   4.135   2.008
 6552SOL    HW221616   2.746   3.978   2.028
 6553SOL     OW21617   3.581   4.309   3.693
 6553SOL    HW121618   3.555   4.398   3.657
 6553SOL    HW221619   3.579   4.241   3.620
 6554SOL     OW21620   3.224   4.868   2.407
 6554SOL    HW121621   3.307   4.839   2.359
 6554SOL    HW221622   3.175   4.935   2.351
 6555SOL     OW21623   2.412   3.920   2.747
 6555SOL    HW121624   2.407   3.915   2.847
 6555SOL    HW221625   2.414   4.016   2.718
 6556SOL     OW21626   2.870   5.180   2.339
 6556SOL    HW121627   2.824   5.252   2.287
 6556SOL    HW221628   2.866   5.200   2.437
 6557SOL     OW21629   2.213   5.525   2.715
 6557SOL    HW121630   2.263   5.439   2.721
 6557SOL    HW221631   2.278   5.602   2.712
 6558SOL     OW21632   3.657   4.790   2.735
 6558SOL    HW121633   3.595   4.775   2.659
 6558SOL    HW221634   3.605   4.801   2.820
 6559SOL     OW21635   3.089   5.274   3.368
 6559SOL    HW121636   3.095   5.197   3.432
 6559SOL    HW221637   3.037   5.248   3.288
 6560SOL     OW21638   2.183   4.667   2.104
 6560SOL    HW121639   2.265   4.706   2.062
 6560SOL    HW221640   2.156   4.585   2.055
 6561SOL     OW21641   3.320   4.459   2.590
 6561SOL    HW121642   3.315   4.394   2.665
 6561SOL    HW221643   3.400   4.518   2.603
 6562SOL     OW21644   2.323   4.990   3.589
 6562SOL    HW121645   2.273   4.991   3.503
 6562SOL    HW221646   2.260   4.972   3.665
 6563SOL     OW21647   2.973   5.500   2.099
 6563SOL    HW121648   2.913   5.438   2.149
 6563SOL    HW221649   3.004   5.456   2.014
 6564SOL     OW21650   2.064   4.009   3.360
 6564SOL    HW121651   1.984   4.069   3.347
 6564SOL    HW221652   2.054   3.960   3.446
 6565SOL     OW21653   3.494   5.101   1.943
 6565SOL    HW121654   3.462   5.195   1.933
 6565SOL    HW221655   3.418   5.038   1.931
 6566SOL     OW21656   2.326   5.467   2.185
 6566SOL    HW121657   2.359   5.506   2.271
 6566SOL    HW221658   2.402   5.460   2.120
 6567SOL     OW21659   3.262   3.831   2.288
 6567SOL    HW121660   3.238   3.794   2.198
 6567SOL    HW221661   3.361   3.847   2.292
 6568SOL     OW21662   2.111   5.509   3.103
 6568SOL    HW121663   2.168   5.444   3.153
 6568SOL    HW221664   2.095   5.476   3.010
 6569SOL     OW21665   2.802   5.422   2.766
 6569SOL    HW121666   2.882   5.365   2.787
 6569SOL    HW221667   2.753   5.382   2.689
 6570SOL     OW21668   2.244   4.424   2.342
 6570SOL    HW121669   2.289   4.334   2.339
 6570SOL    HW221670   2.150   4.413   2.375
 6571SOL     OW21671   3.409   3.946   3.591
 6571SOL    HW121672   3.404   3.983   3.683
 6571SOL    HW221673   3.337   3.877   3.579
 6572SOL     OW21674   2.476   3.846   1.979
 6572SOL    HW121675   2.574   3.824   1.986
 6572SOL    HW221676   2.445   3.829   1.886
 6573SOL     OW21677   2.643   3.988   3.611
 6573SOL    HW121678   2.710   3.927   3.654
 6573SOL    HW221679   2.570   4.007   3.676
 6574SOL     OW21680   2.750   5.238   3.057
 6574SOL    HW121681   2.727   5.213   2.963
 6574SOL    HW221682   2.811   5.169   3.096
 6575SOL     OW21683   3.213   4.314   3.295
 6575SOL    HW121684   3.241   4.271   3.380
 6575SOL    HW221685   3.238   4.410   3.296
 6576SOL     OW21686   2.784   4.227   2.761
 6576SOL    HW121687   2.759   4.218   2.665
 6576SOL    HW221688   2.832   4.145   2.792
 6577SOL     OW21689   2.401   3.788   2.374
 6577SOL    HW121690   2.320   3.789   2.432
 6577SOL    HW221691   2.404   3.871   2.319
 6578SOL     OW21692   3.296   4.912   1.903
 6578SOL    HW121693   3.328   4.836   1.960
 6578SOL    HW221694   3.204   4.939   1.933
 6579SOL     OW21695   2.159   3.759   2.033
 6579SOL    HW121696   2.208   3.843   2.012
 6579SOL    HW221697   2.221   3.694   2.078
 6580SOL     OW21698   2.797   3.960   2.342
 6580SOL    HW121699   2.749   4.001   2.264
 6580SOL    HW221700   2.896   3.958   2.323
 6581SOL     OW21701   2.938   4.407   3.326
 6581SOL    HW121702   2.858   4.346   3.329
 6581SOL    HW221703   3.019   4.354   3.302
 6582SOL     OW21704   3.089   5.294   2.655
 6582SOL    HW121705   3.110   5.368   2.590
 6582SOL    HW221706   3.157   5.294   2.728
 6583SOL     OW21707   3.133   5.521   2.453
 6583SOL    HW121708   3.177   5.585   2.389
 6583SOL    HW221709   3.083   5.573   2.523
 6584SOL     OW21710   2.894   4.273   1.878
 6584SOL    HW121711   2.853   4.355   1.839
 6584SOL    HW221712   2.958   4.299   1.951
 6585SOL     OW21713   1.940   4.280   3.248
 6585SOL    HW121714   2.032   4.279   3.207
 6585SOL    HW221715   1.934   4.354   3.315
 6586SOL     OW21716   2.423   3.946   3.009
 6586SOL    HW121717   2.461   3.862   3.046
 6586SOL    HW221718   2.335   3.965   3.053
 6587SOL     OW21719   2.728   4.178   2.504
 6587SOL    HW121720   2.696   4.250   2.442
 6587SOL    HW221721   2.752   4.097   2.451
 6588SOL     OW21722   2.879   3.763   2.615
 6588SOL    HW121723   2.807   3.768   2.546
 6588SOL    HW221724   2.855   3.694   2.684
 6589SOL     OW21725   3.291   4.897   2.729
 6589SOL    HW121726   3.236   4.813   2.722
 6589SOL    HW221727   3.317   4.926   2.637
 6590SOL     OW21728   3.328   4.314   2.854
 6590SOL    HW121729   3.298   4.219   2.861
 6590SOL    HW221730   3.401   4.330   2.920
 6591SOL     OW21731   3.719   4.557   2.239
 6591SOL    HW121732   3.761   4.493   2.303
 6591SOL    HW221733   3.681   4.506   2.161
 6592SOL     OW21734   2.350   5.109   2.036
 6592SOL    HW121735   2.263   5.094   2.083
 6592SOL    HW221736   2.333   5.135   1.941
 6593SOL     OW21737   3.526   5.004   2.519
 6593SOL    HW121738   3.625   5.012   2.533
 6593SOL    HW221739   3.481   5.088   2.550
 6594SOL     OW21740   3.252   4.299   1.940
 6594SOL    HW121741   3.198   4.278   2.021
 6594SOL    HW221742   3.343   4.258   1.949
 6595SOL     OW21743   2.389   3.980   2.190
 6595SOL    HW121744   2.416   3.921   2.115
 6595SOL    HW221745   2.389   4.075   2.159
 6596SOL     OW21746   3.616   4.947   3.450
 6596SOL    HW121747   3.707   4.908   3.437
 6596SOL    HW221748   3.624   5.043   3.474
 6597SOL     OW21749   2.926   5.071   3.202
 6597SOL    HW121750   2.846   5.048   3.257
 6597SOL    HW221751   3.009   5.045   3.251
 6598SOL     OW21752   3.454   5.353   3.487
 6598SOL    HW121753   3.481   5.387   3.397
 6598SOL    HW221754   3.533   5.315   3.533
 6599SOL     OW21755   2.973   4.919   2.962
 6599SOL    HW121756   2.933   4.963   3.043
 6599SOL    HW221757   2.932   4.956   2.879
 6600SOL     OW21758   3.500   4.823   2.941
 6600SOL    HW121759   3.505   4.904   3.000
 6600SOL    HW221760   3.414   4.825   2.890
 6601SOL     OW21761   2.777   3.813   3.264
 6601SOL    HW121762   2.802   3.793   3.169
 6601SOL    HW221763   2.849   3.869   3.306
 6602SOL     OW21764   2.842   4.840   3.581
 6602SOL    HW121765   2.743   4.846   3.591
 6602SOL    HW221766   2.865   4.760   3.525
 6603SOL     OW21767   2.567   4.774   2.230
 6603SOL    HW121768   2.553   4.781   2.329
 6603SOL    HW221769   2.651   4.723   2.212
 6604SOL     OW21770   2.272   4.537   3.113
 6604SOL    HW121771   2.358   4.549   3.163
 6604SOL    HW221772   2.230   4.450   3.140
 6605SOL     OW21773   3.136   4.110   3.124
 6605SOL    HW121774   3.157   4.184   3.188
 6605SOL    HW221775   3.047   4.127   3.081
 6606SOL     OW21776   1.926   5.288   3.193
 6606SOL    HW121777   1.880   5.370   3.159
 6606SOL    HW221778   2.024   5.307   3.202
 6607SOL     OW21779   2.229   4.824   2.363
 6607SOL    HW121780   2.222   4.907   2.307
 6607SOL    HW221781   2.233   4.744   2.303
 6608SOL     OW21782   2.428   4.261   2.727
 6608SOL    HW121783   2.440   4.327   2.653
 6608SOL    HW221784   2.474   4.295   2.810
 6609SOL     OW21785   3.114   5.072   2.250
 6609SOL    HW121786   3.164   5.149   2.290
 6609SOL    HW221787   3.019   5.074   2.282
 6610SOL     OW21788   3.134   5.169   3.004
 6610SOL    HW121789   3.181   5.182   3.091
 6610SOL    HW221790   3.068   5.095   3.013
 6611SOL     OW21791   3.444   4.363   2.334
 6611SOL    HW121792   3.413   4.424   2.407
 6611SOL    HW221793   3.494   4.415   2.265
 6612SOL     OW21794   2.216   5.234   3.191
 6612SOL    HW121795   2.195   5.190   3.104
 6612SOL    HW221796   2.313   5.260   3.194
 6613SOL     OW21797   2.264   4.475   3.460
 6613SOL    HW121798   2.332   4.530   3.413
 6613SOL    HW221799   2.304   4.387   3.487
 6614SOL     OW21800   3.449   4.503   3.532
 6614SOL    HW121801   3.357   4.541   3.527
 6614SOL    HW221802   3.509   4.550   3.467
 6615SOL     OW21803   2.875   3.829   3.632
 6615SOL    HW121804   2.881   3.914   3.580
 6615SOL    HW221805   2.907   3.753   3.575
 6616SOL     OW21806   2.366   3.774   3.602
 6616SOL    HW121807   2.324   3.717   3.532
 6616SOL    HW221808   2.300   3.843   3.634
 6617SOL     OW21809   2.435   4.594   2.891
 6617SOL    HW121810   2.479   4.683   2.882
 6617SOL    HW221811   2.372   4.594   2.968
 6618SOL     OW21812   3.222   4.586   2.907
 6618SOL    HW121813   3.147   4.586   2.841
 6618SOL    HW221814   3.259   4.494   2.916
 6619SOL     OW21815   3.071   4.249   2.137
 6619SOL    HW121816   3.084   4.165   2.191
 6619SOL    HW221817   3.042   4.323   2.197
 6620SOL     OW21818   2.169   3.937   3.093
 6620SOL    HW121819   2.146   3.974   3.183
 6620SOL    HW221820   2.139   3.842   3.087
 6621SOL     OW21821   1.899   5.034   3.144
 6621SOL    HW121822   1.952   4.985   3.212
 6621SOL    HW221823   1.921   5.132   3.149
 6622SOL     OW21824   2.594   4.358   2.926
 6622SOL    HW121825   2.653   4.332   2.850
 6622SOL    HW221826   2.566   4.454   2.915
 6623SOL     OW21827   3.590   4.659   3.716
 6623SOL    HW121828   3.544   4.652   3.627
 6623SOL    HW221829   3.528   4.703   3.782
 6624SOL     OW21830   2.169   3.787   2.480
 6624SOL    HW121831   2.158   3.881   2.513
 6624SOL    HW221832   2.164   3.724   2.557
 6625SOL     OW21833   3.484   4.091   2.236
 6625SOL    HW121834   3.486   4.015   2.300
 6625SOL    HW221835   3.436   4.168   2.276
 6626SOL     OW21836   2.885   4.490   2.828
 6626SOL    HW121837   2.900   4.511   2.924
 6626SOL    HW221838   2.855   4.395   2.819
 6627SOL     OW21839   2.842   5.297   3.562
 6627SOL    HW121840   2.822   5.341   3.474
 6627SOL    HW221841   2.881   5.206   3.546
 6628SOL     OW21842   3.721   5.242   3.467
 6628SOL    HW121843   3.735   5.269   3.372
 6628SOL    HW221844   3.804   5.264   3.520
 6629SOL     OW21845   2.212   4.622   3.666
 6629SOL    HW121846   2.288   4.666   3.714
 6629SOL    HW221847   2.247   4.575   3.584
 6630SOL     OW21848   3.402   3.998   1.987
 6630SOL    HW121849   3.341   3.923   2.010
 6630SOL    HW221850   3.424   4.050   2.070
 6631SOL     OW21851   3.165   4.562   1.904
 6631SOL    HW121852   3.199   4.469   1.919
 6631SOL    HW221853   3.183   4.589   1.809
 6632SOL     OW21854   2.930   5.057   2.711
 6632SOL    HW121855   2.937   4.973   2.656
 6632SOL    HW221856   2.992   5.126   2.675
 6633SOL     OW21857   2.181   4.534   2.811
 6633SOL    HW121858   2.274   4.570   2.816
 6633SOL    HW221859   2.175   4.449   2.863
 6634SOL     OW21860   2.201   4.233   2.868
 6634SOL    HW121861   2.149   4.150   2.851
 6634SOL    HW221862   2.278   4.238   2.804
 6635SOL     OW21863   2.373   4.139   3.670
 6635SOL    HW121864   2.355   4.184   3.758
 6635SOL    HW221865   2.415   4.204   3.607
 6636SOL     OW21866   3.000   4.104   3.540
 6636SOL    HW121867   2.955   4.167   3.604
 6636SOL    HW221868   3.093   4.135   3.523
 6637SOL     OW21869   3.022   3.931   3.339
 6637SOL    HW121870   3.022   3.995   3.416
 6637SOL    HW221871   3.050   3.979   3.256
 6638SOL     OW21872   1.870   5.050   2.062
 6638SOL    HW121873   1.777   5.071   2.031
 6638SOL    HW221874   1.880   4.951   2.075
 6639SOL     OW21875   1.950   5.525   2.789
 6639SOL    HW121876   1.908   5.439   2.762
 6639SOL    HW221877   2.044   5.528   2.755
 6640SOL     OW21878   2.366   5.292   2.772
 6640SOL    HW121879   2.432   5.366   2.781
 6640SOL    HW221880   2.410   5.213   2.730
 6641SOL     OW21881   2.864   4.520   3.100
 6641SOL    HW121882   2.905   4.488   3.186
 6641SOL    HW221883   2.768   4.493   3.097
 6642SOL     OW21884   1.902   4.268   2.976
 6642SOL    HW121885   1.987   4.235   2.935
 6642SOL    HW221886   1.915   4.283   3.074
 6643SOL     OW21887   2.051   4.244   3.584
 6643SOL    HW121888   2.110   4.204   3.514
 6643SOL    HW221889   1.993   4.315   3.543
 6644SOL     OW21890   3.231   4.674   3.522
 6644SOL    HW121891   3.270   4.763   3.542
 6644SOL    HW221892   3.241   4.654   3.425
 6645SOL     OW21893   2.677   4.296   2.187
 6645SOL    HW121894   2.684   4.207   2.141
 6645SOL    HW221895   2.583   4.330   2.179
 6646SOL     OW21896   3.519   4.328   3.068
 6646SOL    HW121897   3.481   4.259   3.130
 6646SOL    HW221898   3.601   4.292   3.024
 6647SOL     OW21899   2.114   5.288   3.606
 6647SOL    HW121900   2.084   5.345   3.682
 6647SOL    HW221901   2.107   5.191   3.632
 6648SOL     OW21902   2.533   4.188   3.131
 6648SOL    HW121903   2.499   4.099   3.101
 6648SOL    HW221904   2.559   4.242   3.051
 6649SOL     OW21905   2.792   5.402   3.327
 6649SOL    HW121906   2.768   5.384   3.232
 6649SOL    HW221907   2.822   5.496   3.337
 6650SOL     OW21908   2.335   4.224   2.053
 6650SOL    HW121909   2.396   4.304   2.057
 6650SOL    HW221910   2.240   4.255   2.060
 6651SOL     OW21911   2.021   4.861   3.328
 6651SOL    HW121912   2.043   4.800   3.404
 6651SOL    HW221913   2.031   4.812   3.242
 6652SOL     OW21914   3.209   4.783   3.096
 6652SOL    HW121915   3.233   4.720   3.022
 6652SOL    HW221916   3.119   4.823   3.078
 6653SOL     OW21917   3.164   4.579   2.171
 6653SOL    HW121918   3.078   4.548   2.213
 6653SOL    HW221919   3.160   4.565   2.072
 6654SOL     OW21920   3.621   5.471   3.016
 6654SOL    HW121921   3.682   5.501   2.943
 6654SOL    HW221922   3.583   5.382   2.994
 6655SOL     OW21923   3.114   5.455   2.990
 6655SOL    HW121924   3.198   5.460   2.936
 6655SOL    HW221925   3.091   5.359   3.008
 6656SOL     OW21926   2.550   5.386   3.578
 6656SOL    HW121927   2.494   5.467   3.587
 6656SOL    HW221928   2.602   5.390   3.492
 6657SOL     OW21929   2.765   3.810   1.995
 6657SOL    HW121930   2.816   3.811   1.909
 6657SOL    HW221931   2.821   3.768   2.066
 6658SOL     OW21932   3.588   3.859   2.385
 6658SOL    HW121933   3.661   3.842   2.318
 6658SOL    HW221934   3.557   3.772   2.423
 6659SOL     OW21935   3.250   5.297   2.339
 6659SOL    HW121936   3.317   5.309   2.265
 6659SOL    HW221937   3.210   5.386   2.362
 6660SOL     OW21938   1.992   5.518   3.713
 6660SOL    HW121939   1.951   5.444   3.766
 6660SOL    HW221940   2.056   5.569   3.771
 6661SOL     OW21941   3.142   4.651   2.534
 6661SOL    HW121942   3.202   4.570   2.536
 6661SOL    HW221943   3.182   4.720   2.474
 6662SOL     OW21944   2.692   4.997   3.284
 6662SOL    HW121945   2.687   5.030   3.379
 6662SOL    HW221946   2.606   5.016   3.238
 6663SOL     OW21947   2.534   5.340   2.016
 6663SOL    HW121948   2.543   5.350   1.917
 6663SOL    HW221949   2.494   5.251   2.037
 6664SOL     OW21950   3.512   5.444   3.256
 6664SOL    HW121951   3.565   5.454   3.172
 6664SOL    HW221952   3.485   5.534   3.290
 6665SOL     OW21953   3.703   3.899   2.825
 6665SOL    HW121954   3.742   3.814   2.789
 6665SOL    HW221955   3.605   3.901   2.806
 6666SOL     OW21956   2.125   4.050   2.582
 6666SOL    HW121957   2.046   4.101   2.548
 6666SOL    HW221958   2.116   4.035   2.680
 6667SOL     OW21959   3.056   5.336   1.893
 6667SOL    HW121960   3.062   5.243   1.930
 6667SOL    HW221961   2.997   5.336   1.813
 6668SOL     OW21962   2.684   4.726   3.234
 6668SOL    HW121963   2.724   4.725   3.142
 6668SOL    HW221964   2.694   4.818   3.274
 6669SOL     OW21965   2.778   4.634   2.153
 6669SOL    HW121966   2.841   4.672   2.085
 6669SOL    HW221967   2.818   4.551   2.192
 6670SOL     OW21968   3.366   5.331   1.906
 6670SOL    HW121969   3.274   5.368   1.913
 6670SOL    HW221970   3.404   5.351   1.816
 6671SOL     OW21971   2.234   5.012   3.352
 6671SOL    HW121972   2.221   5.105   3.318
 6671SOL    HW221973   2.150   4.960   3.339
 6672SOL     OW21974   3.476   5.016   3.151
 6672SOL    HW121975   3.536   5.019   3.231
 6672SOL    HW221976   3.401   5.080   3.164
 6673SOL     OW21977   2.901   4.822   2.558
 6673SOL    HW121978   2.831   4.775   2.612
 6673SOL    HW221979   2.960   4.754   2.515
 6674SOL     OW21980   2.876   3.960   2.833
 6674SOL    HW121981   2.868   3.924   2.740
 6674SOL    HW221982   2.874   3.884   2.898
 6675SOL     OW21983   2.452   5.211   2.353
 6675SOL    HW121984   2.494   5.153   2.283
 6675SOL    HW221985   2.408   5.290   2.309
 6676SOL     OW21986   3.571   4.109   3.243
 6676SOL    HW121987   3.644   4.178   3.247
 6676SOL    HW221988   3.599   4.034   3.184
 6677SOL     OW21989   2.117   5.072   2.152
 6677SOL    HW121990   2.021   5.073   2.125
 6677SOL    HW221991   2.129   5.125   2.236
 6678SOL     OW21992   1.967   4.737   3.588
 6678SOL    HW121993   1.890   4.704   3.642
 6678SOL    HW221994   2.052   4.707   3.630
 6679SOL     OW21995   2.534   3.927   3.351
 6679SOL    HW121996   2.624   3.911   3.311
 6679SOL    HW221997   2.542   3.932   3.450
 6680SOL     OW21998   1.937   4.069   1.895
 6680SOL    HW121999   1.845   4.041   1.866
 6680SOL    HW222000   1.968   4.146   1.839
 6681SOL     OW22001   3.302   4.580   3.260
 6681SOL    HW122002   3.245   4.632   3.197
 6681SOL    HW222003   3.398   4.592   3.236
 6682SOL     OW22004   1.934   3.890   2.180
 6682SOL    HW122005   1.917   3.973   2.126
 6682SOL    HW222006   2.024   3.853   2.158
 6683SOL     OW22007   3.045   5.059   1.981
 6683SOL    HW122008   2.946   5.048   1.983
 6683SOL    HW222009   3.079   5.074   2.074
 6684SOL     OW22010   2.475   4.566   3.293
 6684SOL    HW122011   2.531   4.647   3.276
 6684SOL    HW222012   2.534   4.486   3.296
 6685SOL     OW22013   2.578   4.289   3.570
 6685SOL    HW122014   2.597   4.354   3.644
 6685SOL    HW222015   2.638   4.209   3.579
 6686SOL     OW22016   3.312   4.944   3.495
 6686SOL    HW122017   3.303   4.934   3.594
 6686SOL    HW222018   3.408   4.937   3.469
 6687SOL     OW22019   2.252   5.465   3.422
 6687SOL    HW122020   2.161   5.506   3.420
 6687SOL    HW222021   2.245   5.371   3.454
 6688SOL     OW22022   3.536   4.607   3.116
 6688SOL    HW122023   3.509   4.518   3.079
 6688SOL    HW222024   3.537   4.675   3.043
 6689SOL     OW22025   3.087   4.049   2.311
 6689SOL    HW122026   3.152   3.975   2.300
 6689SOL    HW222027   3.107   4.099   2.395
 6690SOL     OW22028   2.456   4.469   2.514
 6690SOL    HW122029   2.506   4.554   2.495
 6690SOL    HW222030   2.368   4.471   2.466
 6691SOL     OW22031   3.639   4.066   3.504
 6691SOL    HW122032   3.622   4.097   3.410
 6691SOL    HW222033   3.555   4.029   3.542
 6692SOL     OW22034   3.592   4.658   3.379
 6692SOL    HW122035   3.630   4.749   3.394
 6692SOL    HW222036   3.584   4.641   3.280
 6693SOL     OW22037   2.721   5.098   1.878
 6693SOL    HW122038   2.675   5.113   1.966
 6693SOL    HW222039   2.765   5.183   1.848
 6694SOL     OW22040   2.523   5.514   2.815
 6694SOL    HW122041   2.477   5.602   2.802
 6694SOL    HW222042   2.622   5.526   2.808
 6695SOL     OW22043   3.270   5.575   3.582
 6695SOL    HW122044   3.174   5.564   3.555
 6695SOL    HW222045   3.326   5.508   3.534
 6696SOL     OW22046   2.721   4.680   2.723
 6696SOL    HW122047   2.775   4.611   2.771
 6696SOL    HW222048   2.689   4.749   2.789
 6697SOL     OW22049   2.945   4.708   1.949
 6697SOL    HW122050   2.922   4.761   1.867
 6697SOL    HW222051   3.026   4.652   1.930
 6698SOL     OW22052   3.723   5.293   2.713
 6698SOL    HW122053   3.652   5.281   2.643
 6698SOL    HW222054   3.724   5.214   2.773
 6699SOL     OW22055   2.083   5.038   3.706
 6699SOL    HW122056   2.018   4.965   3.685
 6699SOL    HW222057   2.087   5.052   3.804
 6700SOL     OW22058   1.941   4.964   2.515
 6700SOL    HW122059   1.940   4.917   2.603
 6700SOL    HW222060   2.023   4.936   2.464
 6701SOL     OW22061   2.534   5.115   3.486
 6701SOL    HW122062   2.456   5.065   3.524
 6701SOL    HW222063   2.531   5.210   3.517
 6702SOL     OW22064   3.686   3.916   3.089
 6702SOL    HW122065   3.682   3.826   3.133
 6702SOL    HW222066   3.689   3.905   2.990
 6703SOL     OW22067   2.290   4.148   2.382
 6703SOL    HW122068   2.320   4.076   2.320
 6703SOL    HW222069   2.251   4.108   2.465
 6704SOL     OW22070   3.567   5.211   2.966
 6704SOL    HW122071   3.474   5.186   2.939
 6704SOL    HW222072   3.593   5.161   3.048
 6705SOL     OW22073   2.179   4.271   3.142
 6705SOL    HW122074   2.217   4.212   3.214
 6705SOL    HW222075   2.219   4.245   3.054
 6706SOL     OW22076   2.674   5.310   2.549
 6706SOL    HW122077   2.706   5.320   2.455
 6706SOL    HW222078   2.595   5.248   2.551
 6707SOL     OW22079   3.286   3.938   2.974
 6707SOL    HW122080   3.338   3.873   3.029
 6707SOL    HW222081   3.237   4.001   3.035
 6708SOL     OW22082   2.863   3.758   3.016
 6708SOL    HW122083   2.800   3.686   2.985
 6708SOL    HW222084   2.956   3.722   3.016
 6709SOL     OW22085   2.632   5.054   2.163
 6709SOL    HW122086   2.586   4.967   2.180
 6709SOL    HW222087   2.723   5.051   2.204
 6710SOL     OW22088   2.480   5.291   3.146
 6710SOL    HW122089   2.475   5.373   3.203
 6710SOL    HW222090   2.569   5.288   3.101
 6711SOL     OW22091   3.214   3.776   2.030
 6711SOL    HW122092   3.249   3.735   1.946
 6711SOL    HW222093   3.124   3.738   2.050
 6712SOL     OW22094   3.162   4.177   2.553
 6712SOL    HW122095   3.103   4.257   2.557
 6712SOL    HW222096   3.177   4.142   2.646
 6713SOL     OW22097   3.455   3.945   2.744
 6713SOL    HW122098   3.371   3.944   2.798
 6713SOL    HW222099   3.457   4.028   2.688
 6714SOL     OW22100   1.901   4.801   2.162
 6714SOL    HW122101   2.000   4.790   2.153
 6714SOL    HW222102   1.861   4.715   2.194
 6715SOL     OW22103   2.092   4.352   3.837
 6715SOL    HW122104   1.999   4.350   3.874
 6715SOL    HW222105   2.093   4.313   3.745
 6716SOL     OW22106   2.087   3.999   4.720
 6716SOL    HW122107   2.122   3.982   4.812
 6716SOL    HW222108   1.999   3.954   4.708
 6717SOL     OW22109   1.881   4.092   4.371
 6717SOL    HW122110   1.799   4.135   4.410
 6717SOL    HW222111   1.853   4.019   4.308
 6718SOL     OW22112   2.431   4.999   4.889
 6718SOL    HW122113   2.338   4.992   4.852
 6718SOL    HW222114   2.442   5.088   4.933
 6719SOL     OW22115   3.417   5.235   4.427
 6719SOL    HW122116   3.360   5.219   4.508
 6719SOL    HW222117   3.358   5.245   4.347
 6720SOL     OW22118   3.605   4.342   4.580
 6720SOL    HW122119   3.638   4.436   4.580
 6720SOL    HW222120   3.656   4.288   4.646
 6721SOL     OW22121   2.997   4.427   4.441
 6721SOL    HW122122   3.054   4.505   4.416
 6721SOL    HW222123   2.937   4.453   4.517
 6722SOL     OW22124   3.617   4.331   3.955
 6722SOL    HW122125   3.605   4.318   3.856
 6722SOL    HW222126   3.587   4.250   4.004
 6723SOL     OW22127   2.630   4.868   4.747
 6723SOL    HW122128   2.552   4.885   4.807
 6723SOL    HW222129   2.664   4.955   4.711
 6724SOL     OW22130   2.712   4.522   5.547
 6724SOL    HW122131   2.708   4.598   5.612
 6724SOL    HW222132   2.734   4.558   5.456
 6725SOL     OW22133   2.547   4.736   4.389
 6725SOL    HW122134   2.616   4.720   4.459
 6725SOL    HW222135   2.474   4.793   4.427
 6726SOL     OW22136   2.548   4.885   5.527
 6726SOL    HW122137   2.608   4.964   5.541
 6726SOL    HW222138   2.462   4.916   5.486
 6727SOL     OW22139   2.197   5.159   4.785
 6727SOL    HW122140   2.119   5.128   4.732
 6727SOL    HW222141   2.255   5.217   4.728
 6728SOL     OW22142   3.322   5.229   5.063
 6728SOL    HW122143   3.346   5.323   5.089
 6728SOL    HW222144   3.306   5.175   5.145
 6729SOL     OW22145   2.300   4.116   5.223
 6729SOL    HW122146   2.382   4.060   5.232
 6729SOL    HW222147   2.219   4.058   5.227
 6730SOL     OW22148   3.465   4.171   4.461
 6730SOL    HW122149   3.391   4.217   4.411
 6730SOL    HW222150   3.516   4.239   4.514
 6731SOL     OW22151   2.093   5.437   4.207
 6731SOL    HW122152   2.127   5.514   4.261
 6731SOL    HW222153   2.137   5.437   4.117
 6732SOL     OW22154   2.989   5.065   5.414
 6732SOL    HW122155   3.036   5.065   5.502
 6732SOL    HW222156   2.941   4.978   5.403
 6733SOL     OW22157   2.092   5.158   4.262
 6733SOL    HW122158   2.066   5.254   4.262
 6733SOL    HW222159   2.021   5.104   4.307
 6734SOL     OW22160   2.102   4.815   4.610
 6734SOL    HW122161   2.116   4.731   4.662
 6734SOL    HW222162   2.047   4.879   4.665
 6735SOL     OW22163   2.482   5.510   5.163
 6735SOL    HW122164   2.390   5.493   5.198
 6735SOL    HW222165   2.510   5.602   5.189
 6736SOL     OW22166   2.468   4.688   3.847
 6736SOL    HW122167   2.475   4.772   3.793
 6736SOL    HW222168   2.514   4.701   3.935
 6737SOL     OW22169   3.456   3.838   5.204
 6737SOL    HW122170   3.438   3.905   5.132
 6737SOL    HW222171   3.453   3.884   5.293
 6738SOL     OW22172   1.984   4.367   4.287
 6738SOL    HW122173   1.939   4.279   4.304
 6738SOL    HW222174   1.983   4.421   4.371
 6739SOL     OW22175   3.704   5.491   4.083
 6739SOL    HW122176   3.758   5.462   4.163
 6739SOL    HW222177   3.734   5.581   4.054
 6740SOL     OW22178   1.889   5.320   3.841
 6740SOL    HW122179   1.870   5.224   3.862
 6740SOL    HW222180   1.856   5.378   3.916
 6741SOL     OW22181   3.551   4.646   4.336
 6741SOL    HW122182   3.646   4.617   4.344
 6741SOL    HW222183   3.543   4.711   4.261
 6742SOL     OW22184   3.503   4.832   4.156
 6742SOL    HW122185   3.589   4.834   4.104
 6742SOL    HW222186   3.517   4.879   4.244
 6743SOL     OW22187   1.975   4.461   5.321
 6743SOL    HW122188   2.063   4.448   5.366
 6743SOL    HW222189   1.962   4.558   5.299
 6744SOL     OW22190   2.475   5.089   4.450
 6744SOL    HW122191   2.426   5.002   4.459
 6744SOL    HW222192   2.452   5.132   4.363
 6745SOL     OW22193   3.155   4.952   5.147
 6745SOL    HW122194   3.192   4.879   5.089
 6745SOL    HW222195   3.207   4.957   5.232
 6746SOL     OW22196   2.671   3.728   4.226
 6746SOL    HW122197   2.711   3.819   4.217
 6746SOL    HW222198   2.571   3.736   4.232
 6747SOL     OW22199   2.059   4.700   4.988
 6747SOL    HW122200   2.148   4.655   4.974
 6747SOL    HW222201   1.986   4.635   4.969
 6748SOL     OW22202   3.387   4.723   3.914
 6748SOL    HW122203   3.324   4.647   3.927
 6748SOL    HW222204   3.435   4.741   4.000
 6749SOL     OW22205   3.049   5.516   5.340
 6749SOL    HW122206   3.073   5.576   5.264
 6749SOL    HW222207   3.056   5.421   5.310
 6750SOL     OW22208   2.179   3.975   5.525
 6750SOL    HW122209   2.250   4.046   5.531
 6750SOL    HW222210   2.091   4.014   5.553
 6751SOL     OW22211   3.328   5.141   4.677
 6751SOL    HW122212   3.269   5.147   4.757
 6751SOL    HW222213   3.313   5.053   4.631
 6752SOL     OW22214   3.529   5.438   4.296
 6752SOL    HW122215   3.488   5.415   4.208
 6752SOL    HW222216   3.511   5.364   4.361
 6753SOL     OW22217   2.460   4.453   3.994
 6753SOL    HW122218   2.484   4.522   3.926
 6753SOL    HW222219   2.382   4.486   4.048
 6754SOL     OW22220   3.143   4.069   4.668
 6754SOL    HW122221   3.057   4.019   4.655
 6754SOL    HW222222   3.205   4.015   4.724
 6755SOL     OW22223   3.438   5.386   4.031
 6755SOL    HW122224   3.527   5.432   4.034
 6755SOL    HW222225   3.417   5.362   3.936
 6756SOL     OW22226   2.669   4.329   5.189
 6756SOL    HW122227   2.622   4.326   5.278
 6756SOL    HW222228   2.618   4.274   5.123
 6757SOL     OW22229   3.256   4.193   5.398
 6757SOL    HW122230   3.236   4.236   5.486
 6757SOL    HW222231   3.334   4.131   5.407
 6758SOL     OW22232   2.835   4.614   5.296
 6758SOL    HW122233   2.881   4.530   5.267
 6758SOL    HW222234   2.779   4.648   5.221
 6759SOL     OW22235   2.853   4.134   4.966
 6759SOL    HW122236   2.776   4.168   5.020
 6759SOL    HW222237   2.819   4.083   4.887
 6760SOL     OW22238   2.903   4.425   4.153
 6760SOL    HW122239   2.929   4.421   4.249
 6760SOL    HW222240   2.818   4.374   4.139
 6761SOL     OW22241   1.938   4.535   4.513
 6761SOL    HW122242   2.037   4.523   4.522
 6761SOL    HW222243   1.914   4.630   4.534
 6762SOL     OW22244   1.992   5.545   5.295
 6762SOL    HW122245   1.982   5.530   5.394
 6762SOL    HW222246   1.906   5.581   5.259
 6763SOL     OW22247   2.727   4.072   3.919
 6763SOL    HW122248   2.786   4.135   3.870
 6763SOL    HW222249   2.746   3.978   3.890
 6764SOL     OW22250   3.581   4.309   5.555
 6764SOL    HW122251   3.555   4.398   5.519
 6764SOL    HW222252   3.579   4.241   5.482
 6765SOL     OW22253   3.224   4.868   4.269
 6765SOL    HW122254   3.307   4.839   4.221
 6765SOL    HW222255   3.175   4.935   4.213
 6766SOL     OW22256   2.412   3.920   4.609
 6766SOL    HW122257   2.407   3.915   4.709
 6766SOL    HW222258   2.414   4.016   4.580
 6767SOL     OW22259   2.870   5.180   4.201
 6767SOL    HW122260   2.824   5.252   4.149
 6767SOL    HW222261   2.866   5.200   4.299
 6768SOL     OW22262   2.213   5.525   4.577
 6768SOL    HW122263   2.263   5.439   4.583
 6768SOL    HW222264   2.278   5.602   4.574
 6769SOL     OW22265   3.657   4.790   4.597
 6769SOL    HW122266   3.595   4.775   4.521
 6769SOL    HW222267   3.605   4.801   4.682
 6770SOL     OW22268   3.089   5.274   5.230
 6770SOL    HW122269   3.095   5.197   5.294
 6770SOL    HW222270   3.037   5.248   5.150
 6771SOL     OW22271   2.183   4.667   3.966
 6771SOL    HW122272   2.265   4.706   3.924
 6771SOL    HW222273   2.156   4.585   3.917
 6772SOL     OW22274   3.320   4.459   4.452
 6772SOL    HW122275   3.315   4.394   4.527
 6772SOL    HW222276   3.400   4.518   4.465
 6773SOL     OW22277   2.323   4.990   5.451
 6773SOL    HW122278   2.273   4.991   5.365
 6773SOL    HW222279   2.260   4.972   5.527
 6774SOL     OW22280   2.973   5.500   3.961
 6774SOL    HW122281   2.913   5.438   4.011
 6774SOL    HW222282   3.004   5.456   3.876
 6775SOL     OW22283   2.064   4.009   5.222
 6775SOL    HW122284   1.984   4.069   5.209
 6775SOL    HW222285   2.054   3.960   5.308
 6776SOL     OW22286   3.494   5.101   3.805
 6776SOL    HW122287   3.462   5.195   3.795
 6776SOL    HW222288   3.418   5.038   3.793
 6777SOL     OW22289   2.326   5.467   4.047
 6777SOL    HW122290   2.359   5.506   4.133
 6777SOL    HW222291   2.402   5.460   3.982
 6778SOL     OW22292   3.262   3.831   4.150
 6778SOL    HW122293   3.238   3.794   4.060
 6778SOL    HW222294   3.361   3.847   4.154
 6779SOL     OW22295   2.111   5.509   4.965
 6779SOL    HW122296   2.168   5.444   5.015
 6779SOL    HW222297   2.095   5.476   4.872
 6780SOL     OW22298   2.802   5.422   4.628
 6780SOL    HW122299   2.882   5.365   4.649
 6780SOL    HW222300   2.753   5.382   4.551
 6781SOL     OW22301   2.244   4.424   4.204
 6781SOL    HW122302   2.289   4.334   4.201
 6781SOL    HW222303   2.150   4.413   4.237
 6782SOL     OW22304   3.409   3.946   5.453
 6782SOL    HW122305   3.404   3.983   5.545
 6782SOL    HW222306   3.337   3.877   5.441
 6783SOL     OW22307   2.476   3.846   3.841
 6783SOL    HW122308   2.574   3.824   3.848
 6783SOL    HW222309   2.445   3.829   3.748
 6784SOL     OW22310   2.643   3.988   5.473
 6784SOL    HW122311   2.710   3.927   5.516
 6784SOL    HW222312   2.570   4.007   5.538
 6785SOL     OW22313   2.750   5.238   4.919
 6785SOL    HW122314   2.727   5.213   4.825
 6785SOL    HW222315   2.811   5.169   4.958
 6786SOL     OW22316   3.213   4.314   5.157
 6786SOL    HW122317   3.241   4.271   5.242
 6786SOL    HW222318   3.238   4.410   5.158
 6787SOL     OW22319   2.665   5.126   4.648
 6787SOL    HW122320   2.755   5.140   4.606
 6787SOL    HW222321   2.594   5.128   4.577
 6788SOL     OW22322   2.784   4.227   4.623
 6788SOL    HW122323   2.759   4.218   4.527
 6788SOL    HW222324   2.832   4.145   4.654
 6789SOL     OW22325   2.401   3.788   4.236
 6789SOL    HW122326   2.320   3.789   4.294
 6789SOL    HW222327   2.404   3.871   4.181
 6790SOL     OW22328   3.296   4.912   3.765
 6790SOL    HW122329   3.328   4.836   3.822
 6790SOL    HW222330   3.204   4.939   3.795
 6791SOL     OW22331   2.159   3.759   3.895
 6791SOL    HW122332   2.208   3.843   3.874
 6791SOL    HW222333   2.221   3.694   3.940
 6792SOL     OW22334   2.797   3.960   4.204
 6792SOL    HW122335   2.749   4.001   4.126
 6792SOL    HW222336   2.896   3.958   4.185
 6793SOL     OW22337   2.938   4.407   5.188
 6793SOL    HW122338   2.858   4.346   5.191
 6793SOL    HW222339   3.019   4.354   5.164
 6794SOL     OW22340   3.089   5.294   4.517
 6794SOL    HW122341   3.110   5.368   4.452
 6794SOL    HW222342   3.157   5.294   4.590
 6795SOL     OW22343   2.321   4.876   4.465
 6795SOL    HW122344   2.250   4.849   4.530
 6795SOL    HW222345   2.295   4.848   4.372
 6796SOL     OW22346   2.894   4.273   3.740
 6796SOL    HW122347   2.853   4.355   3.701
 6796SOL    HW222348   2.958   4.299   3.813
 6797SOL     OW22349   1.940   4.280   5.110
 6797SOL    HW122350   2.032   4.279   5.069
 6797SOL    HW222351   1.934   4.354   5.177
 6798SOL     OW22352   2.423   3.946   4.871
 6798SOL    HW122353   2.461   3.862   4.908
 6798SOL    HW222354   2.335   3.965   4.915
 6799SOL     OW22355   2.728   4.178   4.366
 6799SOL    HW122356   2.696   4.250   4.304
 6799SOL    HW222357   2.752   4.097   4.313
 6800SOL     OW22358   2.879   3.763   4.477
 6800SOL    HW122359   2.807   3.768   4.408
 6800SOL    HW222360   2.855   3.694   4.546
 6801SOL     OW22361   3.291   4.897   4.591
 6801SOL    HW122362   3.236   4.813   4.584
 6801SOL    HW222363   3.317   4.926   4.499
 6802SOL     OW22364   3.328   4.314   4.716
 6802SOL    HW122365   3.298   4.219   4.723
 6802SOL    HW222366   3.401   4.330   4.782
 6803SOL     OW22367   3.719   4.557   4.101
 6803SOL    HW122368   3.761   4.493   4.165
 6803SOL    HW222369   3.681   4.506   4.023
 6804SOL     OW22370   2.350   5.109   3.898
 6804SOL    HW122371   2.263   5.094   3.945
 6804SOL    HW222372   2.333   5.135   3.803
 6805SOL     OW22373   3.526   5.004   4.381
 6805SOL    HW122374   3.625   5.012   4.395
 6805SOL    HW222375   3.481   5.088   4.412
 6806SOL     OW22376   3.252   4.299   3.802
 6806SOL    HW122377   3.198   4.278   3.883
 6806SOL    HW222378   3.343   4.258   3.811
 6807SOL     OW22379   2.389   3.980   4.052
 6807SOL    HW122380   2.416   3.921   3.977
 6807SOL    HW222381   2.389   4.075   4.021
 6808SOL     OW22382   3.616   4.947   5.312
 6808SOL    HW122383   3.707   4.908   5.299
 6808SOL    HW222384   3.624   5.043   5.336
 6809SOL     OW22385   2.926   5.071   5.064
 6809SOL    HW122386   2.846   5.048   5.119
 6809SOL    HW222387   3.009   5.045   5.113
 6810SOL     OW22388   3.454   5.353   5.349
 6810SOL    HW122389   3.481   5.387   5.259
 6810SOL    HW222390   3.533   5.315   5.395
 6811SOL     OW22391   2.973   4.919   4.824
 6811SOL    HW122392   2.933   4.963   4.905
 6811SOL    HW222393   2.932   4.956   4.741
 6812SOL     OW22394   3.500   4.823   4.803
 6812SOL    HW122395   3.505   4.904   4.862
 6812SOL    HW222396   3.414   4.825   4.752
 6813SOL     OW22397   2.777   3.813   5.126
 6813SOL    HW122398   2.802   3.793   5.031
 6813SOL    HW222399   2.849   3.869   5.168
 6814SOL     OW22400   2.842   4.840   5.443
 6814SOL    HW122401   2.743   4.846   5.453
 6814SOL    HW222402   2.865   4.760   5.387
 6815SOL     OW22403   2.567   4.774   4.092
 6815SOL    HW122404   2.553   4.781   4.191
 6815SOL    HW222405   2.651   4.723   4.074
 6816SOL     OW22406   2.272   4.537   4.975
 6816SOL    HW122407   2.358   4.549   5.025
 6816SOL    HW222408   2.230   4.450   5.002
 6817SOL     OW22409   3.136   4.110   4.986
 6817SOL    HW122410   3.157   4.184   5.050
 6817SOL    HW222411   3.047   4.127   4.943
 6818SOL     OW22412   1.926   5.288   5.055
 6818SOL    HW122413   1.880   5.370   5.021
 6818SOL    HW222414   2.024   5.307   5.064
 6819SOL     OW22415   2.229   4.824   4.225
 6819SOL    HW122416   2.222   4.907   4.169
 6819SOL    HW222417   2.233   4.744   4.165
 6820SOL     OW22418   2.428   4.261   4.589
 6820SOL    HW122419   2.440   4.327   4.515
 6820SOL    HW222420   2.474   4.295   4.672
 6821SOL     OW22421   3.114   5.072   4.112
 6821SOL    HW122422   3.164   5.149   4.152
 6821SOL    HW222423   3.019   5.074   4.144
 6822SOL     OW22424   3.134   5.169   4.866
 6822SOL    HW122425   3.181   5.182   4.953
 6822SOL    HW222426   3.068   5.095   4.875
 6823SOL     OW22427   3.444   4.363   4.196
 6823SOL    HW122428   3.413   4.424   4.269
 6823SOL    HW222429   3.494   4.415   4.127
 6824SOL     OW22430   2.216   5.234   5.053
 6824SOL    HW122431   2.195   5.190   4.966
 6824SOL    HW222432   2.313   5.260   5.056
 6825SOL     OW22433   2.264   4.475   5.322
 6825SOL    HW122434   2.332   4.530   5.275
 6825SOL    HW222435   2.304   4.387   5.349
 6826SOL     OW22436   3.449   4.503   5.394
 6826SOL    HW122437   3.357   4.541   5.389
 6826SOL    HW222438   3.509   4.550   5.329
 6827SOL     OW22439   2.875   3.829   5.494
 6827SOL    HW122440   2.881   3.914   5.442
 6827SOL    HW222441   2.907   3.753   5.437
 6828SOL     OW22442   2.366   3.774   5.464
 6828SOL    HW122443   2.324   3.717   5.394
 6828SOL    HW222444   2.300   3.843   5.496
 6829SOL     OW22445   2.435   4.594   4.753
 6829SOL    HW122446   2.479   4.683   4.744
 6829SOL    HW222447   2.372   4.594   4.830
 6830SOL     OW22448   3.222   4.586   4.769
 6830SOL    HW122449   3.147   4.586   4.703
 6830SOL    HW222450   3.259   4.494   4.778
 6831SOL     OW22451   3.071   4.249   3.999
 6831SOL    HW122452   3.084   4.165   4.053
 6831SOL    HW222453   3.042   4.323   4.059
 6832SOL     OW22454   2.169   3.937   4.955
 6832SOL    HW122455   2.146   3.974   5.045
 6832SOL    HW222456   2.139   3.842   4.949
 6833SOL     OW22457   1.899   5.034   5.006
 6833SOL    HW122458   1.952   4.985   5.074
 6833SOL    HW222459   1.921   5.132   5.011
 6834SOL     OW22460   2.594   4.358   4.788
 6834SOL    HW122461   2.653   4.332   4.712
 6834SOL    HW222462   2.566   4.454   4.777
 6835SOL     OW22463   3.590   4.659   5.578
 6835SOL    HW122464   3.544   4.652   5.489
 6835SOL    HW222465   3.528   4.703   5.644
 6836SOL     OW22466   2.169   3.787   4.342
 6836SOL    HW122467   2.158   3.881   4.375
 6836SOL    HW222468   2.164   3.724   4.419
 6837SOL     OW22469   3.484   4.091   4.098
 6837SOL    HW122470   3.486   4.015   4.162
 6837SOL    HW222471   3.436   4.168   4.138
 6838SOL     OW22472   2.885   4.490   4.690
 6838SOL    HW122473   2.900   4.511   4.786
 6838SOL    HW222474   2.855   4.395   4.681
 6839SOL     OW22475   2.842   5.297   5.424
 6839SOL    HW122476   2.822   5.341   5.336
 6839SOL    HW222477   2.881   5.206   5.408
 6840SOL     OW22478   3.721   5.242   5.329
 6840SOL    HW122479   3.735   5.269   5.234
 6840SOL    HW222480   3.804   5.264   5.382
 6841SOL     OW22481   2.212   4.622   5.528
 6841SOL    HW122482   2.288   4.666   5.576
 6841SOL    HW222483   2.247   4.575   5.446
 6842SOL     OW22484   3.402   3.998   3.849
 6842SOL    HW122485   3.341   3.923   3.872
 6842SOL    HW222486   3.424   4.050   3.932
 6843SOL     OW22487   3.165   4.562   3.766
 6843SOL    HW122488   3.199   4.469   3.781
 6843SOL    HW222489   3.183   4.589   3.671
 6844SOL     OW22490   2.930   5.057   4.573
 6844SOL    HW122491   2.937   4.973   4.518
 6844SOL    HW222492   2.992   5.126   4.537
 6845SOL     OW22493   2.181   4.534   4.673
 6845SOL    HW122494   2.274   4.570   4.678
 6845SOL    HW222495   2.175   4.449   4.725
 6846SOL     OW22496   2.201   4.233   4.730
 6846SOL    HW122497   2.149   4.150   4.713
 6846SOL    HW222498   2.278   4.238   4.666
 6847SOL     OW22499   2.373   4.139   5.532
 6847SOL    HW122500   2.355   4.184   5.620
 6847SOL    HW222501   2.415   4.204   5.469
 6848SOL     OW22502   3.000   4.104   5.402
 6848SOL    HW122503   2.955   4.167   5.466
 6848SOL    HW222504   3.093   4.135   5.385
 6849SOL     OW22505   3.022   3.931   5.201
 6849SOL    HW122506   3.022   3.995   5.278
 6849SOL    HW222507   3.050   3.979   5.118
 6850SOL     OW22508   1.870   5.050   3.924
 6850SOL    HW122509   1.777   5.071   3.893
 6850SOL    HW222510   1.880   4.951   3.937
 6851SOL     OW22511   1.950   5.525   4.651
 6851SOL    HW122512   1.908   5.439   4.624
 6851SOL    HW222513   2.044   5.528   4.617
 6852SOL     OW22514   2.366   5.292   4.634
 6852SOL    HW122515   2.432   5.366   4.643
 6852SOL    HW222516   2.410   5.213   4.592
 6853SOL     OW22517   2.864   4.520   4.962
 6853SOL    HW122518   2.905   4.488   5.048
 6853SOL    HW222519   2.768   4.493   4.959
 6854SOL     OW22520   1.902   4.268   4.838
 6854SOL    HW122521   1.987   4.235   4.797
 6854SOL    HW222522   1.915   4.283   4.936
 6855SOL     OW22523   2.051   4.244   5.446
 6855SOL    HW122524   2.110   4.204   5.376
 6855SOL    HW222525   1.993   4.315   5.405
 6856SOL     OW22526   3.231   4.674   5.384
 6856SOL    HW122527   3.270   4.763   5.404
 6856SOL    HW222528   3.241   4.654   5.287
 6857SOL     OW22529   2.677   4.296   4.049
 6857SOL    HW122530   2.684   4.207   4.003
 6857SOL    HW222531   2.583   4.330   4.041
 6858SOL     OW22532   2.114   5.288   5.468
 6858SOL    HW122533   2.084   5.345   5.544
 6858SOL    HW222534   2.107   5.191   5.494
 6859SOL     OW22535   2.533   4.188   4.993
 6859SOL    HW122536   2.499   4.099   4.963
 6859SOL    HW222537   2.559   4.242   4.913
 6860SOL     OW22538   2.792   5.402   5.189
 6860SOL    HW122539   2.768   5.384   5.094
 6860SOL    HW222540   2.822   5.496   5.199
 6861SOL     OW22541   2.335   4.224   3.915
 6861SOL    HW122542   2.396   4.304   3.919
 6861SOL    HW222543   2.240   4.255   3.922
 6862SOL     OW22544   2.021   4.861   5.190
 6862SOL    HW122545   2.043   4.800   5.266
 6862SOL    HW222546   2.031   4.812   5.104
 6863SOL     OW22547   3.209   4.783   4.958
 6863SOL    HW122548   3.233   4.720   4.884
 6863SOL    HW222549   3.119   4.823   4.940
 6864SOL     OW22550   3.164   4.579   4.033
 6864SOL    HW122551   3.078   4.548   4.075
 6864SOL    HW222552   3.160   4.565   3.934
 6865SOL     OW22553   3.621   5.471   4.878
 6865SOL    HW122554   3.682   5.501   4.805
 6865SOL    HW222555   3.583   5.382   4.856
 6866SOL     OW22556   3.114   5.455   4.852
 6866SOL    HW122557   3.198   5.460   4.798
 6866SOL    HW222558   3.091   5.359   4.870
 6867SOL     OW22559   1.945   4.982   4.746
 6867SOL    HW122560   1.940   4.981   4.846
 6867SOL    HW222561   1.862   4.941   4.708
 6868SOL     OW22562   2.550   5.386   5.440
 6868SOL    HW122563   2.494   5.467   5.449
 6868SOL    HW222564   2.602   5.390   5.354
 6869SOL     OW22565   2.765   3.810   3.857
 6869SOL    HW122566   2.816   3.811   3.771
 6869SOL    HW222567   2.821   3.768   3.928
 6870SOL     OW22568   3.588   3.859   4.247
 6870SOL    HW122569   3.661   3.842   4.180
 6870SOL    HW222570   3.557   3.772   4.285
 6871SOL     OW22571   3.250   5.297   4.201
 6871SOL    HW122572   3.317   5.309   4.127
 6871SOL    HW222573   3.210   5.386   4.224
 6872SOL     OW22574   1.992   5.518   5.575
 6872SOL    HW122575   1.951   5.444   5.628
 6872SOL    HW222576   2.056   5.569   5.633
 6873SOL     OW22577   3.142   4.651   4.396
 6873SOL    HW122578   3.202   4.570   4.398
 6873SOL    HW222579   3.182   4.720   4.336
 6874SOL     OW22580   2.692   4.997   5.146
 6874SOL    HW122581   2.687   5.030   5.241
 6874SOL    HW222582   2.606   5.016   5.100
 6875SOL     OW22583   2.534   5.340   3.878
 6875SOL    HW122584   2.543   5.350   3.779
 6875SOL    HW222585   2.494   5.251   3.899
 6876SOL     OW22586   3.512   5.444   5.118
 6876SOL    HW122587   3.565   5.454   5.034
 6876SOL    HW222588   3.485   5.534   5.152
 6877SOL     OW22589   2.125   4.050   4.444
 6877SOL    HW122590   2.046   4.101   4.410
 6877SOL    HW222591   2.116   4.035   4.542
 6878SOL     OW22592   3.056   5.336   3.755
 6878SOL    HW122593   3.062   5.243   3.792
 6878SOL    HW222594   2.997   5.336   3.675
 6879SOL     OW22595   2.684   4.726   5.096
 6879SOL    HW122596   2.724   4.725   5.004
 6879SOL    HW222597   2.694   4.818   5.136
 6880SOL     OW22598   2.778   4.634   4.015
 6880SOL    HW122599   2.841   4.672   3.947
 6880SOL    HW222600   2.818   4.551   4.054
 6881SOL     OW22601   3.366   5.331   3.768
 6881SOL    HW122602   3.274   5.368   3.775
 6881SOL    HW222603   3.404   5.351   3.678
 6882SOL     OW22604   2.234   5.012   5.214
 6882SOL    HW122605   2.221   5.105   5.180
 6882SOL    HW222606   2.150   4.960   5.201
 6883SOL     OW22607   3.476   5.016   5.013
 6883SOL    HW122608   3.536   5.019   5.093
 6883SOL    HW222609   3.401   5.080   5.026
 6884SOL     OW22610   2.901   4.822   4.420
 6884SOL    HW122611   2.831   4.775   4.474
 6884SOL    HW222612   2.960   4.754   4.377
 6885SOL     OW22613   2.876   3.960   4.695
 6885SOL    HW122614   2.868   3.924   4.602
 6885SOL    HW222615   2.874   3.884   4.760
 6886SOL     OW22616   2.452   5.211   4.215
 6886SOL    HW122617   2.494   5.153   4.145
 6886SOL    HW222618   2.408   5.290   4.171
 6887SOL     OW22619   2.117   5.072   4.014
 6887SOL    HW122620   2.021   5.073   3.987
 6887SOL    HW222621   2.129   5.125   4.098
 6888SOL     OW22622   1.967   4.737   5.450
 6888SOL    HW122623   1.890   4.704   5.504
 6888SOL    HW222624   2.052   4.707   5.492
 6889SOL     OW22625   2.534   3.927   5.213
 6889SOL    HW122626   2.624   3.911   5.173
 6889SOL    HW222627   2.542   3.932   5.312
 6890SOL     OW22628   1.937   4.069   3.757
 6890SOL    HW122629   1.845   4.041   3.728
 6890SOL    HW222630   1.968   4.146   3.701
 6891SOL     OW22631   3.302   4.580   5.122
 6891SOL    HW122632   3.245   4.632   5.059
 6891SOL    HW222633   3.398   4.592   5.098
 6892SOL     OW22634   1.934   3.890   4.042
 6892SOL    HW122635   1.917   3.973   3.988
 6892SOL    HW222636   2.024   3.853   4.020
 6893SOL     OW22637   3.045   5.059   3.843
 6893SOL    HW122638   2.946   5.048   3.845
 6893SOL    HW222639   3.079   5.074   3.936
 6894SOL     OW22640   2.475   4.566   5.155
 6894SOL    HW122641   2.531   4.647   5.138
 6894SOL    HW222642   2.534   4.486   5.158
 6895SOL     OW22643   3.355   5.491   4.683
 6895SOL    HW122644   3.388   5.555   4.614
 6895SOL    HW222645   3.421   5.485   4.758
 6896SOL     OW22646   2.578   4.289   5.432
 6896SOL    HW122647   2.597   4.354   5.506
 6896SOL    HW222648   2.638   4.209   5.441
 6897SOL     OW22649   3.312   4.944   5.357
 6897SOL    HW122650   3.303   4.934   5.456
 6897SOL    HW222651   3.408   4.937   5.331
 6898SOL     OW22652   2.252   5.465   5.284
 6898SOL    HW122653   2.161   5.506   5.282
 6898SOL    HW222654   2.245   5.371   5.316
 6899SOL     OW22655   3.536   4.607   4.978
 6899SOL    HW122656   3.509   4.518   4.941
 6899SOL    HW222657   3.537   4.675   4.905
 6900SOL     OW22658   3.087   4.049   4.173
 6900SOL    HW122659   3.152   3.975   4.162
 6900SOL    HW222660   3.107   4.099   4.257
 6901SOL     OW22661   2.456   4.469   4.376
 6901SOL    HW122662   2.506   4.554   4.357
 6901SOL    HW222663   2.368   4.471   4.328
 6902SOL     OW22664   3.639   4.066   5.366
 6902SOL    HW122665   3.622   4.097   5.272
 6902SOL    HW222666   3.555   4.029   5.404
 6903SOL     OW22667   3.592   4.658   5.241
 6903SOL    HW122668   3.630   4.749   5.256
 6903SOL    HW222669   3.584   4.641   5.142
 6904SOL     OW22670   2.721   5.098   3.740
 6904SOL    HW122671   2.675   5.113   3.828
 6904SOL    HW222672   2.765   5.183   3.710
 6905SOL     OW22673   2.523   5.514   4.677
 6905SOL    HW122674   2.477   5.602   4.664
 6905SOL    HW222675   2.622   5.526   4.670
 6906SOL     OW22676   3.270   5.575   5.444
 6906SOL    HW122677   3.174   5.564   5.417
 6906SOL    HW222678   3.326   5.508   5.396
 6907SOL     OW22679   2.721   4.680   4.585
 6907SOL    HW122680   2.775   4.611   4.633
 6907SOL    HW222681   2.689   4.749   4.651
 6908SOL     OW22682   2.945   4.708   3.811
 6908SOL    HW122683   2.922   4.761   3.729
 6908SOL    HW222684   3.026   4.652   3.792
 6909SOL     OW22685   3.723   5.293   4.575
 6909SOL    HW122686   3.652   5.281   4.505
 6909SOL    HW222687   3.724   5.214   4.635
 6910SOL     OW22688   2.083   5.038   5.568
 6910SOL    HW122689   2.018   4.965   5.547
 6910SOL    HW222690   2.087   5.052   5.666
 6911SOL     OW22691   1.941   4.964   4.377
 6911SOL    HW122692   1.940   4.917   4.465
 6911SOL    HW222693   2.023   4.936   4.326
 6912SOL     OW22694   2.534   5.115   5.348
 6912SOL    HW122695   2.456   5.065   5.386
 6912SOL    HW222696   2.531   5.210   5.379
 6913SOL     OW22697   3.686   3.916   4.951
 6913SOL    HW122698   3.682   3.826   4.995
 6913SOL    HW222699   3.689   3.905   4.852
 6914SOL     OW22700   2.290   4.148   4.244
 6914SOL    HW122701   2.320   4.076   4.182
 6914SOL    HW222702   2.251   4.108   4.327
 6915SOL     OW22703   3.567   5.211   4.828
 6915SOL    HW122704   3.474   5.186   4.801
 6915SOL    HW222705   3.593   5.161   4.910
 6916SOL     OW22706   2.179   4.271   5.004
 6916SOL    HW122707   2.217   4.212   5.076
 6916SOL    HW222708   2.219   4.245   4.916
 6917SOL     OW22709   2.674   5.310   4.411
 6917SOL    HW122710   2.706   5.320   4.317
 6917SOL    HW222711   2.595   5.248   4.413
 6918SOL     OW22712   2.632   5.054   4.025
 6918SOL    HW122713   2.586   4.967   4.042
 6918SOL    HW222714   2.723   5.051   4.066
 6919SOL     OW22715   2.480   5.291   5.008
 6919SOL    HW122716   2.475   5.373   5.065
 6919SOL    HW222717   2.569   5.288   4.963
 6920SOL     OW22718   3.214   3.776   3.892
 6920SOL    HW122719   3.249   3.735   3.808
 6920SOL    HW222720   3.124   3.738   3.912
 6921SOL     OW22721   3.162   4.177   4.415
 6921SOL    HW122722   3.103   4.257   4.419
 6921SOL    HW222723   3.177   4.142   4.508
 6922SOL     OW22724   1.901   4.801   4.024
 6922SOL    HW122725   2.000   4.790   4.015
 6922SOL    HW222726   1.861   4.715   4.056
 6923SOL     OW22727   2.737   5.370   4.061
 6923SOL    HW122728   2.660   5.335   4.007
 6923SOL    HW222729   2.705   5.441   4.123
 6924SOL     OW22730   2.092   4.352   5.699
 6924SOL    HW122731   1.999   4.350   5.736
 6924SOL    HW222732   2.093   4.313   5.607
 6925SOL     OW22733   2.087   3.999   6.582
 6925SOL    HW122734   2.122   3.982   6.674
 6925SOL    HW222735   1.999   3.954   6.570
 6926SOL     OW22736   1.881   4.092   6.233
 6926SOL    HW122737   1.799   4.135   6.272
 6926SOL    HW222738   1.853   4.019   6.170
 6927SOL     OW22739   2.431   4.999   6.751
 6927SOL    HW122740   2.338   4.992   6.714
 6927SOL    HW222741   2.442   5.088   6.795
 6928SOL     OW22742   3.417   5.235   6.289
 6928SOL    HW122743   3.360   5.219   6.370
 6928SOL    HW222744   3.358   5.245   6.209
 6929SOL     OW22745   3.605   4.342   6.442
 6929SOL    HW122746   3.638   4.436   6.442
 6929SOL    HW222747   3.656   4.288   6.508
 6930SOL     OW22748   2.997   4.427   6.303
 6930SOL    HW122749   3.054   4.505   6.278
 6930SOL    HW222750   2.937   4.453   6.379
 6931SOL     OW22751   3.617   4.331   5.817
 6931SOL    HW122752   3.605   4.318   5.718
 6931SOL    HW222753   3.587   4.250   5.866
 6932SOL     OW22754   2.630   4.868   6.609
 6932SOL    HW122755   2.552   4.885   6.669
 6932SOL    HW222756   2.664   4.955   6.573
 6933SOL     OW22757   2.712   4.522   7.409
 6933SOL    HW122758   2.708   4.598   7.474
 6933SOL    HW222759   2.734   4.558   7.318
 6934SOL     OW22760   2.547   4.736   6.251
 6934SOL    HW122761   2.616   4.720   6.321
 6934SOL    HW222762   2.474   4.793   6.289
 6935SOL     OW22763   2.548   4.885   7.389
 6935SOL    HW122764   2.608   4.964   7.403
 6935SOL    HW222765   2.462   4.916   7.348
 6936SOL     OW22766   2.197   5.159   6.647
 6936SOL    HW122767   2.119   5.128   6.594
 6936SOL    HW222768   2.255   5.217   6.590
 6937SOL     OW22769   3.322   5.229   6.925
 6937SOL    HW122770   3.346   5.323   6.951
 6937SOL    HW222771   3.306   5.175   7.007
 6938SOL     OW22772   2.300   4.116   7.085
 6938SOL    HW122773   2.382   4.060   7.094
 6938SOL    HW222774   2.219   4.058   7.089
 6939SOL     OW22775   3.465   4.171   6.323
 6939SOL    HW122776   3.391   4.217   6.273
 6939SOL    HW222777   3.516   4.239   6.376
 6940SOL     OW22778   2.093   5.437   6.069
 6940SOL    HW122779   2.127   5.514   6.123
 6940SOL    HW222780   2.137   5.437   5.979
 6941SOL     OW22781   2.989   5.065   7.276
 6941SOL    HW122782   3.036   5.065   7.364
 6941SOL    HW222783   2.941   4.978   7.265
 6942SOL     OW22784   2.092   5.158   6.124
 6942SOL    HW122785   2.066   5.254   6.124
 6942SOL    HW222786   2.021   5.104   6.169
 6943SOL     OW22787   2.102   4.815   6.472
 6943SOL    HW122788   2.116   4.731   6.524
 6943SOL    HW222789   2.047   4.879   6.527
 6944SOL     OW22790   2.482   5.510   7.025
 6944SOL    HW122791   2.390   5.493   7.060
 6944SOL    HW222792   2.510   5.602   7.051
 6945SOL     OW22793   2.468   4.688   5.709
 6945SOL    HW122794   2.475   4.772   5.655
 6945SOL    HW222795   2.514   4.701   5.797
 6946SOL     OW22796   3.456   3.838   7.066
 6946SOL    HW122797   3.438   3.905   6.994
 6946SOL    HW222798   3.453   3.884   7.155
 6947SOL     OW22799   1.984   4.367   6.149
 6947SOL    HW122800   1.939   4.279   6.166
 6947SOL    HW222801   1.983   4.421   6.233
 6948SOL     OW22802   3.704   5.491   5.945
 6948SOL    HW122803   3.758   5.462   6.025
 6948SOL    HW222804   3.734   5.581   5.916
 6949SOL     OW22805   1.889   5.320   5.703
 6949SOL    HW122806   1.870   5.224   5.724
 6949SOL    HW222807   1.856   5.378   5.778
 6950SOL     OW22808   3.551   4.646   6.198
 6950SOL    HW122809   3.646   4.617   6.206
 6950SOL    HW222810   3.543   4.711   6.123
 6951SOL     OW22811   3.503   4.832   6.018
 6951SOL    HW122812   3.589   4.834   5.966
 6951SOL    HW222813   3.517   4.879   6.106
 6952SOL     OW22814   1.975   4.461   7.183
 6952SOL    HW122815   2.063   4.448   7.228
 6952SOL    HW222816   1.962   4.558   7.161
 6953SOL     OW22817   2.475   5.089   6.312
 6953SOL    HW122818   2.426   5.002   6.321
 6953SOL    HW222819   2.452   5.132   6.225
 6954SOL     OW22820   3.155   4.952   7.009
 6954SOL    HW122821   3.192   4.879   6.951
 6954SOL    HW222822   3.207   4.957   7.094
 6955SOL     OW22823   2.671   3.728   6.088
 6955SOL    HW122824   2.711   3.819   6.079
 6955SOL    HW222825   2.571   3.736   6.094
 6956SOL     OW22826   2.059   4.700   6.850
 6956SOL    HW122827   2.148   4.655   6.836
 6956SOL    HW222828   1.986   4.635   6.831
 6957SOL     OW22829   3.387   4.723   5.776
 6957SOL    HW122830   3.324   4.647   5.789
 6957SOL    HW222831   3.435   4.741   5.862
 6958SOL     OW22832   3.049   5.516   7.202
 6958SOL    HW122833   3.073   5.576   7.126
 6958SOL    HW222834   3.056   5.421   7.172
 6959SOL     OW22835   2.179   3.975   7.387
 6959SOL    HW122836   2.250   4.046   7.393
 6959SOL    HW222837   2.091   4.014   7.415
 6960SOL     OW22838   3.328   5.141   6.539
 6960SOL    HW122839   3.269   5.147   6.619
 6960SOL    HW222840   3.313   5.053   6.493
 6961SOL     OW22841   3.529   5.438   6.158
 6961SOL    HW122842   3.488   5.415   6.070
 6961SOL    HW222843   3.511   5.364   6.223
 6962SOL     OW22844   2.460   4.453   5.856
 6962SOL    HW122845   2.484   4.522   5.788
 6962SOL    HW222846   2.382   4.486   5.910
 6963SOL     OW22847   3.143   4.069   6.530
 6963SOL    HW122848   3.057   4.019   6.517
 6963SOL    HW222849   3.205   4.015   6.586
 6964SOL     OW22850   3.438   5.386   5.893
 6964SOL    HW122851   3.527   5.432   5.896
 6964SOL    HW222852   3.417   5.362   5.798
 6965SOL     OW22853   2.669   4.329   7.051
 6965SOL    HW122854   2.622   4.326   7.140
 6965SOL    HW222855   2.618   4.274   6.985
 6966SOL     OW22856   3.256   4.193   7.260
 6966SOL    HW122857   3.236   4.236   7.348
 6966SOL    HW222858   3.334   4.131   7.269
 6967SOL     OW22859   2.835   4.614   7.158
 6967SOL    HW122860   2.881   4.530   7.129
 6967SOL    HW222861   2.779   4.648   7.083
 6968SOL     OW22862   2.853   4.134   6.828
 6968SOL    HW122863   2.776   4.168   6.882
 6968SOL    HW222864   2.819   4.083   6.749
 6969SOL     OW22865   2.903   4.425   6.015
 6969SOL    HW122866   2.929   4.421   6.111
 6969SOL    HW222867   2.818   4.374   6.001
 6970SOL     OW22868   1.938   4.535   6.375
 6970SOL    HW122869   2.037   4.523   6.384
 6970SOL    HW222870   1.914   4.630   6.396
 6971SOL     OW22871   1.992   5.545   7.157
 6971SOL    HW122872   1.982   5.530   7.256
 6971SOL    HW222873   1.906   5.581   7.121
 6972SOL     OW22874   2.727   4.072   5.781
 6972SOL    HW122875   2.786   4.135   5.732
 6972SOL    HW222876   2.746   3.978   5.752
 6973SOL     OW22877   3.581   4.309   7.417
 6973SOL    HW122878   3.555   4.398   7.381
 6973SOL    HW222879   3.579   4.241   7.344
 6974SOL     OW22880   3.224   4.868   6.131
 6974SOL    HW122881   3.307   4.839   6.083
 6974SOL    HW222882   3.175   4.935   6.075
 6975SOL     OW22883   2.412   3.920   6.471
 6975SOL    HW122884   2.407   3.915   6.571
 6975SOL    HW222885   2.414   4.016   6.442
 6976SOL     OW22886   2.870   5.180   6.063
 6976SOL    HW122887   2.824   5.252   6.011
 6976SOL    HW222888   2.866   5.200   6.161
 6977SOL     OW22889   2.213   5.525   6.439
 6977SOL    HW122890   2.263   5.439   6.445
 6977SOL    HW222891   2.278   5.602   6.436
 6978SOL     OW22892   3.657   4.790   6.459
 6978SOL    HW122893   3.595   4.775   6.383
 6978SOL    HW222894   3.605   4.801   6.544
 6979SOL     OW22895   3.089   5.274   7.092
 6979SOL    HW122896   3.095   5.197   7.156
 6979SOL    HW222897   3.037   5.248   7.012
 6980SOL     OW22898   2.183   4.667   5.828
 6980SOL    HW122899   2.265   4.706   5.786
 6980SOL    HW222900   2.156   4.585   5.779
 6981SOL     OW22901   3.320   4.459   6.314
 6981SOL    HW122902   3.315   4.394   6.389
 6981SOL    HW222903   3.400   4.518   6.327
 6982SOL     OW22904   2.323   4.990   7.313
 6982SOL    HW122905   2.273   4.991   7.227
 6982SOL    HW222906   2.260   4.972   7.389
 6983SOL     OW22907   2.973   5.500   5.823
 6983SOL    HW122908   2.913   5.438   5.873
 6983SOL    HW222909   3.004   5.456   5.738
 6984SOL     OW22910   2.064   4.009   7.084
 6984SOL    HW122911   1.984   4.069   7.071
 6984SOL    HW222912   2.054   3.960   7.170
 6985SOL     OW22913   3.494   5.101   5.667
 6985SOL    HW122914   3.462   5.195   5.657
 6985SOL    HW222915   3.418   5.038   5.655
 6986SOL     OW22916   2.326   5.467   5.909
 6986SOL    HW122917   2.359   5.506   5.995
 6986SOL    HW222918   2.402   5.460   5.844
 6987SOL     OW22919   3.262   3.831   6.012
 6987SOL    HW122920   3.238   3.794   5.922
 6987SOL    HW222921   3.361   3.847   6.016
 6988SOL     OW22922   2.111   5.509   6.827
 6988SOL    HW122923   2.168   5.444   6.877
 6988SOL    HW222924   2.095   5.476   6.734
 6989SOL     OW22925   2.802   5.422   6.490
 6989SOL    HW122926   2.882   5.365   6.511
 6989SOL    HW222927   2.753   5.382   6.413
 6990SOL     OW22928   2.244   4.424   6.066
 6990SOL    HW122929   2.289   4.334   6.063
 6990SOL    HW222930   2.150   4.413   6.099
 6991SOL     OW22931   3.409   3.946   7.315
 6991SOL    HW122932   3.404   3.983   7.407
 6991SOL    HW222933   3.337   3.877   7.303
 6992SOL     OW22934   2.476   3.846   5.703
 6992SOL    HW122935   2.574   3.824   5.710
 6992SOL    HW222936   2.445   3.829   5.610
 6993SOL     OW22937   2.643   3.988   7.335
 6993SOL    HW122938   2.710   3.927   7.378
 6993SOL    HW222939   2.570   4.007   7.400
 6994SOL     OW22940   2.750   5.238   6.781
 6994SOL    HW122941   2.727   5.213   6.687
 6994SOL    HW222942   2.811   5.169   6.820
 6995SOL     OW22943   3.213   4.314   7.019
 6995SOL    HW122944   3.241   4.271   7.104
 6995SOL    HW222945   3.238   4.410   7.020
 6996SOL     OW22946   2.665   5.126   6.510
 6996SOL    HW122947   2.755   5.140   6.468
 6996SOL    HW222948   2.594   5.128   6.439
 6997SOL     OW22949   2.784   4.227   6.485
 6997SOL    HW122950   2.759   4.218   6.389
 6997SOL    HW222951   2.832   4.145   6.516
 6998SOL     OW22952   2.401   3.788   6.098
 6998SOL    HW122953   2.320   3.789   6.156
 6998SOL    HW222954   2.404   3.871   6.043
 6999SOL     OW22955   3.296   4.912   5.627
 6999SOL    HW122956   3.328   4.836   5.684
 6999SOL    HW222957   3.204   4.939   5.657
 7000SOL     OW22958   2.159   3.759   5.757
 7000SOL    HW122959   2.208   3.843   5.736
 7000SOL    HW222960   2.221   3.694   5.802
 7001SOL     OW22961   2.797   3.960   6.066
 7001SOL    HW122962   2.749   4.001   5.988
 7001SOL    HW222963   2.896   3.958   6.047
 7002SOL     OW22964   2.938   4.407   7.050
 7002SOL    HW122965   2.858   4.346   7.053
 7002SOL    HW222966   3.019   4.354   7.026
 7003SOL     OW22967   3.089   5.294   6.379
 7003SOL    HW122968   3.110   5.368   6.314
 7003SOL    HW222969   3.157   5.294   6.452
 7004SOL     OW22970   2.321   4.876   6.327
 7004SOL    HW122971   2.250   4.849   6.392
 7004SOL    HW222972   2.295   4.848   6.234
 7005SOL     OW22973   3.133   5.521   6.177
 7005SOL    HW122974   3.177   5.585   6.113
 7005SOL    HW222975   3.083   5.573   6.247
 7006SOL     OW22976   2.894   4.273   5.602
 7006SOL    HW122977   2.853   4.355   5.563
 7006SOL    HW222978   2.958   4.299   5.675
 7007SOL     OW22979   1.940   4.280   6.972
 7007SOL    HW122980   2.032   4.279   6.931
 7007SOL    HW222981   1.934   4.354   7.039
 7008SOL     OW22982   2.423   3.946   6.733
 7008SOL    HW122983   2.461   3.862   6.770
 7008SOL    HW222984   2.335   3.965   6.777
 7009SOL     OW22985   2.728   4.178   6.228
 7009SOL    HW122986   2.696   4.250   6.166
 7009SOL    HW222987   2.752   4.097   6.175
 7010SOL     OW22988   2.879   3.763   6.339
 7010SOL    HW122989   2.807   3.768   6.270
 7010SOL    HW222990   2.855   3.694   6.408
 7011SOL     OW22991   3.291   4.897   6.453
 7011SOL    HW122992   3.236   4.813   6.446
 7011SOL    HW222993   3.317   4.926   6.361
 7012SOL     OW22994   3.328   4.314   6.578
 7012SOL    HW122995   3.298   4.219   6.585
 7012SOL    HW222996   3.401   4.330   6.644
 7013SOL     OW22997   3.719   4.557   5.963
 7013SOL    HW122998   3.761   4.493   6.027
 7013SOL    HW222999   3.681   4.506   5.885
 7014SOL     OW23000   2.350   5.109   5.760
 7014SOL    HW123001   2.263   5.094   5.807
 7014SOL    HW223002   2.333   5.135   5.665
 7015SOL     OW23003   3.526   5.004   6.243
 7015SOL    HW123004   3.625   5.012   6.257
 7015SOL    HW223005   3.481   5.088   6.274
 7016SOL     OW23006   3.252   4.299   5.664
 7016SOL    HW123007   3.198   4.278   5.745
 7016SOL    HW223008   3.343   4.258   5.673
 7017SOL     OW23009   2.389   3.980   5.914
 7017SOL    HW123010   2.416   3.921   5.839
 7017SOL    HW223011   2.389   4.075   5.883
 7018SOL     OW23012   3.616   4.947   7.174
 7018SOL    HW123013   3.707   4.908   7.161
 7018SOL    HW223014   3.624   5.043   7.198
 7019SOL     OW23015   2.926   5.071   6.926
 7019SOL    HW123016   2.846   5.048   6.981
 7019SOL    HW223017   3.009   5.045   6.975
 7020SOL     OW23018   3.454   5.353   7.211
 7020SOL    HW123019   3.481   5.387   7.121
 7020SOL    HW223020   3.533   5.315   7.257
 7021SOL     OW23021   2.973   4.919   6.686
 7021SOL    HW123022   2.933   4.963   6.767
 7021SOL    HW223023   2.932   4.956   6.603
 7022SOL     OW23024   3.500   4.823   6.665
 7022SOL    HW123025   3.505   4.904   6.724
 7022SOL    HW223026   3.414   4.825   6.614
 7023SOL     OW23027   2.777   3.813   6.988
 7023SOL    HW123028   2.802   3.793   6.893
 7023SOL    HW223029   2.849   3.869   7.030
 7024SOL     OW23030   2.842   4.840   7.305
 7024SOL    HW123031   2.743   4.846   7.315
 7024SOL    HW223032   2.865   4.760   7.249
 7025SOL     OW23033   2.567   4.774   5.954
 7025SOL    HW123034   2.553   4.781   6.053
 7025SOL    HW223035   2.651   4.723   5.936
 7026SOL     OW23036   2.272   4.537   6.837
 7026SOL    HW123037   2.358   4.549   6.887
 7026SOL    HW223038   2.230   4.450   6.864
 7027SOL     OW23039   3.136   4.110   6.848
 7027SOL    HW123040   3.157   4.184   6.912
 7027SOL    HW223041   3.047   4.127   6.805
 7028SOL     OW23042   1.926   5.288   6.917
 7028SOL    HW123043   1.880   5.370   6.883
 7028SOL    HW223044   2.024   5.307   6.926
 7029SOL     OW23045   2.229   4.824   6.087
 7029SOL    HW123046   2.222   4.907   6.031
 7029SOL    HW223047   2.233   4.744   6.027
 7030SOL     OW23048   2.428   4.261   6.451
 7030SOL    HW123049   2.440   4.327   6.377
 7030SOL    HW223050   2.474   4.295   6.534
 7031SOL     OW23051   3.114   5.072   5.974
 7031SOL    HW123052   3.164   5.149   6.014
 7031SOL    HW223053   3.019   5.074   6.006
 7032SOL     OW23054   3.134   5.169   6.728
 7032SOL    HW123055   3.181   5.182   6.815
 7032SOL    HW223056   3.068   5.095   6.737
 7033SOL     OW23057   3.444   4.363   6.058
 7033SOL    HW123058   3.413   4.424   6.131
 7033SOL    HW223059   3.494   4.415   5.989
 7034SOL     OW23060   2.216   5.234   6.915
 7034SOL    HW123061   2.195   5.190   6.828
 7034SOL    HW223062   2.313   5.260   6.918
 7035SOL     OW23063   2.264   4.475   7.184
 7035SOL    HW123064   2.332   4.530   7.137
 7035SOL    HW223065   2.304   4.387   7.211
 7036SOL     OW23066   3.449   4.503   7.256
 7036SOL    HW123067   3.357   4.541   7.251
 7036SOL    HW223068   3.509   4.550   7.191
 7037SOL     OW23069   2.875   3.829   7.356
 7037SOL    HW123070   2.881   3.914   7.304
 7037SOL    HW223071   2.907   3.753   7.299
 7038SOL     OW23072   2.366   3.774   7.326
 7038SOL    HW123073   2.324   3.717   7.256
 7038SOL    HW223074   2.300   3.843   7.358
 7039SOL     OW23075   2.435   4.594   6.615
 7039SOL    HW123076   2.479   4.683   6.606
 7039SOL    HW223077   2.372   4.594   6.692
 7040SOL     OW23078   3.222   4.586   6.631
 7040SOL    HW123079   3.147   4.586   6.565
 7040SOL    HW223080   3.259   4.494   6.640
 7041SOL     OW23081   3.071   4.249   5.861
 7041SOL    HW123082   3.084   4.165   5.915
 7041SOL    HW223083   3.042   4.323   5.921
 7042SOL     OW23084   2.169   3.937   6.817
 7042SOL    HW123085   2.146   3.974   6.907
 7042SOL    HW223086   2.139   3.842   6.811
 7043SOL     OW23087   1.899   5.034   6.868
 7043SOL    HW123088   1.952   4.985   6.936
 7043SOL    HW223089   1.921   5.132   6.873
 7044SOL     OW23090   2.594   4.358   6.650
 7044SOL    HW123091   2.653   4.332   6.574
 7044SOL    HW223092   2.566   4.454   6.639
 7045SOL     OW23093   3.590   4.659   7.440
 7045SOL    HW123094   3.544   4.652   7.351
 7045SOL    HW223095   3.528   4.703   7.506
 7046SOL     OW23096   2.169   3.787   6.204
 7046SOL    HW123097   2.158   3.881   6.237
 7046SOL    HW223098   2.164   3.724   6.281
 7047SOL     OW23099   3.484   4.091   5.960
 7047SOL    HW123100   3.486   4.015   6.024
 7047SOL    HW223101   3.436   4.168   6.000
 7048SOL     OW23102   2.885   4.490   6.552
 7048SOL    HW123103   2.900   4.511   6.648
 7048SOL    HW223104   2.855   4.395   6.543
 7049SOL     OW23105   2.842   5.297   7.286
 7049SOL    HW123106   2.822   5.341   7.198
 7049SOL    HW223107   2.881   5.206   7.270
 7050SOL     OW23108   3.721   5.242   7.191
 7050SOL    HW123109   3.735   5.269   7.096
 7050SOL    HW223110   3.804   5.264   7.244
 7051SOL     OW23111   2.212   4.622   7.390
 7051SOL    HW123112   2.288   4.666   7.438
 7051SOL    HW223113   2.247   4.575   7.308
 7052SOL     OW23114   3.402   3.998   5.711
 7052SOL    HW123115   3.341   3.923   5.734
 7052SOL    HW223116   3.424   4.050   5.794
 7053SOL     OW23117   3.165   4.562   5.628
 7053SOL    HW123118   3.199   4.469   5.643
 7053SOL    HW223119   3.183   4.589   5.533
 7054SOL     OW23120   2.930   5.057   6.435
 7054SOL    HW123121   2.937   4.973   6.380
 7054SOL    HW223122   2.992   5.126   6.399
 7055SOL     OW23123   2.181   4.534   6.535
 7055SOL    HW123124   2.274   4.570   6.540
 7055SOL    HW223125   2.175   4.449   6.587
 7056SOL     OW23126   2.201   4.233   6.592
 7056SOL    HW123127   2.149   4.150   6.575
 7056SOL    HW223128   2.278   4.238   6.528
 7057SOL     OW23129   2.373   4.139   7.394
 7057SOL    HW123130   2.355   4.184   7.482
 7057SOL    HW223131   2.415   4.204   7.331
 7058SOL     OW23132   3.000   4.104   7.264
 7058SOL    HW123133   2.955   4.167   7.328
 7058SOL    HW223134   3.093   4.135   7.247
 7059SOL     OW23135   3.022   3.931   7.063
 7059SOL    HW123136   3.022   3.995   7.140
 7059SOL    HW223137   3.050   3.979   6.980
 7060SOL     OW23138   1.870   5.050   5.786
 7060SOL    HW123139   1.777   5.071   5.755
 7060SOL    HW223140   1.880   4.951   5.799
 7061SOL     OW23141   1.950   5.525   6.513
 7061SOL    HW123142   1.908   5.439   6.486
 7061SOL    HW223143   2.044   5.528   6.479
 7062SOL     OW23144   2.366   5.292   6.496
 7062SOL    HW123145   2.432   5.366   6.505
 7062SOL    HW223146   2.410   5.213   6.454
 7063SOL     OW23147   2.864   4.520   6.824
 7063SOL    HW123148   2.905   4.488   6.910
 7063SOL    HW223149   2.768   4.493   6.821
 7064SOL     OW23150   1.902   4.268   6.700
 7064SOL    HW123151   1.987   4.235   6.659
 7064SOL    HW223152   1.915   4.283   6.798
 7065SOL     OW23153   2.051   4.244   7.308
 7065SOL    HW123154   2.110   4.204   7.238
 7065SOL    HW223155   1.993   4.315   7.267
 7066SOL     OW23156   3.231   4.674   7.246
 7066SOL    HW123157   3.270   4.763   7.266
 7066SOL    HW223158   3.241   4.654   7.149
 7067SOL     OW23159   2.677   4.296   5.911
 7067SOL    HW123160   2.684   4.207   5.865
 7067SOL    HW223161   2.583   4.330   5.903
 7068SOL     OW23162   3.519   4.328   6.792
 7068SOL    HW123163   3.481   4.259   6.854
 7068SOL    HW223164   3.601   4.292   6.748
 7069SOL     OW23165   2.114   5.288   7.330
 7069SOL    HW123166   2.084   5.345   7.406
 7069SOL    HW223167   2.107   5.191   7.356
 7070SOL     OW23168   2.533   4.188   6.855
 7070SOL    HW123169   2.499   4.099   6.825
 7070SOL    HW223170   2.559   4.242   6.775
 7071SOL     OW23171   2.792   5.402   7.051
 7071SOL    HW123172   2.768   5.384   6.956
 7071SOL    HW223173   2.822   5.496   7.061
 7072SOL     OW23174   2.335   4.224   5.777
 7072SOL    HW123175   2.396   4.304   5.781
 7072SOL    HW223176   2.240   4.255   5.784
 7073SOL     OW23177   2.021   4.861   7.052
 7073SOL    HW123178   2.043   4.800   7.128
 7073SOL    HW223179   2.031   4.812   6.966
 7074SOL     OW23180   3.209   4.783   6.820
 7074SOL    HW123181   3.233   4.720   6.746
 7074SOL    HW223182   3.119   4.823   6.802
 7075SOL     OW23183   3.164   4.579   5.895
 7075SOL    HW123184   3.078   4.548   5.937
 7075SOL    HW223185   3.160   4.565   5.796
 7076SOL     OW23186   3.621   5.471   6.740
 7076SOL    HW123187   3.682   5.501   6.667
 7076SOL    HW223188   3.583   5.382   6.718
 7077SOL     OW23189   3.114   5.455   6.714
 7077SOL    HW123190   3.198   5.460   6.660
 7077SOL    HW223191   3.091   5.359   6.732
 7078SOL     OW23192   1.945   4.982   6.608
 7078SOL    HW123193   1.940   4.981   6.708
 7078SOL    HW223194   1.862   4.941   6.570
 7079SOL     OW23195   2.550   5.386   7.302
 7079SOL    HW123196   2.494   5.467   7.311
 7079SOL    HW223197   2.602   5.390   7.216
 7080SOL     OW23198   2.765   3.810   5.719
 7080SOL    HW123199   2.816   3.811   5.633
 7080SOL    HW223200   2.821   3.768   5.790
 7081SOL     OW23201   3.588   3.859   6.109
 7081SOL    HW123202   3.661   3.842   6.042
 7081SOL    HW223203   3.557   3.772   6.147
 7082SOL     OW23204   3.250   5.297   6.063
 7082SOL    HW123205   3.317   5.309   5.989
 7082SOL    HW223206   3.210   5.386   6.086
 7083SOL     OW23207   1.992   5.518   7.437
 7083SOL    HW123208   1.951   5.444   7.490
 7083SOL    HW223209   2.056   5.569   7.495
 7084SOL     OW23210   3.142   4.651   6.258
 7084SOL    HW123211   3.202   4.570   6.260
 7084SOL    HW223212   3.182   4.720   6.198
 7085SOL     OW23213   2.692   4.997   7.008
 7085SOL    HW123214   2.687   5.030   7.103
 7085SOL    HW223215   2.606   5.016   6.962
 7086SOL     OW23216   2.534   5.340   5.740
 7086SOL    HW123217   2.543   5.350   5.641
 7086SOL    HW223218   2.494   5.251   5.761
 7087SOL     OW23219   3.512   5.444   6.980
 7087SOL    HW123220   3.565   5.454   6.896
 7087SOL    HW223221   3.485   5.534   7.014
 7088SOL     OW23222   3.703   3.899   6.549
 7088SOL    HW123223   3.742   3.814   6.513
 7088SOL    HW223224   3.605   3.901   6.530
 7089SOL     OW23225   2.125   4.050   6.306
 7089SOL    HW123226   2.046   4.101   6.272
 7089SOL    HW223227   2.116   4.035   6.404
 7090SOL     OW23228   3.056   5.336   5.617
 7090SOL    HW123229   3.062   5.243   5.654
 7090SOL    HW223230   2.997   5.336   5.537
 7091SOL     OW23231   2.684   4.726   6.958
 7091SOL    HW123232   2.724   4.725   6.866
 7091SOL    HW223233   2.694   4.818   6.998
 7092SOL     OW23234   2.778   4.634   5.877
 7092SOL    HW123235   2.841   4.672   5.809
 7092SOL    HW223236   2.818   4.551   5.916
 7093SOL     OW23237   3.366   5.331   5.630
 7093SOL    HW123238   3.274   5.368   5.637
 7093SOL    HW223239   3.404   5.351   5.540
 7094SOL     OW23240   2.234   5.012   7.076
 7094SOL    HW123241   2.221   5.105   7.042
 7094SOL    HW223242   2.150   4.960   7.063
 7095SOL     OW23243   3.476   5.016   6.875
 7095SOL    HW123244   3.536   5.019   6.955
 7095SOL    HW223245   3.401   5.080   6.888
 7096SOL     OW23246   2.901   4.822   6.282
 7096SOL    HW123247   2.831   4.775   6.336
 7096SOL    HW223248   2.960   4.754   6.239
 7097SOL     OW23249   2.876   3.960   6.557
 7097SOL    HW123250   2.868   3.924   6.464
 7097SOL    HW223251   2.874   3.884   6.622
 7098SOL     OW23252   2.452   5.211   6.077
 7098SOL    HW123253   2.494   5.153   6.007
 7098SOL    HW223254   2.408   5.290   6.033
 7099SOL     OW23255   3.571   4.109   6.967
 7099SOL    HW123256   3.644   4.178   6.971
 7099SOL    HW223257   3.599   4.034   6.908
 7100SOL     OW23258   2.117   5.072   5.876
 7100SOL    HW123259   2.021   5.073   5.849
 7100SOL    HW223260   2.129   5.125   5.960
 7101SOL     OW23261   1.967   4.737   7.312
 7101SOL    HW123262   1.890   4.704   7.366
 7101SOL    HW223263   2.052   4.707   7.354
 7102SOL     OW23264   2.534   3.927   7.075
 7102SOL    HW123265   2.624   3.911   7.035
 7102SOL    HW223266   2.542   3.932   7.174
 7103SOL     OW23267   1.937   4.069   5.619
 7103SOL    HW123268   1.845   4.041   5.590
 7103SOL    HW223269   1.968   4.146   5.563
 7104SOL     OW23270   3.302   4.580   6.984
 7104SOL    HW123271   3.245   4.632   6.921
 7104SOL    HW223272   3.398   4.592   6.960
 7105SOL     OW23273   1.934   3.890   5.904
 7105SOL    HW123274   1.917   3.973   5.850
 7105SOL    HW223275   2.024   3.853   5.882
 7106SOL     OW23276   3.045   5.059   5.705
 7106SOL    HW123277   2.946   5.048   5.707
 7106SOL    HW223278   3.079   5.074   5.798
 7107SOL     OW23279   2.475   4.566   7.017
 7107SOL    HW123280   2.531   4.647   7.000
 7107SOL    HW223281   2.534   4.486   7.020
 7108SOL     OW23282   3.355   5.491   6.545
 7108SOL    HW123283   3.388   5.555   6.476
 7108SOL    HW223284   3.421   5.485   6.620
 7109SOL     OW23285   2.578   4.289   7.294
 7109SOL    HW123286   2.597   4.354   7.368
 7109SOL    HW223287   2.638   4.209   7.303
 7110SOL     OW23288   3.312   4.944   7.219
 7110SOL    HW123289   3.303   4.934   7.318
 7110SOL    HW223290   3.408   4.937   7.193
 7111SOL     OW23291   2.252   5.465   7.146
 7111SOL    HW123292   2.161   5.506   7.144
 7111SOL    HW223293   2.245   5.371   7.178
 7112SOL     OW23294   3.536   4.607   6.840
 7112SOL    HW123295   3.509   4.518   6.803
 7112SOL    HW223296   3.537   4.675   6.767
 7113SOL     OW23297   3.087   4.049   6.035
 7113SOL    HW123298   3.152   3.975   6.024
 7113SOL    HW223299   3.107   4.099   6.119
 7114SOL     OW23300   2.456   4.469   6.238
 7114SOL    HW123301   2.506   4.554   6.219
 7114SOL    HW223302   2.368   4.471   6.190
 7115SOL     OW23303   3.639   4.066   7.228
 7115SOL    HW123304   3.622   4.097   7.134
 7115SOL    HW223305   3.555   4.029   7.266
 7116SOL     OW23306   3.592   4.658   7.103
 7116SOL    HW123307   3.630   4.749   7.118
 7116SOL    HW223308   3.584   4.641   7.004
 7117SOL     OW23309   2.721   5.098   5.602
 7117SOL    HW123310   2.675   5.113   5.690
 7117SOL    HW223311   2.765   5.183   5.572
 7118SOL     OW23312   2.523   5.514   6.539
 7118SOL    HW123313   2.477   5.602   6.526
 7118SOL    HW223314   2.622   5.526   6.532
 7119SOL     OW23315   3.270   5.575   7.306
 7119SOL    HW123316   3.174   5.564   7.279
 7119SOL    HW223317   3.326   5.508   7.258
 7120SOL     OW23318   2.721   4.680   6.447
 7120SOL    HW123319   2.775   4.611   6.495
 7120SOL    HW223320   2.689   4.749   6.513
 7121SOL     OW23321   2.945   4.708   5.673
 7121SOL    HW123322   2.922   4.761   5.591
 7121SOL    HW223323   3.026   4.652   5.654
 7122SOL     OW23324   3.723   5.293   6.437
 7122SOL    HW123325   3.652   5.281   6.367
 7122SOL    HW223326   3.724   5.214   6.497
 7123SOL     OW23327   2.083   5.038   7.430
 7123SOL    HW123328   2.018   4.965   7.409
 7123SOL    HW223329   2.087   5.052   7.528
 7124SOL     OW23330   1.941   4.964   6.239
 7124SOL    HW123331   1.940   4.917   6.327
 7124SOL    HW223332   2.023   4.936   6.188
 7125SOL     OW23333   2.534   5.115   7.210
 7125SOL    HW123334   2.456   5.065   7.248
 7125SOL    HW223335   2.531   5.210   7.241
 7126SOL     OW23336   3.686   3.916   6.813
 7126SOL    HW123337   3.682   3.826   6.857
 7126SOL    HW223338   3.689   3.905   6.714
 7127SOL     OW23339   2.290   4.148   6.106
 7127SOL    HW123340   2.320   4.076   6.044
 7127SOL    HW223341   2.251   4.108   6.189
 7128SOL     OW23342   3.567   5.211   6.690
 7128SOL    HW123343   3.474   5.186   6.663
 7128SOL    HW223344   3.593   5.161   6.772
 7129SOL     OW23345   2.179   4.271   6.866
 7129SOL    HW123346   2.217   4.212   6.938
 7129SOL    HW223347   2.219   4.245   6.778
 7130SOL     OW23348   2.674   5.310   6.273
 7130SOL    HW123349   2.706   5.320   6.179
 7130SOL    HW223350   2.595   5.248   6.275
 7131SOL     OW23351   3.286   3.938   6.698
 7131SOL    HW123352   3.338   3.873   6.753
 7131SOL    HW223353   3.237   4.001   6.759
 7132SOL     OW23354   2.863   3.758   6.740
 7132SOL    HW123355   2.800   3.686   6.709
 7132SOL    HW223356   2.956   3.722   6.740
 7133SOL     OW23357   2.632   5.054   5.887
 7133SOL    HW123358   2.586   4.967   5.904
 7133SOL    HW223359   2.723   5.051   5.928
 7134SOL     OW23360   2.480   5.291   6.870
 7134SOL    HW123361   2.475   5.373   6.927
 7134SOL    HW223362   2.569   5.288   6.825
 7135SOL     OW23363   3.214   3.776   5.754
 7135SOL    HW123364   3.249   3.735   5.670
 7135SOL    HW223365   3.124   3.738   5.774
 7136SOL     OW23366   3.162   4.177   6.277
 7136SOL    HW123367   3.103   4.257   6.281
 7136SOL    HW223368   3.177   4.142   6.370
 7137SOL     OW23369   3.455   3.945   6.468
 7137SOL    HW123370   3.371   3.944   6.522
 7137SOL    HW223371   3.457   4.028   6.412
 7138SOL     OW23372   1.901   4.801   5.886
 7138SOL    HW123373   2.000   4.790   5.877
 7138SOL    HW223374   1.861   4.715   5.918
 7139SOL     OW23375   2.737   5.370   5.923
 7139SOL    HW123376   2.660   5.335   5.869
 7139SOL    HW223377   2.705   5.441   5.985
 7140SOL     OW23378   2.092   4.352   7.561
 7140SOL    HW123379   1.999   4.350   7.598
 7140SOL    HW223380   2.093   4.313   7.469
 7141SOL     OW23381   2.087   3.999   8.444
 7141SOL    HW123382   2.122   3.982   8.536
 7141SOL    HW223383   1.999   3.954   8.432
 7142SOL     OW23384   1.881   4.092   8.095
 7142SOL    HW123385   1.799   4.135   8.134
 7142SOL    HW223386   1.853   4.019   8.032
 7143SOL     OW23387   2.431   4.999   8.613
 7143SOL    HW123388   2.338   4.992   8.576
 7143SOL    HW223389   2.442   5.088   8.657
 7144SOL     OW23390   3.417   5.235   8.151
 7144SOL    HW123391   3.360   5.219   8.232
 7144SOL    HW223392   3.358   5.245   8.071
 7145SOL     OW23393   3.605   4.342   8.304
 7145SOL    HW123394   3.638   4.436   8.304
 7145SOL    HW223395   3.656   4.288   8.370
 7146SOL     OW23396   2.997   4.427   8.165
 7146SOL    HW123397   3.054   4.505   8.140
 7146SOL    HW223398   2.937   4.453   8.241
 7147SOL     OW23399   3.617   4.331   7.679
 7147SOL    HW123400   3.605   4.318   7.580
 7147SOL    HW223401   3.587   4.250   7.728
 7148SOL     OW23402   2.630   4.868   8.471
 7148SOL    HW123403   2.552   4.885   8.531
 7148SOL    HW223404   2.664   4.955   8.435
 7149SOL     OW23405   2.547   4.736   8.113
 7149SOL    HW123406   2.616   4.720   8.183
 7149SOL    HW223407   2.474   4.793   8.151
 7150SOL     OW23408   2.197   5.159   8.509
 7150SOL    HW123409   2.119   5.128   8.456
 7150SOL    HW223410   2.255   5.217   8.452
 7151SOL     OW23411   3.322   5.229   8.787
 7151SOL    HW123412   3.346   5.323   8.813
 7151SOL    HW223413   3.306   5.175   8.869
 7152SOL     OW23414   2.300   4.116   8.947
 7152SOL    HW123415   2.382   4.060   8.956
 7152SOL    HW223416   2.219   4.058   8.951
 7153SOL     OW23417   3.465   4.171   8.185
 7153SOL    HW123418   3.391   4.217   8.135
 7153SOL    HW223419   3.516   4.239   8.238
 7154SOL     OW23420   2.093   5.437   7.931
 7154SOL    HW123421   2.127   5.514   7.985
 7154SOL    HW223422   2.137   5.437   7.841
 7155SOL     OW23423   2.092   5.158   7.986
 7155SOL    HW123424   2.066   5.254   7.986
 7155SOL    HW223425   2.021   5.104   8.031
 7156SOL     OW23426   2.102   4.815   8.334
 7156SOL    HW123427   2.116   4.731   8.386
 7156SOL    HW223428   2.047   4.879   8.389
 7157SOL     OW23429   2.482   5.510   8.887
 7157SOL    HW123430   2.390   5.493   8.922
 7157SOL    HW223431   2.510   5.602   8.913
 7158SOL     OW23432   2.468   4.688   7.571
 7158SOL    HW123433   2.475   4.772   7.517
 7158SOL    HW223434   2.514   4.701   7.659
 7159SOL     OW23435   3.456   3.838   8.928
 7159SOL    HW123436   3.438   3.905   8.856
 7159SOL    HW223437   3.453   3.884   9.017
 7160SOL     OW23438   1.984   4.367   8.011
 7160SOL    HW123439   1.939   4.279   8.028
 7160SOL    HW223440   1.983   4.421   8.095
 7161SOL     OW23441   3.704   5.491   7.807
 7161SOL    HW123442   3.758   5.462   7.887
 7161SOL    HW223443   3.734   5.581   7.778
 7162SOL     OW23444   1.889   5.320   7.565
 7162SOL    HW123445   1.870   5.224   7.586
 7162SOL    HW223446   1.856   5.378   7.640
 7163SOL     OW23447   3.551   4.646   8.060
 7163SOL    HW123448   3.646   4.617   8.068
 7163SOL    HW223449   3.543   4.711   7.985
 7164SOL     OW23450   3.503   4.832   7.880
 7164SOL    HW123451   3.589   4.834   7.828
 7164SOL    HW223452   3.517   4.879   7.968
 7165SOL     OW23453   2.475   5.089   8.174
 7165SOL    HW123454   2.426   5.002   8.183
 7165SOL    HW223455   2.452   5.132   8.087
 7166SOL     OW23456   2.671   3.728   7.950
 7166SOL    HW123457   2.711   3.819   7.941
 7166SOL    HW223458   2.571   3.736   7.956
 7167SOL     OW23459   2.059   4.700   8.712
 7167SOL    HW123460   2.148   4.655   8.698
 7167SOL    HW223461   1.986   4.635   8.693
 7168SOL     OW23462   3.387   4.723   7.638
 7168SOL    HW123463   3.324   4.647   7.651
 7168SOL    HW223464   3.435   4.741   7.724
 7169SOL     OW23465   3.328   5.141   8.401
 7169SOL    HW123466   3.269   5.147   8.481
 7169SOL    HW223467   3.313   5.053   8.355
 7170SOL     OW23468   3.529   5.438   8.020
 7170SOL    HW123469   3.488   5.415   7.932
 7170SOL    HW223470   3.511   5.364   8.085
 7171SOL     OW23471   2.460   4.453   7.718
 7171SOL    HW123472   2.484   4.522   7.650
 7171SOL    HW223473   2.382   4.486   7.772
 7172SOL     OW23474   3.143   4.069   8.392
 7172SOL    HW123475   3.057   4.019   8.379
 7172SOL    HW223476   3.205   4.015   8.448
 7173SOL     OW23477   3.438   5.386   7.755
 7173SOL    HW123478   3.527   5.432   7.758
 7173SOL    HW223479   3.417   5.362   7.660
 7174SOL     OW23480   2.669   4.329   8.913
 7174SOL    HW123481   2.622   4.326   9.002
 7174SOL    HW223482   2.618   4.274   8.847
 7175SOL     OW23483   2.853   4.134   8.690
 7175SOL    HW123484   2.776   4.168   8.744
 7175SOL    HW223485   2.819   4.083   8.611
 7176SOL     OW23486   2.903   4.425   7.877
 7176SOL    HW123487   2.929   4.421   7.973
 7176SOL    HW223488   2.818   4.374   7.863
 7177SOL     OW23489   1.938   4.535   8.237
 7177SOL    HW123490   2.037   4.523   8.246
 7177SOL    HW223491   1.914   4.630   8.258
 7178SOL     OW23492   1.992   5.545   0.019
 7178SOL    HW123493   1.982   5.530   0.118
 7178SOL    HW223494   1.906   5.581  -0.017
 7179SOL     OW23495   2.727   4.072   7.643
 7179SOL    HW123496   2.786   4.135   7.594
 7179SOL    HW223497   2.746   3.978   7.614
 7180SOL     OW23498   3.224   4.868   7.993
 7180SOL    HW123499   3.307   4.839   7.945
 7180SOL    HW223500   3.175   4.935   7.937
 7181SOL     OW23501   2.412   3.920   8.333
 7181SOL    HW123502   2.407   3.915   8.433
 7181SOL    HW223503   2.414   4.016   8.304
 7182SOL     OW23504   2.870   5.180   7.925
 7182SOL    HW123505   2.824   5.252   7.873
 7182SOL    HW223506   2.866   5.200   8.023
 7183SOL     OW23507   2.213   5.525   8.301
 7183SOL    HW123508   2.263   5.439   8.307
 7183SOL    HW223509   2.278   5.602   8.298
 7184SOL     OW23510   3.657   4.790   8.321
 7184SOL    HW123511   3.595   4.775   8.245
 7184SOL    HW223512   3.605   4.801   8.406
 7185SOL     OW23513   2.183   4.667   7.690
 7185SOL    HW123514   2.265   4.706   7.648
 7185SOL    HW223515   2.156   4.585   7.641
 7186SOL     OW23516   3.320   4.459   8.176
 7186SOL    HW123517   3.315   4.394   8.251
 7186SOL    HW223518   3.400   4.518   8.189
 7187SOL     OW23519   2.973   5.500   7.685
 7187SOL    HW123520   2.913   5.438   7.735
 7187SOL    HW223521   3.004   5.456   7.600
 7188SOL     OW23522   2.064   4.009   8.946
 7188SOL    HW123523   1.984   4.069   8.933
 7188SOL    HW223524   2.054   3.960   9.032
 7189SOL     OW23525   3.494   5.101   7.529
 7189SOL    HW123526   3.462   5.195   7.519
 7189SOL    HW223527   3.418   5.038   7.517
 7190SOL     OW23528   2.326   5.467   7.771
 7190SOL    HW123529   2.359   5.506   7.857
 7190SOL    HW223530   2.402   5.460   7.706
 7191SOL     OW23531   3.262   3.831   7.874
 7191SOL    HW123532   3.238   3.794   7.784
 7191SOL    HW223533   3.361   3.847   7.878
 7192SOL     OW23534   2.111   5.509   8.689
 7192SOL    HW123535   2.168   5.444   8.739
 7192SOL    HW223536   2.095   5.476   8.596
 7193SOL     OW23537   2.802   5.422   8.352
 7193SOL    HW123538   2.882   5.365   8.373
 7193SOL    HW223539   2.753   5.382   8.275
 7194SOL     OW23540   2.244   4.424   7.928
 7194SOL    HW123541   2.289   4.334   7.925
 7194SOL    HW223542   2.150   4.413   7.961
 7195SOL     OW23543   2.476   3.846   7.565
 7195SOL    HW123544   2.574   3.824   7.572
 7195SOL    HW223545   2.445   3.829   7.472
 7196SOL     OW23546   2.750   5.238   8.643
 7196SOL    HW123547   2.727   5.213   8.549
 7196SOL    HW223548   2.811   5.169   8.682
 7197SOL     OW23549   2.665   5.126   8.372
 7197SOL    HW123550   2.755   5.140   8.330
 7197SOL    HW223551   2.594   5.128   8.301
 7198SOL     OW23552   2.784   4.227   8.347
 7198SOL    HW123553   2.759   4.218   8.251
 7198SOL    HW223554   2.832   4.145   8.378
 7199SOL     OW23555   2.401   3.788   7.960
 7199SOL    HW123556   2.320   3.789   8.018
 7199SOL    HW223557   2.404   3.871   7.905
 7200SOL     OW23558   3.296   4.912   7.489
 7200SOL    HW123559   3.328   4.836   7.546
 7200SOL    HW223560   3.204   4.939   7.519
 7201SOL     OW23561   2.159   3.759   7.619
 7201SOL    HW123562   2.208   3.843   7.598
 7201SOL    HW223563   2.221   3.694   7.664
 7202SOL     OW23564   2.797   3.960   7.928
 7202SOL    HW123565   2.749   4.001   7.850
 7202SOL    HW223566   2.896   3.958   7.909
 7203SOL     OW23567   3.089   5.294   8.241
 7203SOL    HW123568   3.110   5.368   8.176
 7203SOL    HW223569   3.157   5.294   8.314
 7204SOL     OW23570   2.321   4.876   8.189
 7204SOL    HW123571   2.250   4.849   8.254
 7204SOL    HW223572   2.295   4.848   8.096
 7205SOL     OW23573   3.133   5.521   8.039
 7205SOL    HW123574   3.177   5.585   7.975
 7205SOL    HW223575   3.083   5.573   8.109
 7206SOL     OW23576   2.894   4.273   7.464
 7206SOL    HW123577   2.853   4.355   7.425
 7206SOL    HW223578   2.958   4.299   7.537
 7207SOL     OW23579   1.940   4.280   8.834
 7207SOL    HW123580   2.032   4.279   8.793
 7207SOL    HW223581   1.934   4.354   8.901
 7208SOL     OW23582   2.423   3.946   8.595
 7208SOL    HW123583   2.461   3.862   8.632
 7208SOL    HW223584   2.335   3.965   8.639
 7209SOL     OW23585   2.728   4.178   8.090
 7209SOL    HW123586   2.696   4.250   8.028
 7209SOL    HW223587   2.752   4.097   8.037
 7210SOL     OW23588   2.879   3.763   8.201
 7210SOL    HW123589   2.807   3.768   8.132
 7210SOL    HW223590   2.855   3.694   8.270
 7211SOL     OW23591   3.291   4.897   8.315
 7211SOL    HW123592   3.236   4.813   8.308
 7211SOL    HW223593   3.317   4.926   8.223
 7212SOL     OW23594   3.328   4.314   8.440
 7212SOL    HW123595   3.298   4.219   8.447
 7212SOL    HW223596   3.401   4.330   8.506
 7213SOL     OW23597   3.719   4.557   7.825
 7213SOL    HW123598   3.761   4.493   7.889
 7213SOL    HW223599   3.681   4.506   7.747
 7214SOL     OW23600   2.350   5.109   7.622
 7214SOL    HW123601   2.263   5.094   7.669
 7214SOL    HW223602   2.333   5.135   7.527
 7215SOL     OW23603   3.526   5.004   8.105
 7215SOL    HW123604   3.625   5.012   8.119
 7215SOL    HW223605   3.481   5.088   8.136
 7216SOL     OW23606   3.252   4.299   7.526
 7216SOL    HW123607   3.198   4.278   7.607
 7216SOL    HW223608   3.343   4.258   7.535
 7217SOL     OW23609   2.389   3.980   7.776
 7217SOL    HW123610   2.416   3.921   7.701
 7217SOL    HW223611   2.389   4.075   7.745
 7218SOL     OW23612   2.926   5.071   8.788
 7218SOL    HW123613   2.846   5.048   8.843
 7218SOL    HW223614   3.009   5.045   8.837
 7219SOL     OW23615   2.973   4.919   8.548
 7219SOL    HW123616   2.933   4.963   8.629
 7219SOL    HW223617   2.932   4.956   8.465
 7220SOL     OW23618   3.500   4.823   8.527
 7220SOL    HW123619   3.505   4.904   8.586
 7220SOL    HW223620   3.414   4.825   8.476
 7221SOL     OW23621   2.777   3.813   8.850
 7221SOL    HW123622   2.802   3.793   8.755
 7221SOL    HW223623   2.849   3.869   8.892
 7222SOL     OW23624   2.567   4.774   7.816
 7222SOL    HW123625   2.553   4.781   7.915
 7222SOL    HW223626   2.651   4.723   7.798
 7223SOL     OW23627   2.272   4.537   8.699
 7223SOL    HW123628   2.358   4.549   8.749
 7223SOL    HW223629   2.230   4.450   8.726
 7224SOL     OW23630   3.136   4.110   8.710
 7224SOL    HW123631   3.157   4.184   8.774
 7224SOL    HW223632   3.047   4.127   8.667
 7225SOL     OW23633   1.926   5.288   8.779
 7225SOL    HW123634   1.880   5.370   8.745
 7225SOL    HW223635   2.024   5.307   8.788
 7226SOL     OW23636   2.229   4.824   7.949
 7226SOL    HW123637   2.222   4.907   7.893
 7226SOL    HW223638   2.233   4.744   7.889
 7227SOL     OW23639   2.428   4.261   8.313
 7227SOL    HW123640   2.440   4.327   8.239
 7227SOL    HW223641   2.474   4.295   8.396
 7228SOL     OW23642   3.114   5.072   7.836
 7228SOL    HW123643   3.164   5.149   7.876
 7228SOL    HW223644   3.019   5.074   7.868
 7229SOL     OW23645   3.134   5.169   8.590
 7229SOL    HW123646   3.181   5.182   8.677
 7229SOL    HW223647   3.068   5.095   8.599
 7230SOL     OW23648   3.444   4.363   7.920
 7230SOL    HW123649   3.413   4.424   7.993
 7230SOL    HW223650   3.494   4.415   7.851
 7231SOL     OW23651   2.216   5.234   8.777
 7231SOL    HW123652   2.195   5.190   8.690
 7231SOL    HW223653   2.313   5.260   8.780
 7232SOL     OW23654   2.264   4.475   0.046
 7232SOL    HW123655   2.332   4.530  -0.001
 7232SOL    HW223656   2.304   4.387   0.073
 7233SOL     OW23657   3.449   4.503   0.118
 7233SOL    HW123658   3.357   4.541   0.113
 7233SOL    HW223659   3.509   4.550   0.053
 7234SOL     OW23660   2.435   4.594   8.477
 7234SOL    HW123661   2.479   4.683   8.468
 7234SOL    HW223662   2.372   4.594   8.554
 7235SOL     OW23663   3.222   4.586   8.493
 7235SOL    HW123664   3.147   4.586   8.427
 7235SOL    HW223665   3.259   4.494   8.502
 7236SOL     OW23666   3.071   4.249   7.723
 7236SOL    HW123667   3.084   4.165   7.777
 7236SOL    HW223668   3.042   4.323   7.783
 7237SOL     OW23669   2.169   3.937   8.679
 7237SOL    HW123670   2.146   3.974   8.769
 7237SOL    HW223671   2.139   3.842   8.673
 7238SOL     OW23672   1.899   5.034   8.730
 7238SOL    HW123673   1.952   4.985   8.798
 7238SOL    HW223674   1.921   5.132   8.735
 7239SOL     OW23675   2.594   4.358   8.512
 7239SOL    HW123676   2.653   4.332   8.436
 7239SOL    HW223677   2.566   4.454   8.501
 7240SOL     OW23678   2.169   3.787   8.066
 7240SOL    HW123679   2.158   3.881   8.099
 7240SOL    HW223680   2.164   3.724   8.143
 7241SOL     OW23681   3.484   4.091   7.822
 7241SOL    HW123682   3.486   4.015   7.886
 7241SOL    HW223683   3.436   4.168   7.862
 7242SOL     OW23684   2.885   4.490   8.414
 7242SOL    HW123685   2.900   4.511   8.510
 7242SOL    HW223686   2.855   4.395   8.405
 7243SOL     OW23687   2.842   5.297   0.148
 7243SOL    HW123688   2.822   5.341   0.060
 7243SOL    HW223689   2.881   5.206   0.132
 7244SOL     OW23690   3.721   5.242   0.053
 7244SOL    HW123691   3.735   5.269  -0.042
 7244SOL    HW223692   3.804   5.264   0.106
 7245SOL     OW23693   3.402   3.998   7.573
 7245SOL    HW123694   3.341   3.923   7.596
 7245SOL    HW223695   3.424   4.050   7.656
 7246SOL     OW23696   3.165   4.562   7.490
 7246SOL    HW123697   3.199   4.469   7.505
 7246SOL    HW223698   3.183   4.589   7.395
 7247SOL     OW23699   2.930   5.057   8.297
 7247SOL    HW123700   2.937   4.973   8.242
 7247SOL    HW223701   2.992   5.126   8.261
 7248SOL     OW23702   2.181   4.534   8.397
 7248SOL    HW123703   2.274   4.570   8.402
 7248SOL    HW223704   2.175   4.449   8.449
 7249SOL     OW23705   2.201   4.233   8.454
 7249SOL    HW123706   2.149   4.150   8.437
 7249SOL    HW223707   2.278   4.238   8.390
 7250SOL     OW23708   3.000   4.104   0.126
 7250SOL    HW123709   2.955   4.167   0.190
 7250SOL    HW223710   3.093   4.135   0.109
 7251SOL     OW23711   3.022   3.931   8.925
 7251SOL    HW123712   3.022   3.995   9.002
 7251SOL    HW223713   3.050   3.979   8.842
 7252SOL     OW23714   1.870   5.050   7.648
 7252SOL    HW123715   1.777   5.071   7.617
 7252SOL    HW223716   1.880   4.951   7.661
 7253SOL     OW23717   1.950   5.525   8.375
 7253SOL    HW123718   1.908   5.439   8.348
 7253SOL    HW223719   2.044   5.528   8.341
 7254SOL     OW23720   2.366   5.292   8.358
 7254SOL    HW123721   2.432   5.366   8.367
 7254SOL    HW223722   2.410   5.213   8.316
 7255SOL     OW23723   2.864   4.520   8.686
 7255SOL    HW123724   2.905   4.488   8.772
 7255SOL    HW223725   2.768   4.493   8.683
 7256SOL     OW23726   1.902   4.268   8.562
 7256SOL    HW123727   1.987   4.235   8.521
 7256SOL    HW223728   1.915   4.283   8.660
 7257SOL     OW23729   2.677   4.296   7.773
 7257SOL    HW123730   2.684   4.207   7.727
 7257SOL    HW223731   2.583   4.330   7.765
 7258SOL     OW23732   3.519   4.328   8.654
 7258SOL    HW123733   3.481   4.259   8.716
 7258SOL    HW223734   3.601   4.292   8.610
 7259SOL     OW23735   2.533   4.188   8.717
 7259SOL    HW123736   2.499   4.099   8.687
 7259SOL    HW223737   2.559   4.242   8.637
 7260SOL     OW23738   2.792   5.402   8.913
 7260SOL    HW123739   2.768   5.384   8.818
 7260SOL    HW223740   2.822   5.496   8.923
 7261SOL     OW23741   2.335   4.224   7.639
 7261SOL    HW123742   2.396   4.304   7.643
 7261SOL    HW223743   2.240   4.255   7.646
 7262SOL     OW23744   2.021   4.861   8.914
 7262SOL    HW123745   2.043   4.800   8.990
 7262SOL    HW223746   2.031   4.812   8.828
 7263SOL     OW23747   3.209   4.783   8.682
 7263SOL    HW123748   3.233   4.720   8.608
 7263SOL    HW223749   3.119   4.823   8.664
 7264SOL     OW23750   3.164   4.579   7.757
 7264SOL    HW123751   3.078   4.548   7.799
 7264SOL    HW223752   3.160   4.565   7.658
 7265SOL     OW23753   3.621   5.471   8.602
 7265SOL    HW123754   3.682   5.501   8.529
 7265SOL    HW223755   3.583   5.382   8.580
 7266SOL     OW23756   3.114   5.455   8.576
 7266SOL    HW123757   3.198   5.460   8.522
 7266SOL    HW223758   3.091   5.359   8.594
 7267SOL     OW23759   1.945   4.982   8.470
 7267SOL    HW123760   1.940   4.981   8.570
 7267SOL    HW223761   1.862   4.941   8.432
 7268SOL     OW23762   2.765   3.810   7.581
 7268SOL    HW123763   2.816   3.811   7.495
 7268SOL    HW223764   2.821   3.768   7.652
 7269SOL     OW23765   3.588   3.859   7.971
 7269SOL    HW123766   3.661   3.842   7.904
 7269SOL    HW223767   3.557   3.772   8.009
 7270SOL     OW23768   3.250   5.297   7.925
 7270SOL    HW123769   3.317   5.309   7.851
 7270SOL    HW223770   3.210   5.386   7.948
 7271SOL     OW23771   3.142   4.651   8.120
 7271SOL    HW123772   3.202   4.570   8.122
 7271SOL    HW223773   3.182   4.720   8.060
 7272SOL     OW23774   2.534   5.340   7.602
 7272SOL    HW123775   2.543   5.350   7.503
 7272SOL    HW223776   2.494   5.251   7.623
 7273SOL     OW23777   3.512   5.444   8.842
 7273SOL    HW123778   3.565   5.454   8.758
 7273SOL    HW223779   3.485   5.534   8.876
 7274SOL     OW23780   3.703   3.899   8.411
 7274SOL    HW123781   3.742   3.814   8.375
 7274SOL    HW223782   3.605   3.901   8.392
 7275SOL     OW23783   2.125   4.050   8.168
 7275SOL    HW123784   2.046   4.101   8.134
 7275SOL    HW223785   2.116   4.035   8.266
 7276SOL     OW23786   3.056   5.336   7.479
 7276SOL    HW123787   3.062   5.243   7.516
 7276SOL    HW223788   2.997   5.336   7.399
 7277SOL     OW23789   2.684   4.726   8.820
 7277SOL    HW123790   2.724   4.725   8.728
 7277SOL    HW223791   2.694   4.818   8.860
 7278SOL     OW23792   2.778   4.634   7.739
 7278SOL    HW123793   2.841   4.672   7.671
 7278SOL    HW223794   2.818   4.551   7.778
 7279SOL     OW23795   3.366   5.331   7.492
 7279SOL    HW123796   3.274   5.368   7.499
 7279SOL    HW223797   3.404   5.351   7.402
 7280SOL     OW23798   2.234   5.012   8.938
 7280SOL    HW123799   2.221   5.105   8.904
 7280SOL    HW223800   2.150   4.960   8.925
 7281SOL     OW23801   3.476   5.016   8.737
 7281SOL    HW123802   3.536   5.019   8.817
 7281SOL    HW223803   3.401   5.080   8.750
 7282SOL     OW23804   2.901   4.822   8.144
 7282SOL    HW123805   2.831   4.775   8.198
 7282SOL    HW223806   2.960   4.754   8.101
 7283SOL     OW23807   2.876   3.960   8.419
 7283SOL    HW123808   2.868   3.924   8.326
 7283SOL    HW223809   2.874   3.884   8.484
 7284SOL     OW23810   2.452   5.211   7.939
 7284SOL    HW123811   2.494   5.153   7.869
 7284SOL    HW223812   2.408   5.290   7.895
 7285SOL     OW23813   3.571   4.109   8.829
 7285SOL    HW123814   3.644   4.178   8.833
 7285SOL    HW223815   3.599   4.034   8.770
 7286SOL     OW23816   2.117   5.072   7.738
 7286SOL    HW123817   2.021   5.073   7.711
 7286SOL    HW223818   2.129   5.125   7.822
 7287SOL     OW23819   1.937   4.069   7.481
 7287SOL    HW123820   1.845   4.041   7.452
 7287SOL    HW223821   1.968   4.146   7.425
 7288SOL     OW23822   3.302   4.580   8.846
 7288SOL    HW123823   3.245   4.632   8.783
 7288SOL    HW223824   3.398   4.592   8.822
 7289SOL     OW23825   1.934   3.890   7.766
 7289SOL    HW123826   1.917   3.973   7.712
 7289SOL    HW223827   2.024   3.853   7.744
 7290SOL     OW23828   3.045   5.059   7.567
 7290SOL    HW123829   2.946   5.048   7.569
 7290SOL    HW223830   3.079   5.074   7.660
 7291SOL     OW23831   2.475   4.566   8.879
 7291SOL    HW123832   2.531   4.647   8.862
 7291SOL    HW223833   2.534   4.486   8.882
 7292SOL     OW23834   3.355   5.491   8.407
 7292SOL    HW123835   3.388   5.555   8.338
 7292SOL    HW223836   3.421   5.485   8.482
 7293SOL     OW23837   2.252   5.465   0.008
 7293SOL    HW123838   2.161   5.506   0.006
 7293SOL    HW223839   2.245   5.371   0.040
 7294SOL     OW23840   3.536   4.607   8.702
 7294SOL    HW123841   3.509   4.518   8.665
 7294SOL    HW223842   3.537   4.675   8.629
 7295SOL     OW23843   3.087   4.049   7.897
 7295SOL    HW123844   3.152   3.975   7.886
 7295SOL    HW223845   3.107   4.099   7.981
 7296SOL     OW23846   2.456   4.469   8.100
 7296SOL    HW123847   2.506   4.554   8.081
 7296SOL    HW223848   2.368   4.471   8.052
 7297SOL     OW23849   3.639   4.066   0.090
 7297SOL    HW123850   3.622   4.097  -0.004
 7297SOL    HW223851   3.555   4.029   0.128
 7298SOL     OW23852   3.592   4.658   8.965
 7298SOL    HW123853   3.630   4.749   8.980
 7298SOL    HW223854   3.584   4.641   8.866
 7299SOL     OW23855   2.721   5.098   7.464
 7299SOL    HW123856   2.675   5.113   7.552
 7299SOL    HW223857   2.765   5.183   7.434
 7300SOL     OW23858   2.523   5.514   8.401
 7300SOL    HW123859   2.477   5.602   8.388
 7300SOL    HW223860   2.622   5.526   8.394
 7301SOL     OW23861   3.270   5.575   0.168
 7301SOL    HW123862   3.174   5.564   0.141
 7301SOL    HW223863   3.326   5.508   0.120
 7302SOL     OW23864   2.721   4.680   8.309
 7302SOL    HW123865   2.775   4.611   8.357
 7302SOL    HW223866   2.689   4.749   8.375
 7303SOL     OW23867   2.945   4.708   7.535
 7303SOL    HW123868   2.922   4.761   7.453
 7303SOL    HW223869   3.026   4.652   7.516
 7304SOL     OW23870   3.723   5.293   8.299
 7304SOL    HW123871   3.652   5.281   8.229
 7304SOL    HW223872   3.724   5.214   8.359
 7305SOL     OW23873   1.941   4.964   8.101
 7305SOL    HW123874   1.940   4.917   8.189
 7305SOL    HW223875   2.023   4.936   8.050
 7306SOL     OW23876   3.686   3.916   8.675
 7306SOL    HW123877   3.682   3.826   8.719
 7306SOL    HW223878   3.689   3.905   8.576
 7307SOL     OW23879   2.290   4.148   7.968
 7307SOL    HW123880   2.320   4.076   7.906
 7307SOL    HW223881   2.251   4.108   8.051
 7308SOL     OW23882   3.567   5.211   8.552
 7308SOL    HW123883   3.474   5.186   8.525
 7308SOL    HW223884   3.593   5.161   8.634
 7309SOL     OW23885   2.179   4.271   8.728
 7309SOL    HW123886   2.217   4.212   8.800
 7309SOL    HW223887   2.219   4.245   8.640
 7310SOL     OW23888   2.674   5.310   8.135
 7310SOL    HW123889   2.706   5.320   8.041
 7310SOL    HW223890   2.595   5.248   8.137
 7311SOL     OW23891   3.286   3.938   8.560
 7311SOL    HW123892   3.338   3.873   8.615
 7311SOL    HW223893   3.237   4.001   8.621
 7312SOL     OW23894   2.863   3.758   8.602
 7312SOL    HW123895   2.800   3.686   8.571
 7312SOL    HW223896   2.956   3.722   8.602
 7313SOL     OW23897   2.632   5.054   7.749
 7313SOL    HW123898   2.586   4.967   7.766
 7313SOL    HW223899   2.723   5.051   7.790
 7314SOL     OW23900   2.480   5.291   8.732
 7314SOL    HW123901   2.475   5.373   8.789
 7314SOL    HW223902   2.569   5.288   8.687
 7315SOL     OW23903   3.214   3.776   7.616
 7315SOL    HW123904   3.249   3.735   7.532
 7315SOL    HW223905   3.124   3.738   7.636
 7316SOL     OW23906   3.162   4.177   8.139
 7316SOL    HW123907   3.103   4.257   8.143
 7316SOL    HW223908   3.177   4.142   8.232
 7317SOL     OW23909   3.455   3.945   8.330
 7317SOL    HW123910   3.371   3.944   8.384
 7317SOL    HW223911   3.457   4.028   8.274
 7318SOL     OW23912   1.901   4.801   7.748
 7318SOL    HW123913   2.000   4.790   7.739
 7318SOL    HW223914   1.861   4.715   7.780
 7319SOL     OW23915   2.737   5.370   7.785
 7319SOL    HW123916   2.660   5.335   7.731
 7319SOL    HW223917   2.705   5.441   7.847
 7320SOL     OW23918   2.092   6.214   0.113
 7320SOL    HW123919   1.999   6.212   0.150
 7320SOL    HW223920   2.093   6.175   0.021
 7321SOL     OW23921   2.087   5.861   0.996
 7321SOL    HW123922   2.122   5.844   1.088
 7321SOL    HW223923   1.999   5.816   0.984
 7322SOL     OW23924   1.881   5.954   0.647
 7322SOL    HW123925   1.799   5.997   0.686
 7322SOL    HW223926   1.853   5.881   0.584
 7323SOL     OW23927   2.431   6.861   1.165
 7323SOL    HW123928   2.338   6.854   1.128
 7323SOL    HW223929   2.442   6.950   1.209
 7324SOL     OW23930   3.417   7.097   0.703
 7324SOL    HW123931   3.360   7.081   0.784
 7324SOL    HW223932   3.358   7.107   0.623
 7325SOL     OW23933   3.605   6.204   0.856
 7325SOL    HW123934   3.638   6.298   0.856
 7325SOL    HW223935   3.656   6.150   0.922
 7326SOL     OW23936   2.997   6.289   0.717
 7326SOL    HW123937   3.054   6.367   0.692
 7326SOL    HW223938   2.937   6.315   0.793
 7327SOL     OW23939   3.617   6.193   0.231
 7327SOL    HW123940   3.605   6.180   0.132
 7327SOL    HW223941   3.587   6.112   0.280
 7328SOL     OW23942   2.630   6.730   1.023
 7328SOL    HW123943   2.552   6.747   1.083
 7328SOL    HW223944   2.664   6.817   0.987
 7329SOL     OW23945   2.712   6.384   1.823
 7329SOL    HW123946   2.708   6.460   1.888
 7329SOL    HW223947   2.734   6.420   1.732
 7330SOL     OW23948   2.547   6.598   0.665
 7330SOL    HW123949   2.616   6.582   0.735
 7330SOL    HW223950   2.474   6.655   0.703
 7331SOL     OW23951   2.548   6.747   1.803
 7331SOL    HW123952   2.608   6.826   1.817
 7331SOL    HW223953   2.462   6.778   1.762
 7332SOL     OW23954   2.197   7.021   1.061
 7332SOL    HW123955   2.119   6.990   1.008
 7332SOL    HW223956   2.255   7.079   1.004
 7333SOL     OW23957   3.322   7.091   1.339
 7333SOL    HW123958   3.346   7.185   1.365
 7333SOL    HW223959   3.306   7.037   1.421
 7334SOL     OW23960   2.300   5.978   1.499
 7334SOL    HW123961   2.382   5.922   1.508
 7334SOL    HW223962   2.219   5.920   1.503
 7335SOL     OW23963   3.465   6.033   0.737
 7335SOL    HW123964   3.391   6.079   0.687
 7335SOL    HW223965   3.516   6.101   0.790
 7336SOL     OW23966   2.093   7.299   0.483
 7336SOL    HW123967   2.127   7.376   0.537
 7336SOL    HW223968   2.137   7.299   0.393
 7337SOL     OW23969   2.989   6.927   1.690
 7337SOL    HW123970   3.036   6.927   1.778
 7337SOL    HW223971   2.941   6.840   1.679
 7338SOL     OW23972   2.092   7.020   0.538
 7338SOL    HW123973   2.066   7.116   0.538
 7338SOL    HW223974   2.021   6.966   0.583
 7339SOL     OW23975   2.102   6.677   0.886
 7339SOL    HW123976   2.116   6.593   0.938
 7339SOL    HW223977   2.047   6.741   0.941
 7340SOL     OW23978   2.482   7.372   1.439
 7340SOL    HW123979   2.390   7.355   1.474
 7340SOL    HW223980   2.510   7.464   1.465
 7341SOL     OW23981   2.468   6.550   0.123
 7341SOL    HW123982   2.475   6.634   0.069
 7341SOL    HW223983   2.514   6.563   0.211
 7342SOL     OW23984   3.456   5.700   1.480
 7342SOL    HW123985   3.438   5.767   1.408
 7342SOL    HW223986   3.453   5.746   1.569
 7343SOL     OW23987   1.984   6.229   0.563
 7343SOL    HW123988   1.939   6.141   0.580
 7343SOL    HW223989   1.983   6.283   0.647
 7344SOL     OW23990   3.704   7.353   0.359
 7344SOL    HW123991   3.758   7.324   0.439
 7344SOL    HW223992   3.734   7.443   0.330
 7345SOL     OW23993   3.551   6.508   0.612
 7345SOL    HW123994   3.646   6.479   0.620
 7345SOL    HW223995   3.543   6.573   0.537
 7346SOL     OW23996   3.503   6.694   0.432
 7346SOL    HW123997   3.589   6.696   0.380
 7346SOL    HW223998   3.517   6.741   0.520
 7347SOL     OW23999   1.975   6.323   1.597
 7347SOL    HW124000   2.063   6.310   1.642
 7347SOL    HW224001   1.962   6.420   1.575
 7348SOL     OW24002   2.475   6.951   0.726
 7348SOL    HW124003   2.426   6.864   0.735
 7348SOL    HW224004   2.452   6.994   0.639
 7349SOL     OW24005   3.155   6.814   1.423
 7349SOL    HW124006   3.192   6.741   1.365
 7349SOL    HW224007   3.207   6.819   1.508
 7350SOL     OW24008   2.671   5.590   0.502
 7350SOL    HW124009   2.711   5.681   0.493
 7350SOL    HW224010   2.571   5.598   0.508
 7351SOL     OW24011   2.059   6.562   1.264
 7351SOL    HW124012   2.148   6.517   1.250
 7351SOL    HW224013   1.986   6.497   1.245
 7352SOL     OW24014   3.387   6.585   0.190
 7352SOL    HW124015   3.324   6.509   0.203
 7352SOL    HW224016   3.435   6.603   0.276
 7353SOL     OW24017   3.049   7.378   1.616
 7353SOL    HW124018   3.073   7.438   1.540
 7353SOL    HW224019   3.056   7.283   1.586
 7354SOL     OW24020   2.179   5.837   1.801
 7354SOL    HW124021   2.250   5.908   1.807
 7354SOL    HW224022   2.091   5.876   1.829
 7355SOL     OW24023   3.328   7.003   0.953
 7355SOL    HW124024   3.269   7.009   1.033
 7355SOL    HW224025   3.313   6.915   0.907
 7356SOL     OW24026   3.529   7.300   0.572
 7356SOL    HW124027   3.488   7.277   0.484
 7356SOL    HW224028   3.511   7.226   0.637
 7357SOL     OW24029   2.460   6.315   0.270
 7357SOL    HW124030   2.484   6.384   0.202
 7357SOL    HW224031   2.382   6.348   0.324
 7358SOL     OW24032   3.143   5.931   0.944
 7358SOL    HW124033   3.057   5.881   0.931
 7358SOL    HW224034   3.205   5.877   1.000
 7359SOL     OW24035   3.438   7.248   0.307
 7359SOL    HW124036   3.527   7.294   0.310
 7359SOL    HW224037   3.417   7.224   0.212
 7360SOL     OW24038   2.835   6.476   1.572
 7360SOL    HW124039   2.881   6.392   1.543
 7360SOL    HW224040   2.779   6.510   1.497
 7361SOL     OW24041   2.853   5.996   1.242
 7361SOL    HW124042   2.776   6.030   1.296
 7361SOL    HW224043   2.819   5.945   1.163
 7362SOL     OW24044   2.903   6.287   0.429
 7362SOL    HW124045   2.929   6.283   0.525
 7362SOL    HW224046   2.818   6.236   0.415
 7363SOL     OW24047   1.938   6.397   0.789
 7363SOL    HW124048   2.037   6.385   0.798
 7363SOL    HW224049   1.914   6.492   0.810
 7364SOL     OW24050   1.992   7.407   1.571
 7364SOL    HW124051   1.982   7.392   1.670
 7364SOL    HW224052   1.906   7.443   1.535
 7365SOL     OW24053   2.727   5.934   0.195
 7365SOL    HW124054   2.786   5.997   0.146
 7365SOL    HW224055   2.746   5.840   0.166
 7366SOL     OW24056   3.581   6.171   1.831
 7366SOL    HW124057   3.555   6.260   1.795
 7366SOL    HW224058   3.579   6.103   1.758
 7367SOL     OW24059   3.224   6.730   0.545
 7367SOL    HW124060   3.307   6.701   0.497
 7367SOL    HW224061   3.175   6.797   0.489
 7368SOL     OW24062   2.412   5.782   0.885
 7368SOL    HW124063   2.407   5.777   0.985
 7368SOL    HW224064   2.414   5.878   0.856
 7369SOL     OW24065   2.870   7.042   0.477
 7369SOL    HW124066   2.824   7.114   0.425
 7369SOL    HW224067   2.866   7.062   0.575
 7370SOL     OW24068   2.213   7.387   0.853
 7370SOL    HW124069   2.263   7.301   0.859
 7370SOL    HW224070   2.278   7.464   0.850
 7371SOL     OW24071   3.657   6.652   0.873
 7371SOL    HW124072   3.595   6.637   0.797
 7371SOL    HW224073   3.605   6.663   0.958
 7372SOL     OW24074   3.089   7.136   1.506
 7372SOL    HW124075   3.095   7.059   1.570
 7372SOL    HW224076   3.037   7.110   1.426
 7373SOL     OW24077   2.183   6.529   0.242
 7373SOL    HW124078   2.265   6.568   0.200
 7373SOL    HW224079   2.156   6.447   0.193
 7374SOL     OW24080   3.320   6.321   0.728
 7374SOL    HW124081   3.315   6.256   0.803
 7374SOL    HW224082   3.400   6.380   0.741
 7375SOL     OW24083   2.323   6.852   1.727
 7375SOL    HW124084   2.273   6.853   1.641
 7375SOL    HW224085   2.260   6.834   1.803
 7376SOL     OW24086   2.973   7.362   0.237
 7376SOL    HW124087   2.913   7.300   0.287
 7376SOL    HW224088   3.004   7.318   0.152
 7377SOL     OW24089   2.064   5.871   1.498
 7377SOL    HW124090   1.984   5.931   1.485
 7377SOL    HW224091   2.054   5.822   1.584
 7378SOL     OW24092   3.494   6.963   0.081
 7378SOL    HW124093   3.462   7.057   0.071
 7378SOL    HW224094   3.418   6.900   0.069
 7379SOL     OW24095   2.326   7.329   0.323
 7379SOL    HW124096   2.359   7.368   0.409
 7379SOL    HW224097   2.402   7.322   0.258
 7380SOL     OW24098   3.262   5.693   0.426
 7380SOL    HW124099   3.238   5.656   0.336
 7380SOL    HW224100   3.361   5.709   0.430
 7381SOL     OW24101   2.111   7.371   1.241
 7381SOL    HW124102   2.168   7.306   1.291
 7381SOL    HW224103   2.095   7.338   1.148
 7382SOL     OW24104   2.802   7.284   0.904
 7382SOL    HW124105   2.882   7.227   0.925
 7382SOL    HW224106   2.753   7.244   0.827
 7383SOL     OW24107   2.244   6.286   0.480
 7383SOL    HW124108   2.289   6.196   0.477
 7383SOL    HW224109   2.150   6.275   0.513
 7384SOL     OW24110   3.409   5.808   1.729
 7384SOL    HW124111   3.404   5.845   1.821
 7384SOL    HW224112   3.337   5.739   1.717
 7385SOL     OW24113   2.476   5.708   0.117
 7385SOL    HW124114   2.574   5.686   0.124
 7385SOL    HW224115   2.445   5.691   0.024
 7386SOL     OW24116   2.750   7.100   1.195
 7386SOL    HW124117   2.727   7.075   1.101
 7386SOL    HW224118   2.811   7.031   1.234
 7387SOL     OW24119   2.665   6.988   0.924
 7387SOL    HW124120   2.755   7.002   0.882
 7387SOL    HW224121   2.594   6.990   0.853
 7388SOL     OW24122   2.784   6.089   0.899
 7388SOL    HW124123   2.759   6.080   0.803
 7388SOL    HW224124   2.832   6.007   0.930
 7389SOL     OW24125   2.401   5.650   0.512
 7389SOL    HW124126   2.320   5.651   0.570
 7389SOL    HW224127   2.404   5.733   0.457
 7390SOL     OW24128   3.296   6.774   0.041
 7390SOL    HW124129   3.328   6.698   0.098
 7390SOL    HW224130   3.204   6.801   0.071
 7391SOL     OW24131   2.159   5.621   0.171
 7391SOL    HW124132   2.208   5.705   0.150
 7391SOL    HW224133   2.221   5.556   0.216
 7392SOL     OW24134   2.797   5.822   0.480
 7392SOL    HW124135   2.749   5.863   0.402
 7392SOL    HW224136   2.896   5.820   0.461
 7393SOL     OW24137   3.089   7.156   0.793
 7393SOL    HW124138   3.110   7.230   0.728
 7393SOL    HW224139   3.157   7.156   0.866
 7394SOL     OW24140   2.321   6.738   0.741
 7394SOL    HW124141   2.250   6.711   0.806
 7394SOL    HW224142   2.295   6.710   0.648
 7395SOL     OW24143   3.133   7.383   0.591
 7395SOL    HW124144   3.177   7.447   0.527
 7395SOL    HW224145   3.083   7.435   0.661
 7396SOL     OW24146   2.894   6.135   0.016
 7396SOL    HW124147   2.853   6.217  -0.023
 7396SOL    HW224148   2.958   6.161   0.089
 7397SOL     OW24149   1.940   6.142   1.386
 7397SOL    HW124150   2.032   6.141   1.345
 7397SOL    HW224151   1.934   6.216   1.453
 7398SOL     OW24152   2.423   5.808   1.147
 7398SOL    HW124153   2.461   5.724   1.184
 7398SOL    HW224154   2.335   5.827   1.191
 7399SOL     OW24155   2.728   6.040   0.642
 7399SOL    HW124156   2.696   6.112   0.580
 7399SOL    HW224157   2.752   5.959   0.589
 7400SOL     OW24158   2.879   5.625   0.753
 7400SOL    HW124159   2.807   5.630   0.684
 7400SOL    HW224160   2.855   5.556   0.822
 7401SOL     OW24161   3.291   6.759   0.867
 7401SOL    HW124162   3.236   6.675   0.860
 7401SOL    HW224163   3.317   6.788   0.775
 7402SOL     OW24164   3.328   6.176   0.992
 7402SOL    HW124165   3.298   6.081   0.999
 7402SOL    HW224166   3.401   6.192   1.058
 7403SOL     OW24167   3.719   6.419   0.377
 7403SOL    HW124168   3.761   6.355   0.441
 7403SOL    HW224169   3.681   6.368   0.299
 7404SOL     OW24170   2.350   6.971   0.174
 7404SOL    HW124171   2.263   6.956   0.221
 7404SOL    HW224172   2.333   6.997   0.079
 7405SOL     OW24173   3.526   6.866   0.657
 7405SOL    HW124174   3.625   6.874   0.671
 7405SOL    HW224175   3.481   6.950   0.688
 7406SOL     OW24176   3.252   6.161   0.078
 7406SOL    HW124177   3.198   6.140   0.159
 7406SOL    HW224178   3.343   6.120   0.087
 7407SOL     OW24179   2.389   5.842   0.328
 7407SOL    HW124180   2.416   5.783   0.253
 7407SOL    HW224181   2.389   5.937   0.297
 7408SOL     OW24182   3.616   6.809   1.588
 7408SOL    HW124183   3.707   6.770   1.575
 7408SOL    HW224184   3.624   6.905   1.612
 7409SOL     OW24185   2.926   6.933   1.340
 7409SOL    HW124186   2.846   6.910   1.395
 7409SOL    HW224187   3.009   6.907   1.389
 7410SOL     OW24188   3.454   7.215   1.625
 7410SOL    HW124189   3.481   7.249   1.535
 7410SOL    HW224190   3.533   7.177   1.671
 7411SOL     OW24191   2.973   6.781   1.100
 7411SOL    HW124192   2.933   6.825   1.181
 7411SOL    HW224193   2.932   6.818   1.017
 7412SOL     OW24194   3.500   6.685   1.079
 7412SOL    HW124195   3.505   6.766   1.138
 7412SOL    HW224196   3.414   6.687   1.028
 7413SOL     OW24197   2.777   5.675   1.402
 7413SOL    HW124198   2.802   5.655   1.307
 7413SOL    HW224199   2.849   5.731   1.444
 7414SOL     OW24200   2.842   6.702   1.719
 7414SOL    HW124201   2.743   6.708   1.729
 7414SOL    HW224202   2.865   6.622   1.663
 7415SOL     OW24203   2.567   6.636   0.368
 7415SOL    HW124204   2.553   6.643   0.467
 7415SOL    HW224205   2.651   6.585   0.350
 7416SOL     OW24206   2.272   6.399   1.251
 7416SOL    HW124207   2.358   6.411   1.301
 7416SOL    HW224208   2.230   6.312   1.278
 7417SOL     OW24209   3.136   5.972   1.262
 7417SOL    HW124210   3.157   6.046   1.326
 7417SOL    HW224211   3.047   5.989   1.219
 7418SOL     OW24212   1.926   7.150   1.331
 7418SOL    HW124213   1.880   7.232   1.297
 7418SOL    HW224214   2.024   7.169   1.340
 7419SOL     OW24215   2.229   6.686   0.501
 7419SOL    HW124216   2.222   6.769   0.445
 7419SOL    HW224217   2.233   6.606   0.441
 7420SOL     OW24218   2.428   6.123   0.865
 7420SOL    HW124219   2.440   6.189   0.791
 7420SOL    HW224220   2.474   6.157   0.948
 7421SOL     OW24221   3.114   6.934   0.388
 7421SOL    HW124222   3.164   7.011   0.428
 7421SOL    HW224223   3.019   6.936   0.420
 7422SOL     OW24224   3.134   7.031   1.142
 7422SOL    HW124225   3.181   7.044   1.229
 7422SOL    HW224226   3.068   6.957   1.151
 7423SOL     OW24227   3.444   6.225   0.472
 7423SOL    HW124228   3.413   6.286   0.545
 7423SOL    HW224229   3.494   6.277   0.403
 7424SOL     OW24230   2.216   7.096   1.329
 7424SOL    HW124231   2.195   7.052   1.242
 7424SOL    HW224232   2.313   7.122   1.332
 7425SOL     OW24233   2.264   6.337   1.598
 7425SOL    HW124234   2.332   6.392   1.551
 7425SOL    HW224235   2.304   6.249   1.625
 7426SOL     OW24236   2.875   5.691   1.770
 7426SOL    HW124237   2.881   5.776   1.718
 7426SOL    HW224238   2.907   5.615   1.713
 7427SOL     OW24239   2.366   5.636   1.740
 7427SOL    HW124240   2.324   5.579   1.670
 7427SOL    HW224241   2.300   5.705   1.772
 7428SOL     OW24242   2.435   6.456   1.029
 7428SOL    HW124243   2.479   6.545   1.020
 7428SOL    HW224244   2.372   6.456   1.106
 7429SOL     OW24245   3.222   6.448   1.045
 7429SOL    HW124246   3.147   6.448   0.979
 7429SOL    HW224247   3.259   6.356   1.054
 7430SOL     OW24248   3.071   6.111   0.275
 7430SOL    HW124249   3.084   6.027   0.329
 7430SOL    HW224250   3.042   6.185   0.335
 7431SOL     OW24251   2.169   5.799   1.231
 7431SOL    HW124252   2.146   5.836   1.321
 7431SOL    HW224253   2.139   5.704   1.225
 7432SOL     OW24254   1.899   6.896   1.282
 7432SOL    HW124255   1.952   6.847   1.350
 7432SOL    HW224256   1.921   6.994   1.287
 7433SOL     OW24257   2.594   6.220   1.064
 7433SOL    HW124258   2.653   6.194   0.988
 7433SOL    HW224259   2.566   6.316   1.053
 7434SOL     OW24260   3.590   6.521   1.854
 7434SOL    HW124261   3.544   6.514   1.765
 7434SOL    HW224262   3.528   6.565   1.920
 7435SOL     OW24263   2.169   5.649   0.618
 7435SOL    HW124264   2.158   5.743   0.651
 7435SOL    HW224265   2.164   5.586   0.695
 7436SOL     OW24266   3.484   5.953   0.374
 7436SOL    HW124267   3.486   5.877   0.438
 7436SOL    HW224268   3.436   6.030   0.414
 7437SOL     OW24269   2.885   6.352   0.966
 7437SOL    HW124270   2.900   6.373   1.062
 7437SOL    HW224271   2.855   6.257   0.957
 7438SOL     OW24272   2.842   7.159   1.700
 7438SOL    HW124273   2.822   7.203   1.612
 7438SOL    HW224274   2.881   7.068   1.684
 7439SOL     OW24275   3.721   7.104   1.605
 7439SOL    HW124276   3.735   7.131   1.510
 7439SOL    HW224277   3.804   7.126   1.658
 7440SOL     OW24278   2.212   6.484   1.804
 7440SOL    HW124279   2.288   6.528   1.852
 7440SOL    HW224280   2.247   6.437   1.722
 7441SOL     OW24281   3.402   5.860   0.125
 7441SOL    HW124282   3.341   5.785   0.148
 7441SOL    HW224283   3.424   5.912   0.208
 7442SOL     OW24284   3.165   6.424   0.042
 7442SOL    HW124285   3.199   6.331   0.057
 7442SOL    HW224286   3.183   6.451  -0.053
 7443SOL     OW24287   2.930   6.919   0.849
 7443SOL    HW124288   2.937   6.835   0.794
 7443SOL    HW224289   2.992   6.988   0.813
 7444SOL     OW24290   2.181   6.396   0.949
 7444SOL    HW124291   2.274   6.432   0.954
 7444SOL    HW224292   2.175   6.311   1.001
 7445SOL     OW24293   2.201   6.095   1.006
 7445SOL    HW124294   2.149   6.012   0.989
 7445SOL    HW224295   2.278   6.100   0.942
 7446SOL     OW24296   2.373   6.001   1.808
 7446SOL    HW124297   2.355   6.046   1.896
 7446SOL    HW224298   2.415   6.066   1.745
 7447SOL     OW24299   3.022   5.793   1.477
 7447SOL    HW124300   3.022   5.857   1.554
 7447SOL    HW224301   3.050   5.841   1.394
 7448SOL     OW24302   1.870   6.912   0.200
 7448SOL    HW124303   1.777   6.933   0.169
 7448SOL    HW224304   1.880   6.813   0.213
 7449SOL     OW24305   1.950   7.387   0.927
 7449SOL    HW124306   1.908   7.301   0.900
 7449SOL    HW224307   2.044   7.390   0.893
 7450SOL     OW24308   2.366   7.154   0.910
 7450SOL    HW124309   2.432   7.228   0.919
 7450SOL    HW224310   2.410   7.075   0.868
 7451SOL     OW24311   2.864   6.382   1.238
 7451SOL    HW124312   2.905   6.350   1.324
 7451SOL    HW224313   2.768   6.355   1.235
 7452SOL     OW24314   1.902   6.130   1.114
 7452SOL    HW124315   1.987   6.097   1.073
 7452SOL    HW224316   1.915   6.145   1.212
 7453SOL     OW24317   2.051   6.106   1.722
 7453SOL    HW124318   2.110   6.066   1.652
 7453SOL    HW224319   1.993   6.177   1.681
 7454SOL     OW24320   2.677   6.158   0.325
 7454SOL    HW124321   2.684   6.069   0.279
 7454SOL    HW224322   2.583   6.192   0.317
 7455SOL     OW24323   3.519   6.190   1.206
 7455SOL    HW124324   3.481   6.121   1.268
 7455SOL    HW224325   3.601   6.154   1.162
 7456SOL     OW24326   2.114   7.150   1.744
 7456SOL    HW124327   2.084   7.207   1.820
 7456SOL    HW224328   2.107   7.053   1.770
 7457SOL     OW24329   2.533   6.050   1.269
 7457SOL    HW124330   2.499   5.961   1.239
 7457SOL    HW224331   2.559   6.104   1.189
 7458SOL     OW24332   2.792   7.264   1.465
 7458SOL    HW124333   2.768   7.246   1.370
 7458SOL    HW224334   2.822   7.358   1.475
 7459SOL     OW24335   2.335   6.086   0.191
 7459SOL    HW124336   2.396   6.166   0.195
 7459SOL    HW224337   2.240   6.117   0.198
 7460SOL     OW24338   2.021   6.723   1.466
 7460SOL    HW124339   2.043   6.662   1.542
 7460SOL    HW224340   2.031   6.674   1.380
 7461SOL     OW24341   3.164   6.441   0.309
 7461SOL    HW124342   3.078   6.410   0.351
 7461SOL    HW224343   3.160   6.427   0.210
 7462SOL     OW24344   3.621   7.333   1.154
 7462SOL    HW124345   3.682   7.363   1.081
 7462SOL    HW224346   3.583   7.244   1.132
 7463SOL     OW24347   3.114   7.317   1.128
 7463SOL    HW124348   3.198   7.322   1.074
 7463SOL    HW224349   3.091   7.221   1.146
 7464SOL     OW24350   1.945   6.844   1.022
 7464SOL    HW124351   1.940   6.843   1.122
 7464SOL    HW224352   1.862   6.803   0.984
 7465SOL     OW24353   2.550   7.248   1.716
 7465SOL    HW124354   2.494   7.329   1.725
 7465SOL    HW224355   2.602   7.252   1.630
 7466SOL     OW24356   2.765   5.672   0.133
 7466SOL    HW124357   2.816   5.673   0.047
 7466SOL    HW224358   2.821   5.630   0.204
 7467SOL     OW24359   3.588   5.721   0.523
 7467SOL    HW124360   3.661   5.704   0.456
 7467SOL    HW224361   3.557   5.634   0.561
 7468SOL     OW24362   3.250   7.159   0.477
 7468SOL    HW124363   3.317   7.171   0.403
 7468SOL    HW224364   3.210   7.248   0.500
 7469SOL     OW24365   1.992   7.380   1.851
 7469SOL    HW124366   1.951   7.306   1.904
 7469SOL    HW224367   2.056   7.431   1.909
 7470SOL     OW24368   3.142   6.513   0.672
 7470SOL    HW124369   3.202   6.432   0.674
 7470SOL    HW224370   3.182   6.582   0.612
 7471SOL     OW24371   2.692   6.859   1.422
 7471SOL    HW124372   2.687   6.892   1.517
 7471SOL    HW224373   2.606   6.878   1.376
 7472SOL     OW24374   2.534   7.202   0.154
 7472SOL    HW124375   2.543   7.212   0.055
 7472SOL    HW224376   2.494   7.113   0.175
 7473SOL     OW24377   3.512   7.306   1.394
 7473SOL    HW124378   3.565   7.316   1.310
 7473SOL    HW224379   3.485   7.396   1.428
 7474SOL     OW24380   3.703   5.761   0.963
 7474SOL    HW124381   3.742   5.676   0.927
 7474SOL    HW224382   3.605   5.763   0.944
 7475SOL     OW24383   2.125   5.912   0.720
 7475SOL    HW124384   2.046   5.963   0.686
 7475SOL    HW224385   2.116   5.897   0.818
 7476SOL     OW24386   3.056   7.198   0.031
 7476SOL    HW124387   3.062   7.105   0.068
 7476SOL    HW224388   2.997   7.198  -0.049
 7477SOL     OW24389   2.684   6.588   1.372
 7477SOL    HW124390   2.724   6.587   1.280
 7477SOL    HW224391   2.694   6.680   1.412
 7478SOL     OW24392   2.778   6.496   0.291
 7478SOL    HW124393   2.841   6.534   0.223
 7478SOL    HW224394   2.818   6.413   0.330
 7479SOL     OW24395   3.366   7.193   0.044
 7479SOL    HW124396   3.274   7.230   0.051
 7479SOL    HW224397   3.404   7.213  -0.046
 7480SOL     OW24398   2.234   6.874   1.490
 7480SOL    HW124399   2.221   6.967   1.456
 7480SOL    HW224400   2.150   6.822   1.477
 7481SOL     OW24401   3.476   6.878   1.289
 7481SOL    HW124402   3.536   6.881   1.369
 7481SOL    HW224403   3.401   6.942   1.302
 7482SOL     OW24404   2.901   6.684   0.696
 7482SOL    HW124405   2.831   6.637   0.750
 7482SOL    HW224406   2.960   6.616   0.653
 7483SOL     OW24407   2.876   5.822   0.971
 7483SOL    HW124408   2.868   5.786   0.878
 7483SOL    HW224409   2.874   5.746   1.036
 7484SOL     OW24410   2.452   7.073   0.491
 7484SOL    HW124411   2.494   7.015   0.421
 7484SOL    HW224412   2.408   7.152   0.447
 7485SOL     OW24413   3.571   5.971   1.381
 7485SOL    HW124414   3.644   6.040   1.385
 7485SOL    HW224415   3.599   5.896   1.322
 7486SOL     OW24416   2.117   6.934   0.290
 7486SOL    HW124417   2.021   6.935   0.263
 7486SOL    HW224418   2.129   6.987   0.374
 7487SOL     OW24419   1.967   6.599   1.726
 7487SOL    HW124420   1.890   6.566   1.780
 7487SOL    HW224421   2.052   6.569   1.768
 7488SOL     OW24422   2.534   5.789   1.489
 7488SOL    HW124423   2.624   5.773   1.449
 7488SOL    HW224424   2.542   5.794   1.588
 7489SOL     OW24425   1.934   5.752   0.318
 7489SOL    HW124426   1.917   5.835   0.264
 7489SOL    HW224427   2.024   5.715   0.296
 7490SOL     OW24428   3.045   6.921   0.119
 7490SOL    HW124429   2.946   6.910   0.121
 7490SOL    HW224430   3.079   6.936   0.212
 7491SOL     OW24431   2.475   6.428   1.431
 7491SOL    HW124432   2.531   6.509   1.414
 7491SOL    HW224433   2.534   6.348   1.434
 7492SOL     OW24434   3.355   7.353   0.959
 7492SOL    HW124435   3.388   7.417   0.890
 7492SOL    HW224436   3.421   7.347   1.034
 7493SOL     OW24437   3.312   6.806   1.633
 7493SOL    HW124438   3.303   6.796   1.732
 7493SOL    HW224439   3.408   6.799   1.607
 7494SOL     OW24440   2.252   7.327   1.560
 7494SOL    HW124441   2.161   7.368   1.558
 7494SOL    HW224442   2.245   7.233   1.592
 7495SOL     OW24443   3.536   6.469   1.254
 7495SOL    HW124444   3.509   6.380   1.217
 7495SOL    HW224445   3.537   6.537   1.181
 7496SOL     OW24446   3.087   5.911   0.449
 7496SOL    HW124447   3.152   5.837   0.438
 7496SOL    HW224448   3.107   5.961   0.533
 7497SOL     OW24449   2.456   6.331   0.652
 7497SOL    HW124450   2.506   6.416   0.633
 7497SOL    HW224451   2.368   6.333   0.604
 7498SOL     OW24452   3.639   5.928   1.642
 7498SOL    HW124453   3.622   5.959   1.548
 7498SOL    HW224454   3.555   5.891   1.680
 7499SOL     OW24455   3.592   6.520   1.517
 7499SOL    HW124456   3.630   6.611   1.532
 7499SOL    HW224457   3.584   6.503   1.418
 7500SOL     OW24458   2.721   6.960   0.016
 7500SOL    HW124459   2.675   6.975   0.104
 7500SOL    HW224460   2.765   7.045  -0.014
 7501SOL     OW24461   2.523   7.376   0.953
 7501SOL    HW124462   2.477   7.464   0.940
 7501SOL    HW224463   2.622   7.388   0.946
 7502SOL     OW24464   3.270   7.437   1.720
 7502SOL    HW124465   3.174   7.426   1.693
 7502SOL    HW224466   3.326   7.370   1.672
 7503SOL     OW24467   2.721   6.542   0.861
 7503SOL    HW124468   2.775   6.473   0.909
 7503SOL    HW224469   2.689   6.611   0.927
 7504SOL     OW24470   2.945   6.570   0.087
 7504SOL    HW124471   2.922   6.623   0.005
 7504SOL    HW224472   3.026   6.514   0.068
 7505SOL     OW24473   3.723   7.155   0.851
 7505SOL    HW124474   3.652   7.143   0.781
 7505SOL    HW224475   3.724   7.076   0.911
 7506SOL     OW24476   2.083   6.900   1.844
 7506SOL    HW124477   2.018   6.827   1.823
 7506SOL    HW224478   2.087   6.914   1.942
 7507SOL     OW24479   1.941   6.826   0.653
 7507SOL    HW124480   1.940   6.779   0.741
 7507SOL    HW224481   2.023   6.798   0.602
 7508SOL     OW24482   2.534   6.977   1.624
 7508SOL    HW124483   2.456   6.927   1.662
 7508SOL    HW224484   2.531   7.072   1.655
 7509SOL     OW24485   3.686   5.778   1.227
 7509SOL    HW124486   3.682   5.688   1.271
 7509SOL    HW224487   3.689   5.767   1.128
 7510SOL     OW24488   2.290   6.010   0.520
 7510SOL    HW124489   2.320   5.938   0.458
 7510SOL    HW224490   2.251   5.970   0.603
 7511SOL     OW24491   3.567   7.073   1.104
 7511SOL    HW124492   3.474   7.048   1.077
 7511SOL    HW224493   3.593   7.023   1.186
 7512SOL     OW24494   2.179   6.133   1.280
 7512SOL    HW124495   2.217   6.074   1.352
 7512SOL    HW224496   2.219   6.107   1.192
 7513SOL     OW24497   2.674   7.172   0.687
 7513SOL    HW124498   2.706   7.182   0.593
 7513SOL    HW224499   2.595   7.110   0.689
 7514SOL     OW24500   3.286   5.800   1.112
 7514SOL    HW124501   3.338   5.735   1.167
 7514SOL    HW224502   3.237   5.863   1.173
 7515SOL     OW24503   2.863   5.620   1.154
 7515SOL    HW124504   2.800   5.548   1.123
 7515SOL    HW224505   2.956   5.584   1.154
 7516SOL     OW24506   2.632   6.916   0.301
 7516SOL    HW124507   2.586   6.829   0.318
 7516SOL    HW224508   2.723   6.913   0.342
 7517SOL     OW24509   2.480   7.153   1.284
 7517SOL    HW124510   2.475   7.235   1.341
 7517SOL    HW224511   2.569   7.150   1.239
 7518SOL     OW24512   3.162   6.039   0.691
 7518SOL    HW124513   3.103   6.119   0.695
 7518SOL    HW224514   3.177   6.004   0.784
 7519SOL     OW24515   3.455   5.807   0.882
 7519SOL    HW124516   3.371   5.806   0.936
 7519SOL    HW224517   3.457   5.890   0.826
 7520SOL     OW24518   1.901   6.663   0.300
 7520SOL    HW124519   2.000   6.652   0.291
 7520SOL    HW224520   1.861   6.577   0.332
 7521SOL     OW24521   2.737   7.232   0.337
 7521SOL    HW124522   2.660   7.197   0.283
 7521SOL    HW224523   2.705   7.303   0.399
 7522SOL     OW24524   2.092   6.214   1.975
 7522SOL    HW124525   1.999   6.212   2.012
 7522SOL    HW224526   2.093   6.175   1.883
 7523SOL     OW24527   2.431   6.861   3.027
 7523SOL    HW124528   2.338   6.854   2.990
 7523SOL    HW224529   2.442   6.950   3.071
 7524SOL     OW24530   3.417   7.097   2.565
 7524SOL    HW124531   3.360   7.081   2.646
 7524SOL    HW224532   3.358   7.107   2.485
 7525SOL     OW24533   3.605   6.204   2.718
 7525SOL    HW124534   3.638   6.298   2.718
 7525SOL    HW224535   3.656   6.150   2.784
 7526SOL     OW24536   3.617   6.193   2.093
 7526SOL    HW124537   3.605   6.180   1.994
 7526SOL    HW224538   3.587   6.112   2.142
 7527SOL     OW24539   2.630   6.730   2.885
 7527SOL    HW124540   2.552   6.747   2.945
 7527SOL    HW224541   2.664   6.817   2.849
 7528SOL     OW24542   2.547   6.598   2.527
 7528SOL    HW124543   2.616   6.582   2.597
 7528SOL    HW224544   2.474   6.655   2.565
 7529SOL     OW24545   2.548   6.747   3.665
 7529SOL    HW124546   2.608   6.826   3.679
 7529SOL    HW224547   2.462   6.778   3.624
 7530SOL     OW24548   2.197   7.021   2.923
 7530SOL    HW124549   2.119   6.990   2.870
 7530SOL    HW224550   2.255   7.079   2.866
 7531SOL     OW24551   3.322   7.091   3.201
 7531SOL    HW124552   3.346   7.185   3.227
 7531SOL    HW224553   3.306   7.037   3.283
 7532SOL     OW24554   2.300   5.978   3.361
 7532SOL    HW124555   2.382   5.922   3.370
 7532SOL    HW224556   2.219   5.920   3.365
 7533SOL     OW24557   3.465   6.033   2.599
 7533SOL    HW124558   3.391   6.079   2.549
 7533SOL    HW224559   3.516   6.101   2.652
 7534SOL     OW24560   2.093   7.299   2.345
 7534SOL    HW124561   2.127   7.376   2.399
 7534SOL    HW224562   2.137   7.299   2.255
 7535SOL     OW24563   2.989   6.927   3.552
 7535SOL    HW124564   3.036   6.927   3.640
 7535SOL    HW224565   2.941   6.840   3.541
 7536SOL     OW24566   2.092   7.020   2.400
 7536SOL    HW124567   2.066   7.116   2.400
 7536SOL    HW224568   2.021   6.966   2.445
 7537SOL     OW24569   2.102   6.677   2.748
 7537SOL    HW124570   2.116   6.593   2.800
 7537SOL    HW224571   2.047   6.741   2.803
 7538SOL     OW24572   2.482   7.372   3.301
 7538SOL    HW124573   2.390   7.355   3.336
 7538SOL    HW224574   2.510   7.464   3.327
 7539SOL     OW24575   2.468   6.550   1.985
 7539SOL    HW124576   2.475   6.634   1.931
 7539SOL    HW224577   2.514   6.563   2.073
 7540SOL     OW24578   3.456   5.700   3.342
 7540SOL    HW124579   3.438   5.767   3.270
 7540SOL    HW224580   3.453   5.746   3.431
 7541SOL     OW24581   1.984   6.229   2.425
 7541SOL    HW124582   1.939   6.141   2.442
 7541SOL    HW224583   1.983   6.283   2.509
 7542SOL     OW24584   3.704   7.353   2.221
 7542SOL    HW124585   3.758   7.324   2.301
 7542SOL    HW224586   3.734   7.443   2.192
 7543SOL     OW24587   1.889   7.182   1.979
 7543SOL    HW124588   1.870   7.086   2.000
 7543SOL    HW224589   1.856   7.240   2.054
 7544SOL     OW24590   3.551   6.508   2.474
 7544SOL    HW124591   3.646   6.479   2.482
 7544SOL    HW224592   3.543   6.573   2.399
 7545SOL     OW24593   3.503   6.694   2.294
 7545SOL    HW124594   3.589   6.696   2.242
 7545SOL    HW224595   3.517   6.741   2.382
 7546SOL     OW24596   1.975   6.323   3.459
 7546SOL    HW124597   2.063   6.310   3.504
 7546SOL    HW224598   1.962   6.420   3.437
 7547SOL     OW24599   2.475   6.951   2.588
 7547SOL    HW124600   2.426   6.864   2.597
 7547SOL    HW224601   2.452   6.994   2.501
 7548SOL     OW24602   3.155   6.814   3.285
 7548SOL    HW124603   3.192   6.741   3.227
 7548SOL    HW224604   3.207   6.819   3.370
 7549SOL     OW24605   2.059   6.562   3.126
 7549SOL    HW124606   2.148   6.517   3.112
 7549SOL    HW224607   1.986   6.497   3.107
 7550SOL     OW24608   3.049   7.378   3.478
 7550SOL    HW124609   3.073   7.438   3.402
 7550SOL    HW224610   3.056   7.283   3.448
 7551SOL     OW24611   2.179   5.837   3.663
 7551SOL    HW124612   2.250   5.908   3.669
 7551SOL    HW224613   2.091   5.876   3.691
 7552SOL     OW24614   3.328   7.003   2.815
 7552SOL    HW124615   3.269   7.009   2.895
 7552SOL    HW224616   3.313   6.915   2.769
 7553SOL     OW24617   3.529   7.300   2.434
 7553SOL    HW124618   3.488   7.277   2.346
 7553SOL    HW224619   3.511   7.226   2.499
 7554SOL     OW24620   2.460   6.315   2.132
 7554SOL    HW124621   2.484   6.384   2.064
 7554SOL    HW224622   2.382   6.348   2.186
 7555SOL     OW24623   3.438   7.248   2.169
 7555SOL    HW124624   3.527   7.294   2.172
 7555SOL    HW224625   3.417   7.224   2.074
 7556SOL     OW24626   1.938   6.397   2.651
 7556SOL    HW124627   2.037   6.385   2.660
 7556SOL    HW224628   1.914   6.492   2.672
 7557SOL     OW24629   1.992   7.407   3.433
 7557SOL    HW124630   1.982   7.392   3.532
 7557SOL    HW224631   1.906   7.443   3.397
 7558SOL     OW24632   3.224   6.730   2.407
 7558SOL    HW124633   3.307   6.701   2.359
 7558SOL    HW224634   3.175   6.797   2.351
 7559SOL     OW24635   2.870   7.042   2.339
 7559SOL    HW124636   2.824   7.114   2.287
 7559SOL    HW224637   2.866   7.062   2.437
 7560SOL     OW24638   2.213   7.387   2.715
 7560SOL    HW124639   2.263   7.301   2.721
 7560SOL    HW224640   2.278   7.464   2.712
 7561SOL     OW24641   3.657   6.652   2.735
 7561SOL    HW124642   3.595   6.637   2.659
 7561SOL    HW224643   3.605   6.663   2.820
 7562SOL     OW24644   3.089   7.136   3.368
 7562SOL    HW124645   3.095   7.059   3.432
 7562SOL    HW224646   3.037   7.110   3.288
 7563SOL     OW24647   2.183   6.529   2.104
 7563SOL    HW124648   2.265   6.568   2.062
 7563SOL    HW224649   2.156   6.447   2.055
 7564SOL     OW24650   3.320   6.321   2.590
 7564SOL    HW124651   3.315   6.256   2.665
 7564SOL    HW224652   3.400   6.380   2.603
 7565SOL     OW24653   2.323   6.852   3.589
 7565SOL    HW124654   2.273   6.853   3.503
 7565SOL    HW224655   2.260   6.834   3.665
 7566SOL     OW24656   2.973   7.362   2.099
 7566SOL    HW124657   2.913   7.300   2.149
 7566SOL    HW224658   3.004   7.318   2.014
 7567SOL     OW24659   2.064   5.871   3.360
 7567SOL    HW124660   1.984   5.931   3.347
 7567SOL    HW224661   2.054   5.822   3.446
 7568SOL     OW24662   3.494   6.963   1.943
 7568SOL    HW124663   3.462   7.057   1.933
 7568SOL    HW224664   3.418   6.900   1.931
 7569SOL     OW24665   2.326   7.329   2.185
 7569SOL    HW124666   2.359   7.368   2.271
 7569SOL    HW224667   2.402   7.322   2.120
 7570SOL     OW24668   3.262   5.693   2.288
 7570SOL    HW124669   3.238   5.656   2.198
 7570SOL    HW224670   3.361   5.709   2.292
 7571SOL     OW24671   2.111   7.371   3.103
 7571SOL    HW124672   2.168   7.306   3.153
 7571SOL    HW224673   2.095   7.338   3.010
 7572SOL     OW24674   2.802   7.284   2.766
 7572SOL    HW124675   2.882   7.227   2.787
 7572SOL    HW224676   2.753   7.244   2.689
 7573SOL     OW24677   2.244   6.286   2.342
 7573SOL    HW124678   2.289   6.196   2.339
 7573SOL    HW224679   2.150   6.275   2.375
 7574SOL     OW24680   3.409   5.808   3.591
 7574SOL    HW124681   3.404   5.845   3.683
 7574SOL    HW224682   3.337   5.739   3.579
 7575SOL     OW24683   2.476   5.708   1.979
 7575SOL    HW124684   2.574   5.686   1.986
 7575SOL    HW224685   2.445   5.691   1.886
 7576SOL     OW24686   2.643   5.850   3.611
 7576SOL    HW124687   2.710   5.789   3.654
 7576SOL    HW224688   2.570   5.869   3.676
 7577SOL     OW24689   2.750   7.100   3.057
 7577SOL    HW124690   2.727   7.075   2.963
 7577SOL    HW224691   2.811   7.031   3.096
 7578SOL     OW24692   2.665   6.988   2.786
 7578SOL    HW124693   2.755   7.002   2.744
 7578SOL    HW224694   2.594   6.990   2.715
 7579SOL     OW24695   2.401   5.650   2.374
 7579SOL    HW124696   2.320   5.651   2.432
 7579SOL    HW224697   2.404   5.733   2.319
 7580SOL     OW24698   3.296   6.774   1.903
 7580SOL    HW124699   3.328   6.698   1.960
 7580SOL    HW224700   3.204   6.801   1.933
 7581SOL     OW24701   2.159   5.621   2.033
 7581SOL    HW124702   2.208   5.705   2.012
 7581SOL    HW224703   2.221   5.556   2.078
 7582SOL     OW24704   3.089   7.156   2.655
 7582SOL    HW124705   3.110   7.230   2.590
 7582SOL    HW224706   3.157   7.156   2.728
 7583SOL     OW24707   2.321   6.738   2.603
 7583SOL    HW124708   2.250   6.711   2.668
 7583SOL    HW224709   2.295   6.710   2.510
 7584SOL     OW24710   3.133   7.383   2.453
 7584SOL    HW124711   3.177   7.447   2.389
 7584SOL    HW224712   3.083   7.435   2.523
 7585SOL     OW24713   1.940   6.142   3.248
 7585SOL    HW124714   2.032   6.141   3.207
 7585SOL    HW224715   1.934   6.216   3.315
 7586SOL     OW24716   3.291   6.759   2.729
 7586SOL    HW124717   3.236   6.675   2.722
 7586SOL    HW224718   3.317   6.788   2.637
 7587SOL     OW24719   3.719   6.419   2.239
 7587SOL    HW124720   3.761   6.355   2.303
 7587SOL    HW224721   3.681   6.368   2.161
 7588SOL     OW24722   2.350   6.971   2.036
 7588SOL    HW124723   2.263   6.956   2.083
 7588SOL    HW224724   2.333   6.997   1.941
 7589SOL     OW24725   3.526   6.866   2.519
 7589SOL    HW124726   3.625   6.874   2.533
 7589SOL    HW224727   3.481   6.950   2.550
 7590SOL     OW24728   2.389   5.842   2.190
 7590SOL    HW124729   2.416   5.783   2.115
 7590SOL    HW224730   2.389   5.937   2.159
 7591SOL     OW24731   3.616   6.809   3.450
 7591SOL    HW124732   3.707   6.770   3.437
 7591SOL    HW224733   3.624   6.905   3.474
 7592SOL     OW24734   2.926   6.933   3.202
 7592SOL    HW124735   2.846   6.910   3.257
 7592SOL    HW224736   3.009   6.907   3.251
 7593SOL     OW24737   3.454   7.215   3.487
 7593SOL    HW124738   3.481   7.249   3.397
 7593SOL    HW224739   3.533   7.177   3.533
 7594SOL     OW24740   2.973   6.781   2.962
 7594SOL    HW124741   2.933   6.825   3.043
 7594SOL    HW224742   2.932   6.818   2.879
 7595SOL     OW24743   3.500   6.685   2.941
 7595SOL    HW124744   3.505   6.766   3.000
 7595SOL    HW224745   3.414   6.687   2.890
 7596SOL     OW24746   2.777   5.675   3.264
 7596SOL    HW124747   2.802   5.655   3.169
 7596SOL    HW224748   2.849   5.731   3.306
 7597SOL     OW24749   2.842   6.702   3.581
 7597SOL    HW124750   2.743   6.708   3.591
 7597SOL    HW224751   2.865   6.622   3.525
 7598SOL     OW24752   2.567   6.636   2.230
 7598SOL    HW124753   2.553   6.643   2.329
 7598SOL    HW224754   2.651   6.585   2.212
 7599SOL     OW24755   2.272   6.399   3.113
 7599SOL    HW124756   2.358   6.411   3.163
 7599SOL    HW224757   2.230   6.312   3.140
 7600SOL     OW24758   1.926   7.150   3.193
 7600SOL    HW124759   1.880   7.232   3.159
 7600SOL    HW224760   2.024   7.169   3.202
 7601SOL     OW24761   2.229   6.686   2.363
 7601SOL    HW124762   2.222   6.769   2.307
 7601SOL    HW224763   2.233   6.606   2.303
 7602SOL     OW24764   2.428   6.123   2.727
 7602SOL    HW124765   2.440   6.189   2.653
 7602SOL    HW224766   2.474   6.157   2.810
 7603SOL     OW24767   3.114   6.934   2.250
 7603SOL    HW124768   3.164   7.011   2.290
 7603SOL    HW224769   3.019   6.936   2.282
 7604SOL     OW24770   3.134   7.031   3.004
 7604SOL    HW124771   3.181   7.044   3.091
 7604SOL    HW224772   3.068   6.957   3.013
 7605SOL     OW24773   3.444   6.225   2.334
 7605SOL    HW124774   3.413   6.286   2.407
 7605SOL    HW224775   3.494   6.277   2.265
 7606SOL     OW24776   2.216   7.096   3.191
 7606SOL    HW124777   2.195   7.052   3.104
 7606SOL    HW224778   2.313   7.122   3.194
 7607SOL     OW24779   2.264   6.337   3.460
 7607SOL    HW124780   2.332   6.392   3.413
 7607SOL    HW224781   2.304   6.249   3.487
 7608SOL     OW24782   3.449   6.365   3.532
 7608SOL    HW124783   3.357   6.403   3.527
 7608SOL    HW224784   3.509   6.412   3.467
 7609SOL     OW24785   2.366   5.636   3.602
 7609SOL    HW124786   2.324   5.579   3.532
 7609SOL    HW224787   2.300   5.705   3.634
 7610SOL     OW24788   2.435   6.456   2.891
 7610SOL    HW124789   2.479   6.545   2.882
 7610SOL    HW224790   2.372   6.456   2.968
 7611SOL     OW24791   2.169   5.799   3.093
 7611SOL    HW124792   2.146   5.836   3.183
 7611SOL    HW224793   2.139   5.704   3.087
 7612SOL     OW24794   1.899   6.896   3.144
 7612SOL    HW124795   1.952   6.847   3.212
 7612SOL    HW224796   1.921   6.994   3.149
 7613SOL     OW24797   2.594   6.220   2.926
 7613SOL    HW124798   2.653   6.194   2.850
 7613SOL    HW224799   2.566   6.316   2.915
 7614SOL     OW24800   3.590   6.521   3.716
 7614SOL    HW124801   3.544   6.514   3.627
 7614SOL    HW224802   3.528   6.565   3.782
 7615SOL     OW24803   2.169   5.649   2.480
 7615SOL    HW124804   2.158   5.743   2.513
 7615SOL    HW224805   2.164   5.586   2.557
 7616SOL     OW24806   2.885   6.352   2.828
 7616SOL    HW124807   2.900   6.373   2.924
 7616SOL    HW224808   2.855   6.257   2.819
 7617SOL     OW24809   2.842   7.159   3.562
 7617SOL    HW124810   2.822   7.203   3.474
 7617SOL    HW224811   2.881   7.068   3.546
 7618SOL     OW24812   3.721   7.104   3.467
 7618SOL    HW124813   3.735   7.131   3.372
 7618SOL    HW224814   3.804   7.126   3.520
 7619SOL     OW24815   2.212   6.484   3.666
 7619SOL    HW124816   2.288   6.528   3.714
 7619SOL    HW224817   2.247   6.437   3.584
 7620SOL     OW24818   2.930   6.919   2.711
 7620SOL    HW124819   2.937   6.835   2.656
 7620SOL    HW224820   2.992   6.988   2.675
 7621SOL     OW24821   2.181   6.396   2.811
 7621SOL    HW124822   2.274   6.432   2.816
 7621SOL    HW224823   2.175   6.311   2.863
 7622SOL     OW24824   2.201   6.095   2.868
 7622SOL    HW124825   2.149   6.012   2.851
 7622SOL    HW224826   2.278   6.100   2.804
 7623SOL     OW24827   1.870   6.912   2.062
 7623SOL    HW124828   1.777   6.933   2.031
 7623SOL    HW224829   1.880   6.813   2.075
 7624SOL     OW24830   1.950   7.387   2.789
 7624SOL    HW124831   1.908   7.301   2.762
 7624SOL    HW224832   2.044   7.390   2.755
 7625SOL     OW24833   2.366   7.154   2.772
 7625SOL    HW124834   2.432   7.228   2.781
 7625SOL    HW224835   2.410   7.075   2.730
 7626SOL     OW24836   1.902   6.130   2.976
 7626SOL    HW124837   1.987   6.097   2.935
 7626SOL    HW224838   1.915   6.145   3.074
 7627SOL     OW24839   2.051   6.106   3.584
 7627SOL    HW124840   2.110   6.066   3.514
 7627SOL    HW224841   1.993   6.177   3.543
 7628SOL     OW24842   3.231   6.536   3.522
 7628SOL    HW124843   3.270   6.625   3.542
 7628SOL    HW224844   3.241   6.516   3.425
 7629SOL     OW24845   2.677   6.158   2.187
 7629SOL    HW124846   2.684   6.069   2.141
 7629SOL    HW224847   2.583   6.192   2.179
 7630SOL     OW24848   3.519   6.190   3.068
 7630SOL    HW124849   3.481   6.121   3.130
 7630SOL    HW224850   3.601   6.154   3.024
 7631SOL     OW24851   2.114   7.150   3.606
 7631SOL    HW124852   2.084   7.207   3.682
 7631SOL    HW224853   2.107   7.053   3.632
 7632SOL     OW24854   2.792   7.264   3.327
 7632SOL    HW124855   2.768   7.246   3.232
 7632SOL    HW224856   2.822   7.358   3.337
 7633SOL     OW24857   2.335   6.086   2.053
 7633SOL    HW124858   2.396   6.166   2.057
 7633SOL    HW224859   2.240   6.117   2.060
 7634SOL     OW24860   2.021   6.723   3.328
 7634SOL    HW124861   2.043   6.662   3.404
 7634SOL    HW224862   2.031   6.674   3.242
 7635SOL     OW24863   3.209   6.645   3.096
 7635SOL    HW124864   3.233   6.582   3.022
 7635SOL    HW224865   3.119   6.685   3.078
 7636SOL     OW24866   3.621   7.333   3.016
 7636SOL    HW124867   3.682   7.363   2.943
 7636SOL    HW224868   3.583   7.244   2.994
 7637SOL     OW24869   3.114   7.317   2.990
 7637SOL    HW124870   3.198   7.322   2.936
 7637SOL    HW224871   3.091   7.221   3.008
 7638SOL     OW24872   1.945   6.844   2.884
 7638SOL    HW124873   1.940   6.843   2.984
 7638SOL    HW224874   1.862   6.803   2.846
 7639SOL     OW24875   2.550   7.248   3.578
 7639SOL    HW124876   2.494   7.329   3.587
 7639SOL    HW224877   2.602   7.252   3.492
 7640SOL     OW24878   3.250   7.159   2.339
 7640SOL    HW124879   3.317   7.171   2.265
 7640SOL    HW224880   3.210   7.248   2.362
 7641SOL     OW24881   1.992   7.380   3.713
 7641SOL    HW124882   1.951   7.306   3.766
 7641SOL    HW224883   2.056   7.431   3.771
 7642SOL     OW24884   3.142   6.513   2.534
 7642SOL    HW124885   3.202   6.432   2.536
 7642SOL    HW224886   3.182   6.582   2.474
 7643SOL     OW24887   2.692   6.859   3.284
 7643SOL    HW124888   2.687   6.892   3.379
 7643SOL    HW224889   2.606   6.878   3.238
 7644SOL     OW24890   2.534   7.202   2.016
 7644SOL    HW124891   2.543   7.212   1.917
 7644SOL    HW224892   2.494   7.113   2.037
 7645SOL     OW24893   3.512   7.306   3.256
 7645SOL    HW124894   3.565   7.316   3.172
 7645SOL    HW224895   3.485   7.396   3.290
 7646SOL     OW24896   3.703   5.761   2.825
 7646SOL    HW124897   3.742   5.676   2.789
 7646SOL    HW224898   3.605   5.763   2.806
 7647SOL     OW24899   2.125   5.912   2.582
 7647SOL    HW124900   2.046   5.963   2.548
 7647SOL    HW224901   2.116   5.897   2.680
 7648SOL     OW24902   3.056   7.198   1.893
 7648SOL    HW124903   3.062   7.105   1.930
 7648SOL    HW224904   2.997   7.198   1.813
 7649SOL     OW24905   2.684   6.588   3.234
 7649SOL    HW124906   2.724   6.587   3.142
 7649SOL    HW224907   2.694   6.680   3.274
 7650SOL     OW24908   2.778   6.496   2.153
 7650SOL    HW124909   2.841   6.534   2.085
 7650SOL    HW224910   2.818   6.413   2.192
 7651SOL     OW24911   3.366   7.193   1.906
 7651SOL    HW124912   3.274   7.230   1.913
 7651SOL    HW224913   3.404   7.213   1.816
 7652SOL     OW24914   2.234   6.874   3.352
 7652SOL    HW124915   2.221   6.967   3.318
 7652SOL    HW224916   2.150   6.822   3.339
 7653SOL     OW24917   3.476   6.878   3.151
 7653SOL    HW124918   3.536   6.881   3.231
 7653SOL    HW224919   3.401   6.942   3.164
 7654SOL     OW24920   2.901   6.684   2.558
 7654SOL    HW124921   2.831   6.637   2.612
 7654SOL    HW224922   2.960   6.616   2.515
 7655SOL     OW24923   2.452   7.073   2.353
 7655SOL    HW124924   2.494   7.015   2.283
 7655SOL    HW224925   2.408   7.152   2.309
 7656SOL     OW24926   3.571   5.971   3.243
 7656SOL    HW124927   3.644   6.040   3.247
 7656SOL    HW224928   3.599   5.896   3.184
 7657SOL     OW24929   2.117   6.934   2.152
 7657SOL    HW124930   2.021   6.935   2.125
 7657SOL    HW224931   2.129   6.987   2.236
 7658SOL     OW24932   1.967   6.599   3.588
 7658SOL    HW124933   1.890   6.566   3.642
 7658SOL    HW224934   2.052   6.569   3.630
 7659SOL     OW24935   2.534   5.789   3.351
 7659SOL    HW124936   2.624   5.773   3.311
 7659SOL    HW224937   2.542   5.794   3.450
 7660SOL     OW24938   1.937   5.931   1.895
 7660SOL    HW124939   1.845   5.903   1.866
 7660SOL    HW224940   1.968   6.008   1.839
 7661SOL     OW24941   3.302   6.442   3.260
 7661SOL    HW124942   3.245   6.494   3.197
 7661SOL    HW224943   3.398   6.454   3.236
 7662SOL     OW24944   1.934   5.752   2.180
 7662SOL    HW124945   1.917   5.835   2.126
 7662SOL    HW224946   2.024   5.715   2.158
 7663SOL     OW24947   3.045   6.921   1.981
 7663SOL    HW124948   2.946   6.910   1.983
 7663SOL    HW224949   3.079   6.936   2.074
 7664SOL     OW24950   3.355   7.353   2.821
 7664SOL    HW124951   3.388   7.417   2.752
 7664SOL    HW224952   3.421   7.347   2.896
 7665SOL     OW24953   3.312   6.806   3.495
 7665SOL    HW124954   3.303   6.796   3.594
 7665SOL    HW224955   3.408   6.799   3.469
 7666SOL     OW24956   2.252   7.327   3.422
 7666SOL    HW124957   2.161   7.368   3.420
 7666SOL    HW224958   2.245   7.233   3.454
 7667SOL     OW24959   2.456   6.331   2.514
 7667SOL    HW124960   2.506   6.416   2.495
 7667SOL    HW224961   2.368   6.333   2.466
 7668SOL     OW24962   3.639   5.928   3.504
 7668SOL    HW124963   3.622   5.959   3.410
 7668SOL    HW224964   3.555   5.891   3.542
 7669SOL     OW24965   3.592   6.520   3.379
 7669SOL    HW124966   3.630   6.611   3.394
 7669SOL    HW224967   3.584   6.503   3.280
 7670SOL     OW24968   2.721   6.960   1.878
 7670SOL    HW124969   2.675   6.975   1.966
 7670SOL    HW224970   2.765   7.045   1.848
 7671SOL     OW24971   2.523   7.376   2.815
 7671SOL    HW124972   2.477   7.464   2.802
 7671SOL    HW224973   2.622   7.388   2.808
 7672SOL     OW24974   3.270   7.437   3.582
 7672SOL    HW124975   3.174   7.426   3.555
 7672SOL    HW224976   3.326   7.370   3.534
 7673SOL     OW24977   2.721   6.542   2.723
 7673SOL    HW124978   2.775   6.473   2.771
 7673SOL    HW224979   2.689   6.611   2.789
 7674SOL     OW24980   2.945   6.570   1.949
 7674SOL    HW124981   2.922   6.623   1.867
 7674SOL    HW224982   3.026   6.514   1.930
 7675SOL     OW24983   3.723   7.155   2.713
 7675SOL    HW124984   3.652   7.143   2.643
 7675SOL    HW224985   3.724   7.076   2.773
 7676SOL     OW24986   2.083   6.900   3.706
 7676SOL    HW124987   2.018   6.827   3.685
 7676SOL    HW224988   2.087   6.914   3.804
 7677SOL     OW24989   1.941   6.826   2.515
 7677SOL    HW124990   1.940   6.779   2.603
 7677SOL    HW224991   2.023   6.798   2.464
 7678SOL     OW24992   2.534   6.977   3.486
 7678SOL    HW124993   2.456   6.927   3.524
 7678SOL    HW224994   2.531   7.072   3.517
 7679SOL     OW24995   3.686   5.778   3.089
 7679SOL    HW124996   3.682   5.688   3.133
 7679SOL    HW224997   3.689   5.767   2.990
 7680SOL     OW24998   2.290   6.010   2.382
 7680SOL    HW124999   2.320   5.938   2.320
 7680SOL    HW225000   2.251   5.970   2.465
 7681SOL     OW25001   3.567   7.073   2.966
 7681SOL    HW125002   3.474   7.048   2.939
 7681SOL    HW225003   3.593   7.023   3.048
 7682SOL     OW25004   2.179   6.133   3.142
 7682SOL    HW125005   2.217   6.074   3.214
 7682SOL    HW225006   2.219   6.107   3.054
 7683SOL     OW25007   2.674   7.172   2.549
 7683SOL    HW125008   2.706   7.182   2.455
 7683SOL    HW225009   2.595   7.110   2.551
 7684SOL     OW25010   2.863   5.620   3.016
 7684SOL    HW125011   2.800   5.548   2.985
 7684SOL    HW225012   2.956   5.584   3.016
 7685SOL     OW25013   2.632   6.916   2.163
 7685SOL    HW125014   2.586   6.829   2.180
 7685SOL    HW225015   2.723   6.913   2.204
 7686SOL     OW25016   2.480   7.153   3.146
 7686SOL    HW125017   2.475   7.235   3.203
 7686SOL    HW225018   2.569   7.150   3.101
 7687SOL     OW25019   3.214   5.638   2.030
 7687SOL    HW125020   3.249   5.597   1.946
 7687SOL    HW225021   3.124   5.600   2.050
 7688SOL     OW25022   1.901   6.663   2.162
 7688SOL    HW125023   2.000   6.652   2.153
 7688SOL    HW225024   1.861   6.577   2.194
 7689SOL     OW25025   2.737   7.232   2.199
 7689SOL    HW125026   2.660   7.197   2.145
 7689SOL    HW225027   2.705   7.303   2.261
 7690SOL     OW25028   2.092   6.214   3.837
 7690SOL    HW125029   1.999   6.212   3.874
 7690SOL    HW225030   2.093   6.175   3.745
 7691SOL     OW25031   2.087   5.861   4.720
 7691SOL    HW125032   2.122   5.844   4.812
 7691SOL    HW225033   1.999   5.816   4.708
 7692SOL     OW25034   1.881   5.954   4.371
 7692SOL    HW125035   1.799   5.997   4.410
 7692SOL    HW225036   1.853   5.881   4.308
 7693SOL     OW25037   2.431   6.861   4.889
 7693SOL    HW125038   2.338   6.854   4.852
 7693SOL    HW225039   2.442   6.950   4.933
 7694SOL     OW25040   3.417   7.097   4.427
 7694SOL    HW125041   3.360   7.081   4.508
 7694SOL    HW225042   3.358   7.107   4.347
 7695SOL     OW25043   3.605   6.204   4.580
 7695SOL    HW125044   3.638   6.298   4.580
 7695SOL    HW225045   3.656   6.150   4.646
 7696SOL     OW25046   2.997   6.289   4.441
 7696SOL    HW125047   3.054   6.367   4.416
 7696SOL    HW225048   2.937   6.315   4.517
 7697SOL     OW25049   3.617   6.193   3.955
 7697SOL    HW125050   3.605   6.180   3.856
 7697SOL    HW225051   3.587   6.112   4.004
 7698SOL     OW25052   2.630   6.730   4.747
 7698SOL    HW125053   2.552   6.747   4.807
 7698SOL    HW225054   2.664   6.817   4.711
 7699SOL     OW25055   2.548   6.747   5.527
 7699SOL    HW125056   2.608   6.826   5.541
 7699SOL    HW225057   2.462   6.778   5.486
 7700SOL     OW25058   2.197   7.021   4.785
 7700SOL    HW125059   2.119   6.990   4.732
 7700SOL    HW225060   2.255   7.079   4.728
 7701SOL     OW25061   3.322   7.091   5.063
 7701SOL    HW125062   3.346   7.185   5.089
 7701SOL    HW225063   3.306   7.037   5.145
 7702SOL     OW25064   2.300   5.978   5.223
 7702SOL    HW125065   2.382   5.922   5.232
 7702SOL    HW225066   2.219   5.920   5.227
 7703SOL     OW25067   3.465   6.033   4.461
 7703SOL    HW125068   3.391   6.079   4.411
 7703SOL    HW225069   3.516   6.101   4.514
 7704SOL     OW25070   2.093   7.299   4.207
 7704SOL    HW125071   2.127   7.376   4.261
 7704SOL    HW225072   2.137   7.299   4.117
 7705SOL     OW25073   2.989   6.927   5.414
 7705SOL    HW125074   3.036   6.927   5.502
 7705SOL    HW225075   2.941   6.840   5.403
 7706SOL     OW25076   2.092   7.020   4.262
 7706SOL    HW125077   2.066   7.116   4.262
 7706SOL    HW225078   2.021   6.966   4.307
 7707SOL     OW25079   2.102   6.677   4.610
 7707SOL    HW125080   2.116   6.593   4.662
 7707SOL    HW225081   2.047   6.741   4.665
 7708SOL     OW25082   2.482   7.372   5.163
 7708SOL    HW125083   2.390   7.355   5.198
 7708SOL    HW225084   2.510   7.464   5.189
 7709SOL     OW25085   2.468   6.550   3.847
 7709SOL    HW125086   2.475   6.634   3.793
 7709SOL    HW225087   2.514   6.563   3.935
 7710SOL     OW25088   3.456   5.700   5.204
 7710SOL    HW125089   3.438   5.767   5.132
 7710SOL    HW225090   3.453   5.746   5.293
 7711SOL     OW25091   1.984   6.229   4.287
 7711SOL    HW125092   1.939   6.141   4.304
 7711SOL    HW225093   1.983   6.283   4.371
 7712SOL     OW25094   3.704   7.353   4.083
 7712SOL    HW125095   3.758   7.324   4.163
 7712SOL    HW225096   3.734   7.443   4.054
 7713SOL     OW25097   1.889   7.182   3.841
 7713SOL    HW125098   1.870   7.086   3.862
 7713SOL    HW225099   1.856   7.240   3.916
 7714SOL     OW25100   3.551   6.508   4.336
 7714SOL    HW125101   3.646   6.479   4.344
 7714SOL    HW225102   3.543   6.573   4.261
 7715SOL     OW25103   3.503   6.694   4.156
 7715SOL    HW125104   3.589   6.696   4.104
 7715SOL    HW225105   3.517   6.741   4.244
 7716SOL     OW25106   1.975   6.323   5.321
 7716SOL    HW125107   2.063   6.310   5.366
 7716SOL    HW225108   1.962   6.420   5.299
 7717SOL     OW25109   2.475   6.951   4.450
 7717SOL    HW125110   2.426   6.864   4.459
 7717SOL    HW225111   2.452   6.994   4.363
 7718SOL     OW25112   3.155   6.814   5.147
 7718SOL    HW125113   3.192   6.741   5.089
 7718SOL    HW225114   3.207   6.819   5.232
 7719SOL     OW25115   2.059   6.562   4.988
 7719SOL    HW125116   2.148   6.517   4.974
 7719SOL    HW225117   1.986   6.497   4.969
 7720SOL     OW25118   3.387   6.585   3.914
 7720SOL    HW125119   3.324   6.509   3.927
 7720SOL    HW225120   3.435   6.603   4.000
 7721SOL     OW25121   3.049   7.378   5.340
 7721SOL    HW125122   3.073   7.438   5.264
 7721SOL    HW225123   3.056   7.283   5.310
 7722SOL     OW25124   3.328   7.003   4.677
 7722SOL    HW125125   3.269   7.009   4.757
 7722SOL    HW225126   3.313   6.915   4.631
 7723SOL     OW25127   3.529   7.300   4.296
 7723SOL    HW125128   3.488   7.277   4.208
 7723SOL    HW225129   3.511   7.226   4.361
 7724SOL     OW25130   2.460   6.315   3.994
 7724SOL    HW125131   2.484   6.384   3.926
 7724SOL    HW225132   2.382   6.348   4.048
 7725SOL     OW25133   3.438   7.248   4.031
 7725SOL    HW125134   3.527   7.294   4.034
 7725SOL    HW225135   3.417   7.224   3.936
 7726SOL     OW25136   3.256   6.055   5.398
 7726SOL    HW125137   3.236   6.098   5.486
 7726SOL    HW225138   3.334   5.993   5.407
 7727SOL     OW25139   1.938   6.397   4.513
 7727SOL    HW125140   2.037   6.385   4.522
 7727SOL    HW225141   1.914   6.492   4.534
 7728SOL     OW25142   1.992   7.407   5.295
 7728SOL    HW125143   1.982   7.392   5.394
 7728SOL    HW225144   1.906   7.443   5.259
 7729SOL     OW25145   3.581   6.171   5.555
 7729SOL    HW125146   3.555   6.260   5.519
 7729SOL    HW225147   3.579   6.103   5.482
 7730SOL     OW25148   3.224   6.730   4.269
 7730SOL    HW125149   3.307   6.701   4.221
 7730SOL    HW225150   3.175   6.797   4.213
 7731SOL     OW25151   2.412   5.782   4.609
 7731SOL    HW125152   2.407   5.777   4.709
 7731SOL    HW225153   2.414   5.878   4.580
 7732SOL     OW25154   2.870   7.042   4.201
 7732SOL    HW125155   2.824   7.114   4.149
 7732SOL    HW225156   2.866   7.062   4.299
 7733SOL     OW25157   2.213   7.387   4.577
 7733SOL    HW125158   2.263   7.301   4.583
 7733SOL    HW225159   2.278   7.464   4.574
 7734SOL     OW25160   3.657   6.652   4.597
 7734SOL    HW125161   3.595   6.637   4.521
 7734SOL    HW225162   3.605   6.663   4.682
 7735SOL     OW25163   3.089   7.136   5.230
 7735SOL    HW125164   3.095   7.059   5.294
 7735SOL    HW225165   3.037   7.110   5.150
 7736SOL     OW25166   2.183   6.529   3.966
 7736SOL    HW125167   2.265   6.568   3.924
 7736SOL    HW225168   2.156   6.447   3.917
 7737SOL     OW25169   3.320   6.321   4.452
 7737SOL    HW125170   3.315   6.256   4.527
 7737SOL    HW225171   3.400   6.380   4.465
 7738SOL     OW25172   2.323   6.852   5.451
 7738SOL    HW125173   2.273   6.853   5.365
 7738SOL    HW225174   2.260   6.834   5.527
 7739SOL     OW25175   2.973   7.362   3.961
 7739SOL    HW125176   2.913   7.300   4.011
 7739SOL    HW225177   3.004   7.318   3.876
 7740SOL     OW25178   2.064   5.871   5.222
 7740SOL    HW125179   1.984   5.931   5.209
 7740SOL    HW225180   2.054   5.822   5.308
 7741SOL     OW25181   3.494   6.963   3.805
 7741SOL    HW125182   3.462   7.057   3.795
 7741SOL    HW225183   3.418   6.900   3.793
 7742SOL     OW25184   2.326   7.329   4.047
 7742SOL    HW125185   2.359   7.368   4.133
 7742SOL    HW225186   2.402   7.322   3.982
 7743SOL     OW25187   2.111   7.371   4.965
 7743SOL    HW125188   2.168   7.306   5.015
 7743SOL    HW225189   2.095   7.338   4.872
 7744SOL     OW25190   2.802   7.284   4.628
 7744SOL    HW125191   2.882   7.227   4.649
 7744SOL    HW225192   2.753   7.244   4.551
 7745SOL     OW25193   2.244   6.286   4.204
 7745SOL    HW125194   2.289   6.196   4.201
 7745SOL    HW225195   2.150   6.275   4.237
 7746SOL     OW25196   3.409   5.808   5.453
 7746SOL    HW125197   3.404   5.845   5.545
 7746SOL    HW225198   3.337   5.739   5.441
 7747SOL     OW25199   2.750   7.100   4.919
 7747SOL    HW125200   2.727   7.075   4.825
 7747SOL    HW225201   2.811   7.031   4.958
 7748SOL     OW25202   3.213   6.176   5.157
 7748SOL    HW125203   3.241   6.133   5.242
 7748SOL    HW225204   3.238   6.272   5.158
 7749SOL     OW25205   2.665   6.988   4.648
 7749SOL    HW125206   2.755   7.002   4.606
 7749SOL    HW225207   2.594   6.990   4.577
 7750SOL     OW25208   2.401   5.650   4.236
 7750SOL    HW125209   2.320   5.651   4.294
 7750SOL    HW225210   2.404   5.733   4.181
 7751SOL     OW25211   3.296   6.774   3.765
 7751SOL    HW125212   3.328   6.698   3.822
 7751SOL    HW225213   3.204   6.801   3.795
 7752SOL     OW25214   2.159   5.621   3.895
 7752SOL    HW125215   2.208   5.705   3.874
 7752SOL    HW225216   2.221   5.556   3.940
 7753SOL     OW25217   3.089   7.156   4.517
 7753SOL    HW125218   3.110   7.230   4.452
 7753SOL    HW225219   3.157   7.156   4.590
 7754SOL     OW25220   2.321   6.738   4.465
 7754SOL    HW125221   2.250   6.711   4.530
 7754SOL    HW225222   2.295   6.710   4.372
 7755SOL     OW25223   3.133   7.383   4.315
 7755SOL    HW125224   3.177   7.447   4.251
 7755SOL    HW225225   3.083   7.435   4.385
 7756SOL     OW25226   1.940   6.142   5.110
 7756SOL    HW125227   2.032   6.141   5.069
 7756SOL    HW225228   1.934   6.216   5.177
 7757SOL     OW25229   2.423   5.808   4.871
 7757SOL    HW125230   2.461   5.724   4.908
 7757SOL    HW225231   2.335   5.827   4.915
 7758SOL     OW25232   2.879   5.625   4.477
 7758SOL    HW125233   2.807   5.630   4.408
 7758SOL    HW225234   2.855   5.556   4.546
 7759SOL     OW25235   3.719   6.419   4.101
 7759SOL    HW125236   3.761   6.355   4.165
 7759SOL    HW225237   3.681   6.368   4.023
 7760SOL     OW25238   2.350   6.971   3.898
 7760SOL    HW125239   2.263   6.956   3.945
 7760SOL    HW225240   2.333   6.997   3.803
 7761SOL     OW25241   3.526   6.866   4.381
 7761SOL    HW125242   3.625   6.874   4.395
 7761SOL    HW225243   3.481   6.950   4.412
 7762SOL     OW25244   3.616   6.809   5.312
 7762SOL    HW125245   3.707   6.770   5.299
 7762SOL    HW225246   3.624   6.905   5.336
 7763SOL     OW25247   2.926   6.933   5.064
 7763SOL    HW125248   2.846   6.910   5.119
 7763SOL    HW225249   3.009   6.907   5.113
 7764SOL     OW25250   3.454   7.215   5.349
 7764SOL    HW125251   3.481   7.249   5.259
 7764SOL    HW225252   3.533   7.177   5.395
 7765SOL     OW25253   2.973   6.781   4.824
 7765SOL    HW125254   2.933   6.825   4.905
 7765SOL    HW225255   2.932   6.818   4.741
 7766SOL     OW25256   3.500   6.685   4.803
 7766SOL    HW125257   3.505   6.766   4.862
 7766SOL    HW225258   3.414   6.687   4.752
 7767SOL     OW25259   2.842   6.702   5.443
 7767SOL    HW125260   2.743   6.708   5.453
 7767SOL    HW225261   2.865   6.622   5.387
 7768SOL     OW25262   2.567   6.636   4.092
 7768SOL    HW125263   2.553   6.643   4.191
 7768SOL    HW225264   2.651   6.585   4.074
 7769SOL     OW25265   2.272   6.399   4.975
 7769SOL    HW125266   2.358   6.411   5.025
 7769SOL    HW225267   2.230   6.312   5.002
 7770SOL     OW25268   3.136   5.972   4.986
 7770SOL    HW125269   3.157   6.046   5.050
 7770SOL    HW225270   3.047   5.989   4.943
 7771SOL     OW25271   1.926   7.150   5.055
 7771SOL    HW125272   1.880   7.232   5.021
 7771SOL    HW225273   2.024   7.169   5.064
 7772SOL     OW25274   2.229   6.686   4.225
 7772SOL    HW125275   2.222   6.769   4.169
 7772SOL    HW225276   2.233   6.606   4.165
 7773SOL     OW25277   3.114   6.934   4.112
 7773SOL    HW125278   3.164   7.011   4.152
 7773SOL    HW225279   3.019   6.936   4.144
 7774SOL     OW25280   3.134   7.031   4.866
 7774SOL    HW125281   3.181   7.044   4.953
 7774SOL    HW225282   3.068   6.957   4.875
 7775SOL     OW25283   3.444   6.225   4.196
 7775SOL    HW125284   3.413   6.286   4.269
 7775SOL    HW225285   3.494   6.277   4.127
 7776SOL     OW25286   2.216   7.096   5.053
 7776SOL    HW125287   2.195   7.052   4.966
 7776SOL    HW225288   2.313   7.122   5.056
 7777SOL     OW25289   2.875   5.691   5.494
 7777SOL    HW125290   2.881   5.776   5.442
 7777SOL    HW225291   2.907   5.615   5.437
 7778SOL     OW25292   2.366   5.636   5.464
 7778SOL    HW125293   2.324   5.579   5.394
 7778SOL    HW225294   2.300   5.705   5.496
 7779SOL     OW25295   2.435   6.456   4.753
 7779SOL    HW125296   2.479   6.545   4.744
 7779SOL    HW225297   2.372   6.456   4.830
 7780SOL     OW25298   2.169   5.799   4.955
 7780SOL    HW125299   2.146   5.836   5.045
 7780SOL    HW225300   2.139   5.704   4.949
 7781SOL     OW25301   1.899   6.896   5.006
 7781SOL    HW125302   1.952   6.847   5.074
 7781SOL    HW225303   1.921   6.994   5.011
 7782SOL     OW25304   3.590   6.521   5.578
 7782SOL    HW125305   3.544   6.514   5.489
 7782SOL    HW225306   3.528   6.565   5.644
 7783SOL     OW25307   2.169   5.649   4.342
 7783SOL    HW125308   2.158   5.743   4.375
 7783SOL    HW225309   2.164   5.586   4.419
 7784SOL     OW25310   3.484   5.953   4.098
 7784SOL    HW125311   3.486   5.877   4.162
 7784SOL    HW225312   3.436   6.030   4.138
 7785SOL     OW25313   2.842   7.159   5.424
 7785SOL    HW125314   2.822   7.203   5.336
 7785SOL    HW225315   2.881   7.068   5.408
 7786SOL     OW25316   3.721   7.104   5.329
 7786SOL    HW125317   3.735   7.131   5.234
 7786SOL    HW225318   3.804   7.126   5.382
 7787SOL     OW25319   2.212   6.484   5.528
 7787SOL    HW125320   2.288   6.528   5.576
 7787SOL    HW225321   2.247   6.437   5.446
 7788SOL     OW25322   3.402   5.860   3.849
 7788SOL    HW125323   3.341   5.785   3.872
 7788SOL    HW225324   3.424   5.912   3.932
 7789SOL     OW25325   3.165   6.424   3.766
 7789SOL    HW125326   3.199   6.331   3.781
 7789SOL    HW225327   3.183   6.451   3.671
 7790SOL     OW25328   2.930   6.919   4.573
 7790SOL    HW125329   2.937   6.835   4.518
 7790SOL    HW225330   2.992   6.988   4.537
 7791SOL     OW25331   2.181   6.396   4.673
 7791SOL    HW125332   2.274   6.432   4.678
 7791SOL    HW225333   2.175   6.311   4.725
 7792SOL     OW25334   2.201   6.095   4.730
 7792SOL    HW125335   2.149   6.012   4.713
 7792SOL    HW225336   2.278   6.100   4.666
 7793SOL     OW25337   3.000   5.966   5.402
 7793SOL    HW125338   2.955   6.029   5.466
 7793SOL    HW225339   3.093   5.997   5.385
 7794SOL     OW25340   1.870   6.912   3.924
 7794SOL    HW125341   1.777   6.933   3.893
 7794SOL    HW225342   1.880   6.813   3.937
 7795SOL     OW25343   1.950   7.387   4.651
 7795SOL    HW125344   1.908   7.301   4.624
 7795SOL    HW225345   2.044   7.390   4.617
 7796SOL     OW25346   2.366   7.154   4.634
 7796SOL    HW125347   2.432   7.228   4.643
 7796SOL    HW225348   2.410   7.075   4.592
 7797SOL     OW25349   1.902   6.130   4.838
 7797SOL    HW125350   1.987   6.097   4.797
 7797SOL    HW225351   1.915   6.145   4.936
 7798SOL     OW25352   2.051   6.106   5.446
 7798SOL    HW125353   2.110   6.066   5.376
 7798SOL    HW225354   1.993   6.177   5.405
 7799SOL     OW25355   3.231   6.536   5.384
 7799SOL    HW125356   3.270   6.625   5.404
 7799SOL    HW225357   3.241   6.516   5.287
 7800SOL     OW25358   3.519   6.190   4.930
 7800SOL    HW125359   3.481   6.121   4.992
 7800SOL    HW225360   3.601   6.154   4.886
 7801SOL     OW25361   2.114   7.150   5.468
 7801SOL    HW125362   2.084   7.207   5.544
 7801SOL    HW225363   2.107   7.053   5.494
 7802SOL     OW25364   2.533   6.050   4.993
 7802SOL    HW125365   2.499   5.961   4.963
 7802SOL    HW225366   2.559   6.104   4.913
 7803SOL     OW25367   2.792   7.264   5.189
 7803SOL    HW125368   2.768   7.246   5.094
 7803SOL    HW225369   2.822   7.358   5.199
 7804SOL     OW25370   2.335   6.086   3.915
 7804SOL    HW125371   2.396   6.166   3.919
 7804SOL    HW225372   2.240   6.117   3.922
 7805SOL     OW25373   2.021   6.723   5.190
 7805SOL    HW125374   2.043   6.662   5.266
 7805SOL    HW225375   2.031   6.674   5.104
 7806SOL     OW25376   3.209   6.645   4.958
 7806SOL    HW125377   3.233   6.582   4.884
 7806SOL    HW225378   3.119   6.685   4.940
 7807SOL     OW25379   3.164   6.441   4.033
 7807SOL    HW125380   3.078   6.410   4.075
 7807SOL    HW225381   3.160   6.427   3.934
 7808SOL     OW25382   3.621   7.333   4.878
 7808SOL    HW125383   3.682   7.363   4.805
 7808SOL    HW225384   3.583   7.244   4.856
 7809SOL     OW25385   3.114   7.317   4.852
 7809SOL    HW125386   3.198   7.322   4.798
 7809SOL    HW225387   3.091   7.221   4.870
 7810SOL     OW25388   1.945   6.844   4.746
 7810SOL    HW125389   1.940   6.843   4.846
 7810SOL    HW225390   1.862   6.803   4.708
 7811SOL     OW25391   2.550   7.248   5.440
 7811SOL    HW125392   2.494   7.329   5.449
 7811SOL    HW225393   2.602   7.252   5.354
 7812SOL     OW25394   3.588   5.721   4.247
 7812SOL    HW125395   3.661   5.704   4.180
 7812SOL    HW225396   3.557   5.634   4.285
 7813SOL     OW25397   3.250   7.159   4.201
 7813SOL    HW125398   3.317   7.171   4.127
 7813SOL    HW225399   3.210   7.248   4.224
 7814SOL     OW25400   1.992   7.380   5.575
 7814SOL    HW125401   1.951   7.306   5.628
 7814SOL    HW225402   2.056   7.431   5.633
 7815SOL     OW25403   2.692   6.859   5.146
 7815SOL    HW125404   2.687   6.892   5.241
 7815SOL    HW225405   2.606   6.878   5.100
 7816SOL     OW25406   2.534   7.202   3.878
 7816SOL    HW125407   2.543   7.212   3.779
 7816SOL    HW225408   2.494   7.113   3.899
 7817SOL     OW25409   3.512   7.306   5.118
 7817SOL    HW125410   3.565   7.316   5.034
 7817SOL    HW225411   3.485   7.396   5.152
 7818SOL     OW25412   3.703   5.761   4.687
 7818SOL    HW125413   3.742   5.676   4.651
 7818SOL    HW225414   3.605   5.763   4.668
 7819SOL     OW25415   2.125   5.912   4.444
 7819SOL    HW125416   2.046   5.963   4.410
 7819SOL    HW225417   2.116   5.897   4.542
 7820SOL     OW25418   3.056   7.198   3.755
 7820SOL    HW125419   3.062   7.105   3.792
 7820SOL    HW225420   2.997   7.198   3.675
 7821SOL     OW25421   2.778   6.496   4.015
 7821SOL    HW125422   2.841   6.534   3.947
 7821SOL    HW225423   2.818   6.413   4.054
 7822SOL     OW25424   3.366   7.193   3.768
 7822SOL    HW125425   3.274   7.230   3.775
 7822SOL    HW225426   3.404   7.213   3.678
 7823SOL     OW25427   2.234   6.874   5.214
 7823SOL    HW125428   2.221   6.967   5.180
 7823SOL    HW225429   2.150   6.822   5.201
 7824SOL     OW25430   3.476   6.878   5.013
 7824SOL    HW125431   3.536   6.881   5.093
 7824SOL    HW225432   3.401   6.942   5.026
 7825SOL     OW25433   2.901   6.684   4.420
 7825SOL    HW125434   2.831   6.637   4.474
 7825SOL    HW225435   2.960   6.616   4.377
 7826SOL     OW25436   2.876   5.822   4.695
 7826SOL    HW125437   2.868   5.786   4.602
 7826SOL    HW225438   2.874   5.746   4.760
 7827SOL     OW25439   2.452   7.073   4.215
 7827SOL    HW125440   2.494   7.015   4.145
 7827SOL    HW225441   2.408   7.152   4.171
 7828SOL     OW25442   3.571   5.971   5.105
 7828SOL    HW125443   3.644   6.040   5.109
 7828SOL    HW225444   3.599   5.896   5.046
 7829SOL     OW25445   2.117   6.934   4.014
 7829SOL    HW125446   2.021   6.935   3.987
 7829SOL    HW225447   2.129   6.987   4.098
 7830SOL     OW25448   1.967   6.599   5.450
 7830SOL    HW125449   1.890   6.566   5.504
 7830SOL    HW225450   2.052   6.569   5.492
 7831SOL     OW25451   2.534   5.789   5.213
 7831SOL    HW125452   2.624   5.773   5.173
 7831SOL    HW225453   2.542   5.794   5.312
 7832SOL     OW25454   1.937   5.931   3.757
 7832SOL    HW125455   1.845   5.903   3.728
 7832SOL    HW225456   1.968   6.008   3.701
 7833SOL     OW25457   3.302   6.442   5.122
 7833SOL    HW125458   3.245   6.494   5.059
 7833SOL    HW225459   3.398   6.454   5.098
 7834SOL     OW25460   1.934   5.752   4.042
 7834SOL    HW125461   1.917   5.835   3.988
 7834SOL    HW225462   2.024   5.715   4.020
 7835SOL     OW25463   3.045   6.921   3.843
 7835SOL    HW125464   2.946   6.910   3.845
 7835SOL    HW225465   3.079   6.936   3.936
 7836SOL     OW25466   3.355   7.353   4.683
 7836SOL    HW125467   3.388   7.417   4.614
 7836SOL    HW225468   3.421   7.347   4.758
 7837SOL     OW25469   3.312   6.806   5.357
 7837SOL    HW125470   3.303   6.796   5.456
 7837SOL    HW225471   3.408   6.799   5.331
 7838SOL     OW25472   2.252   7.327   5.284
 7838SOL    HW125473   2.161   7.368   5.282
 7838SOL    HW225474   2.245   7.233   5.316
 7839SOL     OW25475   3.536   6.469   4.978
 7839SOL    HW125476   3.509   6.380   4.941
 7839SOL    HW225477   3.537   6.537   4.905
 7840SOL     OW25478   3.639   5.928   5.366
 7840SOL    HW125479   3.622   5.959   5.272
 7840SOL    HW225480   3.555   5.891   5.404
 7841SOL     OW25481   3.592   6.520   5.241
 7841SOL    HW125482   3.630   6.611   5.256
 7841SOL    HW225483   3.584   6.503   5.142
 7842SOL     OW25484   2.721   6.960   3.740
 7842SOL    HW125485   2.675   6.975   3.828
 7842SOL    HW225486   2.765   7.045   3.710
 7843SOL     OW25487   2.523   7.376   4.677
 7843SOL    HW125488   2.477   7.464   4.664
 7843SOL    HW225489   2.622   7.388   4.670
 7844SOL     OW25490   3.270   7.437   5.444
 7844SOL    HW125491   3.174   7.426   5.417
 7844SOL    HW225492   3.326   7.370   5.396
 7845SOL     OW25493   2.721   6.542   4.585
 7845SOL    HW125494   2.775   6.473   4.633
 7845SOL    HW225495   2.689   6.611   4.651
 7846SOL     OW25496   2.945   6.570   3.811
 7846SOL    HW125497   2.922   6.623   3.729
 7846SOL    HW225498   3.026   6.514   3.792
 7847SOL     OW25499   3.723   7.155   4.575
 7847SOL    HW125500   3.652   7.143   4.505
 7847SOL    HW225501   3.724   7.076   4.635
 7848SOL     OW25502   2.083   6.900   5.568
 7848SOL    HW125503   2.018   6.827   5.547
 7848SOL    HW225504   2.087   6.914   5.666
 7849SOL     OW25505   1.941   6.826   4.377
 7849SOL    HW125506   1.940   6.779   4.465
 7849SOL    HW225507   2.023   6.798   4.326
 7850SOL     OW25508   2.534   6.977   5.348
 7850SOL    HW125509   2.456   6.927   5.386
 7850SOL    HW225510   2.531   7.072   5.379
 7851SOL     OW25511   3.686   5.778   4.951
 7851SOL    HW125512   3.682   5.688   4.995
 7851SOL    HW225513   3.689   5.767   4.852
 7852SOL     OW25514   2.290   6.010   4.244
 7852SOL    HW125515   2.320   5.938   4.182
 7852SOL    HW225516   2.251   5.970   4.327
 7853SOL     OW25517   3.567   7.073   4.828
 7853SOL    HW125518   3.474   7.048   4.801
 7853SOL    HW225519   3.593   7.023   4.910
 7854SOL     OW25520   2.179   6.133   5.004
 7854SOL    HW125521   2.217   6.074   5.076
 7854SOL    HW225522   2.219   6.107   4.916
 7855SOL     OW25523   2.674   7.172   4.411
 7855SOL    HW125524   2.706   7.182   4.317
 7855SOL    HW225525   2.595   7.110   4.413
 7856SOL     OW25526   3.286   5.800   4.836
 7856SOL    HW125527   3.338   5.735   4.891
 7856SOL    HW225528   3.237   5.863   4.897
 7857SOL     OW25529   2.632   6.916   4.025
 7857SOL    HW125530   2.586   6.829   4.042
 7857SOL    HW225531   2.723   6.913   4.066
 7858SOL     OW25532   2.480   7.153   5.008
 7858SOL    HW125533   2.475   7.235   5.065
 7858SOL    HW225534   2.569   7.150   4.963
 7859SOL     OW25535   3.214   5.638   3.892
 7859SOL    HW125536   3.249   5.597   3.808
 7859SOL    HW225537   3.124   5.600   3.912
 7860SOL     OW25538   3.455   5.807   4.606
 7860SOL    HW125539   3.371   5.806   4.660
 7860SOL    HW225540   3.457   5.890   4.550
 7861SOL     OW25541   1.901   6.663   4.024
 7861SOL    HW125542   2.000   6.652   4.015
 7861SOL    HW225543   1.861   6.577   4.056
 7862SOL     OW25544   2.737   7.232   4.061
 7862SOL    HW125545   2.660   7.197   4.007
 7862SOL    HW225546   2.705   7.303   4.123
 7863SOL     OW25547   2.092   6.214   5.699
 7863SOL    HW125548   1.999   6.212   5.736
 7863SOL    HW225549   2.093   6.175   5.607
 7864SOL     OW25550   2.087   5.861   6.582
 7864SOL    HW125551   2.122   5.844   6.674
 7864SOL    HW225552   1.999   5.816   6.570
 7865SOL     OW25553   1.881   5.954   6.233
 7865SOL    HW125554   1.799   5.997   6.272
 7865SOL    HW225555   1.853   5.881   6.170
 7866SOL     OW25556   3.417   7.097   6.289
 7866SOL    HW125557   3.360   7.081   6.370
 7866SOL    HW225558   3.358   7.107   6.209
 7867SOL     OW25559   3.605   6.204   6.442
 7867SOL    HW125560   3.638   6.298   6.442
 7867SOL    HW225561   3.656   6.150   6.508
 7868SOL     OW25562   3.617   6.193   5.817
 7868SOL    HW125563   3.605   6.180   5.718
 7868SOL    HW225564   3.587   6.112   5.866
 7869SOL     OW25565   2.547   6.598   6.251
 7869SOL    HW125566   2.616   6.582   6.321
 7869SOL    HW225567   2.474   6.655   6.289
 7870SOL     OW25568   2.548   6.747   7.389
 7870SOL    HW125569   2.608   6.826   7.403
 7870SOL    HW225570   2.462   6.778   7.348
 7871SOL     OW25571   2.197   7.021   6.647
 7871SOL    HW125572   2.119   6.990   6.594
 7871SOL    HW225573   2.255   7.079   6.590
 7872SOL     OW25574   3.322   7.091   6.925
 7872SOL    HW125575   3.346   7.185   6.951
 7872SOL    HW225576   3.306   7.037   7.007
 7873SOL     OW25577   2.300   5.978   7.085
 7873SOL    HW125578   2.382   5.922   7.094
 7873SOL    HW225579   2.219   5.920   7.089
 7874SOL     OW25580   3.465   6.033   6.323
 7874SOL    HW125581   3.391   6.079   6.273
 7874SOL    HW225582   3.516   6.101   6.376
 7875SOL     OW25583   2.093   7.299   6.069
 7875SOL    HW125584   2.127   7.376   6.123
 7875SOL    HW225585   2.137   7.299   5.979
 7876SOL     OW25586   2.989   6.927   7.276
 7876SOL    HW125587   3.036   6.927   7.364
 7876SOL    HW225588   2.941   6.840   7.265
 7877SOL     OW25589   2.092   7.020   6.124
 7877SOL    HW125590   2.066   7.116   6.124
 7877SOL    HW225591   2.021   6.966   6.169
 7878SOL     OW25592   2.102   6.677   6.472
 7878SOL    HW125593   2.116   6.593   6.524
 7878SOL    HW225594   2.047   6.741   6.527
 7879SOL     OW25595   2.482   7.372   7.025
 7879SOL    HW125596   2.390   7.355   7.060
 7879SOL    HW225597   2.510   7.464   7.051
 7880SOL     OW25598   2.468   6.550   5.709
 7880SOL    HW125599   2.475   6.634   5.655
 7880SOL    HW225600   2.514   6.563   5.797
 7881SOL     OW25601   3.456   5.700   7.066
 7881SOL    HW125602   3.438   5.767   6.994
 7881SOL    HW225603   3.453   5.746   7.155
 7882SOL     OW25604   1.984   6.229   6.149
 7882SOL    HW125605   1.939   6.141   6.166
 7882SOL    HW225606   1.983   6.283   6.233
 7883SOL     OW25607   3.704   7.353   5.945
 7883SOL    HW125608   3.758   7.324   6.025
 7883SOL    HW225609   3.734   7.443   5.916
 7884SOL     OW25610   1.889   7.182   5.703
 7884SOL    HW125611   1.870   7.086   5.724
 7884SOL    HW225612   1.856   7.240   5.778
 7885SOL     OW25613   3.551   6.508   6.198
 7885SOL    HW125614   3.646   6.479   6.206
 7885SOL    HW225615   3.543   6.573   6.123
 7886SOL     OW25616   3.503   6.694   6.018
 7886SOL    HW125617   3.589   6.696   5.966
 7886SOL    HW225618   3.517   6.741   6.106
 7887SOL     OW25619   1.975   6.323   7.183
 7887SOL    HW125620   2.063   6.310   7.228
 7887SOL    HW225621   1.962   6.420   7.161
 7888SOL     OW25622   2.475   6.951   6.312
 7888SOL    HW125623   2.426   6.864   6.321
 7888SOL    HW225624   2.452   6.994   6.225
 7889SOL     OW25625   3.155   6.814   7.009
 7889SOL    HW125626   3.192   6.741   6.951
 7889SOL    HW225627   3.207   6.819   7.094
 7890SOL     OW25628   2.671   5.590   6.088
 7890SOL    HW125629   2.711   5.681   6.079
 7890SOL    HW225630   2.571   5.598   6.094
 7891SOL     OW25631   2.059   6.562   6.850
 7891SOL    HW125632   2.148   6.517   6.836
 7891SOL    HW225633   1.986   6.497   6.831
 7892SOL     OW25634   3.387   6.585   5.776
 7892SOL    HW125635   3.324   6.509   5.789
 7892SOL    HW225636   3.435   6.603   5.862
 7893SOL     OW25637   3.049   7.378   7.202
 7893SOL    HW125638   3.073   7.438   7.126
 7893SOL    HW225639   3.056   7.283   7.172
 7894SOL     OW25640   2.179   5.837   7.387
 7894SOL    HW125641   2.250   5.908   7.393
 7894SOL    HW225642   2.091   5.876   7.415
 7895SOL     OW25643   3.328   7.003   6.539
 7895SOL    HW125644   3.269   7.009   6.619
 7895SOL    HW225645   3.313   6.915   6.493
 7896SOL     OW25646   3.529   7.300   6.158
 7896SOL    HW125647   3.488   7.277   6.070
 7896SOL    HW225648   3.511   7.226   6.223
 7897SOL     OW25649   2.460   6.315   5.856
 7897SOL    HW125650   2.484   6.384   5.788
 7897SOL    HW225651   2.382   6.348   5.910
 7898SOL     OW25652   3.143   5.931   6.530
 7898SOL    HW125653   3.057   5.881   6.517
 7898SOL    HW225654   3.205   5.877   6.586
 7899SOL     OW25655   3.438   7.248   5.893
 7899SOL    HW125656   3.527   7.294   5.896
 7899SOL    HW225657   3.417   7.224   5.798
 7900SOL     OW25658   2.669   6.191   7.051
 7900SOL    HW125659   2.622   6.188   7.140
 7900SOL    HW225660   2.618   6.136   6.985
 7901SOL     OW25661   3.256   6.055   7.260
 7901SOL    HW125662   3.236   6.098   7.348
 7901SOL    HW225663   3.334   5.993   7.269
 7902SOL     OW25664   1.938   6.397   6.375
 7902SOL    HW125665   2.037   6.385   6.384
 7902SOL    HW225666   1.914   6.492   6.396
 7903SOL     OW25667   1.992   7.407   7.157
 7903SOL    HW125668   1.982   7.392   7.256
 7903SOL    HW225669   1.906   7.443   7.121
 7904SOL     OW25670   3.581   6.171   7.417
 7904SOL    HW125671   3.555   6.260   7.381
 7904SOL    HW225672   3.579   6.103   7.344
 7905SOL     OW25673   2.412   5.782   6.471
 7905SOL    HW125674   2.407   5.777   6.571
 7905SOL    HW225675   2.414   5.878   6.442
 7906SOL     OW25676   2.870   7.042   6.063
 7906SOL    HW125677   2.824   7.114   6.011
 7906SOL    HW225678   2.866   7.062   6.161
 7907SOL     OW25679   2.213   7.387   6.439
 7907SOL    HW125680   2.263   7.301   6.445
 7907SOL    HW225681   2.278   7.464   6.436
 7908SOL     OW25682   3.657   6.652   6.459
 7908SOL    HW125683   3.595   6.637   6.383
 7908SOL    HW225684   3.605   6.663   6.544
 7909SOL     OW25685   3.089   7.136   7.092
 7909SOL    HW125686   3.095   7.059   7.156
 7909SOL    HW225687   3.037   7.110   7.012
 7910SOL     OW25688   2.183   6.529   5.828
 7910SOL    HW125689   2.265   6.568   5.786
 7910SOL    HW225690   2.156   6.447   5.779
 7911SOL     OW25691   3.320   6.321   6.314
 7911SOL    HW125692   3.315   6.256   6.389
 7911SOL    HW225693   3.400   6.380   6.327
 7912SOL     OW25694   2.323   6.852   7.313
 7912SOL    HW125695   2.273   6.853   7.227
 7912SOL    HW225696   2.260   6.834   7.389
 7913SOL     OW25697   2.973   7.362   5.823
 7913SOL    HW125698   2.913   7.300   5.873
 7913SOL    HW225699   3.004   7.318   5.738
 7914SOL     OW25700   2.064   5.871   7.084
 7914SOL    HW125701   1.984   5.931   7.071
 7914SOL    HW225702   2.054   5.822   7.170
 7915SOL     OW25703   3.494   6.963   5.667
 7915SOL    HW125704   3.462   7.057   5.657
 7915SOL    HW225705   3.418   6.900   5.655
 7916SOL     OW25706   2.326   7.329   5.909
 7916SOL    HW125707   2.359   7.368   5.995
 7916SOL    HW225708   2.402   7.322   5.844
 7917SOL     OW25709   3.262   5.693   6.012
 7917SOL    HW125710   3.238   5.656   5.922
 7917SOL    HW225711   3.361   5.709   6.016
 7918SOL     OW25712   2.111   7.371   6.827
 7918SOL    HW125713   2.168   7.306   6.877
 7918SOL    HW225714   2.095   7.338   6.734
 7919SOL     OW25715   2.802   7.284   6.490
 7919SOL    HW125716   2.882   7.227   6.511
 7919SOL    HW225717   2.753   7.244   6.413
 7920SOL     OW25718   3.409   5.808   7.315
 7920SOL    HW125719   3.404   5.845   7.407
 7920SOL    HW225720   3.337   5.739   7.303
 7921SOL     OW25721   2.476   5.708   5.703
 7921SOL    HW125722   2.574   5.686   5.710
 7921SOL    HW225723   2.445   5.691   5.610
 7922SOL     OW25724   2.643   5.850   7.335
 7922SOL    HW125725   2.710   5.789   7.378
 7922SOL    HW225726   2.570   5.869   7.400
 7923SOL     OW25727   2.750   7.100   6.781
 7923SOL    HW125728   2.727   7.075   6.687
 7923SOL    HW225729   2.811   7.031   6.820
 7924SOL     OW25730   3.213   6.176   7.019
 7924SOL    HW125731   3.241   6.133   7.104
 7924SOL    HW225732   3.238   6.272   7.020
 7925SOL     OW25733   2.665   6.988   6.510
 7925SOL    HW125734   2.755   7.002   6.468
 7925SOL    HW225735   2.594   6.990   6.439
 7926SOL     OW25736   2.784   6.089   6.485
 7926SOL    HW125737   2.759   6.080   6.389
 7926SOL    HW225738   2.832   6.007   6.516
 7927SOL     OW25739   2.401   5.650   6.098
 7927SOL    HW125740   2.320   5.651   6.156
 7927SOL    HW225741   2.404   5.733   6.043
 7928SOL     OW25742   3.296   6.774   5.627
 7928SOL    HW125743   3.328   6.698   5.684
 7928SOL    HW225744   3.204   6.801   5.657
 7929SOL     OW25745   2.159   5.621   5.757
 7929SOL    HW125746   2.208   5.705   5.736
 7929SOL    HW225747   2.221   5.556   5.802
 7930SOL     OW25748   2.938   6.269   7.050
 7930SOL    HW125749   2.858   6.208   7.053
 7930SOL    HW225750   3.019   6.216   7.026
 7931SOL     OW25751   3.089   7.156   6.379
 7931SOL    HW125752   3.110   7.230   6.314
 7931SOL    HW225753   3.157   7.156   6.452
 7932SOL     OW25754   2.321   6.738   6.327
 7932SOL    HW125755   2.250   6.711   6.392
 7932SOL    HW225756   2.295   6.710   6.234
 7933SOL     OW25757   3.133   7.383   6.177
 7933SOL    HW125758   3.177   7.447   6.113
 7933SOL    HW225759   3.083   7.435   6.247
 7934SOL     OW25760   1.940   6.142   6.972
 7934SOL    HW125761   2.032   6.141   6.931
 7934SOL    HW225762   1.934   6.216   7.039
 7935SOL     OW25763   2.423   5.808   6.733
 7935SOL    HW125764   2.461   5.724   6.770
 7935SOL    HW225765   2.335   5.827   6.777
 7936SOL     OW25766   2.879   5.625   6.339
 7936SOL    HW125767   2.807   5.630   6.270
 7936SOL    HW225768   2.855   5.556   6.408
 7937SOL     OW25769   3.328   6.176   6.578
 7937SOL    HW125770   3.298   6.081   6.585
 7937SOL    HW225771   3.401   6.192   6.644
 7938SOL     OW25772   3.719   6.419   5.963
 7938SOL    HW125773   3.761   6.355   6.027
 7938SOL    HW225774   3.681   6.368   5.885
 7939SOL     OW25775   2.350   6.971   5.760
 7939SOL    HW125776   2.263   6.956   5.807
 7939SOL    HW225777   2.333   6.997   5.665
 7940SOL     OW25778   3.526   6.866   6.243
 7940SOL    HW125779   3.625   6.874   6.257
 7940SOL    HW225780   3.481   6.950   6.274
 7941SOL     OW25781   2.389   5.842   5.914
 7941SOL    HW125782   2.416   5.783   5.839
 7941SOL    HW225783   2.389   5.937   5.883
 7942SOL     OW25784   3.616   6.809   7.174
 7942SOL    HW125785   3.707   6.770   7.161
 7942SOL    HW225786   3.624   6.905   7.198
 7943SOL     OW25787   2.926   6.933   6.926
 7943SOL    HW125788   2.846   6.910   6.981
 7943SOL    HW225789   3.009   6.907   6.975
 7944SOL     OW25790   3.454   7.215   7.211
 7944SOL    HW125791   3.481   7.249   7.121
 7944SOL    HW225792   3.533   7.177   7.257
 7945SOL     OW25793   3.500   6.685   6.665
 7945SOL    HW125794   3.505   6.766   6.724
 7945SOL    HW225795   3.414   6.687   6.614
 7946SOL     OW25796   2.777   5.675   6.988
 7946SOL    HW125797   2.802   5.655   6.893
 7946SOL    HW225798   2.849   5.731   7.030
 7947SOL     OW25799   2.567   6.636   5.954
 7947SOL    HW125800   2.553   6.643   6.053
 7947SOL    HW225801   2.651   6.585   5.936
 7948SOL     OW25802   2.272   6.399   6.837
 7948SOL    HW125803   2.358   6.411   6.887
 7948SOL    HW225804   2.230   6.312   6.864
 7949SOL     OW25805   3.136   5.972   6.848
 7949SOL    HW125806   3.157   6.046   6.912
 7949SOL    HW225807   3.047   5.989   6.805
 7950SOL     OW25808   1.926   7.150   6.917
 7950SOL    HW125809   1.880   7.232   6.883
 7950SOL    HW225810   2.024   7.169   6.926
 7951SOL     OW25811   2.229   6.686   6.087
 7951SOL    HW125812   2.222   6.769   6.031
 7951SOL    HW225813   2.233   6.606   6.027
 7952SOL     OW25814   3.114   6.934   5.974
 7952SOL    HW125815   3.164   7.011   6.014
 7952SOL    HW225816   3.019   6.936   6.006
 7953SOL     OW25817   3.134   7.031   6.728
 7953SOL    HW125818   3.181   7.044   6.815
 7953SOL    HW225819   3.068   6.957   6.737
 7954SOL     OW25820   3.444   6.225   6.058
 7954SOL    HW125821   3.413   6.286   6.131
 7954SOL    HW225822   3.494   6.277   5.989
 7955SOL     OW25823   2.216   7.096   6.915
 7955SOL    HW125824   2.195   7.052   6.828
 7955SOL    HW225825   2.313   7.122   6.918
 7956SOL     OW25826   2.875   5.691   7.356
 7956SOL    HW125827   2.881   5.776   7.304
 7956SOL    HW225828   2.907   5.615   7.299
 7957SOL     OW25829   2.366   5.636   7.326
 7957SOL    HW125830   2.324   5.579   7.256
 7957SOL    HW225831   2.300   5.705   7.358
 7958SOL     OW25832   2.435   6.456   6.615
 7958SOL    HW125833   2.479   6.545   6.606
 7958SOL    HW225834   2.372   6.456   6.692
 7959SOL     OW25835   2.169   5.799   6.817
 7959SOL    HW125836   2.146   5.836   6.907
 7959SOL    HW225837   2.139   5.704   6.811
 7960SOL     OW25838   1.899   6.896   6.868
 7960SOL    HW125839   1.952   6.847   6.936
 7960SOL    HW225840   1.921   6.994   6.873
 7961SOL     OW25841   2.594   6.220   6.650
 7961SOL    HW125842   2.653   6.194   6.574
 7961SOL    HW225843   2.566   6.316   6.639
 7962SOL     OW25844   3.590   6.521   7.440
 7962SOL    HW125845   3.544   6.514   7.351
 7962SOL    HW225846   3.528   6.565   7.506
 7963SOL     OW25847   2.169   5.649   6.204
 7963SOL    HW125848   2.158   5.743   6.237
 7963SOL    HW225849   2.164   5.586   6.281
 7964SOL     OW25850   3.484   5.953   5.960
 7964SOL    HW125851   3.486   5.877   6.024
 7964SOL    HW225852   3.436   6.030   6.000
 7965SOL     OW25853   2.842   7.159   7.286
 7965SOL    HW125854   2.822   7.203   7.198
 7965SOL    HW225855   2.881   7.068   7.270
 7966SOL     OW25856   3.721   7.104   7.191
 7966SOL    HW125857   3.735   7.131   7.096
 7966SOL    HW225858   3.804   7.126   7.244
 7967SOL     OW25859   2.212   6.484   7.390
 7967SOL    HW125860   2.288   6.528   7.438
 7967SOL    HW225861   2.247   6.437   7.308
 7968SOL     OW25862   3.402   5.860   5.711
 7968SOL    HW125863   3.341   5.785   5.734
 7968SOL    HW225864   3.424   5.912   5.794
 7969SOL     OW25865   2.930   6.919   6.435
 7969SOL    HW125866   2.937   6.835   6.380
 7969SOL    HW225867   2.992   6.988   6.399
 7970SOL     OW25868   2.181   6.396   6.535
 7970SOL    HW125869   2.274   6.432   6.540
 7970SOL    HW225870   2.175   6.311   6.587
 7971SOL     OW25871   2.201   6.095   6.592
 7971SOL    HW125872   2.149   6.012   6.575
 7971SOL    HW225873   2.278   6.100   6.528
 7972SOL     OW25874   3.000   5.966   7.264
 7972SOL    HW125875   2.955   6.029   7.328
 7972SOL    HW225876   3.093   5.997   7.247
 7973SOL     OW25877   3.022   5.793   7.063
 7973SOL    HW125878   3.022   5.857   7.140
 7973SOL    HW225879   3.050   5.841   6.980
 7974SOL     OW25880   1.870   6.912   5.786
 7974SOL    HW125881   1.777   6.933   5.755
 7974SOL    HW225882   1.880   6.813   5.799
 7975SOL     OW25883   1.950   7.387   6.513
 7975SOL    HW125884   1.908   7.301   6.486
 7975SOL    HW225885   2.044   7.390   6.479
 7976SOL     OW25886   2.366   7.154   6.496
 7976SOL    HW125887   2.432   7.228   6.505
 7976SOL    HW225888   2.410   7.075   6.454
 7977SOL     OW25889   1.902   6.130   6.700
 7977SOL    HW125890   1.987   6.097   6.659
 7977SOL    HW225891   1.915   6.145   6.798
 7978SOL     OW25892   2.051   6.106   7.308
 7978SOL    HW125893   2.110   6.066   7.238
 7978SOL    HW225894   1.993   6.177   7.267
 7979SOL     OW25895   3.519   6.190   6.792
 7979SOL    HW125896   3.481   6.121   6.854
 7979SOL    HW225897   3.601   6.154   6.748
 7980SOL     OW25898   2.114   7.150   7.330
 7980SOL    HW125899   2.084   7.207   7.406
 7980SOL    HW225900   2.107   7.053   7.356
 7981SOL     OW25901   2.533   6.050   6.855
 7981SOL    HW125902   2.499   5.961   6.825
 7981SOL    HW225903   2.559   6.104   6.775
 7982SOL     OW25904   2.792   7.264   7.051
 7982SOL    HW125905   2.768   7.246   6.956
 7982SOL    HW225906   2.822   7.358   7.061
 7983SOL     OW25907   2.335   6.086   5.777
 7983SOL    HW125908   2.396   6.166   5.781
 7983SOL    HW225909   2.240   6.117   5.784
 7984SOL     OW25910   2.021   6.723   7.052
 7984SOL    HW125911   2.043   6.662   7.128
 7984SOL    HW225912   2.031   6.674   6.966
 7985SOL     OW25913   3.209   6.645   6.820
 7985SOL    HW125914   3.233   6.582   6.746
 7985SOL    HW225915   3.119   6.685   6.802
 7986SOL     OW25916   3.164   6.441   5.895
 7986SOL    HW125917   3.078   6.410   5.937
 7986SOL    HW225918   3.160   6.427   5.796
 7987SOL     OW25919   3.621   7.333   6.740
 7987SOL    HW125920   3.682   7.363   6.667
 7987SOL    HW225921   3.583   7.244   6.718
 7988SOL     OW25922   3.114   7.317   6.714
 7988SOL    HW125923   3.198   7.322   6.660
 7988SOL    HW225924   3.091   7.221   6.732
 7989SOL     OW25925   1.945   6.844   6.608
 7989SOL    HW125926   1.940   6.843   6.708
 7989SOL    HW225927   1.862   6.803   6.570
 7990SOL     OW25928   2.550   7.248   7.302
 7990SOL    HW125929   2.494   7.329   7.311
 7990SOL    HW225930   2.602   7.252   7.216
 7991SOL     OW25931   2.765   5.672   5.719
 7991SOL    HW125932   2.816   5.673   5.633
 7991SOL    HW225933   2.821   5.630   5.790
 7992SOL     OW25934   3.588   5.721   6.109
 7992SOL    HW125935   3.661   5.704   6.042
 7992SOL    HW225936   3.557   5.634   6.147
 7993SOL     OW25937   3.250   7.159   6.063
 7993SOL    HW125938   3.317   7.171   5.989
 7993SOL    HW225939   3.210   7.248   6.086
 7994SOL     OW25940   1.992   7.380   7.437
 7994SOL    HW125941   1.951   7.306   7.490
 7994SOL    HW225942   2.056   7.431   7.495
 7995SOL     OW25943   2.534   7.202   5.740
 7995SOL    HW125944   2.543   7.212   5.641
 7995SOL    HW225945   2.494   7.113   5.761
 7996SOL     OW25946   3.512   7.306   6.980
 7996SOL    HW125947   3.565   7.316   6.896
 7996SOL    HW225948   3.485   7.396   7.014
 7997SOL     OW25949   3.703   5.761   6.549
 7997SOL    HW125950   3.742   5.676   6.513
 7997SOL    HW225951   3.605   5.763   6.530
 7998SOL     OW25952   2.125   5.912   6.306
 7998SOL    HW125953   2.046   5.963   6.272
 7998SOL    HW225954   2.116   5.897   6.404
 7999SOL     OW25955   3.056   7.198   5.617
 7999SOL    HW125956   3.062   7.105   5.654
 7999SOL    HW225957   2.997   7.198   5.537
 8000SOL     OW25958   3.366   7.193   5.630
 8000SOL    HW125959   3.274   7.230   5.637
 8000SOL    HW225960   3.404   7.213   5.540
 8001SOL     OW25961   2.234   6.874   7.076
 8001SOL    HW125962   2.221   6.967   7.042
 8001SOL    HW225963   2.150   6.822   7.063
 8002SOL     OW25964   3.476   6.878   6.875
 8002SOL    HW125965   3.536   6.881   6.955
 8002SOL    HW225966   3.401   6.942   6.888
 8003SOL     OW25967   2.901   6.684   6.282
 8003SOL    HW125968   2.831   6.637   6.336
 8003SOL    HW225969   2.960   6.616   6.239
 8004SOL     OW25970   2.876   5.822   6.557
 8004SOL    HW125971   2.868   5.786   6.464
 8004SOL    HW225972   2.874   5.746   6.622
 8005SOL     OW25973   2.452   7.073   6.077
 8005SOL    HW125974   2.494   7.015   6.007
 8005SOL    HW225975   2.408   7.152   6.033
 8006SOL     OW25976   3.571   5.971   6.967
 8006SOL    HW125977   3.644   6.040   6.971
 8006SOL    HW225978   3.599   5.896   6.908
 8007SOL     OW25979   2.117   6.934   5.876
 8007SOL    HW125980   2.021   6.935   5.849
 8007SOL    HW225981   2.129   6.987   5.960
 8008SOL     OW25982   1.967   6.599   7.312
 8008SOL    HW125983   1.890   6.566   7.366
 8008SOL    HW225984   2.052   6.569   7.354
 8009SOL     OW25985   2.534   5.789   7.075
 8009SOL    HW125986   2.624   5.773   7.035
 8009SOL    HW225987   2.542   5.794   7.174
 8010SOL     OW25988   1.937   5.931   5.619
 8010SOL    HW125989   1.845   5.903   5.590
 8010SOL    HW225990   1.968   6.008   5.563
 8011SOL     OW25991   1.934   5.752   5.904
 8011SOL    HW125992   1.917   5.835   5.850
 8011SOL    HW225993   2.024   5.715   5.882
 8012SOL     OW25994   3.045   6.921   5.705
 8012SOL    HW125995   2.946   6.910   5.707
 8012SOL    HW225996   3.079   6.936   5.798
 8013SOL     OW25997   3.355   7.353   6.545
 8013SOL    HW125998   3.388   7.417   6.476
 8013SOL    HW225999   3.421   7.347   6.620
 8014SOL     OW26000   3.312   6.806   7.219
 8014SOL    HW126001   3.303   6.796   7.318
 8014SOL    HW226002   3.408   6.799   7.193
 8015SOL     OW26003   2.252   7.327   7.146
 8015SOL    HW126004   2.161   7.368   7.144
 8015SOL    HW226005   2.245   7.233   7.178
 8016SOL     OW26006   3.536   6.469   6.840
 8016SOL    HW126007   3.509   6.380   6.803
 8016SOL    HW226008   3.537   6.537   6.767
 8017SOL     OW26009   3.639   5.928   7.228
 8017SOL    HW126010   3.622   5.959   7.134
 8017SOL    HW226011   3.555   5.891   7.266
 8018SOL     OW26012   3.592   6.520   7.103
 8018SOL    HW126013   3.630   6.611   7.118
 8018SOL    HW226014   3.584   6.503   7.004
 8019SOL     OW26015   2.721   6.960   5.602
 8019SOL    HW126016   2.675   6.975   5.690
 8019SOL    HW226017   2.765   7.045   5.572
 8020SOL     OW26018   2.523   7.376   6.539
 8020SOL    HW126019   2.477   7.464   6.526
 8020SOL    HW226020   2.622   7.388   6.532
 8021SOL     OW26021   3.270   7.437   7.306
 8021SOL    HW126022   3.174   7.426   7.279
 8021SOL    HW226023   3.326   7.370   7.258
 8022SOL     OW26024   2.721   6.542   6.447
 8022SOL    HW126025   2.775   6.473   6.495
 8022SOL    HW226026   2.689   6.611   6.513
 8023SOL     OW26027   2.945   6.570   5.673
 8023SOL    HW126028   2.922   6.623   5.591
 8023SOL    HW226029   3.026   6.514   5.654
 8024SOL     OW26030   3.723   7.155   6.437
 8024SOL    HW126031   3.652   7.143   6.367
 8024SOL    HW226032   3.724   7.076   6.497
 8025SOL     OW26033   2.083   6.900   7.430
 8025SOL    HW126034   2.018   6.827   7.409
 8025SOL    HW226035   2.087   6.914   7.528
 8026SOL     OW26036   1.941   6.826   6.239
 8026SOL    HW126037   1.940   6.779   6.327
 8026SOL    HW226038   2.023   6.798   6.188
 8027SOL     OW26039   2.534   6.977   7.210
 8027SOL    HW126040   2.456   6.927   7.248
 8027SOL    HW226041   2.531   7.072   7.241
 8028SOL     OW26042   3.686   5.778   6.813
 8028SOL    HW126043   3.682   5.688   6.857
 8028SOL    HW226044   3.689   5.767   6.714
 8029SOL     OW26045   2.290   6.010   6.106
 8029SOL    HW126046   2.320   5.938   6.044
 8029SOL    HW226047   2.251   5.970   6.189
 8030SOL     OW26048   3.567   7.073   6.690
 8030SOL    HW126049   3.474   7.048   6.663
 8030SOL    HW226050   3.593   7.023   6.772
 8031SOL     OW26051   2.179   6.133   6.866
 8031SOL    HW126052   2.217   6.074   6.938
 8031SOL    HW226053   2.219   6.107   6.778
 8032SOL     OW26054   2.674   7.172   6.273
 8032SOL    HW126055   2.706   7.182   6.179
 8032SOL    HW226056   2.595   7.110   6.275
 8033SOL     OW26057   3.286   5.800   6.698
 8033SOL    HW126058   3.338   5.735   6.753
 8033SOL    HW226059   3.237   5.863   6.759
 8034SOL     OW26060   2.863   5.620   6.740
 8034SOL    HW126061   2.800   5.548   6.709
 8034SOL    HW226062   2.956   5.584   6.740
 8035SOL     OW26063   2.632   6.916   5.887
 8035SOL    HW126064   2.586   6.829   5.904
 8035SOL    HW226065   2.723   6.913   5.928
 8036SOL     OW26066   2.480   7.153   6.870
 8036SOL    HW126067   2.475   7.235   6.927
 8036SOL    HW226068   2.569   7.150   6.825
 8037SOL     OW26069   3.214   5.638   5.754
 8037SOL    HW126070   3.249   5.597   5.670
 8037SOL    HW226071   3.124   5.600   5.774
 8038SOL     OW26072   3.455   5.807   6.468
 8038SOL    HW126073   3.371   5.806   6.522
 8038SOL    HW226074   3.457   5.890   6.412
 8039SOL     OW26075   1.901   6.663   5.886
 8039SOL    HW126076   2.000   6.652   5.877
 8039SOL    HW226077   1.861   6.577   5.918
 8040SOL     OW26078   2.737   7.232   5.923
 8040SOL    HW126079   2.660   7.197   5.869
 8040SOL    HW226080   2.705   7.303   5.985
 8041SOL     OW26081   2.092   6.214   7.561
 8041SOL    HW126082   1.999   6.212   7.598
 8041SOL    HW226083   2.093   6.175   7.469
 8042SOL     OW26084   2.087   5.861   8.444
 8042SOL    HW126085   2.122   5.844   8.536
 8042SOL    HW226086   1.999   5.816   8.432
 8043SOL     OW26087   1.881   5.954   8.095
 8043SOL    HW126088   1.799   5.997   8.134
 8043SOL    HW226089   1.853   5.881   8.032
 8044SOL     OW26090   2.431   6.861   8.613
 8044SOL    HW126091   2.338   6.854   8.576
 8044SOL    HW226092   2.442   6.950   8.657
 8045SOL     OW26093   3.417   7.097   8.151
 8045SOL    HW126094   3.360   7.081   8.232
 8045SOL    HW226095   3.358   7.107   8.071
 8046SOL     OW26096   3.605   6.204   8.304
 8046SOL    HW126097   3.638   6.298   8.304
 8046SOL    HW226098   3.656   6.150   8.370
 8047SOL     OW26099   3.617   6.193   7.679
 8047SOL    HW126100   3.605   6.180   7.580
 8047SOL    HW226101   3.587   6.112   7.728
 8048SOL     OW26102   2.630   6.730   8.471
 8048SOL    HW126103   2.552   6.747   8.531
 8048SOL    HW226104   2.664   6.817   8.435
 8049SOL     OW26105   2.547   6.598   8.113
 8049SOL    HW126106   2.616   6.582   8.183
 8049SOL    HW226107   2.474   6.655   8.151
 8050SOL     OW26108   2.197   7.021   8.509
 8050SOL    HW126109   2.119   6.990   8.456
 8050SOL    HW226110   2.255   7.079   8.452
 8051SOL     OW26111   3.322   7.091   8.787
 8051SOL    HW126112   3.346   7.185   8.813
 8051SOL    HW226113   3.306   7.037   8.869
 8052SOL     OW26114   2.300   5.978   8.947
 8052SOL    HW126115   2.382   5.922   8.956
 8052SOL    HW226116   2.219   5.920   8.951
 8053SOL     OW26117   3.465   6.033   8.185
 8053SOL    HW126118   3.391   6.079   8.135
 8053SOL    HW226119   3.516   6.101   8.238
 8054SOL     OW26120   2.093   7.299   7.931
 8054SOL    HW126121   2.127   7.376   7.985
 8054SOL    HW226122   2.137   7.299   7.841
 8055SOL     OW26123   2.092   7.020   7.986
 8055SOL    HW126124   2.066   7.116   7.986
 8055SOL    HW226125   2.021   6.966   8.031
 8056SOL     OW26126   2.102   6.677   8.334
 8056SOL    HW126127   2.116   6.593   8.386
 8056SOL    HW226128   2.047   6.741   8.389
 8057SOL     OW26129   2.482   7.372   8.887
 8057SOL    HW126130   2.390   7.355   8.922
 8057SOL    HW226131   2.510   7.464   8.913
 8058SOL     OW26132   3.456   5.700   8.928
 8058SOL    HW126133   3.438   5.767   8.856
 8058SOL    HW226134   3.453   5.746   9.017
 8059SOL     OW26135   1.984   6.229   8.011
 8059SOL    HW126136   1.939   6.141   8.028
 8059SOL    HW226137   1.983   6.283   8.095
 8060SOL     OW26138   3.704   7.353   7.807
 8060SOL    HW126139   3.758   7.324   7.887
 8060SOL    HW226140   3.734   7.443   7.778
 8061SOL     OW26141   1.889   7.182   7.565
 8061SOL    HW126142   1.870   7.086   7.586
 8061SOL    HW226143   1.856   7.240   7.640
 8062SOL     OW26144   3.551   6.508   8.060
 8062SOL    HW126145   3.646   6.479   8.068
 8062SOL    HW226146   3.543   6.573   7.985
 8063SOL     OW26147   3.503   6.694   7.880
 8063SOL    HW126148   3.589   6.696   7.828
 8063SOL    HW226149   3.517   6.741   7.968
 8064SOL     OW26150   2.475   6.951   8.174
 8064SOL    HW126151   2.426   6.864   8.183
 8064SOL    HW226152   2.452   6.994   8.087
 8065SOL     OW26153   2.671   5.590   7.950
 8065SOL    HW126154   2.711   5.681   7.941
 8065SOL    HW226155   2.571   5.598   7.956
 8066SOL     OW26156   2.059   6.562   8.712
 8066SOL    HW126157   2.148   6.517   8.698
 8066SOL    HW226158   1.986   6.497   8.693
 8067SOL     OW26159   3.387   6.585   7.638
 8067SOL    HW126160   3.324   6.509   7.651
 8067SOL    HW226161   3.435   6.603   7.724
 8068SOL     OW26162   3.328   7.003   8.401
 8068SOL    HW126163   3.269   7.009   8.481
 8068SOL    HW226164   3.313   6.915   8.355
 8069SOL     OW26165   3.529   7.300   8.020
 8069SOL    HW126166   3.488   7.277   7.932
 8069SOL    HW226167   3.511   7.226   8.085
 8070SOL     OW26168   3.143   5.931   8.392
 8070SOL    HW126169   3.057   5.881   8.379
 8070SOL    HW226170   3.205   5.877   8.448
 8071SOL     OW26171   3.438   7.248   7.755
 8071SOL    HW126172   3.527   7.294   7.758
 8071SOL    HW226173   3.417   7.224   7.660
 8072SOL     OW26174   2.669   6.191   8.913
 8072SOL    HW126175   2.622   6.188   9.002
 8072SOL    HW226176   2.618   6.136   8.847
 8073SOL     OW26177   2.853   5.996   8.690
 8073SOL    HW126178   2.776   6.030   8.744
 8073SOL    HW226179   2.819   5.945   8.611
 8074SOL     OW26180   1.938   6.397   8.237
 8074SOL    HW126181   2.037   6.385   8.246
 8074SOL    HW226182   1.914   6.492   8.258
 8075SOL     OW26183   1.992   7.407   0.019
 8075SOL    HW126184   1.982   7.392   0.118
 8075SOL    HW226185   1.906   7.443  -0.017
 8076SOL     OW26186   2.727   5.934   7.643
 8076SOL    HW126187   2.786   5.997   7.594
 8076SOL    HW226188   2.746   5.840   7.614
 8077SOL     OW26189   3.224   6.730   7.993
 8077SOL    HW126190   3.307   6.701   7.945
 8077SOL    HW226191   3.175   6.797   7.937
 8078SOL     OW26192   2.412   5.782   8.333
 8078SOL    HW126193   2.407   5.777   8.433
 8078SOL    HW226194   2.414   5.878   8.304
 8079SOL     OW26195   2.870   7.042   7.925
 8079SOL    HW126196   2.824   7.114   7.873
 8079SOL    HW226197   2.866   7.062   8.023
 8080SOL     OW26198   2.213   7.387   8.301
 8080SOL    HW126199   2.263   7.301   8.307
 8080SOL    HW226200   2.278   7.464   8.298
 8081SOL     OW26201   3.657   6.652   8.321
 8081SOL    HW126202   3.595   6.637   8.245
 8081SOL    HW226203   3.605   6.663   8.406
 8082SOL     OW26204   2.183   6.529   7.690
 8082SOL    HW126205   2.265   6.568   7.648
 8082SOL    HW226206   2.156   6.447   7.641
 8083SOL     OW26207   3.320   6.321   8.176
 8083SOL    HW126208   3.315   6.256   8.251
 8083SOL    HW226209   3.400   6.380   8.189
 8084SOL     OW26210   2.973   7.362   7.685
 8084SOL    HW126211   2.913   7.300   7.735
 8084SOL    HW226212   3.004   7.318   7.600
 8085SOL     OW26213   2.064   5.871   8.946
 8085SOL    HW126214   1.984   5.931   8.933
 8085SOL    HW226215   2.054   5.822   9.032
 8086SOL     OW26216   3.494   6.963   7.529
 8086SOL    HW126217   3.462   7.057   7.519
 8086SOL    HW226218   3.418   6.900   7.517
 8087SOL     OW26219   2.326   7.329   7.771
 8087SOL    HW126220   2.359   7.368   7.857
 8087SOL    HW226221   2.402   7.322   7.706
 8088SOL     OW26222   3.262   5.693   7.874
 8088SOL    HW126223   3.238   5.656   7.784
 8088SOL    HW226224   3.361   5.709   7.878
 8089SOL     OW26225   2.111   7.371   8.689
 8089SOL    HW126226   2.168   7.306   8.739
 8089SOL    HW226227   2.095   7.338   8.596
 8090SOL     OW26228   2.802   7.284   8.352
 8090SOL    HW126229   2.882   7.227   8.373
 8090SOL    HW226230   2.753   7.244   8.275
 8091SOL     OW26231   2.476   5.708   7.565
 8091SOL    HW126232   2.574   5.686   7.572
 8091SOL    HW226233   2.445   5.691   7.472
 8092SOL     OW26234   2.750   7.100   8.643
 8092SOL    HW126235   2.727   7.075   8.549
 8092SOL    HW226236   2.811   7.031   8.682
 8093SOL     OW26237   2.665   6.988   8.372
 8093SOL    HW126238   2.755   7.002   8.330
 8093SOL    HW226239   2.594   6.990   8.301
 8094SOL     OW26240   2.401   5.650   7.960
 8094SOL    HW126241   2.320   5.651   8.018
 8094SOL    HW226242   2.404   5.733   7.905
 8095SOL     OW26243   3.296   6.774   7.489
 8095SOL    HW126244   3.328   6.698   7.546
 8095SOL    HW226245   3.204   6.801   7.519
 8096SOL     OW26246   2.159   5.621   7.619
 8096SOL    HW126247   2.208   5.705   7.598
 8096SOL    HW226248   2.221   5.556   7.664
 8097SOL     OW26249   2.797   5.822   7.928
 8097SOL    HW126250   2.749   5.863   7.850
 8097SOL    HW226251   2.896   5.820   7.909
 8098SOL     OW26252   3.089   7.156   8.241
 8098SOL    HW126253   3.110   7.230   8.176
 8098SOL    HW226254   3.157   7.156   8.314
 8099SOL     OW26255   2.321   6.738   8.189
 8099SOL    HW126256   2.250   6.711   8.254
 8099SOL    HW226257   2.295   6.710   8.096
 8100SOL     OW26258   3.133   7.383   8.039
 8100SOL    HW126259   3.177   7.447   7.975
 8100SOL    HW226260   3.083   7.435   8.109
 8101SOL     OW26261   1.940   6.142   8.834
 8101SOL    HW126262   2.032   6.141   8.793
 8101SOL    HW226263   1.934   6.216   8.901
 8102SOL     OW26264   2.423   5.808   8.595
 8102SOL    HW126265   2.461   5.724   8.632
 8102SOL    HW226266   2.335   5.827   8.639
 8103SOL     OW26267   2.879   5.625   8.201
 8103SOL    HW126268   2.807   5.630   8.132
 8103SOL    HW226269   2.855   5.556   8.270
 8104SOL     OW26270   3.291   6.759   8.315
 8104SOL    HW126271   3.236   6.675   8.308
 8104SOL    HW226272   3.317   6.788   8.223
 8105SOL     OW26273   3.328   6.176   8.440
 8105SOL    HW126274   3.298   6.081   8.447
 8105SOL    HW226275   3.401   6.192   8.506
 8106SOL     OW26276   3.719   6.419   7.825
 8106SOL    HW126277   3.761   6.355   7.889
 8106SOL    HW226278   3.681   6.368   7.747
 8107SOL     OW26279   2.350   6.971   7.622
 8107SOL    HW126280   2.263   6.956   7.669
 8107SOL    HW226281   2.333   6.997   7.527
 8108SOL     OW26282   3.526   6.866   8.105
 8108SOL    HW126283   3.625   6.874   8.119
 8108SOL    HW226284   3.481   6.950   8.136
 8109SOL     OW26285   2.389   5.842   7.776
 8109SOL    HW126286   2.416   5.783   7.701
 8109SOL    HW226287   2.389   5.937   7.745
 8110SOL     OW26288   2.926   6.933   8.788
 8110SOL    HW126289   2.846   6.910   8.843
 8110SOL    HW226290   3.009   6.907   8.837
 8111SOL     OW26291   2.973   6.781   8.548
 8111SOL    HW126292   2.933   6.825   8.629
 8111SOL    HW226293   2.932   6.818   8.465
 8112SOL     OW26294   3.500   6.685   8.527
 8112SOL    HW126295   3.505   6.766   8.586
 8112SOL    HW226296   3.414   6.687   8.476
 8113SOL     OW26297   2.777   5.675   8.850
 8113SOL    HW126298   2.802   5.655   8.755
 8113SOL    HW226299   2.849   5.731   8.892
 8114SOL     OW26300   2.272   6.399   8.699
 8114SOL    HW126301   2.358   6.411   8.749
 8114SOL    HW226302   2.230   6.312   8.726
 8115SOL     OW26303   3.136   5.972   8.710
 8115SOL    HW126304   3.157   6.046   8.774
 8115SOL    HW226305   3.047   5.989   8.667
 8116SOL     OW26306   1.926   7.150   8.779
 8116SOL    HW126307   1.880   7.232   8.745
 8116SOL    HW226308   2.024   7.169   8.788
 8117SOL     OW26309   2.229   6.686   7.949
 8117SOL    HW126310   2.222   6.769   7.893
 8117SOL    HW226311   2.233   6.606   7.889
 8118SOL     OW26312   2.428   6.123   8.313
 8118SOL    HW126313   2.440   6.189   8.239
 8118SOL    HW226314   2.474   6.157   8.396
 8119SOL     OW26315   3.114   6.934   7.836
 8119SOL    HW126316   3.164   7.011   7.876
 8119SOL    HW226317   3.019   6.936   7.868
 8120SOL     OW26318   3.134   7.031   8.590
 8120SOL    HW126319   3.181   7.044   8.677
 8120SOL    HW226320   3.068   6.957   8.599
 8121SOL     OW26321   3.444   6.225   7.920
 8121SOL    HW126322   3.413   6.286   7.993
 8121SOL    HW226323   3.494   6.277   7.851
 8122SOL     OW26324   2.216   7.096   8.777
 8122SOL    HW126325   2.195   7.052   8.690
 8122SOL    HW226326   2.313   7.122   8.780
 8123SOL     OW26327   2.264   6.337   0.046
 8123SOL    HW126328   2.332   6.392  -0.001
 8123SOL    HW226329   2.304   6.249   0.073
 8124SOL     OW26330   3.449   6.365   0.118
 8124SOL    HW126331   3.357   6.403   0.113
 8124SOL    HW226332   3.509   6.412   0.053
 8125SOL     OW26333   2.435   6.456   8.477
 8125SOL    HW126334   2.479   6.545   8.468
 8125SOL    HW226335   2.372   6.456   8.554
 8126SOL     OW26336   3.222   6.448   8.493
 8126SOL    HW126337   3.147   6.448   8.427
 8126SOL    HW226338   3.259   6.356   8.502
 8127SOL     OW26339   2.169   5.799   8.679
 8127SOL    HW126340   2.146   5.836   8.769
 8127SOL    HW226341   2.139   5.704   8.673
 8128SOL     OW26342   1.899   6.896   8.730
 8128SOL    HW126343   1.952   6.847   8.798
 8128SOL    HW226344   1.921   6.994   8.735
 8129SOL     OW26345   2.594   6.220   8.512
 8129SOL    HW126346   2.653   6.194   8.436
 8129SOL    HW226347   2.566   6.316   8.501
 8130SOL     OW26348   2.169   5.649   8.066
 8130SOL    HW126349   2.158   5.743   8.099
 8130SOL    HW226350   2.164   5.586   8.143
 8131SOL     OW26351   3.484   5.953   7.822
 8131SOL    HW126352   3.486   5.877   7.886
 8131SOL    HW226353   3.436   6.030   7.862
 8132SOL     OW26354   2.885   6.352   8.414
 8132SOL    HW126355   2.900   6.373   8.510
 8132SOL    HW226356   2.855   6.257   8.405
 8133SOL     OW26357   2.842   7.159   0.148
 8133SOL    HW126358   2.822   7.203   0.060
 8133SOL    HW226359   2.881   7.068   0.132
 8134SOL     OW26360   3.721   7.104   0.053
 8134SOL    HW126361   3.735   7.131  -0.042
 8134SOL    HW226362   3.804   7.126   0.106
 8135SOL     OW26363   3.402   5.860   7.573
 8135SOL    HW126364   3.341   5.785   7.596
 8135SOL    HW226365   3.424   5.912   7.656
 8136SOL     OW26366   2.930   6.919   8.297
 8136SOL    HW126367   2.937   6.835   8.242
 8136SOL    HW226368   2.992   6.988   8.261
 8137SOL     OW26369   2.181   6.396   8.397
 8137SOL    HW126370   2.274   6.432   8.402
 8137SOL    HW226371   2.175   6.311   8.449
 8138SOL     OW26372   2.201   6.095   8.454
 8138SOL    HW126373   2.149   6.012   8.437
 8138SOL    HW226374   2.278   6.100   8.390
 8139SOL     OW26375   3.000   5.966   0.126
 8139SOL    HW126376   2.955   6.029   0.190
 8139SOL    HW226377   3.093   5.997   0.109
 8140SOL     OW26378   3.022   5.793   8.925
 8140SOL    HW126379   3.022   5.857   9.002
 8140SOL    HW226380   3.050   5.841   8.842
 8141SOL     OW26381   1.870   6.912   7.648
 8141SOL    HW126382   1.777   6.933   7.617
 8141SOL    HW226383   1.880   6.813   7.661
 8142SOL     OW26384   1.950   7.387   8.375
 8142SOL    HW126385   1.908   7.301   8.348
 8142SOL    HW226386   2.044   7.390   8.341
 8143SOL     OW26387   2.366   7.154   8.358
 8143SOL    HW126388   2.432   7.228   8.367
 8143SOL    HW226389   2.410   7.075   8.316
 8144SOL     OW26390   2.864   6.382   8.686
 8144SOL    HW126391   2.905   6.350   8.772
 8144SOL    HW226392   2.768   6.355   8.683
 8145SOL     OW26393   1.902   6.130   8.562
 8145SOL    HW126394   1.987   6.097   8.521
 8145SOL    HW226395   1.915   6.145   8.660
 8146SOL     OW26396   3.519   6.190   8.654
 8146SOL    HW126397   3.481   6.121   8.716
 8146SOL    HW226398   3.601   6.154   8.610
 8147SOL     OW26399   2.533   6.050   8.717
 8147SOL    HW126400   2.499   5.961   8.687
 8147SOL    HW226401   2.559   6.104   8.637
 8148SOL     OW26402   2.792   7.264   8.913
 8148SOL    HW126403   2.768   7.246   8.818
 8148SOL    HW226404   2.822   7.358   8.923
 8149SOL     OW26405   2.335   6.086   7.639
 8149SOL    HW126406   2.396   6.166   7.643
 8149SOL    HW226407   2.240   6.117   7.646
 8150SOL     OW26408   2.021   6.723   8.914
 8150SOL    HW126409   2.043   6.662   8.990
 8150SOL    HW226410   2.031   6.674   8.828
 8151SOL     OW26411   3.209   6.645   8.682
 8151SOL    HW126412   3.233   6.582   8.608
 8151SOL    HW226413   3.119   6.685   8.664
 8152SOL     OW26414   3.621   7.333   8.602
 8152SOL    HW126415   3.682   7.363   8.529
 8152SOL    HW226416   3.583   7.244   8.580
 8153SOL     OW26417   3.114   7.317   8.576
 8153SOL    HW126418   3.198   7.322   8.522
 8153SOL    HW226419   3.091   7.221   8.594
 8154SOL     OW26420   1.945   6.844   8.470
 8154SOL    HW126421   1.940   6.843   8.570
 8154SOL    HW226422   1.862   6.803   8.432
 8155SOL     OW26423   2.765   5.672   7.581
 8155SOL    HW126424   2.816   5.673   7.495
 8155SOL    HW226425   2.821   5.630   7.652
 8156SOL     OW26426   3.588   5.721   7.971
 8156SOL    HW126427   3.661   5.704   7.904
 8156SOL    HW226428   3.557   5.634   8.009
 8157SOL     OW26429   3.250   7.159   7.925
 8157SOL    HW126430   3.317   7.171   7.851
 8157SOL    HW226431   3.210   7.248   7.948
 8158SOL     OW26432   3.142   6.513   8.120
 8158SOL    HW126433   3.202   6.432   8.122
 8158SOL    HW226434   3.182   6.582   8.060
 8159SOL     OW26435   2.534   7.202   7.602
 8159SOL    HW126436   2.543   7.212   7.503
 8159SOL    HW226437   2.494   7.113   7.623
 8160SOL     OW26438   3.512   7.306   8.842
 8160SOL    HW126439   3.565   7.316   8.758
 8160SOL    HW226440   3.485   7.396   8.876
 8161SOL     OW26441   3.703   5.761   8.411
 8161SOL    HW126442   3.742   5.676   8.375
 8161SOL    HW226443   3.605   5.763   8.392
 8162SOL     OW26444   2.125   5.912   8.168
 8162SOL    HW126445   2.046   5.963   8.134
 8162SOL    HW226446   2.116   5.897   8.266
 8163SOL     OW26447   3.056   7.198   7.479
 8163SOL    HW126448   3.062   7.105   7.516
 8163SOL    HW226449   2.997   7.198   7.399
 8164SOL     OW26450   2.684   6.588   8.820
 8164SOL    HW126451   2.724   6.587   8.728
 8164SOL    HW226452   2.694   6.680   8.860
 8165SOL     OW26453   3.366   7.193   7.492
 8165SOL    HW126454   3.274   7.230   7.499
 8165SOL    HW226455   3.404   7.213   7.402
 8166SOL     OW26456   2.234   6.874   8.938
 8166SOL    HW126457   2.221   6.967   8.904
 8166SOL    HW226458   2.150   6.822   8.925
 8167SOL     OW26459   3.476   6.878   8.737
 8167SOL    HW126460   3.536   6.881   8.817
 8167SOL    HW226461   3.401   6.942   8.750
 8168SOL     OW26462   2.901   6.684   8.144
 8168SOL    HW126463   2.831   6.637   8.198
 8168SOL    HW226464   2.960   6.616   8.101
 8169SOL     OW26465   2.876   5.822   8.419
 8169SOL    HW126466   2.868   5.786   8.326
 8169SOL    HW226467   2.874   5.746   8.484
 8170SOL     OW26468   2.452   7.073   7.939
 8170SOL    HW126469   2.494   7.015   7.869
 8170SOL    HW226470   2.408   7.152   7.895
 8171SOL     OW26471   3.571   5.971   8.829
 8171SOL    HW126472   3.644   6.040   8.833
 8171SOL    HW226473   3.599   5.896   8.770
 8172SOL     OW26474   2.117   6.934   7.738
 8172SOL    HW126475   2.021   6.935   7.711
 8172SOL    HW226476   2.129   6.987   7.822
 8173SOL     OW26477   1.937   5.931   7.481
 8173SOL    HW126478   1.845   5.903   7.452
 8173SOL    HW226479   1.968   6.008   7.425
 8174SOL     OW26480   3.302   6.442   8.846
 8174SOL    HW126481   3.245   6.494   8.783
 8174SOL    HW226482   3.398   6.454   8.822
 8175SOL     OW26483   1.934   5.752   7.766
 8175SOL    HW126484   1.917   5.835   7.712
 8175SOL    HW226485   2.024   5.715   7.744
 8176SOL     OW26486   2.475   6.428   8.879
 8176SOL    HW126487   2.531   6.509   8.862
 8176SOL    HW226488   2.534   6.348   8.882
 8177SOL     OW26489   3.355   7.353   8.407
 8177SOL    HW126490   3.388   7.417   8.338
 8177SOL    HW226491   3.421   7.347   8.482
 8178SOL     OW26492   2.252   7.327   0.008
 8178SOL    HW126493   2.161   7.368   0.006
 8178SOL    HW226494   2.245   7.233   0.040
 8179SOL     OW26495   3.536   6.469   8.702
 8179SOL    HW126496   3.509   6.380   8.665
 8179SOL    HW226497   3.537   6.537   8.629
 8180SOL     OW26498   3.087   5.911   7.897
 8180SOL    HW126499   3.152   5.837   7.886
 8180SOL    HW226500   3.107   5.961   7.981
 8181SOL     OW26501   3.639   5.928   0.090
 8181SOL    HW126502   3.622   5.959  -0.004
 8181SOL    HW226503   3.555   5.891   0.128
 8182SOL     OW26504   3.592   6.520   8.965
 8182SOL    HW126505   3.630   6.611   8.980
 8182SOL    HW226506   3.584   6.503   8.866
 8183SOL     OW26507   2.523   7.376   8.401
 8183SOL    HW126508   2.477   7.464   8.388
 8183SOL    HW226509   2.622   7.388   8.394
 8184SOL     OW26510   3.270   7.437   0.168
 8184SOL    HW126511   3.174   7.426   0.141
 8184SOL    HW226512   3.326   7.370   0.120
 8185SOL     OW26513   2.721   6.542   8.309
 8185SOL    HW126514   2.775   6.473   8.357
 8185SOL    HW226515   2.689   6.611   8.375
 8186SOL     OW26516   2.945   6.570   7.535
 8186SOL    HW126517   2.922   6.623   7.453
 8186SOL    HW226518   3.026   6.514   7.516
 8187SOL     OW26519   3.723   7.155   8.299
 8187SOL    HW126520   3.652   7.143   8.229
 8187SOL    HW226521   3.724   7.076   8.359
 8188SOL     OW26522   1.941   6.826   8.101
 8188SOL    HW126523   1.940   6.779   8.189
 8188SOL    HW226524   2.023   6.798   8.050
 8189SOL     OW26525   3.686   5.778   8.675
 8189SOL    HW126526   3.682   5.688   8.719
 8189SOL    HW226527   3.689   5.767   8.576
 8190SOL     OW26528   2.290   6.010   7.968
 8190SOL    HW126529   2.320   5.938   7.906
 8190SOL    HW226530   2.251   5.970   8.051
 8191SOL     OW26531   3.567   7.073   8.552
 8191SOL    HW126532   3.474   7.048   8.525
 8191SOL    HW226533   3.593   7.023   8.634
 8192SOL     OW26534   2.179   6.133   8.728
 8192SOL    HW126535   2.217   6.074   8.800
 8192SOL    HW226536   2.219   6.107   8.640
 8193SOL     OW26537   2.674   7.172   8.135
 8193SOL    HW126538   2.706   7.182   8.041
 8193SOL    HW226539   2.595   7.110   8.137
 8194SOL     OW26540   3.286   5.800   8.560
 8194SOL    HW126541   3.338   5.735   8.615
 8194SOL    HW226542   3.237   5.863   8.621
 8195SOL     OW26543   2.863   5.620   8.602
 8195SOL    HW126544   2.800   5.548   8.571
 8195SOL    HW226545   2.956   5.584   8.602
 8196SOL     OW26546   2.632   6.916   7.749
 8196SOL    HW126547   2.586   6.829   7.766
 8196SOL    HW226548   2.723   6.913   7.790
 8197SOL     OW26549   2.480   7.153   8.732
 8197SOL    HW126550   2.475   7.235   8.789
 8197SOL    HW226551   2.569   7.150   8.687
 8198SOL     OW26552   3.214   5.638   7.616
 8198SOL    HW126553   3.249   5.597   7.532
 8198SOL    HW226554   3.124   5.600   7.636
 8199SOL     OW26555   3.455   5.807   8.330
 8199SOL    HW126556   3.371   5.806   8.384
 8199SOL    HW226557   3.457   5.890   8.274
 8200SOL     OW26558   1.901   6.663   7.748
 8200SOL    HW126559   2.000   6.652   7.739
 8200SOL    HW226560   1.861   6.577   7.780
 8201SOL     OW26561   2.737   7.232   7.785
 8201SOL    HW126562   2.660   7.197   7.731
 8201SOL    HW226563   2.705   7.303   7.847
 8202SOL     OW26564   2.092   8.076   0.113
 8202SOL    HW126565   1.999   8.074   0.150
 8202SOL    HW226566   2.093   8.037   0.021
 8203SOL     OW26567   2.087   7.723   0.996
 8203SOL    HW126568   2.122   7.706   1.088
 8203SOL    HW226569   1.999   7.678   0.984
 8204SOL     OW26570   1.881   7.816   0.647
 8204SOL    HW126571   1.799   7.859   0.686
 8204SOL    HW226572   1.853   7.743   0.584
 8205SOL     OW26573   2.431   8.723   1.165
 8205SOL    HW126574   2.338   8.716   1.128
 8205SOL    HW226575   2.442   8.812   1.209
 8206SOL     OW26576   3.417   8.959   0.703
 8206SOL    HW126577   3.360   8.943   0.784
 8206SOL    HW226578   3.358   8.969   0.623
 8207SOL     OW26579   3.605   8.066   0.856
 8207SOL    HW126580   3.638   8.160   0.856
 8207SOL    HW226581   3.656   8.012   0.922
 8208SOL     OW26582   2.997   8.151   0.717
 8208SOL    HW126583   3.054   8.229   0.692
 8208SOL    HW226584   2.937   8.177   0.793
 8209SOL     OW26585   3.617   8.055   0.231
 8209SOL    HW126586   3.605   8.042   0.132
 8209SOL    HW226587   3.587   7.974   0.280
 8210SOL     OW26588   2.630   8.592   1.023
 8210SOL    HW126589   2.552   8.609   1.083
 8210SOL    HW226590   2.664   8.679   0.987
 8211SOL     OW26591   2.712   8.246   1.823
 8211SOL    HW126592   2.708   8.322   1.888
 8211SOL    HW226593   2.734   8.282   1.732
 8212SOL     OW26594   2.547   8.460   0.665
 8212SOL    HW126595   2.616   8.444   0.735
 8212SOL    HW226596   2.474   8.517   0.703
 8213SOL     OW26597   2.548   8.609   1.803
 8213SOL    HW126598   2.608   8.688   1.817
 8213SOL    HW226599   2.462   8.640   1.762
 8214SOL     OW26600   2.197   8.883   1.061
 8214SOL    HW126601   2.119   8.852   1.008
 8214SOL    HW226602   2.255   8.941   1.004
 8215SOL     OW26603   3.322   8.953   1.339
 8215SOL    HW126604   3.346   9.047   1.365
 8215SOL    HW226605   3.306   8.899   1.421
 8216SOL     OW26606   2.300   7.840   1.499
 8216SOL    HW126607   2.382   7.784   1.508
 8216SOL    HW226608   2.219   7.782   1.503
 8217SOL     OW26609   3.465   7.895   0.737
 8217SOL    HW126610   3.391   7.941   0.687
 8217SOL    HW226611   3.516   7.963   0.790
 8218SOL     OW26612   2.093   0.161   0.483
 8218SOL    HW126613   2.127   0.238   0.537
 8218SOL    HW226614   2.137   0.161   0.393
 8219SOL     OW26615   2.989   8.789   1.690
 8219SOL    HW126616   3.036   8.789   1.778
 8219SOL    HW226617   2.941   8.702   1.679
 8220SOL     OW26618   2.092   8.882   0.538
 8220SOL    HW126619   2.066   8.978   0.538
 8220SOL    HW226620   2.021   8.828   0.583
 8221SOL     OW26621   2.102   8.539   0.886
 8221SOL    HW126622   2.116   8.455   0.938
 8221SOL    HW226623   2.047   8.603   0.941
 8222SOL     OW26624   2.468   8.412   0.123
 8222SOL    HW126625   2.475   8.496   0.069
 8222SOL    HW226626   2.514   8.425   0.211
 8223SOL     OW26627   3.456   7.562   1.480
 8223SOL    HW126628   3.438   7.629   1.408
 8223SOL    HW226629   3.453   7.608   1.569
 8224SOL     OW26630   1.984   8.091   0.563
 8224SOL    HW126631   1.939   8.003   0.580
 8224SOL    HW226632   1.983   8.145   0.647
 8225SOL     OW26633   3.551   8.370   0.612
 8225SOL    HW126634   3.646   8.341   0.620
 8225SOL    HW226635   3.543   8.435   0.537
 8226SOL     OW26636   3.503   8.556   0.432
 8226SOL    HW126637   3.589   8.558   0.380
 8226SOL    HW226638   3.517   8.603   0.520
 8227SOL     OW26639   1.975   8.185   1.597
 8227SOL    HW126640   2.063   8.172   1.642
 8227SOL    HW226641   1.962   8.282   1.575
 8228SOL     OW26642   2.475   8.813   0.726
 8228SOL    HW126643   2.426   8.726   0.735
 8228SOL    HW226644   2.452   8.856   0.639
 8229SOL     OW26645   3.155   8.676   1.423
 8229SOL    HW126646   3.192   8.603   1.365
 8229SOL    HW226647   3.207   8.681   1.508
 8230SOL     OW26648   2.671   7.452   0.502
 8230SOL    HW126649   2.711   7.543   0.493
 8230SOL    HW226650   2.571   7.460   0.508
 8231SOL     OW26651   2.059   8.424   1.264
 8231SOL    HW126652   2.148   8.379   1.250
 8231SOL    HW226653   1.986   8.359   1.245
 8232SOL     OW26654   3.387   8.447   0.190
 8232SOL    HW126655   3.324   8.371   0.203
 8232SOL    HW226656   3.435   8.465   0.276
 8233SOL     OW26657   2.179   7.699   1.801
 8233SOL    HW126658   2.250   7.770   1.807
 8233SOL    HW226659   2.091   7.738   1.829
 8234SOL     OW26660   3.328   8.865   0.953
 8234SOL    HW126661   3.269   8.871   1.033
 8234SOL    HW226662   3.313   8.777   0.907
 8235SOL     OW26663   2.460   8.177   0.270
 8235SOL    HW126664   2.484   8.246   0.202
 8235SOL    HW226665   2.382   8.210   0.324
 8236SOL     OW26666   3.143   7.793   0.944
 8236SOL    HW126667   3.057   7.743   0.931
 8236SOL    HW226668   3.205   7.739   1.000
 8237SOL     OW26669   2.669   8.053   1.465
 8237SOL    HW126670   2.622   8.050   1.554
 8237SOL    HW226671   2.618   7.998   1.399
 8238SOL     OW26672   3.256   7.917   1.674
 8238SOL    HW126673   3.236   7.960   1.762
 8238SOL    HW226674   3.334   7.855   1.683
 8239SOL     OW26675   2.835   8.338   1.572
 8239SOL    HW126676   2.881   8.254   1.543
 8239SOL    HW226677   2.779   8.372   1.497
 8240SOL     OW26678   2.853   7.858   1.242
 8240SOL    HW126679   2.776   7.892   1.296
 8240SOL    HW226680   2.819   7.807   1.163
 8241SOL     OW26681   2.903   8.149   0.429
 8241SOL    HW126682   2.929   8.145   0.525
 8241SOL    HW226683   2.818   8.098   0.415
 8242SOL     OW26684   1.938   8.259   0.789
 8242SOL    HW126685   2.037   8.247   0.798
 8242SOL    HW226686   1.914   8.354   0.810
 8243SOL     OW26687   2.727   7.796   0.195
 8243SOL    HW126688   2.786   7.859   0.146
 8243SOL    HW226689   2.746   7.702   0.166
 8244SOL     OW26690   3.581   8.033   1.831
 8244SOL    HW126691   3.555   8.122   1.795
 8244SOL    HW226692   3.579   7.965   1.758
 8245SOL     OW26693   3.224   8.592   0.545
 8245SOL    HW126694   3.307   8.563   0.497
 8245SOL    HW226695   3.175   8.659   0.489
 8246SOL     OW26696   2.412   7.644   0.885
 8246SOL    HW126697   2.407   7.639   0.985
 8246SOL    HW226698   2.414   7.740   0.856
 8247SOL     OW26699   2.870   8.904   0.477
 8247SOL    HW126700   2.824   8.976   0.425
 8247SOL    HW226701   2.866   8.924   0.575
 8248SOL     OW26702   3.657   8.514   0.873
 8248SOL    HW126703   3.595   8.499   0.797
 8248SOL    HW226704   3.605   8.525   0.958
 8249SOL     OW26705   3.089   8.998   1.506
 8249SOL    HW126706   3.095   8.921   1.570
 8249SOL    HW226707   3.037   8.972   1.426
 8250SOL     OW26708   2.183   8.391   0.242
 8250SOL    HW126709   2.265   8.430   0.200
 8250SOL    HW226710   2.156   8.309   0.193
 8251SOL     OW26711   3.320   8.183   0.728
 8251SOL    HW126712   3.315   8.118   0.803
 8251SOL    HW226713   3.400   8.242   0.741
 8252SOL     OW26714   2.323   8.714   1.727
 8252SOL    HW126715   2.273   8.715   1.641
 8252SOL    HW226716   2.260   8.696   1.803
 8253SOL     OW26717   2.973   0.224   0.237
 8253SOL    HW126718   2.913   0.162   0.287
 8253SOL    HW226719   3.004   0.180   0.152
 8254SOL     OW26720   2.064   7.733   1.498
 8254SOL    HW126721   1.984   7.793   1.485
 8254SOL    HW226722   2.054   7.684   1.584
 8255SOL     OW26723   3.494   8.825   0.081
 8255SOL    HW126724   3.462   8.919   0.071
 8255SOL    HW226725   3.418   8.762   0.069
 8256SOL     OW26726   3.262   7.555   0.426
 8256SOL    HW126727   3.238   7.518   0.336
 8256SOL    HW226728   3.361   7.571   0.430
 8257SOL     OW26729   2.244   8.148   0.480
 8257SOL    HW126730   2.289   8.058   0.477
 8257SOL    HW226731   2.150   8.137   0.513
 8258SOL     OW26732   3.409   7.670   1.729
 8258SOL    HW126733   3.404   7.707   1.821
 8258SOL    HW226734   3.337   7.601   1.717
 8259SOL     OW26735   2.476   7.570   0.117
 8259SOL    HW126736   2.574   7.548   0.124
 8259SOL    HW226737   2.445   7.553   0.024
 8260SOL     OW26738   2.643   7.712   1.749
 8260SOL    HW126739   2.710   7.651   1.792
 8260SOL    HW226740   2.570   7.731   1.814
 8261SOL     OW26741   3.213   8.038   1.433
 8261SOL    HW126742   3.241   7.995   1.518
 8261SOL    HW226743   3.238   8.134   1.434
 8262SOL     OW26744   2.665   8.850   0.924
 8262SOL    HW126745   2.755   8.864   0.882
 8262SOL    HW226746   2.594   8.852   0.853
 8263SOL     OW26747   2.784   7.951   0.899
 8263SOL    HW126748   2.759   7.942   0.803
 8263SOL    HW226749   2.832   7.869   0.930
 8264SOL     OW26750   2.401   7.512   0.512
 8264SOL    HW126751   2.320   7.513   0.570
 8264SOL    HW226752   2.404   7.595   0.457
 8265SOL     OW26753   3.296   8.636   0.041
 8265SOL    HW126754   3.328   8.560   0.098
 8265SOL    HW226755   3.204   8.663   0.071
 8266SOL     OW26756   2.159   7.483   0.171
 8266SOL    HW126757   2.208   7.567   0.150
 8266SOL    HW226758   2.221   7.418   0.216
 8267SOL     OW26759   2.797   7.684   0.480
 8267SOL    HW126760   2.749   7.725   0.402
 8267SOL    HW226761   2.896   7.682   0.461
 8268SOL     OW26762   2.938   8.131   1.464
 8268SOL    HW126763   2.858   8.070   1.467
 8268SOL    HW226764   3.019   8.078   1.440
 8269SOL     OW26765   3.089   0.018   0.793
 8269SOL    HW126766   3.110   0.092   0.728
 8269SOL    HW226767   3.157   0.018   0.866
 8270SOL     OW26768   2.321   8.600   0.741
 8270SOL    HW126769   2.250   8.573   0.806
 8270SOL    HW226770   2.295   8.572   0.648
 8271SOL     OW26771   2.894   7.997   0.016
 8271SOL    HW126772   2.853   8.079  -0.023
 8271SOL    HW226773   2.958   8.023   0.089
 8272SOL     OW26774   1.940   8.004   1.386
 8272SOL    HW126775   2.032   8.003   1.345
 8272SOL    HW226776   1.934   8.078   1.453
 8273SOL     OW26777   2.423   7.670   1.147
 8273SOL    HW126778   2.461   7.586   1.184
 8273SOL    HW226779   2.335   7.689   1.191
 8274SOL     OW26780   2.728   7.902   0.642
 8274SOL    HW126781   2.696   7.974   0.580
 8274SOL    HW226782   2.752   7.821   0.589
 8275SOL     OW26783   2.879   7.487   0.753
 8275SOL    HW126784   2.807   7.492   0.684
 8275SOL    HW226785   2.855   7.418   0.822
 8276SOL     OW26786   3.291   8.621   0.867
 8276SOL    HW126787   3.236   8.537   0.860
 8276SOL    HW226788   3.317   8.650   0.775
 8277SOL     OW26789   3.328   8.038   0.992
 8277SOL    HW126790   3.298   7.943   0.999
 8277SOL    HW226791   3.401   8.054   1.058
 8278SOL     OW26792   3.719   8.281   0.377
 8278SOL    HW126793   3.761   8.217   0.441
 8278SOL    HW226794   3.681   8.230   0.299
 8279SOL     OW26795   2.350   8.833   0.174
 8279SOL    HW126796   2.263   8.818   0.221
 8279SOL    HW226797   2.333   8.859   0.079
 8280SOL     OW26798   3.526   8.728   0.657
 8280SOL    HW126799   3.625   8.736   0.671
 8280SOL    HW226800   3.481   8.812   0.688
 8281SOL     OW26801   3.252   8.023   0.078
 8281SOL    HW126802   3.198   8.002   0.159
 8281SOL    HW226803   3.343   7.982   0.087
 8282SOL     OW26804   2.389   7.704   0.328
 8282SOL    HW126805   2.416   7.645   0.253
 8282SOL    HW226806   2.389   7.799   0.297
 8283SOL     OW26807   3.616   8.671   1.588
 8283SOL    HW126808   3.707   8.632   1.575
 8283SOL    HW226809   3.624   8.767   1.612
 8284SOL     OW26810   2.926   8.795   1.340
 8284SOL    HW126811   2.846   8.772   1.395
 8284SOL    HW226812   3.009   8.769   1.389
 8285SOL     OW26813   2.973   8.643   1.100
 8285SOL    HW126814   2.933   8.687   1.181
 8285SOL    HW226815   2.932   8.680   1.017
 8286SOL     OW26816   3.500   8.547   1.079
 8286SOL    HW126817   3.505   8.628   1.138
 8286SOL    HW226818   3.414   8.549   1.028
 8287SOL     OW26819   2.777   7.537   1.402
 8287SOL    HW126820   2.802   7.517   1.307
 8287SOL    HW226821   2.849   7.593   1.444
 8288SOL     OW26822   2.842   8.564   1.719
 8288SOL    HW126823   2.743   8.570   1.729
 8288SOL    HW226824   2.865   8.484   1.663
 8289SOL     OW26825   2.567   8.498   0.368
 8289SOL    HW126826   2.553   8.505   0.467
 8289SOL    HW226827   2.651   8.447   0.350
 8290SOL     OW26828   2.272   8.261   1.251
 8290SOL    HW126829   2.358   8.273   1.301
 8290SOL    HW226830   2.230   8.174   1.278
 8291SOL     OW26831   3.136   7.834   1.262
 8291SOL    HW126832   3.157   7.908   1.326
 8291SOL    HW226833   3.047   7.851   1.219
 8292SOL     OW26834   2.229   8.548   0.501
 8292SOL    HW126835   2.222   8.631   0.445
 8292SOL    HW226836   2.233   8.468   0.441
 8293SOL     OW26837   2.428   7.985   0.865
 8293SOL    HW126838   2.440   8.051   0.791
 8293SOL    HW226839   2.474   8.019   0.948
 8294SOL     OW26840   3.114   8.796   0.388
 8294SOL    HW126841   3.164   8.873   0.428
 8294SOL    HW226842   3.019   8.798   0.420
 8295SOL     OW26843   3.134   8.893   1.142
 8295SOL    HW126844   3.181   8.906   1.229
 8295SOL    HW226845   3.068   8.819   1.151
 8296SOL     OW26846   3.444   8.087   0.472
 8296SOL    HW126847   3.413   8.148   0.545
 8296SOL    HW226848   3.494   8.139   0.403
 8297SOL     OW26849   2.216   8.958   1.329
 8297SOL    HW126850   2.195   8.914   1.242
 8297SOL    HW226851   2.313   8.984   1.332
 8298SOL     OW26852   2.264   8.199   1.598
 8298SOL    HW126853   2.332   8.254   1.551
 8298SOL    HW226854   2.304   8.111   1.625
 8299SOL     OW26855   3.449   8.227   1.670
 8299SOL    HW126856   3.357   8.265   1.665
 8299SOL    HW226857   3.509   8.274   1.605
 8300SOL     OW26858   2.875   7.553   1.770
 8300SOL    HW126859   2.881   7.638   1.718
 8300SOL    HW226860   2.907   7.477   1.713
 8301SOL     OW26861   2.366   7.498   1.740
 8301SOL    HW126862   2.324   7.441   1.670
 8301SOL    HW226863   2.300   7.567   1.772
 8302SOL     OW26864   2.435   8.318   1.029
 8302SOL    HW126865   2.479   8.407   1.020
 8302SOL    HW226866   2.372   8.318   1.106
 8303SOL     OW26867   3.222   8.310   1.045
 8303SOL    HW126868   3.147   8.310   0.979
 8303SOL    HW226869   3.259   8.218   1.054
 8304SOL     OW26870   3.071   7.973   0.275
 8304SOL    HW126871   3.084   7.889   0.329
 8304SOL    HW226872   3.042   8.047   0.335
 8305SOL     OW26873   2.169   7.661   1.231
 8305SOL    HW126874   2.146   7.698   1.321
 8305SOL    HW226875   2.139   7.566   1.225
 8306SOL     OW26876   1.899   8.758   1.282
 8306SOL    HW126877   1.952   8.709   1.350
 8306SOL    HW226878   1.921   8.856   1.287
 8307SOL     OW26879   2.594   8.082   1.064
 8307SOL    HW126880   2.653   8.056   0.988
 8307SOL    HW226881   2.566   8.178   1.053
 8308SOL     OW26882   3.590   8.383   1.854
 8308SOL    HW126883   3.544   8.376   1.765
 8308SOL    HW226884   3.528   8.427   1.920
 8309SOL     OW26885   2.169   7.511   0.618
 8309SOL    HW126886   2.158   7.605   0.651
 8309SOL    HW226887   2.164   7.448   0.695
 8310SOL     OW26888   3.484   7.815   0.374
 8310SOL    HW126889   3.486   7.739   0.438
 8310SOL    HW226890   3.436   7.892   0.414
 8311SOL     OW26891   2.885   8.214   0.966
 8311SOL    HW126892   2.900   8.235   1.062
 8311SOL    HW226893   2.855   8.119   0.957
 8312SOL     OW26894   3.721   8.966   1.605
 8312SOL    HW126895   3.735   8.993   1.510
 8312SOL    HW226896   3.804   8.988   1.658
 8313SOL     OW26897   2.212   8.346   1.804
 8313SOL    HW126898   2.288   8.390   1.852
 8313SOL    HW226899   2.247   8.299   1.722
 8314SOL     OW26900   3.402   7.722   0.125
 8314SOL    HW126901   3.341   7.647   0.148
 8314SOL    HW226902   3.424   7.774   0.208
 8315SOL     OW26903   3.165   8.286   0.042
 8315SOL    HW126904   3.199   8.193   0.057
 8315SOL    HW226905   3.183   8.313  -0.053
 8316SOL     OW26906   2.930   8.781   0.849
 8316SOL    HW126907   2.937   8.697   0.794
 8316SOL    HW226908   2.992   8.850   0.813
 8317SOL     OW26909   2.181   8.258   0.949
 8317SOL    HW126910   2.274   8.294   0.954
 8317SOL    HW226911   2.175   8.173   1.001
 8318SOL     OW26912   2.201   7.957   1.006
 8318SOL    HW126913   2.149   7.874   0.989
 8318SOL    HW226914   2.278   7.962   0.942
 8319SOL     OW26915   2.373   7.863   1.808
 8319SOL    HW126916   2.355   7.908   1.896
 8319SOL    HW226917   2.415   7.928   1.745
 8320SOL     OW26918   3.000   7.828   1.678
 8320SOL    HW126919   2.955   7.891   1.742
 8320SOL    HW226920   3.093   7.859   1.661
 8321SOL     OW26921   3.022   7.655   1.477
 8321SOL    HW126922   3.022   7.719   1.554
 8321SOL    HW226923   3.050   7.703   1.394
 8322SOL     OW26924   1.870   8.774   0.200
 8322SOL    HW126925   1.777   8.795   0.169
 8322SOL    HW226926   1.880   8.675   0.213
 8323SOL     OW26927   2.864   8.244   1.238
 8323SOL    HW126928   2.905   8.212   1.324
 8323SOL    HW226929   2.768   8.217   1.235
 8324SOL     OW26930   1.902   7.992   1.114
 8324SOL    HW126931   1.987   7.959   1.073
 8324SOL    HW226932   1.915   8.007   1.212
 8325SOL     OW26933   2.051   7.968   1.722
 8325SOL    HW126934   2.110   7.928   1.652
 8325SOL    HW226935   1.993   8.039   1.681
 8326SOL     OW26936   3.231   8.398   1.660
 8326SOL    HW126937   3.270   8.487   1.680
 8326SOL    HW226938   3.241   8.378   1.563
 8327SOL     OW26939   2.677   8.020   0.325
 8327SOL    HW126940   2.684   7.931   0.279
 8327SOL    HW226941   2.583   8.054   0.317
 8328SOL     OW26942   3.519   8.052   1.206
 8328SOL    HW126943   3.481   7.983   1.268
 8328SOL    HW226944   3.601   8.016   1.162
 8329SOL     OW26945   2.114   0.012   1.744
 8329SOL    HW126946   2.084   0.069   1.820
 8329SOL    HW226947   2.107  -0.085   1.770
 8330SOL     OW26948   2.533   7.912   1.269
 8330SOL    HW126949   2.499   7.823   1.239
 8330SOL    HW226950   2.559   7.966   1.189
 8331SOL     OW26951   2.335   7.948   0.191
 8331SOL    HW126952   2.396   8.028   0.195
 8331SOL    HW226953   2.240   7.979   0.198
 8332SOL     OW26954   2.021   8.585   1.466
 8332SOL    HW126955   2.043   8.524   1.542
 8332SOL    HW226956   2.031   8.536   1.380
 8333SOL     OW26957   3.209   8.507   1.234
 8333SOL    HW126958   3.233   8.444   1.160
 8333SOL    HW226959   3.119   8.547   1.216
 8334SOL     OW26960   3.164   8.303   0.309
 8334SOL    HW126961   3.078   8.272   0.351
 8334SOL    HW226962   3.160   8.289   0.210
 8335SOL     OW26963   1.945   8.706   1.022
 8335SOL    HW126964   1.940   8.705   1.122
 8335SOL    HW226965   1.862   8.665   0.984
 8336SOL     OW26966   2.765   7.534   0.133
 8336SOL    HW126967   2.816   7.535   0.047
 8336SOL    HW226968   2.821   7.492   0.204
 8337SOL     OW26969   3.588   7.583   0.523
 8337SOL    HW126970   3.661   7.566   0.456
 8337SOL    HW226971   3.557   7.496   0.561
 8338SOL     OW26972   3.142   8.375   0.672
 8338SOL    HW126973   3.202   8.294   0.674
 8338SOL    HW226974   3.182   8.444   0.612
 8339SOL     OW26975   2.692   8.721   1.422
 8339SOL    HW126976   2.687   8.754   1.517
 8339SOL    HW226977   2.606   8.740   1.376
 8340SOL     OW26978   3.703   7.623   0.963
 8340SOL    HW126979   3.742   7.538   0.927
 8340SOL    HW226980   3.605   7.625   0.944
 8341SOL     OW26981   2.125   7.774   0.720
 8341SOL    HW126982   2.046   7.825   0.686
 8341SOL    HW226983   2.116   7.759   0.818
 8342SOL     OW26984   2.684   8.450   1.372
 8342SOL    HW126985   2.724   8.449   1.280
 8342SOL    HW226986   2.694   8.542   1.412
 8343SOL     OW26987   2.778   8.358   0.291
 8343SOL    HW126988   2.841   8.396   0.223
 8343SOL    HW226989   2.818   8.275   0.330
 8344SOL     OW26990   2.234   8.736   1.490
 8344SOL    HW126991   2.221   8.829   1.456
 8344SOL    HW226992   2.150   8.684   1.477
 8345SOL     OW26993   3.476   8.740   1.289
 8345SOL    HW126994   3.536   8.743   1.369
 8345SOL    HW226995   3.401   8.804   1.302
 8346SOL     OW26996   2.901   8.546   0.696
 8346SOL    HW126997   2.831   8.499   0.750
 8346SOL    HW226998   2.960   8.478   0.653
 8347SOL     OW26999   2.876   7.684   0.971
 8347SOL    HW127000   2.868   7.648   0.878
 8347SOL    HW227001   2.874   7.608   1.036
 8348SOL     OW27002   3.571   7.833   1.381
 8348SOL    HW127003   3.644   7.902   1.385
 8348SOL    HW227004   3.599   7.758   1.322
 8349SOL     OW27005   2.117   8.796   0.290
 8349SOL    HW127006   2.021   8.797   0.263
 8349SOL    HW227007   2.129   8.849   0.374
 8350SOL     OW27008   1.967   8.461   1.726
 8350SOL    HW127009   1.890   8.428   1.780
 8350SOL    HW227010   2.052   8.431   1.768
 8351SOL     OW27011   2.534   7.651   1.489
 8351SOL    HW127012   2.624   7.635   1.449
 8351SOL    HW227013   2.542   7.656   1.588
 8352SOL     OW27014   3.302   8.304   1.398
 8352SOL    HW127015   3.245   8.356   1.335
 8352SOL    HW227016   3.398   8.316   1.374
 8353SOL     OW27017   1.934   7.614   0.318
 8353SOL    HW127018   1.917   7.697   0.264
 8353SOL    HW227019   2.024   7.577   0.296
 8354SOL     OW27020   3.045   8.783   0.119
 8354SOL    HW127021   2.946   8.772   0.121
 8354SOL    HW227022   3.079   8.798   0.212
 8355SOL     OW27023   2.475   8.290   1.431
 8355SOL    HW127024   2.531   8.371   1.414
 8355SOL    HW227025   2.534   8.210   1.434
 8356SOL     OW27026   2.578   8.013   1.708
 8356SOL    HW127027   2.597   8.078   1.782
 8356SOL    HW227028   2.638   7.933   1.717
 8357SOL     OW27029   3.312   8.668   1.633
 8357SOL    HW127030   3.303   8.658   1.732
 8357SOL    HW227031   3.408   8.661   1.607
 8358SOL     OW27032   3.536   8.331   1.254
 8358SOL    HW127033   3.509   8.242   1.217
 8358SOL    HW227034   3.537   8.399   1.181
 8359SOL     OW27035   3.087   7.773   0.449
 8359SOL    HW127036   3.152   7.699   0.438
 8359SOL    HW227037   3.107   7.823   0.533
 8360SOL     OW27038   2.456   8.193   0.652
 8360SOL    HW127039   2.506   8.278   0.633
 8360SOL    HW227040   2.368   8.195   0.604
 8361SOL     OW27041   3.639   7.790   1.642
 8361SOL    HW127042   3.622   7.821   1.548
 8361SOL    HW227043   3.555   7.753   1.680
 8362SOL     OW27044   3.592   8.382   1.517
 8362SOL    HW127045   3.630   8.473   1.532
 8362SOL    HW227046   3.584   8.365   1.418
 8363SOL     OW27047   2.721   8.822   0.016
 8363SOL    HW127048   2.675   8.837   0.104
 8363SOL    HW227049   2.765   8.907  -0.014
 8364SOL     OW27050   2.721   8.404   0.861
 8364SOL    HW127051   2.775   8.335   0.909
 8364SOL    HW227052   2.689   8.473   0.927
 8365SOL     OW27053   2.945   8.432   0.087
 8365SOL    HW127054   2.922   8.485   0.005
 8365SOL    HW227055   3.026   8.376   0.068
 8366SOL     OW27056   2.083   8.762   1.844
 8366SOL    HW127057   2.018   8.689   1.823
 8366SOL    HW227058   2.087   8.776   1.942
 8367SOL     OW27059   1.941   8.688   0.653
 8367SOL    HW127060   1.940   8.641   0.741
 8367SOL    HW227061   2.023   8.660   0.602
 8368SOL     OW27062   2.534   8.839   1.624
 8368SOL    HW127063   2.456   8.789   1.662
 8368SOL    HW227064   2.531   8.934   1.655
 8369SOL     OW27065   3.686   7.640   1.227
 8369SOL    HW127066   3.682   7.550   1.271
 8369SOL    HW227067   3.689   7.629   1.128
 8370SOL     OW27068   2.290   7.872   0.520
 8370SOL    HW127069   2.320   7.800   0.458
 8370SOL    HW227070   2.251   7.832   0.603
 8371SOL     OW27071   3.567   8.935   1.104
 8371SOL    HW127072   3.474   8.910   1.077
 8371SOL    HW227073   3.593   8.885   1.186
 8372SOL     OW27074   2.179   7.995   1.280
 8372SOL    HW127075   2.217   7.936   1.352
 8372SOL    HW227076   2.219   7.969   1.192
 8373SOL     OW27077   3.286   7.662   1.112
 8373SOL    HW127078   3.338   7.597   1.167
 8373SOL    HW227079   3.237   7.725   1.173
 8374SOL     OW27080   2.863   7.482   1.154
 8374SOL    HW127081   2.800   7.410   1.123
 8374SOL    HW227082   2.956   7.446   1.154
 8375SOL     OW27083   2.632   8.778   0.301
 8375SOL    HW127084   2.586   8.691   0.318
 8375SOL    HW227085   2.723   8.775   0.342
 8376SOL     OW27086   2.480   0.015   1.284
 8376SOL    HW127087   2.475   0.097   1.341
 8376SOL    HW227088   2.569   0.012   1.239
 8377SOL     OW27089   3.162   7.901   0.691
 8377SOL    HW127090   3.103   7.981   0.695
 8377SOL    HW227091   3.177   7.866   0.784
 8378SOL     OW27092   3.455   7.669   0.882
 8378SOL    HW127093   3.371   7.668   0.936
 8378SOL    HW227094   3.457   7.752   0.826
 8379SOL     OW27095   1.901   8.525   0.300
 8379SOL    HW127096   2.000   8.514   0.291
 8379SOL    HW227097   1.861   8.439   0.332
 8380SOL     OW27098   2.092   8.076   1.975
 8380SOL    HW127099   1.999   8.074   2.012
 8380SOL    HW227100   2.093   8.037   1.883
 8381SOL     OW27101   2.087   7.723   2.858
 8381SOL    HW127102   2.122   7.706   2.950
 8381SOL    HW227103   1.999   7.678   2.846
 8382SOL     OW27104   1.881   7.816   2.509
 8382SOL    HW127105   1.799   7.859   2.548
 8382SOL    HW227106   1.853   7.743   2.446
 8383SOL     OW27107   2.431   8.723   3.027
 8383SOL    HW127108   2.338   8.716   2.990
 8383SOL    HW227109   2.442   8.812   3.071
 8384SOL     OW27110   3.417   8.959   2.565
 8384SOL    HW127111   3.360   8.943   2.646
 8384SOL    HW227112   3.358   8.969   2.485
 8385SOL     OW27113   3.605   8.066   2.718
 8385SOL    HW127114   3.638   8.160   2.718
 8385SOL    HW227115   3.656   8.012   2.784
 8386SOL     OW27116   2.997   8.151   2.579
 8386SOL    HW127117   3.054   8.229   2.554
 8386SOL    HW227118   2.937   8.177   2.655
 8387SOL     OW27119   3.617   8.055   2.093
 8387SOL    HW127120   3.605   8.042   1.994
 8387SOL    HW227121   3.587   7.974   2.142
 8388SOL     OW27122   2.630   8.592   2.885
 8388SOL    HW127123   2.552   8.609   2.945
 8388SOL    HW227124   2.664   8.679   2.849
 8389SOL     OW27125   2.712   8.246   3.685
 8389SOL    HW127126   2.708   8.322   3.750
 8389SOL    HW227127   2.734   8.282   3.594
 8390SOL     OW27128   2.547   8.460   2.527
 8390SOL    HW127129   2.616   8.444   2.597
 8390SOL    HW227130   2.474   8.517   2.565
 8391SOL     OW27131   2.548   8.609   3.665
 8391SOL    HW127132   2.608   8.688   3.679
 8391SOL    HW227133   2.462   8.640   3.624
 8392SOL     OW27134   2.197   8.883   2.923
 8392SOL    HW127135   2.119   8.852   2.870
 8392SOL    HW227136   2.255   8.941   2.866
 8393SOL     OW27137   3.322   8.953   3.201
 8393SOL    HW127138   3.346   9.047   3.227
 8393SOL    HW227139   3.306   8.899   3.283
 8394SOL     OW27140   2.300   7.840   3.361
 8394SOL    HW127141   2.382   7.784   3.370
 8394SOL    HW227142   2.219   7.782   3.365
 8395SOL     OW27143   3.465   7.895   2.599
 8395SOL    HW127144   3.391   7.941   2.549
 8395SOL    HW227145   3.516   7.963   2.652
 8396SOL     OW27146   2.093   0.161   2.345
 8396SOL    HW127147   2.127   0.238   2.399
 8396SOL    HW227148   2.137   0.161   2.255
 8397SOL     OW27149   2.989   8.789   3.552
 8397SOL    HW127150   3.036   8.789   3.640
 8397SOL    HW227151   2.941   8.702   3.541
 8398SOL     OW27152   2.092   8.882   2.400
 8398SOL    HW127153   2.066   8.978   2.400
 8398SOL    HW227154   2.021   8.828   2.445
 8399SOL     OW27155   2.102   8.539   2.748
 8399SOL    HW127156   2.116   8.455   2.800
 8399SOL    HW227157   2.047   8.603   2.803
 8400SOL     OW27158   2.468   8.412   1.985
 8400SOL    HW127159   2.475   8.496   1.931
 8400SOL    HW227160   2.514   8.425   2.073
 8401SOL     OW27161   3.456   7.562   3.342
 8401SOL    HW127162   3.438   7.629   3.270
 8401SOL    HW227163   3.453   7.608   3.431
 8402SOL     OW27164   1.984   8.091   2.425
 8402SOL    HW127165   1.939   8.003   2.442
 8402SOL    HW227166   1.983   8.145   2.509
 8403SOL     OW27167   1.889   0.044   1.979
 8403SOL    HW127168   1.870  -0.052   2.000
 8403SOL    HW227169   1.856   0.102   2.054
 8404SOL     OW27170   3.551   8.370   2.474
 8404SOL    HW127171   3.646   8.341   2.482
 8404SOL    HW227172   3.543   8.435   2.399
 8405SOL     OW27173   3.503   8.556   2.294
 8405SOL    HW127174   3.589   8.558   2.242
 8405SOL    HW227175   3.517   8.603   2.382
 8406SOL     OW27176   1.975   8.185   3.459
 8406SOL    HW127177   2.063   8.172   3.504
 8406SOL    HW227178   1.962   8.282   3.437
 8407SOL     OW27179   2.475   8.813   2.588
 8407SOL    HW127180   2.426   8.726   2.597
 8407SOL    HW227181   2.452   8.856   2.501
 8408SOL     OW27182   3.155   8.676   3.285
 8408SOL    HW127183   3.192   8.603   3.227
 8408SOL    HW227184   3.207   8.681   3.370
 8409SOL     OW27185   2.671   7.452   2.364
 8409SOL    HW127186   2.711   7.543   2.355
 8409SOL    HW227187   2.571   7.460   2.370
 8410SOL     OW27188   2.059   8.424   3.126
 8410SOL    HW127189   2.148   8.379   3.112
 8410SOL    HW227190   1.986   8.359   3.107
 8411SOL     OW27191   3.387   8.447   2.052
 8411SOL    HW127192   3.324   8.371   2.065
 8411SOL    HW227193   3.435   8.465   2.138
 8412SOL     OW27194   2.179   7.699   3.663
 8412SOL    HW127195   2.250   7.770   3.669
 8412SOL    HW227196   2.091   7.738   3.691
 8413SOL     OW27197   3.328   8.865   2.815
 8413SOL    HW127198   3.269   8.871   2.895
 8413SOL    HW227199   3.313   8.777   2.769
 8414SOL     OW27200   2.460   8.177   2.132
 8414SOL    HW127201   2.484   8.246   2.064
 8414SOL    HW227202   2.382   8.210   2.186
 8415SOL     OW27203   3.143   7.793   2.806
 8415SOL    HW127204   3.057   7.743   2.793
 8415SOL    HW227205   3.205   7.739   2.862
 8416SOL     OW27206   2.669   8.053   3.327
 8416SOL    HW127207   2.622   8.050   3.416
 8416SOL    HW227208   2.618   7.998   3.261
 8417SOL     OW27209   3.256   7.917   3.536
 8417SOL    HW127210   3.236   7.960   3.624
 8417SOL    HW227211   3.334   7.855   3.545
 8418SOL     OW27212   2.835   8.338   3.434
 8418SOL    HW127213   2.881   8.254   3.405
 8418SOL    HW227214   2.779   8.372   3.359
 8419SOL     OW27215   2.853   7.858   3.104
 8419SOL    HW127216   2.776   7.892   3.158
 8419SOL    HW227217   2.819   7.807   3.025
 8420SOL     OW27218   2.903   8.149   2.291
 8420SOL    HW127219   2.929   8.145   2.387
 8420SOL    HW227220   2.818   8.098   2.277
 8421SOL     OW27221   1.938   8.259   2.651
 8421SOL    HW127222   2.037   8.247   2.660
 8421SOL    HW227223   1.914   8.354   2.672
 8422SOL     OW27224   2.727   7.796   2.057
 8422SOL    HW127225   2.786   7.859   2.008
 8422SOL    HW227226   2.746   7.702   2.028
 8423SOL     OW27227   3.581   8.033   3.693
 8423SOL    HW127228   3.555   8.122   3.657
 8423SOL    HW227229   3.579   7.965   3.620
 8424SOL     OW27230   3.224   8.592   2.407
 8424SOL    HW127231   3.307   8.563   2.359
 8424SOL    HW227232   3.175   8.659   2.351
 8425SOL     OW27233   2.412   7.644   2.747
 8425SOL    HW127234   2.407   7.639   2.847
 8425SOL    HW227235   2.414   7.740   2.718
 8426SOL     OW27236   2.870   8.904   2.339
 8426SOL    HW127237   2.824   8.976   2.287
 8426SOL    HW227238   2.866   8.924   2.437
 8427SOL     OW27239   3.657   8.514   2.735
 8427SOL    HW127240   3.595   8.499   2.659
 8427SOL    HW227241   3.605   8.525   2.820
 8428SOL     OW27242   3.089   8.998   3.368
 8428SOL    HW127243   3.095   8.921   3.432
 8428SOL    HW227244   3.037   8.972   3.288
 8429SOL     OW27245   2.183   8.391   2.104
 8429SOL    HW127246   2.265   8.430   2.062
 8429SOL    HW227247   2.156   8.309   2.055
 8430SOL     OW27248   3.320   8.183   2.590
 8430SOL    HW127249   3.315   8.118   2.665
 8430SOL    HW227250   3.400   8.242   2.603
 8431SOL     OW27251   2.323   8.714   3.589
 8431SOL    HW127252   2.273   8.715   3.503
 8431SOL    HW227253   2.260   8.696   3.665
 8432SOL     OW27254   2.973   0.224   2.099
 8432SOL    HW127255   2.913   0.162   2.149
 8432SOL    HW227256   3.004   0.180   2.014
 8433SOL     OW27257   2.064   7.733   3.360
 8433SOL    HW127258   1.984   7.793   3.347
 8433SOL    HW227259   2.054   7.684   3.446
 8434SOL     OW27260   3.494   8.825   1.943
 8434SOL    HW127261   3.462   8.919   1.933
 8434SOL    HW227262   3.418   8.762   1.931
 8435SOL     OW27263   3.262   7.555   2.288
 8435SOL    HW127264   3.238   7.518   2.198
 8435SOL    HW227265   3.361   7.571   2.292
 8436SOL     OW27266   2.244   8.148   2.342
 8436SOL    HW127267   2.289   8.058   2.339
 8436SOL    HW227268   2.150   8.137   2.375
 8437SOL     OW27269   3.409   7.670   3.591
 8437SOL    HW127270   3.404   7.707   3.683
 8437SOL    HW227271   3.337   7.601   3.579
 8438SOL     OW27272   2.476   7.570   1.979
 8438SOL    HW127273   2.574   7.548   1.986
 8438SOL    HW227274   2.445   7.553   1.886
 8439SOL     OW27275   2.643   7.712   3.611
 8439SOL    HW127276   2.710   7.651   3.654
 8439SOL    HW227277   2.570   7.731   3.676
 8440SOL     OW27278   3.213   8.038   3.295
 8440SOL    HW127279   3.241   7.995   3.380
 8440SOL    HW227280   3.238   8.134   3.296
 8441SOL     OW27281   2.665   8.850   2.786
 8441SOL    HW127282   2.755   8.864   2.744
 8441SOL    HW227283   2.594   8.852   2.715
 8442SOL     OW27284   2.784   7.951   2.761
 8442SOL    HW127285   2.759   7.942   2.665
 8442SOL    HW227286   2.832   7.869   2.792
 8443SOL     OW27287   2.401   7.512   2.374
 8443SOL    HW127288   2.320   7.513   2.432
 8443SOL    HW227289   2.404   7.595   2.319
 8444SOL     OW27290   3.296   8.636   1.903
 8444SOL    HW127291   3.328   8.560   1.960
 8444SOL    HW227292   3.204   8.663   1.933
 8445SOL     OW27293   2.159   7.483   2.033
 8445SOL    HW127294   2.208   7.567   2.012
 8445SOL    HW227295   2.221   7.418   2.078
 8446SOL     OW27296   2.797   7.684   2.342
 8446SOL    HW127297   2.749   7.725   2.264
 8446SOL    HW227298   2.896   7.682   2.323
 8447SOL     OW27299   2.938   8.131   3.326
 8447SOL    HW127300   2.858   8.070   3.329
 8447SOL    HW227301   3.019   8.078   3.302
 8448SOL     OW27302   3.089   0.018   2.655
 8448SOL    HW127303   3.110   0.092   2.590
 8448SOL    HW227304   3.157   0.018   2.728
 8449SOL     OW27305   2.321   8.600   2.603
 8449SOL    HW127306   2.250   8.573   2.668
 8449SOL    HW227307   2.295   8.572   2.510
 8450SOL     OW27308   2.894   7.997   1.878
 8450SOL    HW127309   2.853   8.079   1.839
 8450SOL    HW227310   2.958   8.023   1.951
 8451SOL     OW27311   1.940   8.004   3.248
 8451SOL    HW127312   2.032   8.003   3.207
 8451SOL    HW227313   1.934   8.078   3.315
 8452SOL     OW27314   2.423   7.670   3.009
 8452SOL    HW127315   2.461   7.586   3.046
 8452SOL    HW227316   2.335   7.689   3.053
 8453SOL     OW27317   2.728   7.902   2.504
 8453SOL    HW127318   2.696   7.974   2.442
 8453SOL    HW227319   2.752   7.821   2.451
 8454SOL     OW27320   2.879   7.487   2.615
 8454SOL    HW127321   2.807   7.492   2.546
 8454SOL    HW227322   2.855   7.418   2.684
 8455SOL     OW27323   3.291   8.621   2.729
 8455SOL    HW127324   3.236   8.537   2.722
 8455SOL    HW227325   3.317   8.650   2.637
 8456SOL     OW27326   3.328   8.038   2.854
 8456SOL    HW127327   3.298   7.943   2.861
 8456SOL    HW227328   3.401   8.054   2.920
 8457SOL     OW27329   3.719   8.281   2.239
 8457SOL    HW127330   3.761   8.217   2.303
 8457SOL    HW227331   3.681   8.230   2.161
 8458SOL     OW27332   2.350   8.833   2.036
 8458SOL    HW127333   2.263   8.818   2.083
 8458SOL    HW227334   2.333   8.859   1.941
 8459SOL     OW27335   3.526   8.728   2.519
 8459SOL    HW127336   3.625   8.736   2.533
 8459SOL    HW227337   3.481   8.812   2.550
 8460SOL     OW27338   3.252   8.023   1.940
 8460SOL    HW127339   3.198   8.002   2.021
 8460SOL    HW227340   3.343   7.982   1.949
 8461SOL     OW27341   2.389   7.704   2.190
 8461SOL    HW127342   2.416   7.645   2.115
 8461SOL    HW227343   2.389   7.799   2.159
 8462SOL     OW27344   3.616   8.671   3.450
 8462SOL    HW127345   3.707   8.632   3.437
 8462SOL    HW227346   3.624   8.767   3.474
 8463SOL     OW27347   2.926   8.795   3.202
 8463SOL    HW127348   2.846   8.772   3.257
 8463SOL    HW227349   3.009   8.769   3.251
 8464SOL     OW27350   2.973   8.643   2.962
 8464SOL    HW127351   2.933   8.687   3.043
 8464SOL    HW227352   2.932   8.680   2.879
 8465SOL     OW27353   3.500   8.547   2.941
 8465SOL    HW127354   3.505   8.628   3.000
 8465SOL    HW227355   3.414   8.549   2.890
 8466SOL     OW27356   2.777   7.537   3.264
 8466SOL    HW127357   2.802   7.517   3.169
 8466SOL    HW227358   2.849   7.593   3.306
 8467SOL     OW27359   2.842   8.564   3.581
 8467SOL    HW127360   2.743   8.570   3.591
 8467SOL    HW227361   2.865   8.484   3.525
 8468SOL     OW27362   2.567   8.498   2.230
 8468SOL    HW127363   2.553   8.505   2.329
 8468SOL    HW227364   2.651   8.447   2.212
 8469SOL     OW27365   2.272   8.261   3.113
 8469SOL    HW127366   2.358   8.273   3.163
 8469SOL    HW227367   2.230   8.174   3.140
 8470SOL     OW27368   3.136   7.834   3.124
 8470SOL    HW127369   3.157   7.908   3.188
 8470SOL    HW227370   3.047   7.851   3.081
 8471SOL     OW27371   2.229   8.548   2.363
 8471SOL    HW127372   2.222   8.631   2.307
 8471SOL    HW227373   2.233   8.468   2.303
 8472SOL     OW27374   2.428   7.985   2.727
 8472SOL    HW127375   2.440   8.051   2.653
 8472SOL    HW227376   2.474   8.019   2.810
 8473SOL     OW27377   3.114   8.796   2.250
 8473SOL    HW127378   3.164   8.873   2.290
 8473SOL    HW227379   3.019   8.798   2.282
 8474SOL     OW27380   3.134   8.893   3.004
 8474SOL    HW127381   3.181   8.906   3.091
 8474SOL    HW227382   3.068   8.819   3.013
 8475SOL     OW27383   3.444   8.087   2.334
 8475SOL    HW127384   3.413   8.148   2.407
 8475SOL    HW227385   3.494   8.139   2.265
 8476SOL     OW27386   2.216   8.958   3.191
 8476SOL    HW127387   2.195   8.914   3.104
 8476SOL    HW227388   2.313   8.984   3.194
 8477SOL     OW27389   2.264   8.199   3.460
 8477SOL    HW127390   2.332   8.254   3.413
 8477SOL    HW227391   2.304   8.111   3.487
 8478SOL     OW27392   3.449   8.227   3.532
 8478SOL    HW127393   3.357   8.265   3.527
 8478SOL    HW227394   3.509   8.274   3.467
 8479SOL     OW27395   2.875   7.553   3.632
 8479SOL    HW127396   2.881   7.638   3.580
 8479SOL    HW227397   2.907   7.477   3.575
 8480SOL     OW27398   2.366   7.498   3.602
 8480SOL    HW127399   2.324   7.441   3.532
 8480SOL    HW227400   2.300   7.567   3.634
 8481SOL     OW27401   2.435   8.318   2.891
 8481SOL    HW127402   2.479   8.407   2.882
 8481SOL    HW227403   2.372   8.318   2.968
 8482SOL     OW27404   3.222   8.310   2.907
 8482SOL    HW127405   3.147   8.310   2.841
 8482SOL    HW227406   3.259   8.218   2.916
 8483SOL     OW27407   3.071   7.973   2.137
 8483SOL    HW127408   3.084   7.889   2.191
 8483SOL    HW227409   3.042   8.047   2.197
 8484SOL     OW27410   2.169   7.661   3.093
 8484SOL    HW127411   2.146   7.698   3.183
 8484SOL    HW227412   2.139   7.566   3.087
 8485SOL     OW27413   1.899   8.758   3.144
 8485SOL    HW127414   1.952   8.709   3.212
 8485SOL    HW227415   1.921   8.856   3.149
 8486SOL     OW27416   2.594   8.082   2.926
 8486SOL    HW127417   2.653   8.056   2.850
 8486SOL    HW227418   2.566   8.178   2.915
 8487SOL     OW27419   3.590   8.383   3.716
 8487SOL    HW127420   3.544   8.376   3.627
 8487SOL    HW227421   3.528   8.427   3.782
 8488SOL     OW27422   2.169   7.511   2.480
 8488SOL    HW127423   2.158   7.605   2.513
 8488SOL    HW227424   2.164   7.448   2.557
 8489SOL     OW27425   3.484   7.815   2.236
 8489SOL    HW127426   3.486   7.739   2.300
 8489SOL    HW227427   3.436   7.892   2.276
 8490SOL     OW27428   2.885   8.214   2.828
 8490SOL    HW127429   2.900   8.235   2.924
 8490SOL    HW227430   2.855   8.119   2.819
 8491SOL     OW27431   3.721   8.966   3.467
 8491SOL    HW127432   3.735   8.993   3.372
 8491SOL    HW227433   3.804   8.988   3.520
 8492SOL     OW27434   2.212   8.346   3.666
 8492SOL    HW127435   2.288   8.390   3.714
 8492SOL    HW227436   2.247   8.299   3.584
 8493SOL     OW27437   3.402   7.722   1.987
 8493SOL    HW127438   3.341   7.647   2.010
 8493SOL    HW227439   3.424   7.774   2.070
 8494SOL     OW27440   3.165   8.286   1.904
 8494SOL    HW127441   3.199   8.193   1.919
 8494SOL    HW227442   3.183   8.313   1.809
 8495SOL     OW27443   2.930   8.781   2.711
 8495SOL    HW127444   2.937   8.697   2.656
 8495SOL    HW227445   2.992   8.850   2.675
 8496SOL     OW27446   2.181   8.258   2.811
 8496SOL    HW127447   2.274   8.294   2.816
 8496SOL    HW227448   2.175   8.173   2.863
 8497SOL     OW27449   2.201   7.957   2.868
 8497SOL    HW127450   2.149   7.874   2.851
 8497SOL    HW227451   2.278   7.962   2.804
 8498SOL     OW27452   2.373   7.863   3.670
 8498SOL    HW127453   2.355   7.908   3.758
 8498SOL    HW227454   2.415   7.928   3.607
 8499SOL     OW27455   3.000   7.828   3.540
 8499SOL    HW127456   2.955   7.891   3.604
 8499SOL    HW227457   3.093   7.859   3.523
 8500SOL     OW27458   3.022   7.655   3.339
 8500SOL    HW127459   3.022   7.719   3.416
 8500SOL    HW227460   3.050   7.703   3.256
 8501SOL     OW27461   1.870   8.774   2.062
 8501SOL    HW127462   1.777   8.795   2.031
 8501SOL    HW227463   1.880   8.675   2.075
 8502SOL     OW27464   2.864   8.244   3.100
 8502SOL    HW127465   2.905   8.212   3.186
 8502SOL    HW227466   2.768   8.217   3.097
 8503SOL     OW27467   1.902   7.992   2.976
 8503SOL    HW127468   1.987   7.959   2.935
 8503SOL    HW227469   1.915   8.007   3.074
 8504SOL     OW27470   2.051   7.968   3.584
 8504SOL    HW127471   2.110   7.928   3.514
 8504SOL    HW227472   1.993   8.039   3.543
 8505SOL     OW27473   3.231   8.398   3.522
 8505SOL    HW127474   3.270   8.487   3.542
 8505SOL    HW227475   3.241   8.378   3.425
 8506SOL     OW27476   2.677   8.020   2.187
 8506SOL    HW127477   2.684   7.931   2.141
 8506SOL    HW227478   2.583   8.054   2.179
 8507SOL     OW27479   3.519   8.052   3.068
 8507SOL    HW127480   3.481   7.983   3.130
 8507SOL    HW227481   3.601   8.016   3.024
 8508SOL     OW27482   2.114   0.012   3.606
 8508SOL    HW127483   2.084   0.069   3.682
 8508SOL    HW227484   2.107  -0.085   3.632
 8509SOL     OW27485   2.533   7.912   3.131
 8509SOL    HW127486   2.499   7.823   3.101
 8509SOL    HW227487   2.559   7.966   3.051
 8510SOL     OW27488   2.335   7.948   2.053
 8510SOL    HW127489   2.396   8.028   2.057
 8510SOL    HW227490   2.240   7.979   2.060
 8511SOL     OW27491   2.021   8.585   3.328
 8511SOL    HW127492   2.043   8.524   3.404
 8511SOL    HW227493   2.031   8.536   3.242
 8512SOL     OW27494   3.209   8.507   3.096
 8512SOL    HW127495   3.233   8.444   3.022
 8512SOL    HW227496   3.119   8.547   3.078
 8513SOL     OW27497   3.164   8.303   2.171
 8513SOL    HW127498   3.078   8.272   2.213
 8513SOL    HW227499   3.160   8.289   2.072
 8514SOL     OW27500   1.945   8.706   2.884
 8514SOL    HW127501   1.940   8.705   2.984
 8514SOL    HW227502   1.862   8.665   2.846
 8515SOL     OW27503   2.765   7.534   1.995
 8515SOL    HW127504   2.816   7.535   1.909
 8515SOL    HW227505   2.821   7.492   2.066
 8516SOL     OW27506   3.588   7.583   2.385
 8516SOL    HW127507   3.661   7.566   2.318
 8516SOL    HW227508   3.557   7.496   2.423
 8517SOL     OW27509   3.142   8.375   2.534
 8517SOL    HW127510   3.202   8.294   2.536
 8517SOL    HW227511   3.182   8.444   2.474
 8518SOL     OW27512   2.692   8.721   3.284
 8518SOL    HW127513   2.687   8.754   3.379
 8518SOL    HW227514   2.606   8.740   3.238
 8519SOL     OW27515   3.703   7.623   2.825
 8519SOL    HW127516   3.742   7.538   2.789
 8519SOL    HW227517   3.605   7.625   2.806
 8520SOL     OW27518   2.125   7.774   2.582
 8520SOL    HW127519   2.046   7.825   2.548
 8520SOL    HW227520   2.116   7.759   2.680
 8521SOL     OW27521   2.684   8.450   3.234
 8521SOL    HW127522   2.724   8.449   3.142
 8521SOL    HW227523   2.694   8.542   3.274
 8522SOL     OW27524   2.778   8.358   2.153
 8522SOL    HW127525   2.841   8.396   2.085
 8522SOL    HW227526   2.818   8.275   2.192
 8523SOL     OW27527   2.234   8.736   3.352
 8523SOL    HW127528   2.221   8.829   3.318
 8523SOL    HW227529   2.150   8.684   3.339
 8524SOL     OW27530   3.476   8.740   3.151
 8524SOL    HW127531   3.536   8.743   3.231
 8524SOL    HW227532   3.401   8.804   3.164
 8525SOL     OW27533   2.901   8.546   2.558
 8525SOL    HW127534   2.831   8.499   2.612
 8525SOL    HW227535   2.960   8.478   2.515
 8526SOL     OW27536   2.876   7.684   2.833
 8526SOL    HW127537   2.868   7.648   2.740
 8526SOL    HW227538   2.874   7.608   2.898
 8527SOL     OW27539   3.571   7.833   3.243
 8527SOL    HW127540   3.644   7.902   3.247
 8527SOL    HW227541   3.599   7.758   3.184
 8528SOL     OW27542   2.117   8.796   2.152
 8528SOL    HW127543   2.021   8.797   2.125
 8528SOL    HW227544   2.129   8.849   2.236
 8529SOL     OW27545   1.967   8.461   3.588
 8529SOL    HW127546   1.890   8.428   3.642
 8529SOL    HW227547   2.052   8.431   3.630
 8530SOL     OW27548   2.534   7.651   3.351
 8530SOL    HW127549   2.624   7.635   3.311
 8530SOL    HW227550   2.542   7.656   3.450
 8531SOL     OW27551   1.937   7.793   1.895
 8531SOL    HW127552   1.845   7.765   1.866
 8531SOL    HW227553   1.968   7.870   1.839
 8532SOL     OW27554   3.302   8.304   3.260
 8532SOL    HW127555   3.245   8.356   3.197
 8532SOL    HW227556   3.398   8.316   3.236
 8533SOL     OW27557   1.934   7.614   2.180
 8533SOL    HW127558   1.917   7.697   2.126
 8533SOL    HW227559   2.024   7.577   2.158
 8534SOL     OW27560   3.045   8.783   1.981
 8534SOL    HW127561   2.946   8.772   1.983
 8534SOL    HW227562   3.079   8.798   2.074
 8535SOL     OW27563   2.475   8.290   3.293
 8535SOL    HW127564   2.531   8.371   3.276
 8535SOL    HW227565   2.534   8.210   3.296
 8536SOL     OW27566   2.578   8.013   3.570
 8536SOL    HW127567   2.597   8.078   3.644
 8536SOL    HW227568   2.638   7.933   3.579
 8537SOL     OW27569   3.312   8.668   3.495
 8537SOL    HW127570   3.303   8.658   3.594
 8537SOL    HW227571   3.408   8.661   3.469
 8538SOL     OW27572   3.536   8.331   3.116
 8538SOL    HW127573   3.509   8.242   3.079
 8538SOL    HW227574   3.537   8.399   3.043
 8539SOL     OW27575   3.087   7.773   2.311
 8539SOL    HW127576   3.152   7.699   2.300
 8539SOL    HW227577   3.107   7.823   2.395
 8540SOL     OW27578   2.456   8.193   2.514
 8540SOL    HW127579   2.506   8.278   2.495
 8540SOL    HW227580   2.368   8.195   2.466
 8541SOL     OW27581   3.639   7.790   3.504
 8541SOL    HW127582   3.622   7.821   3.410
 8541SOL    HW227583   3.555   7.753   3.542
 8542SOL     OW27584   3.592   8.382   3.379
 8542SOL    HW127585   3.630   8.473   3.394
 8542SOL    HW227586   3.584   8.365   3.280
 8543SOL     OW27587   2.721   8.822   1.878
 8543SOL    HW127588   2.675   8.837   1.966
 8543SOL    HW227589   2.765   8.907   1.848
 8544SOL     OW27590   2.721   8.404   2.723
 8544SOL    HW127591   2.775   8.335   2.771
 8544SOL    HW227592   2.689   8.473   2.789
 8545SOL     OW27593   2.945   8.432   1.949
 8545SOL    HW127594   2.922   8.485   1.867
 8545SOL    HW227595   3.026   8.376   1.930
 8546SOL     OW27596   2.083   8.762   3.706
 8546SOL    HW127597   2.018   8.689   3.685
 8546SOL    HW227598   2.087   8.776   3.804
 8547SOL     OW27599   1.941   8.688   2.515
 8547SOL    HW127600   1.940   8.641   2.603
 8547SOL    HW227601   2.023   8.660   2.464
 8548SOL     OW27602   2.534   8.839   3.486
 8548SOL    HW127603   2.456   8.789   3.524
 8548SOL    HW227604   2.531   8.934   3.517
 8549SOL     OW27605   3.686   7.640   3.089
 8549SOL    HW127606   3.682   7.550   3.133
 8549SOL    HW227607   3.689   7.629   2.990
 8550SOL     OW27608   2.290   7.872   2.382
 8550SOL    HW127609   2.320   7.800   2.320
 8550SOL    HW227610   2.251   7.832   2.465
 8551SOL     OW27611   3.567   8.935   2.966
 8551SOL    HW127612   3.474   8.910   2.939
 8551SOL    HW227613   3.593   8.885   3.048
 8552SOL     OW27614   2.179   7.995   3.142
 8552SOL    HW127615   2.217   7.936   3.214
 8552SOL    HW227616   2.219   7.969   3.054
 8553SOL     OW27617   3.286   7.662   2.974
 8553SOL    HW127618   3.338   7.597   3.029
 8553SOL    HW227619   3.237   7.725   3.035
 8554SOL     OW27620   2.863   7.482   3.016
 8554SOL    HW127621   2.800   7.410   2.985
 8554SOL    HW227622   2.956   7.446   3.016
 8555SOL     OW27623   2.632   8.778   2.163
 8555SOL    HW127624   2.586   8.691   2.180
 8555SOL    HW227625   2.723   8.775   2.204
 8556SOL     OW27626   2.480   0.015   3.146
 8556SOL    HW127627   2.475   0.097   3.203
 8556SOL    HW227628   2.569   0.012   3.101
 8557SOL     OW27629   3.214   7.500   2.030
 8557SOL    HW127630   3.249   7.459   1.946
 8557SOL    HW227631   3.124   7.462   2.050
 8558SOL     OW27632   3.162   7.901   2.553
 8558SOL    HW127633   3.103   7.981   2.557
 8558SOL    HW227634   3.177   7.866   2.646
 8559SOL     OW27635   3.455   7.669   2.744
 8559SOL    HW127636   3.371   7.668   2.798
 8559SOL    HW227637   3.457   7.752   2.688
 8560SOL     OW27638   1.901   8.525   2.162
 8560SOL    HW127639   2.000   8.514   2.153
 8560SOL    HW227640   1.861   8.439   2.194
 8561SOL     OW27641   2.092   8.076   3.837
 8561SOL    HW127642   1.999   8.074   3.874
 8561SOL    HW227643   2.093   8.037   3.745
 8562SOL     OW27644   2.087   7.723   4.720
 8562SOL    HW127645   2.122   7.706   4.812
 8562SOL    HW227646   1.999   7.678   4.708
 8563SOL     OW27647   1.881   7.816   4.371
 8563SOL    HW127648   1.799   7.859   4.410
 8563SOL    HW227649   1.853   7.743   4.308
 8564SOL     OW27650   2.431   8.723   4.889
 8564SOL    HW127651   2.338   8.716   4.852
 8564SOL    HW227652   2.442   8.812   4.933
 8565SOL     OW27653   3.417   8.959   4.427
 8565SOL    HW127654   3.360   8.943   4.508
 8565SOL    HW227655   3.358   8.969   4.347
 8566SOL     OW27656   3.605   8.066   4.580
 8566SOL    HW127657   3.638   8.160   4.580
 8566SOL    HW227658   3.656   8.012   4.646
 8567SOL     OW27659   2.997   8.151   4.441
 8567SOL    HW127660   3.054   8.229   4.416
 8567SOL    HW227661   2.937   8.177   4.517
 8568SOL     OW27662   3.617   8.055   3.955
 8568SOL    HW127663   3.605   8.042   3.856
 8568SOL    HW227664   3.587   7.974   4.004
 8569SOL     OW27665   2.630   8.592   4.747
 8569SOL    HW127666   2.552   8.609   4.807
 8569SOL    HW227667   2.664   8.679   4.711
 8570SOL     OW27668   2.712   8.246   5.547
 8570SOL    HW127669   2.708   8.322   5.612
 8570SOL    HW227670   2.734   8.282   5.456
 8571SOL     OW27671   2.547   8.460   4.389
 8571SOL    HW127672   2.616   8.444   4.459
 8571SOL    HW227673   2.474   8.517   4.427
 8572SOL     OW27674   2.548   8.609   5.527
 8572SOL    HW127675   2.608   8.688   5.541
 8572SOL    HW227676   2.462   8.640   5.486
 8573SOL     OW27677   2.197   8.883   4.785
 8573SOL    HW127678   2.119   8.852   4.732
 8573SOL    HW227679   2.255   8.941   4.728
 8574SOL     OW27680   3.322   8.953   5.063
 8574SOL    HW127681   3.346   9.047   5.089
 8574SOL    HW227682   3.306   8.899   5.145
 8575SOL     OW27683   2.300   7.840   5.223
 8575SOL    HW127684   2.382   7.784   5.232
 8575SOL    HW227685   2.219   7.782   5.227
 8576SOL     OW27686   3.465   7.895   4.461
 8576SOL    HW127687   3.391   7.941   4.411
 8576SOL    HW227688   3.516   7.963   4.514
 8577SOL     OW27689   2.093   0.161   4.207
 8577SOL    HW127690   2.127   0.238   4.261
 8577SOL    HW227691   2.137   0.161   4.117
 8578SOL     OW27692   2.989   8.789   5.414
 8578SOL    HW127693   3.036   8.789   5.502
 8578SOL    HW227694   2.941   8.702   5.403
 8579SOL     OW27695   2.092   8.882   4.262
 8579SOL    HW127696   2.066   8.978   4.262
 8579SOL    HW227697   2.021   8.828   4.307
 8580SOL     OW27698   2.102   8.539   4.610
 8580SOL    HW127699   2.116   8.455   4.662
 8580SOL    HW227700   2.047   8.603   4.665
 8581SOL     OW27701   2.468   8.412   3.847
 8581SOL    HW127702   2.475   8.496   3.793
 8581SOL    HW227703   2.514   8.425   3.935
 8582SOL     OW27704   3.456   7.562   5.204
 8582SOL    HW127705   3.438   7.629   5.132
 8582SOL    HW227706   3.453   7.608   5.293
 8583SOL     OW27707   1.984   8.091   4.287
 8583SOL    HW127708   1.939   8.003   4.304
 8583SOL    HW227709   1.983   8.145   4.371
 8584SOL     OW27710   1.889   0.044   3.841
 8584SOL    HW127711   1.870  -0.052   3.862
 8584SOL    HW227712   1.856   0.102   3.916
 8585SOL     OW27713   3.551   8.370   4.336
 8585SOL    HW127714   3.646   8.341   4.344
 8585SOL    HW227715   3.543   8.435   4.261
 8586SOL     OW27716   3.503   8.556   4.156
 8586SOL    HW127717   3.589   8.558   4.104
 8586SOL    HW227718   3.517   8.603   4.244
 8587SOL     OW27719   1.975   8.185   5.321
 8587SOL    HW127720   2.063   8.172   5.366
 8587SOL    HW227721   1.962   8.282   5.299
 8588SOL     OW27722   2.475   8.813   4.450
 8588SOL    HW127723   2.426   8.726   4.459
 8588SOL    HW227724   2.452   8.856   4.363
 8589SOL     OW27725   3.155   8.676   5.147
 8589SOL    HW127726   3.192   8.603   5.089
 8589SOL    HW227727   3.207   8.681   5.232
 8590SOL     OW27728   2.671   7.452   4.226
 8590SOL    HW127729   2.711   7.543   4.217
 8590SOL    HW227730   2.571   7.460   4.232
 8591SOL     OW27731   2.059   8.424   4.988
 8591SOL    HW127732   2.148   8.379   4.974
 8591SOL    HW227733   1.986   8.359   4.969
 8592SOL     OW27734   3.387   8.447   3.914
 8592SOL    HW127735   3.324   8.371   3.927
 8592SOL    HW227736   3.435   8.465   4.000
 8593SOL     OW27737   2.179   7.699   5.525
 8593SOL    HW127738   2.250   7.770   5.531
 8593SOL    HW227739   2.091   7.738   5.553
 8594SOL     OW27740   3.328   8.865   4.677
 8594SOL    HW127741   3.269   8.871   4.757
 8594SOL    HW227742   3.313   8.777   4.631
 8595SOL     OW27743   2.460   8.177   3.994
 8595SOL    HW127744   2.484   8.246   3.926
 8595SOL    HW227745   2.382   8.210   4.048
 8596SOL     OW27746   3.143   7.793   4.668
 8596SOL    HW127747   3.057   7.743   4.655
 8596SOL    HW227748   3.205   7.739   4.724
 8597SOL     OW27749   2.669   8.053   5.189
 8597SOL    HW127750   2.622   8.050   5.278
 8597SOL    HW227751   2.618   7.998   5.123
 8598SOL     OW27752   3.256   7.917   5.398
 8598SOL    HW127753   3.236   7.960   5.486
 8598SOL    HW227754   3.334   7.855   5.407
 8599SOL     OW27755   2.835   8.338   5.296
 8599SOL    HW127756   2.881   8.254   5.267
 8599SOL    HW227757   2.779   8.372   5.221
 8600SOL     OW27758   2.853   7.858   4.966
 8600SOL    HW127759   2.776   7.892   5.020
 8600SOL    HW227760   2.819   7.807   4.887
 8601SOL     OW27761   2.903   8.149   4.153
 8601SOL    HW127762   2.929   8.145   4.249
 8601SOL    HW227763   2.818   8.098   4.139
 8602SOL     OW27764   1.938   8.259   4.513
 8602SOL    HW127765   2.037   8.247   4.522
 8602SOL    HW227766   1.914   8.354   4.534
 8603SOL     OW27767   2.727   7.796   3.919
 8603SOL    HW127768   2.786   7.859   3.870
 8603SOL    HW227769   2.746   7.702   3.890
 8604SOL     OW27770   3.581   8.033   5.555
 8604SOL    HW127771   3.555   8.122   5.519
 8604SOL    HW227772   3.579   7.965   5.482
 8605SOL     OW27773   3.224   8.592   4.269
 8605SOL    HW127774   3.307   8.563   4.221
 8605SOL    HW227775   3.175   8.659   4.213
 8606SOL     OW27776   2.412   7.644   4.609
 8606SOL    HW127777   2.407   7.639   4.709
 8606SOL    HW227778   2.414   7.740   4.580
 8607SOL     OW27779   2.870   8.904   4.201
 8607SOL    HW127780   2.824   8.976   4.149
 8607SOL    HW227781   2.866   8.924   4.299
 8608SOL     OW27782   3.657   8.514   4.597
 8608SOL    HW127783   3.595   8.499   4.521
 8608SOL    HW227784   3.605   8.525   4.682
 8609SOL     OW27785   3.089   8.998   5.230
 8609SOL    HW127786   3.095   8.921   5.294
 8609SOL    HW227787   3.037   8.972   5.150
 8610SOL     OW27788   2.183   8.391   3.966
 8610SOL    HW127789   2.265   8.430   3.924
 8610SOL    HW227790   2.156   8.309   3.917
 8611SOL     OW27791   3.320   8.183   4.452
 8611SOL    HW127792   3.315   8.118   4.527
 8611SOL    HW227793   3.400   8.242   4.465
 8612SOL     OW27794   2.323   8.714   5.451
 8612SOL    HW127795   2.273   8.715   5.365
 8612SOL    HW227796   2.260   8.696   5.527
 8613SOL     OW27797   2.973   0.224   3.961
 8613SOL    HW127798   2.913   0.162   4.011
 8613SOL    HW227799   3.004   0.180   3.876
 8614SOL     OW27800   2.064   7.733   5.222
 8614SOL    HW127801   1.984   7.793   5.209
 8614SOL    HW227802   2.054   7.684   5.308
 8615SOL     OW27803   3.494   8.825   3.805
 8615SOL    HW127804   3.462   8.919   3.795
 8615SOL    HW227805   3.418   8.762   3.793
 8616SOL     OW27806   3.262   7.555   4.150
 8616SOL    HW127807   3.238   7.518   4.060
 8616SOL    HW227808   3.361   7.571   4.154
 8617SOL     OW27809   2.244   8.148   4.204
 8617SOL    HW127810   2.289   8.058   4.201
 8617SOL    HW227811   2.150   8.137   4.237
 8618SOL     OW27812   3.409   7.670   5.453
 8618SOL    HW127813   3.404   7.707   5.545
 8618SOL    HW227814   3.337   7.601   5.441
 8619SOL     OW27815   2.476   7.570   3.841
 8619SOL    HW127816   2.574   7.548   3.848
 8619SOL    HW227817   2.445   7.553   3.748
 8620SOL     OW27818   2.643   7.712   5.473
 8620SOL    HW127819   2.710   7.651   5.516
 8620SOL    HW227820   2.570   7.731   5.538
 8621SOL     OW27821   3.213   8.038   5.157
 8621SOL    HW127822   3.241   7.995   5.242
 8621SOL    HW227823   3.238   8.134   5.158
 8622SOL     OW27824   2.665   8.850   4.648
 8622SOL    HW127825   2.755   8.864   4.606
 8622SOL    HW227826   2.594   8.852   4.577
 8623SOL     OW27827   2.784   7.951   4.623
 8623SOL    HW127828   2.759   7.942   4.527
 8623SOL    HW227829   2.832   7.869   4.654
 8624SOL     OW27830   2.401   7.512   4.236
 8624SOL    HW127831   2.320   7.513   4.294
 8624SOL    HW227832   2.404   7.595   4.181
 8625SOL     OW27833   3.296   8.636   3.765
 8625SOL    HW127834   3.328   8.560   3.822
 8625SOL    HW227835   3.204   8.663   3.795
 8626SOL     OW27836   2.159   7.483   3.895
 8626SOL    HW127837   2.208   7.567   3.874
 8626SOL    HW227838   2.221   7.418   3.940
 8627SOL     OW27839   2.797   7.684   4.204
 8627SOL    HW127840   2.749   7.725   4.126
 8627SOL    HW227841   2.896   7.682   4.185
 8628SOL     OW27842   2.938   8.131   5.188
 8628SOL    HW127843   2.858   8.070   5.191
 8628SOL    HW227844   3.019   8.078   5.164
 8629SOL     OW27845   3.089   0.018   4.517
 8629SOL    HW127846   3.110   0.092   4.452
 8629SOL    HW227847   3.157   0.018   4.590
 8630SOL     OW27848   2.321   8.600   4.465
 8630SOL    HW127849   2.250   8.573   4.530
 8630SOL    HW227850   2.295   8.572   4.372
 8631SOL     OW27851   2.894   7.997   3.740
 8631SOL    HW127852   2.853   8.079   3.701
 8631SOL    HW227853   2.958   8.023   3.813
 8632SOL     OW27854   1.940   8.004   5.110
 8632SOL    HW127855   2.032   8.003   5.069
 8632SOL    HW227856   1.934   8.078   5.177
 8633SOL     OW27857   2.423   7.670   4.871
 8633SOL    HW127858   2.461   7.586   4.908
 8633SOL    HW227859   2.335   7.689   4.915
 8634SOL     OW27860   2.728   7.902   4.366
 8634SOL    HW127861   2.696   7.974   4.304
 8634SOL    HW227862   2.752   7.821   4.313
 8635SOL     OW27863   2.879   7.487   4.477
 8635SOL    HW127864   2.807   7.492   4.408
 8635SOL    HW227865   2.855   7.418   4.546
 8636SOL     OW27866   3.291   8.621   4.591
 8636SOL    HW127867   3.236   8.537   4.584
 8636SOL    HW227868   3.317   8.650   4.499
 8637SOL     OW27869   3.328   8.038   4.716
 8637SOL    HW127870   3.298   7.943   4.723
 8637SOL    HW227871   3.401   8.054   4.782
 8638SOL     OW27872   3.719   8.281   4.101
 8638SOL    HW127873   3.761   8.217   4.165
 8638SOL    HW227874   3.681   8.230   4.023
 8639SOL     OW27875   2.350   8.833   3.898
 8639SOL    HW127876   2.263   8.818   3.945
 8639SOL    HW227877   2.333   8.859   3.803
 8640SOL     OW27878   3.526   8.728   4.381
 8640SOL    HW127879   3.625   8.736   4.395
 8640SOL    HW227880   3.481   8.812   4.412
 8641SOL     OW27881   3.252   8.023   3.802
 8641SOL    HW127882   3.198   8.002   3.883
 8641SOL    HW227883   3.343   7.982   3.811
 8642SOL     OW27884   2.389   7.704   4.052
 8642SOL    HW127885   2.416   7.645   3.977
 8642SOL    HW227886   2.389   7.799   4.021
 8643SOL     OW27887   3.616   8.671   5.312
 8643SOL    HW127888   3.707   8.632   5.299
 8643SOL    HW227889   3.624   8.767   5.336
 8644SOL     OW27890   2.926   8.795   5.064
 8644SOL    HW127891   2.846   8.772   5.119
 8644SOL    HW227892   3.009   8.769   5.113
 8645SOL     OW27893   2.973   8.643   4.824
 8645SOL    HW127894   2.933   8.687   4.905
 8645SOL    HW227895   2.932   8.680   4.741
 8646SOL     OW27896   3.500   8.547   4.803
 8646SOL    HW127897   3.505   8.628   4.862
 8646SOL    HW227898   3.414   8.549   4.752
 8647SOL     OW27899   2.777   7.537   5.126
 8647SOL    HW127900   2.802   7.517   5.031
 8647SOL    HW227901   2.849   7.593   5.168
 8648SOL     OW27902   2.842   8.564   5.443
 8648SOL    HW127903   2.743   8.570   5.453
 8648SOL    HW227904   2.865   8.484   5.387
 8649SOL     OW27905   2.567   8.498   4.092
 8649SOL    HW127906   2.553   8.505   4.191
 8649SOL    HW227907   2.651   8.447   4.074
 8650SOL     OW27908   2.272   8.261   4.975
 8650SOL    HW127909   2.358   8.273   5.025
 8650SOL    HW227910   2.230   8.174   5.002
 8651SOL     OW27911   3.136   7.834   4.986
 8651SOL    HW127912   3.157   7.908   5.050
 8651SOL    HW227913   3.047   7.851   4.943
 8652SOL     OW27914   2.229   8.548   4.225
 8652SOL    HW127915   2.222   8.631   4.169
 8652SOL    HW227916   2.233   8.468   4.165
 8653SOL     OW27917   2.428   7.985   4.589
 8653SOL    HW127918   2.440   8.051   4.515
 8653SOL    HW227919   2.474   8.019   4.672
 8654SOL     OW27920   3.114   8.796   4.112
 8654SOL    HW127921   3.164   8.873   4.152
 8654SOL    HW227922   3.019   8.798   4.144
 8655SOL     OW27923   3.134   8.893   4.866
 8655SOL    HW127924   3.181   8.906   4.953
 8655SOL    HW227925   3.068   8.819   4.875
 8656SOL     OW27926   3.444   8.087   4.196
 8656SOL    HW127927   3.413   8.148   4.269
 8656SOL    HW227928   3.494   8.139   4.127
 8657SOL     OW27929   2.216   8.958   5.053
 8657SOL    HW127930   2.195   8.914   4.966
 8657SOL    HW227931   2.313   8.984   5.056
 8658SOL     OW27932   2.264   8.199   5.322
 8658SOL    HW127933   2.332   8.254   5.275
 8658SOL    HW227934   2.304   8.111   5.349
 8659SOL     OW27935   3.449   8.227   5.394
 8659SOL    HW127936   3.357   8.265   5.389
 8659SOL    HW227937   3.509   8.274   5.329
 8660SOL     OW27938   2.875   7.553   5.494
 8660SOL    HW127939   2.881   7.638   5.442
 8660SOL    HW227940   2.907   7.477   5.437
 8661SOL     OW27941   2.366   7.498   5.464
 8661SOL    HW127942   2.324   7.441   5.394
 8661SOL    HW227943   2.300   7.567   5.496
 8662SOL     OW27944   2.435   8.318   4.753
 8662SOL    HW127945   2.479   8.407   4.744
 8662SOL    HW227946   2.372   8.318   4.830
 8663SOL     OW27947   3.222   8.310   4.769
 8663SOL    HW127948   3.147   8.310   4.703
 8663SOL    HW227949   3.259   8.218   4.778
 8664SOL     OW27950   3.071   7.973   3.999
 8664SOL    HW127951   3.084   7.889   4.053
 8664SOL    HW227952   3.042   8.047   4.059
 8665SOL     OW27953   2.169   7.661   4.955
 8665SOL    HW127954   2.146   7.698   5.045
 8665SOL    HW227955   2.139   7.566   4.949
 8666SOL     OW27956   1.899   8.758   5.006
 8666SOL    HW127957   1.952   8.709   5.074
 8666SOL    HW227958   1.921   8.856   5.011
 8667SOL     OW27959   2.594   8.082   4.788
 8667SOL    HW127960   2.653   8.056   4.712
 8667SOL    HW227961   2.566   8.178   4.777
 8668SOL     OW27962   3.590   8.383   5.578
 8668SOL    HW127963   3.544   8.376   5.489
 8668SOL    HW227964   3.528   8.427   5.644
 8669SOL     OW27965   2.169   7.511   4.342
 8669SOL    HW127966   2.158   7.605   4.375
 8669SOL    HW227967   2.164   7.448   4.419
 8670SOL     OW27968   3.484   7.815   4.098
 8670SOL    HW127969   3.486   7.739   4.162
 8670SOL    HW227970   3.436   7.892   4.138
 8671SOL     OW27971   2.885   8.214   4.690
 8671SOL    HW127972   2.900   8.235   4.786
 8671SOL    HW227973   2.855   8.119   4.681
 8672SOL     OW27974   3.721   8.966   5.329
 8672SOL    HW127975   3.735   8.993   5.234
 8672SOL    HW227976   3.804   8.988   5.382
 8673SOL     OW27977   2.212   8.346   5.528
 8673SOL    HW127978   2.288   8.390   5.576
 8673SOL    HW227979   2.247   8.299   5.446
 8674SOL     OW27980   3.402   7.722   3.849
 8674SOL    HW127981   3.341   7.647   3.872
 8674SOL    HW227982   3.424   7.774   3.932
 8675SOL     OW27983   3.165   8.286   3.766
 8675SOL    HW127984   3.199   8.193   3.781
 8675SOL    HW227985   3.183   8.313   3.671
 8676SOL     OW27986   2.930   8.781   4.573
 8676SOL    HW127987   2.937   8.697   4.518
 8676SOL    HW227988   2.992   8.850   4.537
 8677SOL     OW27989   2.181   8.258   4.673
 8677SOL    HW127990   2.274   8.294   4.678
 8677SOL    HW227991   2.175   8.173   4.725
 8678SOL     OW27992   2.201   7.957   4.730
 8678SOL    HW127993   2.149   7.874   4.713
 8678SOL    HW227994   2.278   7.962   4.666
 8679SOL     OW27995   2.373   7.863   5.532
 8679SOL    HW127996   2.355   7.908   5.620
 8679SOL    HW227997   2.415   7.928   5.469
 8680SOL     OW27998   3.000   7.828   5.402
 8680SOL    HW127999   2.955   7.891   5.466
 8680SOL    HW228000   3.093   7.859   5.385
 8681SOL     OW28001   3.022   7.655   5.201
 8681SOL    HW128002   3.022   7.719   5.278
 8681SOL    HW228003   3.050   7.703   5.118
 8682SOL     OW28004   1.870   8.774   3.924
 8682SOL    HW128005   1.777   8.795   3.893
 8682SOL    HW228006   1.880   8.675   3.937
 8683SOL     OW28007   2.864   8.244   4.962
 8683SOL    HW128008   2.905   8.212   5.048
 8683SOL    HW228009   2.768   8.217   4.959
 8684SOL     OW28010   1.902   7.992   4.838
 8684SOL    HW128011   1.987   7.959   4.797
 8684SOL    HW228012   1.915   8.007   4.936
 8685SOL     OW28013   2.051   7.968   5.446
 8685SOL    HW128014   2.110   7.928   5.376
 8685SOL    HW228015   1.993   8.039   5.405
 8686SOL     OW28016   3.231   8.398   5.384
 8686SOL    HW128017   3.270   8.487   5.404
 8686SOL    HW228018   3.241   8.378   5.287
 8687SOL     OW28019   2.677   8.020   4.049
 8687SOL    HW128020   2.684   7.931   4.003
 8687SOL    HW228021   2.583   8.054   4.041
 8688SOL     OW28022   3.519   8.052   4.930
 8688SOL    HW128023   3.481   7.983   4.992
 8688SOL    HW228024   3.601   8.016   4.886
 8689SOL     OW28025   2.114   0.012   5.468
 8689SOL    HW128026   2.084   0.069   5.544
 8689SOL    HW228027   2.107  -0.085   5.494
 8690SOL     OW28028   2.533   7.912   4.993
 8690SOL    HW128029   2.499   7.823   4.963
 8690SOL    HW228030   2.559   7.966   4.913
 8691SOL     OW28031   2.335   7.948   3.915
 8691SOL    HW128032   2.396   8.028   3.919
 8691SOL    HW228033   2.240   7.979   3.922
 8692SOL     OW28034   2.021   8.585   5.190
 8692SOL    HW128035   2.043   8.524   5.266
 8692SOL    HW228036   2.031   8.536   5.104
 8693SOL     OW28037   3.209   8.507   4.958
 8693SOL    HW128038   3.233   8.444   4.884
 8693SOL    HW228039   3.119   8.547   4.940
 8694SOL     OW28040   3.164   8.303   4.033
 8694SOL    HW128041   3.078   8.272   4.075
 8694SOL    HW228042   3.160   8.289   3.934
 8695SOL     OW28043   1.945   8.706   4.746
 8695SOL    HW128044   1.940   8.705   4.846
 8695SOL    HW228045   1.862   8.665   4.708
 8696SOL     OW28046   2.765   7.534   3.857
 8696SOL    HW128047   2.816   7.535   3.771
 8696SOL    HW228048   2.821   7.492   3.928
 8697SOL     OW28049   3.588   7.583   4.247
 8697SOL    HW128050   3.661   7.566   4.180
 8697SOL    HW228051   3.557   7.496   4.285
 8698SOL     OW28052   3.142   8.375   4.396
 8698SOL    HW128053   3.202   8.294   4.398
 8698SOL    HW228054   3.182   8.444   4.336
 8699SOL     OW28055   2.692   8.721   5.146
 8699SOL    HW128056   2.687   8.754   5.241
 8699SOL    HW228057   2.606   8.740   5.100
 8700SOL     OW28058   3.703   7.623   4.687
 8700SOL    HW128059   3.742   7.538   4.651
 8700SOL    HW228060   3.605   7.625   4.668
 8701SOL     OW28061   2.125   7.774   4.444
 8701SOL    HW128062   2.046   7.825   4.410
 8701SOL    HW228063   2.116   7.759   4.542
 8702SOL     OW28064   2.684   8.450   5.096
 8702SOL    HW128065   2.724   8.449   5.004
 8702SOL    HW228066   2.694   8.542   5.136
 8703SOL     OW28067   2.778   8.358   4.015
 8703SOL    HW128068   2.841   8.396   3.947
 8703SOL    HW228069   2.818   8.275   4.054
 8704SOL     OW28070   2.234   8.736   5.214
 8704SOL    HW128071   2.221   8.829   5.180
 8704SOL    HW228072   2.150   8.684   5.201
 8705SOL     OW28073   3.476   8.740   5.013
 8705SOL    HW128074   3.536   8.743   5.093
 8705SOL    HW228075   3.401   8.804   5.026
 8706SOL     OW28076   2.901   8.546   4.420
 8706SOL    HW128077   2.831   8.499   4.474
 8706SOL    HW228078   2.960   8.478   4.377
 8707SOL     OW28079   2.876   7.684   4.695
 8707SOL    HW128080   2.868   7.648   4.602
 8707SOL    HW228081   2.874   7.608   4.760
 8708SOL     OW28082   3.571   7.833   5.105
 8708SOL    HW128083   3.644   7.902   5.109
 8708SOL    HW228084   3.599   7.758   5.046
 8709SOL     OW28085   2.117   8.796   4.014
 8709SOL    HW128086   2.021   8.797   3.987
 8709SOL    HW228087   2.129   8.849   4.098
 8710SOL     OW28088   1.967   8.461   5.450
 8710SOL    HW128089   1.890   8.428   5.504
 8710SOL    HW228090   2.052   8.431   5.492
 8711SOL     OW28091   2.534   7.651   5.213
 8711SOL    HW128092   2.624   7.635   5.173
 8711SOL    HW228093   2.542   7.656   5.312
 8712SOL     OW28094   1.937   7.793   3.757
 8712SOL    HW128095   1.845   7.765   3.728
 8712SOL    HW228096   1.968   7.870   3.701
 8713SOL     OW28097   3.302   8.304   5.122
 8713SOL    HW128098   3.245   8.356   5.059
 8713SOL    HW228099   3.398   8.316   5.098
 8714SOL     OW28100   1.934   7.614   4.042
 8714SOL    HW128101   1.917   7.697   3.988
 8714SOL    HW228102   2.024   7.577   4.020
 8715SOL     OW28103   3.045   8.783   3.843
 8715SOL    HW128104   2.946   8.772   3.845
 8715SOL    HW228105   3.079   8.798   3.936
 8716SOL     OW28106   2.475   8.290   5.155
 8716SOL    HW128107   2.531   8.371   5.138
 8716SOL    HW228108   2.534   8.210   5.158
 8717SOL     OW28109   2.578   8.013   5.432
 8717SOL    HW128110   2.597   8.078   5.506
 8717SOL    HW228111   2.638   7.933   5.441
 8718SOL     OW28112   3.312   8.668   5.357
 8718SOL    HW128113   3.303   8.658   5.456
 8718SOL    HW228114   3.408   8.661   5.331
 8719SOL     OW28115   3.536   8.331   4.978
 8719SOL    HW128116   3.509   8.242   4.941
 8719SOL    HW228117   3.537   8.399   4.905
 8720SOL     OW28118   3.087   7.773   4.173
 8720SOL    HW128119   3.152   7.699   4.162
 8720SOL    HW228120   3.107   7.823   4.257
 8721SOL     OW28121   2.456   8.193   4.376
 8721SOL    HW128122   2.506   8.278   4.357
 8721SOL    HW228123   2.368   8.195   4.328
 8722SOL     OW28124   3.639   7.790   5.366
 8722SOL    HW128125   3.622   7.821   5.272
 8722SOL    HW228126   3.555   7.753   5.404
 8723SOL     OW28127   3.592   8.382   5.241
 8723SOL    HW128128   3.630   8.473   5.256
 8723SOL    HW228129   3.584   8.365   5.142
 8724SOL     OW28130   2.721   8.822   3.740
 8724SOL    HW128131   2.675   8.837   3.828
 8724SOL    HW228132   2.765   8.907   3.710
 8725SOL     OW28133   2.721   8.404   4.585
 8725SOL    HW128134   2.775   8.335   4.633
 8725SOL    HW228135   2.689   8.473   4.651
 8726SOL     OW28136   2.945   8.432   3.811
 8726SOL    HW128137   2.922   8.485   3.729
 8726SOL    HW228138   3.026   8.376   3.792
 8727SOL     OW28139   2.083   8.762   5.568
 8727SOL    HW128140   2.018   8.689   5.547
 8727SOL    HW228141   2.087   8.776   5.666
 8728SOL     OW28142   1.941   8.688   4.377
 8728SOL    HW128143   1.940   8.641   4.465
 8728SOL    HW228144   2.023   8.660   4.326
 8729SOL     OW28145   2.534   8.839   5.348
 8729SOL    HW128146   2.456   8.789   5.386
 8729SOL    HW228147   2.531   8.934   5.379
 8730SOL     OW28148   3.686   7.640   4.951
 8730SOL    HW128149   3.682   7.550   4.995
 8730SOL    HW228150   3.689   7.629   4.852
 8731SOL     OW28151   2.290   7.872   4.244
 8731SOL    HW128152   2.320   7.800   4.182
 8731SOL    HW228153   2.251   7.832   4.327
 8732SOL     OW28154   3.567   8.935   4.828
 8732SOL    HW128155   3.474   8.910   4.801
 8732SOL    HW228156   3.593   8.885   4.910
 8733SOL     OW28157   2.179   7.995   5.004
 8733SOL    HW128158   2.217   7.936   5.076
 8733SOL    HW228159   2.219   7.969   4.916
 8734SOL     OW28160   3.286   7.662   4.836
 8734SOL    HW128161   3.338   7.597   4.891
 8734SOL    HW228162   3.237   7.725   4.897
 8735SOL     OW28163   2.863   7.482   4.878
 8735SOL    HW128164   2.800   7.410   4.847
 8735SOL    HW228165   2.956   7.446   4.878
 8736SOL     OW28166   2.632   8.778   4.025
 8736SOL    HW128167   2.586   8.691   4.042
 8736SOL    HW228168   2.723   8.775   4.066
 8737SOL     OW28169   2.480   0.015   5.008
 8737SOL    HW128170   2.475   0.097   5.065
 8737SOL    HW228171   2.569   0.012   4.963
 8738SOL     OW28172   3.214   7.500   3.892
 8738SOL    HW128173   3.249   7.459   3.808
 8738SOL    HW228174   3.124   7.462   3.912
 8739SOL     OW28175   3.162   7.901   4.415
 8739SOL    HW128176   3.103   7.981   4.419
 8739SOL    HW228177   3.177   7.866   4.508
 8740SOL     OW28178   3.455   7.669   4.606
 8740SOL    HW128179   3.371   7.668   4.660
 8740SOL    HW228180   3.457   7.752   4.550
 8741SOL     OW28181   1.901   8.525   4.024
 8741SOL    HW128182   2.000   8.514   4.015
 8741SOL    HW228183   1.861   8.439   4.056
 8742SOL     OW28184   2.092   8.076   5.699
 8742SOL    HW128185   1.999   8.074   5.736
 8742SOL    HW228186   2.093   8.037   5.607
 8743SOL     OW28187   2.087   7.723   6.582
 8743SOL    HW128188   2.122   7.706   6.674
 8743SOL    HW228189   1.999   7.678   6.570
 8744SOL     OW28190   1.881   7.816   6.233
 8744SOL    HW128191   1.799   7.859   6.272
 8744SOL    HW228192   1.853   7.743   6.170
 8745SOL     OW28193   2.431   8.723   6.751
 8745SOL    HW128194   2.338   8.716   6.714
 8745SOL    HW228195   2.442   8.812   6.795
 8746SOL     OW28196   3.417   8.959   6.289
 8746SOL    HW128197   3.360   8.943   6.370
 8746SOL    HW228198   3.358   8.969   6.209
 8747SOL     OW28199   3.605   8.066   6.442
 8747SOL    HW128200   3.638   8.160   6.442
 8747SOL    HW228201   3.656   8.012   6.508
 8748SOL     OW28202   2.997   8.151   6.303
 8748SOL    HW128203   3.054   8.229   6.278
 8748SOL    HW228204   2.937   8.177   6.379
 8749SOL     OW28205   3.617   8.055   5.817
 8749SOL    HW128206   3.605   8.042   5.718
 8749SOL    HW228207   3.587   7.974   5.866
 8750SOL     OW28208   2.630   8.592   6.609
 8750SOL    HW128209   2.552   8.609   6.669
 8750SOL    HW228210   2.664   8.679   6.573
 8751SOL     OW28211   2.712   8.246   7.409
 8751SOL    HW128212   2.708   8.322   7.474
 8751SOL    HW228213   2.734   8.282   7.318
 8752SOL     OW28214   2.547   8.460   6.251
 8752SOL    HW128215   2.616   8.444   6.321
 8752SOL    HW228216   2.474   8.517   6.289
 8753SOL     OW28217   2.548   8.609   7.389
 8753SOL    HW128218   2.608   8.688   7.403
 8753SOL    HW228219   2.462   8.640   7.348
 8754SOL     OW28220   2.197   8.883   6.647
 8754SOL    HW128221   2.119   8.852   6.594
 8754SOL    HW228222   2.255   8.941   6.590
 8755SOL     OW28223   3.322   8.953   6.925
 8755SOL    HW128224   3.346   9.047   6.951
 8755SOL    HW228225   3.306   8.899   7.007
 8756SOL     OW28226   2.300   7.840   7.085
 8756SOL    HW128227   2.382   7.784   7.094
 8756SOL    HW228228   2.219   7.782   7.089
 8757SOL     OW28229   3.465   7.895   6.323
 8757SOL    HW128230   3.391   7.941   6.273
 8757SOL    HW228231   3.516   7.963   6.376
 8758SOL     OW28232   2.093   0.161   6.069
 8758SOL    HW128233   2.127   0.238   6.123
 8758SOL    HW228234   2.137   0.161   5.979
 8759SOL     OW28235   2.989   8.789   7.276
 8759SOL    HW128236   3.036   8.789   7.364
 8759SOL    HW228237   2.941   8.702   7.265
 8760SOL     OW28238   2.092   8.882   6.124
 8760SOL    HW128239   2.066   8.978   6.124
 8760SOL    HW228240   2.021   8.828   6.169
 8761SOL     OW28241   2.102   8.539   6.472
 8761SOL    HW128242   2.116   8.455   6.524
 8761SOL    HW228243   2.047   8.603   6.527
 8762SOL     OW28244   2.468   8.412   5.709
 8762SOL    HW128245   2.475   8.496   5.655
 8762SOL    HW228246   2.514   8.425   5.797
 8763SOL     OW28247   3.456   7.562   7.066
 8763SOL    HW128248   3.438   7.629   6.994
 8763SOL    HW228249   3.453   7.608   7.155
 8764SOL     OW28250   1.984   8.091   6.149
 8764SOL    HW128251   1.939   8.003   6.166
 8764SOL    HW228252   1.983   8.145   6.233
 8765SOL     OW28253   1.889   0.044   5.703
 8765SOL    HW128254   1.870  -0.052   5.724
 8765SOL    HW228255   1.856   0.102   5.778
 8766SOL     OW28256   3.551   8.370   6.198
 8766SOL    HW128257   3.646   8.341   6.206
 8766SOL    HW228258   3.543   8.435   6.123
 8767SOL     OW28259   3.503   8.556   6.018
 8767SOL    HW128260   3.589   8.558   5.966
 8767SOL    HW228261   3.517   8.603   6.106
 8768SOL     OW28262   1.975   8.185   7.183
 8768SOL    HW128263   2.063   8.172   7.228
 8768SOL    HW228264   1.962   8.282   7.161
 8769SOL     OW28265   2.475   8.813   6.312
 8769SOL    HW128266   2.426   8.726   6.321
 8769SOL    HW228267   2.452   8.856   6.225
 8770SOL     OW28268   3.155   8.676   7.009
 8770SOL    HW128269   3.192   8.603   6.951
 8770SOL    HW228270   3.207   8.681   7.094
 8771SOL     OW28271   2.671   7.452   6.088
 8771SOL    HW128272   2.711   7.543   6.079
 8771SOL    HW228273   2.571   7.460   6.094
 8772SOL     OW28274   2.059   8.424   6.850
 8772SOL    HW128275   2.148   8.379   6.836
 8772SOL    HW228276   1.986   8.359   6.831
 8773SOL     OW28277   3.387   8.447   5.776
 8773SOL    HW128278   3.324   8.371   5.789
 8773SOL    HW228279   3.435   8.465   5.862
 8774SOL     OW28280   2.179   7.699   7.387
 8774SOL    HW128281   2.250   7.770   7.393
 8774SOL    HW228282   2.091   7.738   7.415
 8775SOL     OW28283   3.328   8.865   6.539
 8775SOL    HW128284   3.269   8.871   6.619
 8775SOL    HW228285   3.313   8.777   6.493
 8776SOL     OW28286   2.460   8.177   5.856
 8776SOL    HW128287   2.484   8.246   5.788
 8776SOL    HW228288   2.382   8.210   5.910
 8777SOL     OW28289   3.143   7.793   6.530
 8777SOL    HW128290   3.057   7.743   6.517
 8777SOL    HW228291   3.205   7.739   6.586
 8778SOL     OW28292   2.669   8.053   7.051
 8778SOL    HW128293   2.622   8.050   7.140
 8778SOL    HW228294   2.618   7.998   6.985
 8779SOL     OW28295   3.256   7.917   7.260
 8779SOL    HW128296   3.236   7.960   7.348
 8779SOL    HW228297   3.334   7.855   7.269
 8780SOL     OW28298   2.835   8.338   7.158
 8780SOL    HW128299   2.881   8.254   7.129
 8780SOL    HW228300   2.779   8.372   7.083
 8781SOL     OW28301   2.853   7.858   6.828
 8781SOL    HW128302   2.776   7.892   6.882
 8781SOL    HW228303   2.819   7.807   6.749
 8782SOL     OW28304   2.903   8.149   6.015
 8782SOL    HW128305   2.929   8.145   6.111
 8782SOL    HW228306   2.818   8.098   6.001
 8783SOL     OW28307   1.938   8.259   6.375
 8783SOL    HW128308   2.037   8.247   6.384
 8783SOL    HW228309   1.914   8.354   6.396
 8784SOL     OW28310   2.727   7.796   5.781
 8784SOL    HW128311   2.786   7.859   5.732
 8784SOL    HW228312   2.746   7.702   5.752
 8785SOL     OW28313   3.581   8.033   7.417
 8785SOL    HW128314   3.555   8.122   7.381
 8785SOL    HW228315   3.579   7.965   7.344
 8786SOL     OW28316   3.224   8.592   6.131
 8786SOL    HW128317   3.307   8.563   6.083
 8786SOL    HW228318   3.175   8.659   6.075
 8787SOL     OW28319   2.412   7.644   6.471
 8787SOL    HW128320   2.407   7.639   6.571
 8787SOL    HW228321   2.414   7.740   6.442
 8788SOL     OW28322   2.870   8.904   6.063
 8788SOL    HW128323   2.824   8.976   6.011
 8788SOL    HW228324   2.866   8.924   6.161
 8789SOL     OW28325   3.657   8.514   6.459
 8789SOL    HW128326   3.595   8.499   6.383
 8789SOL    HW228327   3.605   8.525   6.544
 8790SOL     OW28328   3.089   8.998   7.092
 8790SOL    HW128329   3.095   8.921   7.156
 8790SOL    HW228330   3.037   8.972   7.012
 8791SOL     OW28331   2.183   8.391   5.828
 8791SOL    HW128332   2.265   8.430   5.786
 8791SOL    HW228333   2.156   8.309   5.779
 8792SOL     OW28334   3.320   8.183   6.314
 8792SOL    HW128335   3.315   8.118   6.389
 8792SOL    HW228336   3.400   8.242   6.327
 8793SOL     OW28337   2.323   8.714   7.313
 8793SOL    HW128338   2.273   8.715   7.227
 8793SOL    HW228339   2.260   8.696   7.389
 8794SOL     OW28340   2.973   0.224   5.823
 8794SOL    HW128341   2.913   0.162   5.873
 8794SOL    HW228342   3.004   0.180   5.738
 8795SOL     OW28343   2.064   7.733   7.084
 8795SOL    HW128344   1.984   7.793   7.071
 8795SOL    HW228345   2.054   7.684   7.170
 8796SOL     OW28346   3.494   8.825   5.667
 8796SOL    HW128347   3.462   8.919   5.657
 8796SOL    HW228348   3.418   8.762   5.655
 8797SOL     OW28349   3.262   7.555   6.012
 8797SOL    HW128350   3.238   7.518   5.922
 8797SOL    HW228351   3.361   7.571   6.016
 8798SOL     OW28352   2.244   8.148   6.066
 8798SOL    HW128353   2.289   8.058   6.063
 8798SOL    HW228354   2.150   8.137   6.099
 8799SOL     OW28355   3.409   7.670   7.315
 8799SOL    HW128356   3.404   7.707   7.407
 8799SOL    HW228357   3.337   7.601   7.303
 8800SOL     OW28358   2.476   7.570   5.703
 8800SOL    HW128359   2.574   7.548   5.710
 8800SOL    HW228360   2.445   7.553   5.610
 8801SOL     OW28361   2.643   7.712   7.335
 8801SOL    HW128362   2.710   7.651   7.378
 8801SOL    HW228363   2.570   7.731   7.400
 8802SOL     OW28364   3.213   8.038   7.019
 8802SOL    HW128365   3.241   7.995   7.104
 8802SOL    HW228366   3.238   8.134   7.020
 8803SOL     OW28367   2.665   8.850   6.510
 8803SOL    HW128368   2.755   8.864   6.468
 8803SOL    HW228369   2.594   8.852   6.439
 8804SOL     OW28370   2.784   7.951   6.485
 8804SOL    HW128371   2.759   7.942   6.389
 8804SOL    HW228372   2.832   7.869   6.516
 8805SOL     OW28373   2.401   7.512   6.098
 8805SOL    HW128374   2.320   7.513   6.156
 8805SOL    HW228375   2.404   7.595   6.043
 8806SOL     OW28376   3.296   8.636   5.627
 8806SOL    HW128377   3.328   8.560   5.684
 8806SOL    HW228378   3.204   8.663   5.657
 8807SOL     OW28379   2.159   7.483   5.757
 8807SOL    HW128380   2.208   7.567   5.736
 8807SOL    HW228381   2.221   7.418   5.802
 8808SOL     OW28382   2.797   7.684   6.066
 8808SOL    HW128383   2.749   7.725   5.988
 8808SOL    HW228384   2.896   7.682   6.047
 8809SOL     OW28385   2.938   8.131   7.050
 8809SOL    HW128386   2.858   8.070   7.053
 8809SOL    HW228387   3.019   8.078   7.026
 8810SOL     OW28388   3.089   0.018   6.379
 8810SOL    HW128389   3.110   0.092   6.314
 8810SOL    HW228390   3.157   0.018   6.452
 8811SOL     OW28391   2.321   8.600   6.327
 8811SOL    HW128392   2.250   8.573   6.392
 8811SOL    HW228393   2.295   8.572   6.234
 8812SOL     OW28394   2.894   7.997   5.602
 8812SOL    HW128395   2.853   8.079   5.563
 8812SOL    HW228396   2.958   8.023   5.675
 8813SOL     OW28397   1.940   8.004   6.972
 8813SOL    HW128398   2.032   8.003   6.931
 8813SOL    HW228399   1.934   8.078   7.039
 8814SOL     OW28400   2.423   7.670   6.733
 8814SOL    HW128401   2.461   7.586   6.770
 8814SOL    HW228402   2.335   7.689   6.777
 8815SOL     OW28403   2.728   7.902   6.228
 8815SOL    HW128404   2.696   7.974   6.166
 8815SOL    HW228405   2.752   7.821   6.175
 8816SOL     OW28406   2.879   7.487   6.339
 8816SOL    HW128407   2.807   7.492   6.270
 8816SOL    HW228408   2.855   7.418   6.408
 8817SOL     OW28409   3.291   8.621   6.453
 8817SOL    HW128410   3.236   8.537   6.446
 8817SOL    HW228411   3.317   8.650   6.361
 8818SOL     OW28412   3.328   8.038   6.578
 8818SOL    HW128413   3.298   7.943   6.585
 8818SOL    HW228414   3.401   8.054   6.644
 8819SOL     OW28415   3.719   8.281   5.963
 8819SOL    HW128416   3.761   8.217   6.027
 8819SOL    HW228417   3.681   8.230   5.885
 8820SOL     OW28418   2.350   8.833   5.760
 8820SOL    HW128419   2.263   8.818   5.807
 8820SOL    HW228420   2.333   8.859   5.665
 8821SOL     OW28421   3.526   8.728   6.243
 8821SOL    HW128422   3.625   8.736   6.257
 8821SOL    HW228423   3.481   8.812   6.274
 8822SOL     OW28424   3.252   8.023   5.664
 8822SOL    HW128425   3.198   8.002   5.745
 8822SOL    HW228426   3.343   7.982   5.673
 8823SOL     OW28427   2.389   7.704   5.914
 8823SOL    HW128428   2.416   7.645   5.839
 8823SOL    HW228429   2.389   7.799   5.883
 8824SOL     OW28430   3.616   8.671   7.174
 8824SOL    HW128431   3.707   8.632   7.161
 8824SOL    HW228432   3.624   8.767   7.198
 8825SOL     OW28433   2.926   8.795   6.926
 8825SOL    HW128434   2.846   8.772   6.981
 8825SOL    HW228435   3.009   8.769   6.975
 8826SOL     OW28436   2.973   8.643   6.686
 8826SOL    HW128437   2.933   8.687   6.767
 8826SOL    HW228438   2.932   8.680   6.603
 8827SOL     OW28439   3.500   8.547   6.665
 8827SOL    HW128440   3.505   8.628   6.724
 8827SOL    HW228441   3.414   8.549   6.614
 8828SOL     OW28442   2.777   7.537   6.988
 8828SOL    HW128443   2.802   7.517   6.893
 8828SOL    HW228444   2.849   7.593   7.030
 8829SOL     OW28445   2.842   8.564   7.305
 8829SOL    HW128446   2.743   8.570   7.315
 8829SOL    HW228447   2.865   8.484   7.249
 8830SOL     OW28448   2.567   8.498   5.954
 8830SOL    HW128449   2.553   8.505   6.053
 8830SOL    HW228450   2.651   8.447   5.936
 8831SOL     OW28451   2.272   8.261   6.837
 8831SOL    HW128452   2.358   8.273   6.887
 8831SOL    HW228453   2.230   8.174   6.864
 8832SOL     OW28454   3.136   7.834   6.848
 8832SOL    HW128455   3.157   7.908   6.912
 8832SOL    HW228456   3.047   7.851   6.805
 8833SOL     OW28457   2.229   8.548   6.087
 8833SOL    HW128458   2.222   8.631   6.031
 8833SOL    HW228459   2.233   8.468   6.027
 8834SOL     OW28460   2.428   7.985   6.451
 8834SOL    HW128461   2.440   8.051   6.377
 8834SOL    HW228462   2.474   8.019   6.534
 8835SOL     OW28463   3.114   8.796   5.974
 8835SOL    HW128464   3.164   8.873   6.014
 8835SOL    HW228465   3.019   8.798   6.006
 8836SOL     OW28466   3.134   8.893   6.728
 8836SOL    HW128467   3.181   8.906   6.815
 8836SOL    HW228468   3.068   8.819   6.737
 8837SOL     OW28469   3.444   8.087   6.058
 8837SOL    HW128470   3.413   8.148   6.131
 8837SOL    HW228471   3.494   8.139   5.989
 8838SOL     OW28472   2.216   8.958   6.915
 8838SOL    HW128473   2.195   8.914   6.828
 8838SOL    HW228474   2.313   8.984   6.918
 8839SOL     OW28475   2.264   8.199   7.184
 8839SOL    HW128476   2.332   8.254   7.137
 8839SOL    HW228477   2.304   8.111   7.211
 8840SOL     OW28478   3.449   8.227   7.256
 8840SOL    HW128479   3.357   8.265   7.251
 8840SOL    HW228480   3.509   8.274   7.191
 8841SOL     OW28481   2.875   7.553   7.356
 8841SOL    HW128482   2.881   7.638   7.304
 8841SOL    HW228483   2.907   7.477   7.299
 8842SOL     OW28484   2.366   7.498   7.326
 8842SOL    HW128485   2.324   7.441   7.256
 8842SOL    HW228486   2.300   7.567   7.358
 8843SOL     OW28487   2.435   8.318   6.615
 8843SOL    HW128488   2.479   8.407   6.606
 8843SOL    HW228489   2.372   8.318   6.692
 8844SOL     OW28490   3.222   8.310   6.631
 8844SOL    HW128491   3.147   8.310   6.565
 8844SOL    HW228492   3.259   8.218   6.640
 8845SOL     OW28493   3.071   7.973   5.861
 8845SOL    HW128494   3.084   7.889   5.915
 8845SOL    HW228495   3.042   8.047   5.921
 8846SOL     OW28496   2.169   7.661   6.817
 8846SOL    HW128497   2.146   7.698   6.907
 8846SOL    HW228498   2.139   7.566   6.811
 8847SOL     OW28499   1.899   8.758   6.868
 8847SOL    HW128500   1.952   8.709   6.936
 8847SOL    HW228501   1.921   8.856   6.873
 8848SOL     OW28502   2.594   8.082   6.650
 8848SOL    HW128503   2.653   8.056   6.574
 8848SOL    HW228504   2.566   8.178   6.639
 8849SOL     OW28505   3.590   8.383   7.440
 8849SOL    HW128506   3.544   8.376   7.351
 8849SOL    HW228507   3.528   8.427   7.506
 8850SOL     OW28508   2.169   7.511   6.204
 8850SOL    HW128509   2.158   7.605   6.237
 8850SOL    HW228510   2.164   7.448   6.281
 8851SOL     OW28511   3.484   7.815   5.960
 8851SOL    HW128512   3.486   7.739   6.024
 8851SOL    HW228513   3.436   7.892   6.000
 8852SOL     OW28514   2.885   8.214   6.552
 8852SOL    HW128515   2.900   8.235   6.648
 8852SOL    HW228516   2.855   8.119   6.543
 8853SOL     OW28517   3.721   8.966   7.191
 8853SOL    HW128518   3.735   8.993   7.096
 8853SOL    HW228519   3.804   8.988   7.244
 8854SOL     OW28520   2.212   8.346   7.390
 8854SOL    HW128521   2.288   8.390   7.438
 8854SOL    HW228522   2.247   8.299   7.308
 8855SOL     OW28523   3.402   7.722   5.711
 8855SOL    HW128524   3.341   7.647   5.734
 8855SOL    HW228525   3.424   7.774   5.794
 8856SOL     OW28526   3.165   8.286   5.628
 8856SOL    HW128527   3.199   8.193   5.643
 8856SOL    HW228528   3.183   8.313   5.533
 8857SOL     OW28529   2.930   8.781   6.435
 8857SOL    HW128530   2.937   8.697   6.380
 8857SOL    HW228531   2.992   8.850   6.399
 8858SOL     OW28532   2.181   8.258   6.535
 8858SOL    HW128533   2.274   8.294   6.540
 8858SOL    HW228534   2.175   8.173   6.587
 8859SOL     OW28535   2.201   7.957   6.592
 8859SOL    HW128536   2.149   7.874   6.575
 8859SOL    HW228537   2.278   7.962   6.528
 8860SOL     OW28538   2.373   7.863   7.394
 8860SOL    HW128539   2.355   7.908   7.482
 8860SOL    HW228540   2.415   7.928   7.331
 8861SOL     OW28541   3.000   7.828   7.264
 8861SOL    HW128542   2.955   7.891   7.328
 8861SOL    HW228543   3.093   7.859   7.247
 8862SOL     OW28544   3.022   7.655   7.063
 8862SOL    HW128545   3.022   7.719   7.140
 8862SOL    HW228546   3.050   7.703   6.980
 8863SOL     OW28547   1.870   8.774   5.786
 8863SOL    HW128548   1.777   8.795   5.755
 8863SOL    HW228549   1.880   8.675   5.799
 8864SOL     OW28550   2.864   8.244   6.824
 8864SOL    HW128551   2.905   8.212   6.910
 8864SOL    HW228552   2.768   8.217   6.821
 8865SOL     OW28553   1.902   7.992   6.700
 8865SOL    HW128554   1.987   7.959   6.659
 8865SOL    HW228555   1.915   8.007   6.798
 8866SOL     OW28556   2.051   7.968   7.308
 8866SOL    HW128557   2.110   7.928   7.238
 8866SOL    HW228558   1.993   8.039   7.267
 8867SOL     OW28559   3.231   8.398   7.246
 8867SOL    HW128560   3.270   8.487   7.266
 8867SOL    HW228561   3.241   8.378   7.149
 8868SOL     OW28562   2.677   8.020   5.911
 8868SOL    HW128563   2.684   7.931   5.865
 8868SOL    HW228564   2.583   8.054   5.903
 8869SOL     OW28565   3.519   8.052   6.792
 8869SOL    HW128566   3.481   7.983   6.854
 8869SOL    HW228567   3.601   8.016   6.748
 8870SOL     OW28568   2.114   0.012   7.330
 8870SOL    HW128569   2.084   0.069   7.406
 8870SOL    HW228570   2.107  -0.085   7.356
 8871SOL     OW28571   2.533   7.912   6.855
 8871SOL    HW128572   2.499   7.823   6.825
 8871SOL    HW228573   2.559   7.966   6.775
 8872SOL     OW28574   2.335   7.948   5.777
 8872SOL    HW128575   2.396   8.028   5.781
 8872SOL    HW228576   2.240   7.979   5.784
 8873SOL     OW28577   2.021   8.585   7.052
 8873SOL    HW128578   2.043   8.524   7.128
 8873SOL    HW228579   2.031   8.536   6.966
 8874SOL     OW28580   3.209   8.507   6.820
 8874SOL    HW128581   3.233   8.444   6.746
 8874SOL    HW228582   3.119   8.547   6.802
 8875SOL     OW28583   3.164   8.303   5.895
 8875SOL    HW128584   3.078   8.272   5.937
 8875SOL    HW228585   3.160   8.289   5.796
 8876SOL     OW28586   1.945   8.706   6.608
 8876SOL    HW128587   1.940   8.705   6.708
 8876SOL    HW228588   1.862   8.665   6.570
 8877SOL     OW28589   2.765   7.534   5.719
 8877SOL    HW128590   2.816   7.535   5.633
 8877SOL    HW228591   2.821   7.492   5.790
 8878SOL     OW28592   3.588   7.583   6.109
 8878SOL    HW128593   3.661   7.566   6.042
 8878SOL    HW228594   3.557   7.496   6.147
 8879SOL     OW28595   3.142   8.375   6.258
 8879SOL    HW128596   3.202   8.294   6.260
 8879SOL    HW228597   3.182   8.444   6.198
 8880SOL     OW28598   2.692   8.721   7.008
 8880SOL    HW128599   2.687   8.754   7.103
 8880SOL    HW228600   2.606   8.740   6.962
 8881SOL     OW28601   3.703   7.623   6.549
 8881SOL    HW128602   3.742   7.538   6.513
 8881SOL    HW228603   3.605   7.625   6.530
 8882SOL     OW28604   2.125   7.774   6.306
 8882SOL    HW128605   2.046   7.825   6.272
 8882SOL    HW228606   2.116   7.759   6.404
 8883SOL     OW28607   2.684   8.450   6.958
 8883SOL    HW128608   2.724   8.449   6.866
 8883SOL    HW228609   2.694   8.542   6.998
 8884SOL     OW28610   2.778   8.358   5.877
 8884SOL    HW128611   2.841   8.396   5.809
 8884SOL    HW228612   2.818   8.275   5.916
 8885SOL     OW28613   2.234   8.736   7.076
 8885SOL    HW128614   2.221   8.829   7.042
 8885SOL    HW228615   2.150   8.684   7.063
 8886SOL     OW28616   3.476   8.740   6.875
 8886SOL    HW128617   3.536   8.743   6.955
 8886SOL    HW228618   3.401   8.804   6.888
 8887SOL     OW28619   2.901   8.546   6.282
 8887SOL    HW128620   2.831   8.499   6.336
 8887SOL    HW228621   2.960   8.478   6.239
 8888SOL     OW28622   2.876   7.684   6.557
 8888SOL    HW128623   2.868   7.648   6.464
 8888SOL    HW228624   2.874   7.608   6.622
 8889SOL     OW28625   3.571   7.833   6.967
 8889SOL    HW128626   3.644   7.902   6.971
 8889SOL    HW228627   3.599   7.758   6.908
 8890SOL     OW28628   2.117   8.796   5.876
 8890SOL    HW128629   2.021   8.797   5.849
 8890SOL    HW228630   2.129   8.849   5.960
 8891SOL     OW28631   1.967   8.461   7.312
 8891SOL    HW128632   1.890   8.428   7.366
 8891SOL    HW228633   2.052   8.431   7.354
 8892SOL     OW28634   2.534   7.651   7.075
 8892SOL    HW128635   2.624   7.635   7.035
 8892SOL    HW228636   2.542   7.656   7.174
 8893SOL     OW28637   1.937   7.793   5.619
 8893SOL    HW128638   1.845   7.765   5.590
 8893SOL    HW228639   1.968   7.870   5.563
 8894SOL     OW28640   3.302   8.304   6.984
 8894SOL    HW128641   3.245   8.356   6.921
 8894SOL    HW228642   3.398   8.316   6.960
 8895SOL     OW28643   1.934   7.614   5.904
 8895SOL    HW128644   1.917   7.697   5.850
 8895SOL    HW228645   2.024   7.577   5.882
 8896SOL     OW28646   3.045   8.783   5.705
 8896SOL    HW128647   2.946   8.772   5.707
 8896SOL    HW228648   3.079   8.798   5.798
 8897SOL     OW28649   2.475   8.290   7.017
 8897SOL    HW128650   2.531   8.371   7.000
 8897SOL    HW228651   2.534   8.210   7.020
 8898SOL     OW28652   2.578   8.013   7.294
 8898SOL    HW128653   2.597   8.078   7.368
 8898SOL    HW228654   2.638   7.933   7.303
 8899SOL     OW28655   3.312   8.668   7.219
 8899SOL    HW128656   3.303   8.658   7.318
 8899SOL    HW228657   3.408   8.661   7.193
 8900SOL     OW28658   3.536   8.331   6.840
 8900SOL    HW128659   3.509   8.242   6.803
 8900SOL    HW228660   3.537   8.399   6.767
 8901SOL     OW28661   3.087   7.773   6.035
 8901SOL    HW128662   3.152   7.699   6.024
 8901SOL    HW228663   3.107   7.823   6.119
 8902SOL     OW28664   2.456   8.193   6.238
 8902SOL    HW128665   2.506   8.278   6.219
 8902SOL    HW228666   2.368   8.195   6.190
 8903SOL     OW28667   3.639   7.790   7.228
 8903SOL    HW128668   3.622   7.821   7.134
 8903SOL    HW228669   3.555   7.753   7.266
 8904SOL     OW28670   3.592   8.382   7.103
 8904SOL    HW128671   3.630   8.473   7.118
 8904SOL    HW228672   3.584   8.365   7.004
 8905SOL     OW28673   2.721   8.822   5.602
 8905SOL    HW128674   2.675   8.837   5.690
 8905SOL    HW228675   2.765   8.907   5.572
 8906SOL     OW28676   2.721   8.404   6.447
 8906SOL    HW128677   2.775   8.335   6.495
 8906SOL    HW228678   2.689   8.473   6.513
 8907SOL     OW28679   2.945   8.432   5.673
 8907SOL    HW128680   2.922   8.485   5.591
 8907SOL    HW228681   3.026   8.376   5.654
 8908SOL     OW28682   2.083   8.762   7.430
 8908SOL    HW128683   2.018   8.689   7.409
 8908SOL    HW228684   2.087   8.776   7.528
 8909SOL     OW28685   1.941   8.688   6.239
 8909SOL    HW128686   1.940   8.641   6.327
 8909SOL    HW228687   2.023   8.660   6.188
 8910SOL     OW28688   2.534   8.839   7.210
 8910SOL    HW128689   2.456   8.789   7.248
 8910SOL    HW228690   2.531   8.934   7.241
 8911SOL     OW28691   3.686   7.640   6.813
 8911SOL    HW128692   3.682   7.550   6.857
 8911SOL    HW228693   3.689   7.629   6.714
 8912SOL     OW28694   2.290   7.872   6.106
 8912SOL    HW128695   2.320   7.800   6.044
 8912SOL    HW228696   2.251   7.832   6.189
 8913SOL     OW28697   3.567   8.935   6.690
 8913SOL    HW128698   3.474   8.910   6.663
 8913SOL    HW228699   3.593   8.885   6.772
 8914SOL     OW28700   2.179   7.995   6.866
 8914SOL    HW128701   2.217   7.936   6.938
 8914SOL    HW228702   2.219   7.969   6.778
 8915SOL     OW28703   3.286   7.662   6.698
 8915SOL    HW128704   3.338   7.597   6.753
 8915SOL    HW228705   3.237   7.725   6.759
 8916SOL     OW28706   2.863   7.482   6.740
 8916SOL    HW128707   2.800   7.410   6.709
 8916SOL    HW228708   2.956   7.446   6.740
 8917SOL     OW28709   2.632   8.778   5.887
 8917SOL    HW128710   2.586   8.691   5.904
 8917SOL    HW228711   2.723   8.775   5.928
 8918SOL     OW28712   2.480   0.015   6.870
 8918SOL    HW128713   2.475   0.097   6.927
 8918SOL    HW228714   2.569   0.012   6.825
 8919SOL     OW28715   3.214   7.500   5.754
 8919SOL    HW128716   3.249   7.459   5.670
 8919SOL    HW228717   3.124   7.462   5.774
 8920SOL     OW28718   3.162   7.901   6.277
 8920SOL    HW128719   3.103   7.981   6.281
 8920SOL    HW228720   3.177   7.866   6.370
 8921SOL     OW28721   3.455   7.669   6.468
 8921SOL    HW128722   3.371   7.668   6.522
 8921SOL    HW228723   3.457   7.752   6.412
 8922SOL     OW28724   1.901   8.525   5.886
 8922SOL    HW128725   2.000   8.514   5.877
 8922SOL    HW228726   1.861   8.439   5.918
 8923SOL     OW28727   2.092   8.076   7.561
 8923SOL    HW128728   1.999   8.074   7.598
 8923SOL    HW228729   2.093   8.037   7.469
 8924SOL     OW28730   2.087   7.723   8.444
 8924SOL    HW128731   2.122   7.706   8.536
 8924SOL    HW228732   1.999   7.678   8.432
 8925SOL     OW28733   1.881   7.816   8.095
 8925SOL    HW128734   1.799   7.859   8.134
 8925SOL    HW228735   1.853   7.743   8.032
 8926SOL     OW28736   2.431   8.723   8.613
 8926SOL    HW128737   2.338   8.716   8.576
 8926SOL    HW228738   2.442   8.812   8.657
 8927SOL     OW28739   3.417   8.959   8.151
 8927SOL    HW128740   3.360   8.943   8.232
 8927SOL    HW228741   3.358   8.969   8.071
 8928SOL     OW28742   3.605   8.066   8.304
 8928SOL    HW128743   3.638   8.160   8.304
 8928SOL    HW228744   3.656   8.012   8.370
 8929SOL     OW28745   2.997   8.151   8.165
 8929SOL    HW128746   3.054   8.229   8.140
 8929SOL    HW228747   2.937   8.177   8.241
 8930SOL     OW28748   3.617   8.055   7.679
 8930SOL    HW128749   3.605   8.042   7.580
 8930SOL    HW228750   3.587   7.974   7.728
 8931SOL     OW28751   2.630   8.592   8.471
 8931SOL    HW128752   2.552   8.609   8.531
 8931SOL    HW228753   2.664   8.679   8.435
 8932SOL     OW28754   2.547   8.460   8.113
 8932SOL    HW128755   2.616   8.444   8.183
 8932SOL    HW228756   2.474   8.517   8.151
 8933SOL     OW28757   2.197   8.883   8.509
 8933SOL    HW128758   2.119   8.852   8.456
 8933SOL    HW228759   2.255   8.941   8.452
 8934SOL     OW28760   3.322   8.953   8.787
 8934SOL    HW128761   3.346   9.047   8.813
 8934SOL    HW228762   3.306   8.899   8.869
 8935SOL     OW28763   2.300   7.840   8.947
 8935SOL    HW128764   2.382   7.784   8.956
 8935SOL    HW228765   2.219   7.782   8.951
 8936SOL     OW28766   3.465   7.895   8.185
 8936SOL    HW128767   3.391   7.941   8.135
 8936SOL    HW228768   3.516   7.963   8.238
 8937SOL     OW28769   2.093   0.161   7.931
 8937SOL    HW128770   2.127   0.238   7.985
 8937SOL    HW228771   2.137   0.161   7.841
 8938SOL     OW28772   2.092   8.882   7.986
 8938SOL    HW128773   2.066   8.978   7.986
 8938SOL    HW228774   2.021   8.828   8.031
 8939SOL     OW28775   2.102   8.539   8.334
 8939SOL    HW128776   2.116   8.455   8.386
 8939SOL    HW228777   2.047   8.603   8.389
 8940SOL     OW28778   2.468   8.412   7.571
 8940SOL    HW128779   2.475   8.496   7.517
 8940SOL    HW228780   2.514   8.425   7.659
 8941SOL     OW28781   3.456   7.562   8.928
 8941SOL    HW128782   3.438   7.629   8.856
 8941SOL    HW228783   3.453   7.608   9.017
 8942SOL     OW28784   1.984   8.091   8.011
 8942SOL    HW128785   1.939   8.003   8.028
 8942SOL    HW228786   1.983   8.145   8.095
 8943SOL     OW28787   1.889   0.044   7.565
 8943SOL    HW128788   1.870  -0.052   7.586
 8943SOL    HW228789   1.856   0.102   7.640
 8944SOL     OW28790   3.551   8.370   8.060
 8944SOL    HW128791   3.646   8.341   8.068
 8944SOL    HW228792   3.543   8.435   7.985
 8945SOL     OW28793   3.503   8.556   7.880
 8945SOL    HW128794   3.589   8.558   7.828
 8945SOL    HW228795   3.517   8.603   7.968
 8946SOL     OW28796   2.475   8.813   8.174
 8946SOL    HW128797   2.426   8.726   8.183
 8946SOL    HW228798   2.452   8.856   8.087
 8947SOL     OW28799   2.671   7.452   7.950
 8947SOL    HW128800   2.711   7.543   7.941
 8947SOL    HW228801   2.571   7.460   7.956
 8948SOL     OW28802   2.059   8.424   8.712
 8948SOL    HW128803   2.148   8.379   8.698
 8948SOL    HW228804   1.986   8.359   8.693
 8949SOL     OW28805   3.387   8.447   7.638
 8949SOL    HW128806   3.324   8.371   7.651
 8949SOL    HW228807   3.435   8.465   7.724
 8950SOL     OW28808   3.328   8.865   8.401
 8950SOL    HW128809   3.269   8.871   8.481
 8950SOL    HW228810   3.313   8.777   8.355
 8951SOL     OW28811   2.460   8.177   7.718
 8951SOL    HW128812   2.484   8.246   7.650
 8951SOL    HW228813   2.382   8.210   7.772
 8952SOL     OW28814   3.143   7.793   8.392
 8952SOL    HW128815   3.057   7.743   8.379
 8952SOL    HW228816   3.205   7.739   8.448
 8953SOL     OW28817   2.669   8.053   8.913
 8953SOL    HW128818   2.622   8.050   9.002
 8953SOL    HW228819   2.618   7.998   8.847
 8954SOL     OW28820   2.853   7.858   8.690
 8954SOL    HW128821   2.776   7.892   8.744
 8954SOL    HW228822   2.819   7.807   8.611
 8955SOL     OW28823   2.903   8.149   7.877
 8955SOL    HW128824   2.929   8.145   7.973
 8955SOL    HW228825   2.818   8.098   7.863
 8956SOL     OW28826   1.938   8.259   8.237
 8956SOL    HW128827   2.037   8.247   8.246
 8956SOL    HW228828   1.914   8.354   8.258
 8957SOL     OW28829   2.727   7.796   7.643
 8957SOL    HW128830   2.786   7.859   7.594
 8957SOL    HW228831   2.746   7.702   7.614
 8958SOL     OW28832   3.224   8.592   7.993
 8958SOL    HW128833   3.307   8.563   7.945
 8958SOL    HW228834   3.175   8.659   7.937
 8959SOL     OW28835   2.412   7.644   8.333
 8959SOL    HW128836   2.407   7.639   8.433
 8959SOL    HW228837   2.414   7.740   8.304
 8960SOL     OW28838   2.870   8.904   7.925
 8960SOL    HW128839   2.824   8.976   7.873
 8960SOL    HW228840   2.866   8.924   8.023
 8961SOL     OW28841   3.657   8.514   8.321
 8961SOL    HW128842   3.595   8.499   8.245
 8961SOL    HW228843   3.605   8.525   8.406
 8962SOL     OW28844   3.089   8.998   8.954
 8962SOL    HW128845   3.095   8.921   9.018
 8962SOL    HW228846   3.037   8.972   8.874
 8963SOL     OW28847   2.183   8.391   7.690
 8963SOL    HW128848   2.265   8.430   7.648
 8963SOL    HW228849   2.156   8.309   7.641
 8964SOL     OW28850   3.320   8.183   8.176
 8964SOL    HW128851   3.315   8.118   8.251
 8964SOL    HW228852   3.400   8.242   8.189
 8965SOL     OW28853   2.973   0.224   7.685
 8965SOL    HW128854   2.913   0.162   7.735
 8965SOL    HW228855   3.004   0.180   7.600
 8966SOL     OW28856   2.064   7.733   8.946
 8966SOL    HW128857   1.984   7.793   8.933
 8966SOL    HW228858   2.054   7.684   9.032
 8967SOL     OW28859   3.494   8.825   7.529
 8967SOL    HW128860   3.462   8.919   7.519
 8967SOL    HW228861   3.418   8.762   7.517
 8968SOL     OW28862   3.262   7.555   7.874
 8968SOL    HW128863   3.238   7.518   7.784
 8968SOL    HW228864   3.361   7.571   7.878
 8969SOL     OW28865   2.244   8.148   7.928
 8969SOL    HW128866   2.289   8.058   7.925
 8969SOL    HW228867   2.150   8.137   7.961
 8970SOL     OW28868   2.476   7.570   7.565
 8970SOL    HW128869   2.574   7.548   7.572
 8970SOL    HW228870   2.445   7.553   7.472
 8971SOL     OW28871   2.665   8.850   8.372
 8971SOL    HW128872   2.755   8.864   8.330
 8971SOL    HW228873   2.594   8.852   8.301
 8972SOL     OW28874   2.784   7.951   8.347
 8972SOL    HW128875   2.759   7.942   8.251
 8972SOL    HW228876   2.832   7.869   8.378
 8973SOL     OW28877   2.401   7.512   7.960
 8973SOL    HW128878   2.320   7.513   8.018
 8973SOL    HW228879   2.404   7.595   7.905
 8974SOL     OW28880   3.296   8.636   7.489
 8974SOL    HW128881   3.328   8.560   7.546
 8974SOL    HW228882   3.204   8.663   7.519
 8975SOL     OW28883   2.159   7.483   7.619
 8975SOL    HW128884   2.208   7.567   7.598
 8975SOL    HW228885   2.221   7.418   7.664
 8976SOL     OW28886   2.797   7.684   7.928
 8976SOL    HW128887   2.749   7.725   7.850
 8976SOL    HW228888   2.896   7.682   7.909
 8977SOL     OW28889   3.089   0.018   8.241
 8977SOL    HW128890   3.110   0.092   8.176
 8977SOL    HW228891   3.157   0.018   8.314
 8978SOL     OW28892   2.321   8.600   8.189
 8978SOL    HW128893   2.250   8.573   8.254
 8978SOL    HW228894   2.295   8.572   8.096
 8979SOL     OW28895   2.894   7.997   7.464
 8979SOL    HW128896   2.853   8.079   7.425
 8979SOL    HW228897   2.958   8.023   7.537
 8980SOL     OW28898   1.940   8.004   8.834
 8980SOL    HW128899   2.032   8.003   8.793
 8980SOL    HW228900   1.934   8.078   8.901
 8981SOL     OW28901   2.423   7.670   8.595
 8981SOL    HW128902   2.461   7.586   8.632
 8981SOL    HW228903   2.335   7.689   8.639
 8982SOL     OW28904   2.728   7.902   8.090
 8982SOL    HW128905   2.696   7.974   8.028
 8982SOL    HW228906   2.752   7.821   8.037
 8983SOL     OW28907   2.879   7.487   8.201
 8983SOL    HW128908   2.807   7.492   8.132
 8983SOL    HW228909   2.855   7.418   8.270
 8984SOL     OW28910   3.291   8.621   8.315
 8984SOL    HW128911   3.236   8.537   8.308
 8984SOL    HW228912   3.317   8.650   8.223
 8985SOL     OW28913   3.328   8.038   8.440
 8985SOL    HW128914   3.298   7.943   8.447
 8985SOL    HW228915   3.401   8.054   8.506
 8986SOL     OW28916   3.719   8.281   7.825
 8986SOL    HW128917   3.761   8.217   7.889
 8986SOL    HW228918   3.681   8.230   7.747
 8987SOL     OW28919   2.350   8.833   7.622
 8987SOL    HW128920   2.263   8.818   7.669
 8987SOL    HW228921   2.333   8.859   7.527
 8988SOL     OW28922   3.526   8.728   8.105
 8988SOL    HW128923   3.625   8.736   8.119
 8988SOL    HW228924   3.481   8.812   8.136
 8989SOL     OW28925   3.252   8.023   7.526
 8989SOL    HW128926   3.198   8.002   7.607
 8989SOL    HW228927   3.343   7.982   7.535
 8990SOL     OW28928   2.389   7.704   7.776
 8990SOL    HW128929   2.416   7.645   7.701
 8990SOL    HW228930   2.389   7.799   7.745
 8991SOL     OW28931   2.926   8.795   8.788
 8991SOL    HW128932   2.846   8.772   8.843
 8991SOL    HW228933   3.009   8.769   8.837
 8992SOL     OW28934   2.973   8.643   8.548
 8992SOL    HW128935   2.933   8.687   8.629
 8992SOL    HW228936   2.932   8.680   8.465
 8993SOL     OW28937   3.500   8.547   8.527
 8993SOL    HW128938   3.505   8.628   8.586
 8993SOL    HW228939   3.414   8.549   8.476
 8994SOL     OW28940   2.777   7.537   8.850
 8994SOL    HW128941   2.802   7.517   8.755
 8994SOL    HW228942   2.849   7.593   8.892
 8995SOL     OW28943   2.567   8.498   7.816
 8995SOL    HW128944   2.553   8.505   7.915
 8995SOL    HW228945   2.651   8.447   7.798
 8996SOL     OW28946   2.272   8.261   8.699
 8996SOL    HW128947   2.358   8.273   8.749
 8996SOL    HW228948   2.230   8.174   8.726
 8997SOL     OW28949   3.136   7.834   8.710
 8997SOL    HW128950   3.157   7.908   8.774
 8997SOL    HW228951   3.047   7.851   8.667
 8998SOL     OW28952   2.229   8.548   7.949
 8998SOL    HW128953   2.222   8.631   7.893
 8998SOL    HW228954   2.233   8.468   7.889
 8999SOL     OW28955   2.428   7.985   8.313
 8999SOL    HW128956   2.440   8.051   8.239
 8999SOL    HW228957   2.474   8.019   8.396
 9000SOL     OW28958   3.114   8.796   7.836
 9000SOL    HW128959   3.164   8.873   7.876
 9000SOL    HW228960   3.019   8.798   7.868
 9001SOL     OW28961   3.134   8.893   8.590
 9001SOL    HW128962   3.181   8.906   8.677
 9001SOL    HW228963   3.068   8.819   8.599
 9002SOL     OW28964   3.444   8.087   7.920
 9002SOL    HW128965   3.413   8.148   7.993
 9002SOL    HW228966   3.494   8.139   7.851
 9003SOL     OW28967   2.216   8.958   8.777
 9003SOL    HW128968   2.195   8.914   8.690
 9003SOL    HW228969   2.313   8.984   8.780
 9004SOL     OW28970   2.264   8.199   0.046
 9004SOL    HW128971   2.332   8.254  -0.001
 9004SOL    HW228972   2.304   8.111   0.073
 9005SOL     OW28973   3.449   8.227   0.118
 9005SOL    HW128974   3.357   8.265   0.113
 9005SOL    HW228975   3.509   8.274   0.053
 9006SOL     OW28976   2.435   8.318   8.477
 9006SOL    HW128977   2.479   8.407   8.468
 9006SOL    HW228978   2.372   8.318   8.554
 9007SOL     OW28979   3.222   8.310   8.493
 9007SOL    HW128980   3.147   8.310   8.427
 9007SOL    HW228981   3.259   8.218   8.502
 9008SOL     OW28982   3.071   7.973   7.723
 9008SOL    HW128983   3.084   7.889   7.777
 9008SOL    HW228984   3.042   8.047   7.783
 9009SOL     OW28985   2.169   7.661   8.679
 9009SOL    HW128986   2.146   7.698   8.769
 9009SOL    HW228987   2.139   7.566   8.673
 9010SOL     OW28988   1.899   8.758   8.730
 9010SOL    HW128989   1.952   8.709   8.798
 9010SOL    HW228990   1.921   8.856   8.735
 9011SOL     OW28991   2.594   8.082   8.512
 9011SOL    HW128992   2.653   8.056   8.436
 9011SOL    HW228993   2.566   8.178   8.501
 9012SOL     OW28994   2.169   7.511   8.066
 9012SOL    HW128995   2.158   7.605   8.099
 9012SOL    HW228996   2.164   7.448   8.143
 9013SOL     OW28997   3.484   7.815   7.822
 9013SOL    HW128998   3.486   7.739   7.886
 9013SOL    HW228999   3.436   7.892   7.862
 9014SOL     OW29000   2.885   8.214   8.414
 9014SOL    HW129001   2.900   8.235   8.510
 9014SOL    HW229002   2.855   8.119   8.405
 9015SOL     OW29003   3.721   8.966   0.053
 9015SOL    HW129004   3.735   8.993  -0.042
 9015SOL    HW229005   3.804   8.988   0.106
 9016SOL     OW29006   3.402   7.722   7.573
 9016SOL    HW129007   3.341   7.647   7.596
 9016SOL    HW229008   3.424   7.774   7.656
 9017SOL     OW29009   3.165   8.286   7.490
 9017SOL    HW129010   3.199   8.193   7.505
 9017SOL    HW229011   3.183   8.313   7.395
 9018SOL     OW29012   2.930   8.781   8.297
 9018SOL    HW129013   2.937   8.697   8.242
 9018SOL    HW229014   2.992   8.850   8.261
 9019SOL     OW29015   2.181   8.258   8.397
 9019SOL    HW129016   2.274   8.294   8.402
 9019SOL    HW229017   2.175   8.173   8.449
 9020SOL     OW29018   2.201   7.957   8.454
 9020SOL    HW129019   2.149   7.874   8.437
 9020SOL    HW229020   2.278   7.962   8.390
 9021SOL     OW29021   3.000   7.828   0.126
 9021SOL    HW129022   2.955   7.891   0.190
 9021SOL    HW229023   3.093   7.859   0.109
 9022SOL     OW29024   3.022   7.655   8.925
 9022SOL    HW129025   3.022   7.719   9.002
 9022SOL    HW229026   3.050   7.703   8.842
 9023SOL     OW29027   1.870   8.774   7.648
 9023SOL    HW129028   1.777   8.795   7.617
 9023SOL    HW229029   1.880   8.675   7.661
 9024SOL     OW29030   2.864   8.244   8.686
 9024SOL    HW129031   2.905   8.212   8.772
 9024SOL    HW229032   2.768   8.217   8.683
 9025SOL     OW29033   1.902   7.992   8.562
 9025SOL    HW129034   1.987   7.959   8.521
 9025SOL    HW229035   1.915   8.007   8.660
 9026SOL     OW29036   2.677   8.020   7.773
 9026SOL    HW129037   2.684   7.931   7.727
 9026SOL    HW229038   2.583   8.054   7.765
 9027SOL     OW29039   3.519   8.052   8.654
 9027SOL    HW129040   3.481   7.983   8.716
 9027SOL    HW229041   3.601   8.016   8.610
 9028SOL     OW29042   2.533   7.912   8.717
 9028SOL    HW129043   2.499   7.823   8.687
 9028SOL    HW229044   2.559   7.966   8.637
 9029SOL     OW29045   2.335   7.948   7.639
 9029SOL    HW129046   2.396   8.028   7.643
 9029SOL    HW229047   2.240   7.979   7.646
 9030SOL     OW29048   2.021   8.585   8.914
 9030SOL    HW129049   2.043   8.524   8.990
 9030SOL    HW229050   2.031   8.536   8.828
 9031SOL     OW29051   3.209   8.507   8.682
 9031SOL    HW129052   3.233   8.444   8.608
 9031SOL    HW229053   3.119   8.547   8.664
 9032SOL     OW29054   3.164   8.303   7.757
 9032SOL    HW129055   3.078   8.272   7.799
 9032SOL    HW229056   3.160   8.289   7.658
 9033SOL     OW29057   1.945   8.706   8.470
 9033SOL    HW129058   1.940   8.705   8.570
 9033SOL    HW229059   1.862   8.665   8.432
 9034SOL     OW29060   2.765   7.534   7.581
 9034SOL    HW129061   2.816   7.535   7.495
 9034SOL    HW229062   2.821   7.492   7.652
 9035SOL     OW29063   3.588   7.583   7.971
 9035SOL    HW129064   3.661   7.566   7.904
 9035SOL    HW229065   3.557   7.496   8.009
 9036SOL     OW29066   3.142   8.375   8.120
 9036SOL    HW129067   3.202   8.294   8.122
 9036SOL    HW229068   3.182   8.444   8.060
 9037SOL     OW29069   3.703   7.623   8.411
 9037SOL    HW129070   3.742   7.538   8.375
 9037SOL    HW229071   3.605   7.625   8.392
 9038SOL     OW29072   2.125   7.774   8.168
 9038SOL    HW129073   2.046   7.825   8.134
 9038SOL    HW229074   2.116   7.759   8.266
 9039SOL     OW29075   2.684   8.450   8.820
 9039SOL    HW129076   2.724   8.449   8.728
 9039SOL    HW229077   2.694   8.542   8.860
 9040SOL     OW29078   2.778   8.358   7.739
 9040SOL    HW129079   2.841   8.396   7.671
 9040SOL    HW229080   2.818   8.275   7.778
 9041SOL     OW29081   2.234   8.736   8.938
 9041SOL    HW129082   2.221   8.829   8.904
 9041SOL    HW229083   2.150   8.684   8.925
 9042SOL     OW29084   3.476   8.740   8.737
 9042SOL    HW129085   3.536   8.743   8.817
 9042SOL    HW229086   3.401   8.804   8.750
 9043SOL     OW29087   2.901   8.546   8.144
 9043SOL    HW129088   2.831   8.499   8.198
 9043SOL    HW229089   2.960   8.478   8.101
 9044SOL     OW29090   2.876   7.684   8.419
 9044SOL    HW129091   2.868   7.648   8.326
 9044SOL    HW229092   2.874   7.608   8.484
 9045SOL     OW29093   3.571   7.833   8.829
 9045SOL    HW129094   3.644   7.902   8.833
 9045SOL    HW229095   3.599   7.758   8.770
 9046SOL     OW29096   2.117   8.796   7.738
 9046SOL    HW129097   2.021   8.797   7.711
 9046SOL    HW229098   2.129   8.849   7.822
 9047SOL     OW29099   1.937   7.793   7.481
 9047SOL    HW129100   1.845   7.765   7.452
 9047SOL    HW229101   1.968   7.870   7.425
 9048SOL     OW29102   3.302   8.304   8.846
 9048SOL    HW129103   3.245   8.356   8.783
 9048SOL    HW229104   3.398   8.316   8.822
 9049SOL     OW29105   1.934   7.614   7.766
 9049SOL    HW129106   1.917   7.697   7.712
 9049SOL    HW229107   2.024   7.577   7.744
 9050SOL     OW29108   3.045   8.783   7.567
 9050SOL    HW129109   2.946   8.772   7.569
 9050SOL    HW229110   3.079   8.798   7.660
 9051SOL     OW29111   2.475   8.290   8.879
 9051SOL    HW129112   2.531   8.371   8.862
 9051SOL    HW229113   2.534   8.210   8.882
 9052SOL     OW29114   3.536   8.331   8.702
 9052SOL    HW129115   3.509   8.242   8.665
 9052SOL    HW229116   3.537   8.399   8.629
 9053SOL     OW29117   3.087   7.773   7.897
 9053SOL    HW129118   3.152   7.699   7.886
 9053SOL    HW229119   3.107   7.823   7.981
 9054SOL     OW29120   2.456   8.193   8.100
 9054SOL    HW129121   2.506   8.278   8.081
 9054SOL    HW229122   2.368   8.195   8.052
 9055SOL     OW29123   3.639   7.790   0.090
 9055SOL    HW129124   3.622   7.821  -0.004
 9055SOL    HW229125   3.555   7.753   0.128
 9056SOL     OW29126   3.592   8.382   8.965
 9056SOL    HW129127   3.630   8.473   8.980
 9056SOL    HW229128   3.584   8.365   8.866
 9057SOL     OW29129   2.721   8.822   7.464
 9057SOL    HW129130   2.675   8.837   7.552
 9057SOL    HW229131   2.765   8.907   7.434
 9058SOL     OW29132   2.721   8.404   8.309
 9058SOL    HW129133   2.775   8.335   8.357
 9058SOL    HW229134   2.689   8.473   8.375
 9059SOL     OW29135   2.945   8.432   7.535
 9059SOL    HW129136   2.922   8.485   7.453
 9059SOL    HW229137   3.026   8.376   7.516
 9060SOL     OW29138   1.941   8.688   8.101
 9060SOL    HW129139   1.940   8.641   8.189
 9060SOL    HW229140   2.023   8.660   8.050
 9061SOL     OW29141   3.686   7.640   8.675
 9061SOL    HW129142   3.682   7.550   8.719
 9061SOL    HW229143   3.689   7.629   8.576
 9062SOL     OW29144   2.290   7.872   7.968
 9062SOL    HW129145   2.320   7.800   7.906
 9062SOL    HW229146   2.251   7.832   8.051
 9063SOL     OW29147   3.567   8.935   8.552
 9063SOL    HW129148   3.474   8.910   8.525
 9063SOL    HW229149   3.593   8.885   8.634
 9064SOL     OW29150   2.179   7.995   8.728
 9064SOL    HW129151   2.217   7.936   8.800
 9064SOL    HW229152   2.219   7.969   8.640
 9065SOL     OW29153   3.286   7.662   8.560
 9065SOL    HW129154   3.338   7.597   8.615
 9065SOL    HW229155   3.237   7.725   8.621
 9066SOL     OW29156   2.863   7.482   8.602
 9066SOL    HW129157   2.800   7.410   8.571
 9066SOL    HW229158   2.956   7.446   8.602
 9067SOL     OW29159   2.632   8.778   7.749
 9067SOL    HW129160   2.586   8.691   7.766
 9067SOL    HW229161   2.723   8.775   7.790
 9068SOL     OW29162   2.480   0.015   8.732
 9068SOL    HW129163   2.475   0.097   8.789
 9068SOL    HW229164   2.569   0.012   8.687
 9069SOL     OW29165   3.214   7.500   7.616
 9069SOL    HW129166   3.249   7.459   7.532
 9069SOL    HW229167   3.124   7.462   7.636
 9070SOL     OW29168   3.162   7.901   8.139
 9070SOL    HW129169   3.103   7.981   8.143
 9070SOL    HW229170   3.177   7.866   8.232
 9071SOL     OW29171   3.455   7.669   8.330
 9071SOL    HW129172   3.371   7.668   8.384
 9071SOL    HW229173   3.457   7.752   8.274
 9072SOL     OW29174   1.901   8.525   7.748
 9072SOL    HW129175   2.000   8.514   7.739
 9072SOL    HW229176   1.861   8.439   7.780
 9073SOL     OW29177   3.954   0.628   0.113
 9073SOL    HW129178   3.861   0.626   0.150
 9073SOL    HW229179   3.955   0.589   0.021
 9074SOL     OW29180   3.949   0.275   0.996
 9074SOL    HW129181   3.984   0.258   1.088
 9074SOL    HW229182   3.861   0.230   0.984
 9075SOL     OW29183   3.743   0.368   0.647
 9075SOL    HW129184   3.661   0.411   0.686
 9075SOL    HW229185   3.715   0.295   0.584
 9076SOL     OW29186   4.293   1.275   1.165
 9076SOL    HW129187   4.200   1.268   1.128
 9076SOL    HW229188   4.304   1.364   1.209
 9077SOL     OW29189   5.279   1.511   0.703
 9077SOL    HW129190   5.222   1.495   0.784
 9077SOL    HW229191   5.220   1.521   0.623
 9078SOL     OW29192   5.467   0.618   0.856
 9078SOL    HW129193   5.500   0.712   0.856
 9078SOL    HW229194   5.518   0.564   0.922
 9079SOL     OW29195   4.859   0.703   0.717
 9079SOL    HW129196   4.916   0.781   0.692
 9079SOL    HW229197   4.799   0.729   0.793
 9080SOL     OW29198   5.479   0.607   0.231
 9080SOL    HW129199   5.467   0.594   0.132
 9080SOL    HW229200   5.449   0.526   0.280
 9081SOL     OW29201   4.492   1.144   1.023
 9081SOL    HW129202   4.414   1.161   1.083
 9081SOL    HW229203   4.526   1.231   0.987
 9082SOL     OW29204   4.574   0.798   1.823
 9082SOL    HW129205   4.570   0.874   1.888
 9082SOL    HW229206   4.596   0.834   1.732
 9083SOL     OW29207   4.409   1.012   0.665
 9083SOL    HW129208   4.478   0.996   0.735
 9083SOL    HW229209   4.336   1.069   0.703
 9084SOL     OW29210   4.410   1.161   1.803
 9084SOL    HW129211   4.470   1.240   1.817
 9084SOL    HW229212   4.324   1.192   1.762
 9085SOL     OW29213   4.059   1.435   1.061
 9085SOL    HW129214   3.981   1.404   1.008
 9085SOL    HW229215   4.117   1.493   1.004
 9086SOL     OW29216   5.184   1.505   1.339
 9086SOL    HW129217   5.208   1.599   1.365
 9086SOL    HW229218   5.168   1.451   1.421
 9087SOL     OW29219   4.162   0.392   1.499
 9087SOL    HW129220   4.244   0.336   1.508
 9087SOL    HW229221   4.081   0.334   1.503
 9088SOL     OW29222   5.327   0.447   0.737
 9088SOL    HW129223   5.253   0.493   0.687
 9088SOL    HW229224   5.378   0.515   0.790
 9089SOL     OW29225   3.955   1.713   0.483
 9089SOL    HW129226   3.989   1.790   0.537
 9089SOL    HW229227   3.999   1.713   0.393
 9090SOL     OW29228   4.851   1.341   1.690
 9090SOL    HW129229   4.898   1.341   1.778
 9090SOL    HW229230   4.803   1.254   1.679
 9091SOL     OW29231   3.954   1.434   0.538
 9091SOL    HW129232   3.928   1.530   0.538
 9091SOL    HW229233   3.883   1.380   0.583
 9092SOL     OW29234   3.964   1.091   0.886
 9092SOL    HW129235   3.978   1.007   0.938
 9092SOL    HW229236   3.909   1.155   0.941
 9093SOL     OW29237   4.344   1.786   1.439
 9093SOL    HW129238   4.252   1.769   1.474
 9093SOL    HW229239   4.372   1.878   1.465
 9094SOL     OW29240   4.330   0.964   0.123
 9094SOL    HW129241   4.337   1.048   0.069
 9094SOL    HW229242   4.376   0.977   0.211
 9095SOL     OW29243   5.318   0.114   1.480
 9095SOL    HW129244   5.300   0.181   1.408
 9095SOL    HW229245   5.315   0.160   1.569
 9096SOL     OW29246   3.846   0.643   0.563
 9096SOL    HW129247   3.801   0.555   0.580
 9096SOL    HW229248   3.845   0.697   0.647
 9097SOL     OW29249   5.566   1.767   0.359
 9097SOL    HW129250   5.620   1.738   0.439
 9097SOL    HW229251   5.596   1.857   0.330
 9098SOL     OW29252   5.413   0.922   0.612
 9098SOL    HW129253   5.508   0.893   0.620
 9098SOL    HW229254   5.405   0.987   0.537
 9099SOL     OW29255   5.365   1.108   0.432
 9099SOL    HW129256   5.451   1.110   0.380
 9099SOL    HW229257   5.379   1.155   0.520
 9100SOL     OW29258   3.837   0.737   1.597
 9100SOL    HW129259   3.925   0.724   1.642
 9100SOL    HW229260   3.824   0.834   1.575
 9101SOL     OW29261   4.337   1.365   0.726
 9101SOL    HW129262   4.288   1.278   0.735
 9101SOL    HW229263   4.314   1.408   0.639
 9102SOL     OW29264   5.017   1.228   1.423
 9102SOL    HW129265   5.054   1.155   1.365
 9102SOL    HW229266   5.069   1.233   1.508
 9103SOL     OW29267   4.533   0.004   0.502
 9103SOL    HW129268   4.573   0.095   0.493
 9103SOL    HW229269   4.433   0.012   0.508
 9104SOL     OW29270   3.921   0.976   1.264
 9104SOL    HW129271   4.010   0.931   1.250
 9104SOL    HW229272   3.848   0.911   1.245
 9105SOL     OW29273   5.249   0.999   0.190
 9105SOL    HW129274   5.186   0.923   0.203
 9105SOL    HW229275   5.297   1.017   0.276
 9106SOL     OW29276   4.911   1.792   1.616
 9106SOL    HW129277   4.935   1.852   1.540
 9106SOL    HW229278   4.918   1.697   1.586
 9107SOL     OW29279   4.041   0.251   1.801
 9107SOL    HW129280   4.112   0.322   1.807
 9107SOL    HW229281   3.953   0.290   1.829
 9108SOL     OW29282   5.190   1.417   0.953
 9108SOL    HW129283   5.131   1.423   1.033
 9108SOL    HW229284   5.175   1.329   0.907
 9109SOL     OW29285   5.391   1.714   0.572
 9109SOL    HW129286   5.350   1.691   0.484
 9109SOL    HW229287   5.373   1.640   0.637
 9110SOL     OW29288   4.322   0.729   0.270
 9110SOL    HW129289   4.346   0.798   0.202
 9110SOL    HW229290   4.244   0.762   0.324
 9111SOL     OW29291   5.005   0.345   0.944
 9111SOL    HW129292   4.919   0.295   0.931
 9111SOL    HW229293   5.067   0.291   1.000
 9112SOL     OW29294   5.300   1.662   0.307
 9112SOL    HW129295   5.389   1.708   0.310
 9112SOL    HW229296   5.279   1.638   0.212
 9113SOL     OW29297   4.531   0.605   1.465
 9113SOL    HW129298   4.484   0.602   1.554
 9113SOL    HW229299   4.480   0.550   1.399
 9114SOL     OW29300   5.118   0.469   1.674
 9114SOL    HW129301   5.098   0.512   1.762
 9114SOL    HW229302   5.196   0.407   1.683
 9115SOL     OW29303   4.697   0.890   1.572
 9115SOL    HW129304   4.743   0.806   1.543
 9115SOL    HW229305   4.641   0.924   1.497
 9116SOL     OW29306   4.715   0.410   1.242
 9116SOL    HW129307   4.638   0.444   1.296
 9116SOL    HW229308   4.681   0.359   1.163
 9117SOL     OW29309   4.765   0.701   0.429
 9117SOL    HW129310   4.791   0.697   0.525
 9117SOL    HW229311   4.680   0.650   0.415
 9118SOL     OW29312   3.800   0.811   0.789
 9118SOL    HW129313   3.899   0.799   0.798
 9118SOL    HW229314   3.776   0.906   0.810
 9119SOL     OW29315   3.854   1.821   1.571
 9119SOL    HW129316   3.844   1.806   1.670
 9119SOL    HW229317   3.768   1.857   1.535
 9120SOL     OW29318   4.589   0.348   0.195
 9120SOL    HW129319   4.648   0.411   0.146
 9120SOL    HW229320   4.608   0.254   0.166
 9121SOL     OW29321   5.443   0.585   1.831
 9121SOL    HW129322   5.417   0.674   1.795
 9121SOL    HW229323   5.441   0.517   1.758
 9122SOL     OW29324   5.086   1.144   0.545
 9122SOL    HW129325   5.169   1.115   0.497
 9122SOL    HW229326   5.037   1.211   0.489
 9123SOL     OW29327   4.274   0.196   0.885
 9123SOL    HW129328   4.269   0.191   0.985
 9123SOL    HW229329   4.276   0.292   0.856
 9124SOL     OW29330   4.732   1.456   0.477
 9124SOL    HW129331   4.686   1.528   0.425
 9124SOL    HW229332   4.728   1.476   0.575
 9125SOL     OW29333   4.075   1.801   0.853
 9125SOL    HW129334   4.125   1.715   0.859
 9125SOL    HW229335   4.140   1.878   0.850
 9126SOL     OW29336   5.519   1.066   0.873
 9126SOL    HW129337   5.457   1.051   0.797
 9126SOL    HW229338   5.467   1.077   0.958
 9127SOL     OW29339   4.951   1.550   1.506
 9127SOL    HW129340   4.957   1.473   1.570
 9127SOL    HW229341   4.899   1.524   1.426
 9128SOL     OW29342   4.045   0.943   0.242
 9128SOL    HW129343   4.127   0.982   0.200
 9128SOL    HW229344   4.018   0.861   0.193
 9129SOL     OW29345   5.182   0.735   0.728
 9129SOL    HW129346   5.177   0.670   0.803
 9129SOL    HW229347   5.262   0.794   0.741
 9130SOL     OW29348   4.185   1.266   1.727
 9130SOL    HW129349   4.135   1.267   1.641
 9130SOL    HW229350   4.122   1.248   1.803
 9131SOL     OW29351   4.835   1.776   0.237
 9131SOL    HW129352   4.775   1.714   0.287
 9131SOL    HW229353   4.866   1.732   0.152
 9132SOL     OW29354   3.926   0.285   1.498
 9132SOL    HW129355   3.846   0.345   1.485
 9132SOL    HW229356   3.916   0.236   1.584
 9133SOL     OW29357   5.356   1.377   0.081
 9133SOL    HW129358   5.324   1.471   0.071
 9133SOL    HW229359   5.280   1.314   0.069
 9134SOL     OW29360   4.188   1.743   0.323
 9134SOL    HW129361   4.221   1.782   0.409
 9134SOL    HW229362   4.264   1.736   0.258
 9135SOL     OW29363   5.124   0.107   0.426
 9135SOL    HW129364   5.100   0.070   0.336
 9135SOL    HW229365   5.223   0.123   0.430
 9136SOL     OW29366   3.973   1.785   1.241
 9136SOL    HW129367   4.030   1.720   1.291
 9136SOL    HW229368   3.957   1.752   1.148
 9137SOL     OW29369   4.664   1.698   0.904
 9137SOL    HW129370   4.744   1.641   0.925
 9137SOL    HW229371   4.615   1.658   0.827
 9138SOL     OW29372   4.106   0.700   0.480
 9138SOL    HW129373   4.151   0.610   0.477
 9138SOL    HW229374   4.012   0.689   0.513
 9139SOL     OW29375   5.271   0.222   1.729
 9139SOL    HW129376   5.266   0.259   1.821
 9139SOL    HW229377   5.199   0.153   1.717
 9140SOL     OW29378   4.338   0.122   0.117
 9140SOL    HW129379   4.436   0.100   0.124
 9140SOL    HW229380   4.307   0.105   0.024
 9141SOL     OW29381   4.505   0.264   1.749
 9141SOL    HW129382   4.572   0.203   1.792
 9141SOL    HW229383   4.432   0.283   1.814
 9142SOL     OW29384   4.612   1.514   1.195
 9142SOL    HW129385   4.589   1.489   1.101
 9142SOL    HW229386   4.673   1.445   1.234
 9143SOL     OW29387   5.075   0.590   1.433
 9143SOL    HW129388   5.103   0.547   1.518
 9143SOL    HW229389   5.100   0.686   1.434
 9144SOL     OW29390   4.527   1.402   0.924
 9144SOL    HW129391   4.617   1.416   0.882
 9144SOL    HW229392   4.456   1.404   0.853
 9145SOL     OW29393   4.646   0.503   0.899
 9145SOL    HW129394   4.621   0.494   0.803
 9145SOL    HW229395   4.694   0.421   0.930
 9146SOL     OW29396   4.263   0.064   0.512
 9146SOL    HW129397   4.182   0.065   0.570
 9146SOL    HW229398   4.266   0.147   0.457
 9147SOL     OW29399   5.158   1.188   0.041
 9147SOL    HW129400   5.190   1.112   0.098
 9147SOL    HW229401   5.066   1.215   0.071
 9148SOL     OW29402   4.021   0.035   0.171
 9148SOL    HW129403   4.070   0.119   0.150
 9148SOL    HW229404   4.083  -0.030   0.216
 9149SOL     OW29405   4.659   0.236   0.480
 9149SOL    HW129406   4.611   0.277   0.402
 9149SOL    HW229407   4.758   0.234   0.461
 9150SOL     OW29408   4.800   0.683   1.464
 9150SOL    HW129409   4.720   0.622   1.467
 9150SOL    HW229410   4.881   0.630   1.440
 9151SOL     OW29411   4.951   1.570   0.793
 9151SOL    HW129412   4.972   1.644   0.728
 9151SOL    HW229413   5.019   1.570   0.866
 9152SOL     OW29414   4.183   1.152   0.741
 9152SOL    HW129415   4.112   1.125   0.806
 9152SOL    HW229416   4.157   1.124   0.648
 9153SOL     OW29417   4.995   1.797   0.591
 9153SOL    HW129418   5.039   1.861   0.527
 9153SOL    HW229419   4.945   1.849   0.661
 9154SOL     OW29420   4.756   0.549   0.016
 9154SOL    HW129421   4.715   0.631  -0.023
 9154SOL    HW229422   4.820   0.575   0.089
 9155SOL     OW29423   3.802   0.556   1.386
 9155SOL    HW129424   3.894   0.555   1.345
 9155SOL    HW229425   3.796   0.630   1.453
 9156SOL     OW29426   4.285   0.222   1.147
 9156SOL    HW129427   4.323   0.138   1.184
 9156SOL    HW229428   4.197   0.241   1.191
 9157SOL     OW29429   4.590   0.454   0.642
 9157SOL    HW129430   4.558   0.526   0.580
 9157SOL    HW229431   4.614   0.373   0.589
 9158SOL     OW29432   4.741   0.039   0.753
 9158SOL    HW129433   4.669   0.044   0.684
 9158SOL    HW229434   4.717  -0.030   0.822
 9159SOL     OW29435   5.153   1.173   0.867
 9159SOL    HW129436   5.098   1.089   0.860
 9159SOL    HW229437   5.179   1.202   0.775
 9160SOL     OW29438   5.190   0.590   0.992
 9160SOL    HW129439   5.160   0.495   0.999
 9160SOL    HW229440   5.263   0.606   1.058
 9161SOL     OW29441   5.581   0.833   0.377
 9161SOL    HW129442   5.623   0.769   0.441
 9161SOL    HW229443   5.543   0.782   0.299
 9162SOL     OW29444   4.212   1.385   0.174
 9162SOL    HW129445   4.125   1.370   0.221
 9162SOL    HW229446   4.195   1.411   0.079
 9163SOL     OW29447   5.388   1.280   0.657
 9163SOL    HW129448   5.487   1.288   0.671
 9163SOL    HW229449   5.343   1.364   0.688
 9164SOL     OW29450   5.114   0.575   0.078
 9164SOL    HW129451   5.060   0.554   0.159
 9164SOL    HW229452   5.205   0.534   0.087
 9165SOL     OW29453   4.251   0.256   0.328
 9165SOL    HW129454   4.278   0.197   0.253
 9165SOL    HW229455   4.251   0.351   0.297
 9166SOL     OW29456   5.478   1.223   1.588
 9166SOL    HW129457   5.569   1.184   1.575
 9166SOL    HW229458   5.486   1.319   1.612
 9167SOL     OW29459   4.788   1.347   1.340
 9167SOL    HW129460   4.708   1.324   1.395
 9167SOL    HW229461   4.871   1.321   1.389
 9168SOL     OW29462   5.316   1.629   1.625
 9168SOL    HW129463   5.343   1.663   1.535
 9168SOL    HW229464   5.395   1.591   1.671
 9169SOL     OW29465   4.835   1.195   1.100
 9169SOL    HW129466   4.795   1.239   1.181
 9169SOL    HW229467   4.794   1.232   1.017
 9170SOL     OW29468   5.362   1.099   1.079
 9170SOL    HW129469   5.367   1.180   1.138
 9170SOL    HW229470   5.276   1.101   1.028
 9171SOL     OW29471   4.639   0.089   1.402
 9171SOL    HW129472   4.664   0.069   1.307
 9171SOL    HW229473   4.711   0.145   1.444
 9172SOL     OW29474   4.704   1.116   1.719
 9172SOL    HW129475   4.605   1.122   1.729
 9172SOL    HW229476   4.727   1.036   1.663
 9173SOL     OW29477   4.429   1.050   0.368
 9173SOL    HW129478   4.415   1.057   0.467
 9173SOL    HW229479   4.513   0.999   0.350
 9174SOL     OW29480   4.134   0.813   1.251
 9174SOL    HW129481   4.220   0.825   1.301
 9174SOL    HW229482   4.092   0.726   1.278
 9175SOL     OW29483   4.998   0.386   1.262
 9175SOL    HW129484   5.019   0.460   1.326
 9175SOL    HW229485   4.909   0.403   1.219
 9176SOL     OW29486   3.788   1.564   1.331
 9176SOL    HW129487   3.742   1.646   1.297
 9176SOL    HW229488   3.886   1.583   1.340
 9177SOL     OW29489   4.091   1.100   0.501
 9177SOL    HW129490   4.084   1.183   0.445
 9177SOL    HW229491   4.095   1.020   0.441
 9178SOL     OW29492   4.290   0.537   0.865
 9178SOL    HW129493   4.302   0.603   0.791
 9178SOL    HW229494   4.336   0.571   0.948
 9179SOL     OW29495   4.976   1.348   0.388
 9179SOL    HW129496   5.026   1.425   0.428
 9179SOL    HW229497   4.881   1.350   0.420
 9180SOL     OW29498   4.996   1.445   1.142
 9180SOL    HW129499   5.043   1.458   1.229
 9180SOL    HW229500   4.930   1.371   1.151
 9181SOL     OW29501   5.306   0.639   0.472
 9181SOL    HW129502   5.275   0.700   0.545
 9181SOL    HW229503   5.356   0.691   0.403
 9182SOL     OW29504   4.078   1.510   1.329
 9182SOL    HW129505   4.057   1.466   1.242
 9182SOL    HW229506   4.175   1.536   1.332
 9183SOL     OW29507   4.126   0.751   1.598
 9183SOL    HW129508   4.194   0.806   1.551
 9183SOL    HW229509   4.166   0.663   1.625
 9184SOL     OW29510   5.311   0.779   1.670
 9184SOL    HW129511   5.219   0.817   1.665
 9184SOL    HW229512   5.371   0.826   1.605
 9185SOL     OW29513   4.737   0.105   1.770
 9185SOL    HW129514   4.743   0.190   1.718
 9185SOL    HW229515   4.769   0.029   1.713
 9186SOL     OW29516   4.228   0.050   1.740
 9186SOL    HW129517   4.186  -0.007   1.670
 9186SOL    HW229518   4.162   0.119   1.772
 9187SOL     OW29519   4.297   0.870   1.029
 9187SOL    HW129520   4.341   0.959   1.020
 9187SOL    HW229521   4.234   0.870   1.106
 9188SOL     OW29522   5.084   0.862   1.045
 9188SOL    HW129523   5.009   0.862   0.979
 9188SOL    HW229524   5.121   0.770   1.054
 9189SOL     OW29525   4.933   0.525   0.275
 9189SOL    HW129526   4.946   0.441   0.329
 9189SOL    HW229527   4.904   0.599   0.335
 9190SOL     OW29528   4.031   0.213   1.231
 9190SOL    HW129529   4.008   0.250   1.321
 9190SOL    HW229530   4.001   0.118   1.225
 9191SOL     OW29531   3.761   1.310   1.282
 9191SOL    HW129532   3.814   1.261   1.350
 9191SOL    HW229533   3.783   1.408   1.287
 9192SOL     OW29534   4.456   0.634   1.064
 9192SOL    HW129535   4.515   0.608   0.988
 9192SOL    HW229536   4.428   0.730   1.053
 9193SOL     OW29537   5.452   0.935   1.854
 9193SOL    HW129538   5.406   0.928   1.765
 9193SOL    HW229539   5.390   0.979   1.920
 9194SOL     OW29540   4.031   0.063   0.618
 9194SOL    HW129541   4.020   0.157   0.651
 9194SOL    HW229542   4.026   0.000   0.695
 9195SOL     OW29543   5.346   0.367   0.374
 9195SOL    HW129544   5.348   0.291   0.438
 9195SOL    HW229545   5.298   0.444   0.414
 9196SOL     OW29546   4.747   0.766   0.966
 9196SOL    HW129547   4.762   0.787   1.062
 9196SOL    HW229548   4.717   0.671   0.957
 9197SOL     OW29549   4.704   1.573   1.700
 9197SOL    HW129550   4.684   1.617   1.612
 9197SOL    HW229551   4.743   1.482   1.684
 9198SOL     OW29552   5.583   1.518   1.605
 9198SOL    HW129553   5.597   1.545   1.510
 9198SOL    HW229554   5.666   1.540   1.658
 9199SOL     OW29555   4.074   0.898   1.804
 9199SOL    HW129556   4.150   0.942   1.852
 9199SOL    HW229557   4.109   0.851   1.722
 9200SOL     OW29558   5.264   0.274   0.125
 9200SOL    HW129559   5.203   0.199   0.148
 9200SOL    HW229560   5.286   0.326   0.208
 9201SOL     OW29561   5.027   0.838   0.042
 9201SOL    HW129562   5.061   0.745   0.057
 9201SOL    HW229563   5.045   0.865  -0.053
 9202SOL     OW29564   4.792   1.333   0.849
 9202SOL    HW129565   4.799   1.249   0.794
 9202SOL    HW229566   4.854   1.402   0.813
 9203SOL     OW29567   4.043   0.810   0.949
 9203SOL    HW129568   4.136   0.846   0.954
 9203SOL    HW229569   4.037   0.725   1.001
 9204SOL     OW29570   4.063   0.509   1.006
 9204SOL    HW129571   4.011   0.426   0.989
 9204SOL    HW229572   4.140   0.514   0.942
 9205SOL     OW29573   4.862   0.380   1.678
 9205SOL    HW129574   4.817   0.443   1.742
 9205SOL    HW229575   4.955   0.411   1.661
 9206SOL     OW29576   4.884   0.207   1.477
 9206SOL    HW129577   4.884   0.271   1.554
 9206SOL    HW229578   4.912   0.255   1.394
 9207SOL     OW29579   3.732   1.326   0.200
 9207SOL    HW129580   3.639   1.347   0.169
 9207SOL    HW229581   3.742   1.227   0.213
 9208SOL     OW29582   3.812   1.801   0.927
 9208SOL    HW129583   3.770   1.715   0.900
 9208SOL    HW229584   3.906   1.804   0.893
 9209SOL     OW29585   4.228   1.568   0.910
 9209SOL    HW129586   4.294   1.642   0.919
 9209SOL    HW229587   4.272   1.489   0.868
 9210SOL     OW29588   4.726   0.796   1.238
 9210SOL    HW129589   4.767   0.764   1.324
 9210SOL    HW229590   4.630   0.769   1.235
 9211SOL     OW29591   3.764   0.544   1.114
 9211SOL    HW129592   3.849   0.511   1.073
 9211SOL    HW229593   3.777   0.559   1.212
 9212SOL     OW29594   3.913   0.520   1.722
 9212SOL    HW129595   3.972   0.480   1.652
 9212SOL    HW229596   3.855   0.591   1.681
 9213SOL     OW29597   5.093   0.950   1.660
 9213SOL    HW129598   5.132   1.039   1.680
 9213SOL    HW229599   5.103   0.930   1.563
 9214SOL     OW29600   4.539   0.572   0.325
 9214SOL    HW129601   4.546   0.483   0.279
 9214SOL    HW229602   4.445   0.606   0.317
 9215SOL     OW29603   5.381   0.604   1.206
 9215SOL    HW129604   5.343   0.535   1.268
 9215SOL    HW229605   5.463   0.568   1.162
 9216SOL     OW29606   3.976   1.564   1.744
 9216SOL    HW129607   3.946   1.621   1.820
 9216SOL    HW229608   3.969   1.467   1.770
 9217SOL     OW29609   4.395   0.464   1.269
 9217SOL    HW129610   4.361   0.375   1.239
 9217SOL    HW229611   4.421   0.518   1.189
 9218SOL     OW29612   4.654   1.678   1.465
 9218SOL    HW129613   4.630   1.660   1.370
 9218SOL    HW229614   4.684   1.772   1.475
 9219SOL     OW29615   4.197   0.500   0.191
 9219SOL    HW129616   4.258   0.580   0.195
 9219SOL    HW229617   4.102   0.531   0.198
 9220SOL     OW29618   3.883   1.137   1.466
 9220SOL    HW129619   3.905   1.076   1.542
 9220SOL    HW229620   3.893   1.088   1.380
 9221SOL     OW29621   5.071   1.059   1.234
 9221SOL    HW129622   5.095   0.996   1.160
 9221SOL    HW229623   4.981   1.099   1.216
 9222SOL     OW29624   5.026   0.855   0.309
 9222SOL    HW129625   4.940   0.824   0.351
 9222SOL    HW229626   5.022   0.841   0.210
 9223SOL     OW29627   5.483   1.747   1.154
 9223SOL    HW129628   5.544   1.777   1.081
 9223SOL    HW229629   5.445   1.658   1.132
 9224SOL     OW29630   4.976   1.731   1.128
 9224SOL    HW129631   5.060   1.736   1.074
 9224SOL    HW229632   4.953   1.635   1.146
 9225SOL     OW29633   3.807   1.258   1.022
 9225SOL    HW129634   3.802   1.257   1.122
 9225SOL    HW229635   3.724   1.217   0.984
 9226SOL     OW29636   4.412   1.662   1.716
 9226SOL    HW129637   4.356   1.743   1.725
 9226SOL    HW229638   4.464   1.666   1.630
 9227SOL     OW29639   4.627   0.086   0.133
 9227SOL    HW129640   4.678   0.087   0.047
 9227SOL    HW229641   4.683   0.044   0.204
 9228SOL     OW29642   5.450   0.135   0.523
 9228SOL    HW129643   5.523   0.118   0.456
 9228SOL    HW229644   5.419   0.048   0.561
 9229SOL     OW29645   5.112   1.573   0.477
 9229SOL    HW129646   5.179   1.585   0.403
 9229SOL    HW229647   5.072   1.662   0.500
 9230SOL     OW29648   3.854   1.794   1.851
 9230SOL    HW129649   3.813   1.720   1.904
 9230SOL    HW229650   3.918   1.845   1.909
 9231SOL     OW29651   5.004   0.927   0.672
 9231SOL    HW129652   5.064   0.846   0.674
 9231SOL    HW229653   5.044   0.996   0.612
 9232SOL     OW29654   4.554   1.273   1.422
 9232SOL    HW129655   4.549   1.306   1.517
 9232SOL    HW229656   4.468   1.292   1.376
 9233SOL     OW29657   4.396   1.616   0.154
 9233SOL    HW129658   4.405   1.626   0.055
 9233SOL    HW229659   4.356   1.527   0.175
 9234SOL     OW29660   5.374   1.720   1.394
 9234SOL    HW129661   5.427   1.730   1.310
 9234SOL    HW229662   5.347   1.810   1.428
 9235SOL     OW29663   5.565   0.175   0.963
 9235SOL    HW129664   5.604   0.090   0.927
 9235SOL    HW229665   5.467   0.177   0.944
 9236SOL     OW29666   3.987   0.326   0.720
 9236SOL    HW129667   3.908   0.377   0.686
 9236SOL    HW229668   3.978   0.311   0.818
 9237SOL     OW29669   4.918   1.612   0.031
 9237SOL    HW129670   4.924   1.519   0.068
 9237SOL    HW229671   4.859   1.612  -0.049
 9238SOL     OW29672   4.546   1.002   1.372
 9238SOL    HW129673   4.586   1.001   1.280
 9238SOL    HW229674   4.556   1.094   1.412
 9239SOL     OW29675   4.640   0.910   0.291
 9239SOL    HW129676   4.703   0.948   0.223
 9239SOL    HW229677   4.680   0.827   0.330
 9240SOL     OW29678   5.228   1.607   0.044
 9240SOL    HW129679   5.136   1.644   0.051
 9240SOL    HW229680   5.266   1.627  -0.046
 9241SOL     OW29681   4.096   1.288   1.490
 9241SOL    HW129682   4.083   1.381   1.456
 9241SOL    HW229683   4.012   1.236   1.477
 9242SOL     OW29684   5.338   1.292   1.289
 9242SOL    HW129685   5.398   1.295   1.369
 9242SOL    HW229686   5.263   1.356   1.302
 9243SOL     OW29687   4.763   1.098   0.696
 9243SOL    HW129688   4.693   1.051   0.750
 9243SOL    HW229689   4.822   1.030   0.653
 9244SOL     OW29690   4.738   0.236   0.971
 9244SOL    HW129691   4.730   0.200   0.878
 9244SOL    HW229692   4.736   0.160   1.036
 9245SOL     OW29693   4.314   1.487   0.491
 9245SOL    HW129694   4.356   1.429   0.421
 9245SOL    HW229695   4.270   1.566   0.447
 9246SOL     OW29696   5.433   0.385   1.381
 9246SOL    HW129697   5.506   0.454   1.385
 9246SOL    HW229698   5.461   0.310   1.322
 9247SOL     OW29699   3.979   1.348   0.290
 9247SOL    HW129700   3.883   1.349   0.263
 9247SOL    HW229701   3.991   1.401   0.374
 9248SOL     OW29702   3.829   1.013   1.726
 9248SOL    HW129703   3.752   0.980   1.780
 9248SOL    HW229704   3.914   0.983   1.768
 9249SOL     OW29705   4.396   0.203   1.489
 9249SOL    HW129706   4.486   0.187   1.449
 9249SOL    HW229707   4.404   0.208   1.588
 9250SOL     OW29708   5.164   0.856   1.398
 9250SOL    HW129709   5.107   0.908   1.335
 9250SOL    HW229710   5.260   0.868   1.374
 9251SOL     OW29711   3.796   0.166   0.318
 9251SOL    HW129712   3.779   0.249   0.264
 9251SOL    HW229713   3.886   0.129   0.296
 9252SOL     OW29714   4.907   1.335   0.119
 9252SOL    HW129715   4.808   1.324   0.121
 9252SOL    HW229716   4.941   1.350   0.212
 9253SOL     OW29717   4.337   0.842   1.431
 9253SOL    HW129718   4.393   0.923   1.414
 9253SOL    HW229719   4.396   0.762   1.434
 9254SOL     OW29720   5.217   1.767   0.959
 9254SOL    HW129721   5.250   1.831   0.890
 9254SOL    HW229722   5.283   1.761   1.034
 9255SOL     OW29723   4.440   0.565   1.708
 9255SOL    HW129724   4.459   0.630   1.782
 9255SOL    HW229725   4.500   0.485   1.717
 9256SOL     OW29726   5.174   1.220   1.633
 9256SOL    HW129727   5.165   1.210   1.732
 9256SOL    HW229728   5.270   1.213   1.607
 9257SOL     OW29729   4.114   1.741   1.560
 9257SOL    HW129730   4.023   1.782   1.558
 9257SOL    HW229731   4.107   1.647   1.592
 9258SOL     OW29732   5.398   0.883   1.254
 9258SOL    HW129733   5.371   0.794   1.217
 9258SOL    HW229734   5.399   0.951   1.181
 9259SOL     OW29735   4.949   0.325   0.449
 9259SOL    HW129736   5.014   0.251   0.438
 9259SOL    HW229737   4.969   0.375   0.533
 9260SOL     OW29738   4.318   0.745   0.652
 9260SOL    HW129739   4.368   0.830   0.633
 9260SOL    HW229740   4.230   0.747   0.604
 9261SOL     OW29741   5.501   0.342   1.642
 9261SOL    HW129742   5.484   0.373   1.548
 9261SOL    HW229743   5.417   0.305   1.680
 9262SOL     OW29744   5.454   0.934   1.517
 9262SOL    HW129745   5.492   1.025   1.532
 9262SOL    HW229746   5.446   0.917   1.418
 9263SOL     OW29747   4.583   1.374   0.016
 9263SOL    HW129748   4.537   1.389   0.104
 9263SOL    HW229749   4.627   1.459  -0.014
 9264SOL     OW29750   4.385   1.790   0.953
 9264SOL    HW129751   4.339   1.878   0.940
 9264SOL    HW229752   4.484   1.802   0.946
 9265SOL     OW29753   5.132   1.851   1.720
 9265SOL    HW129754   5.036   1.840   1.693
 9265SOL    HW229755   5.188   1.784   1.672
 9266SOL     OW29756   4.583   0.956   0.861
 9266SOL    HW129757   4.637   0.887   0.909
 9266SOL    HW229758   4.551   1.025   0.927
 9267SOL     OW29759   4.807   0.984   0.087
 9267SOL    HW129760   4.784   1.037   0.005
 9267SOL    HW229761   4.888   0.928   0.068
 9268SOL     OW29762   5.585   1.569   0.851
 9268SOL    HW129763   5.514   1.557   0.781
 9268SOL    HW229764   5.586   1.490   0.911
 9269SOL     OW29765   3.945   1.314   1.844
 9269SOL    HW129766   3.880   1.241   1.823
 9269SOL    HW229767   3.949   1.328   1.942
 9270SOL     OW29768   3.803   1.240   0.653
 9270SOL    HW129769   3.802   1.193   0.741
 9270SOL    HW229770   3.885   1.212   0.602
 9271SOL     OW29771   4.396   1.391   1.624
 9271SOL    HW129772   4.318   1.341   1.662
 9271SOL    HW229773   4.393   1.486   1.655
 9272SOL     OW29774   5.548   0.192   1.227
 9272SOL    HW129775   5.544   0.102   1.271
 9272SOL    HW229776   5.551   0.181   1.128
 9273SOL     OW29777   4.152   0.424   0.520
 9273SOL    HW129778   4.182   0.352   0.458
 9273SOL    HW229779   4.113   0.384   0.603
 9274SOL     OW29780   5.429   1.487   1.104
 9274SOL    HW129781   5.336   1.462   1.077
 9274SOL    HW229782   5.455   1.437   1.186
 9275SOL     OW29783   4.041   0.547   1.280
 9275SOL    HW129784   4.079   0.488   1.352
 9275SOL    HW229785   4.081   0.521   1.192
 9276SOL     OW29786   4.536   1.586   0.687
 9276SOL    HW129787   4.568   1.596   0.593
 9276SOL    HW229788   4.457   1.524   0.689
 9277SOL     OW29789   5.148   0.214   1.112
 9277SOL    HW129790   5.200   0.149   1.167
 9277SOL    HW229791   5.099   0.277   1.173
 9278SOL     OW29792   4.725   0.034   1.154
 9278SOL    HW129793   4.662  -0.038   1.123
 9278SOL    HW229794   4.818  -0.002   1.154
 9279SOL     OW29795   4.494   1.330   0.301
 9279SOL    HW129796   4.448   1.243   0.318
 9279SOL    HW229797   4.585   1.327   0.342
 9280SOL     OW29798   4.342   1.567   1.284
 9280SOL    HW129799   4.337   1.649   1.341
 9280SOL    HW229800   4.431   1.564   1.239
 9281SOL     OW29801   5.076   0.052   0.168
 9281SOL    HW129802   5.111   0.011   0.084
 9281SOL    HW229803   4.986   0.014   0.188
 9282SOL     OW29804   5.024   0.453   0.691
 9282SOL    HW129805   4.965   0.533   0.695
 9282SOL    HW229806   5.039   0.418   0.784
 9283SOL     OW29807   5.317   0.221   0.882
 9283SOL    HW129808   5.233   0.220   0.936
 9283SOL    HW229809   5.319   0.304   0.826
 9284SOL     OW29810   3.763   1.077   0.300
 9284SOL    HW129811   3.862   1.066   0.291
 9284SOL    HW229812   3.723   0.991   0.332
 9285SOL     OW29813   4.599   1.646   0.337
 9285SOL    HW129814   4.522   1.611   0.283
 9285SOL    HW229815   4.567   1.717   0.399
 9286SOL     OW29816   3.954   0.628   1.975
 9286SOL    HW129817   3.861   0.626   2.012
 9286SOL    HW229818   3.955   0.589   1.883
 9287SOL     OW29819   3.949   0.275   2.858
 9287SOL    HW129820   3.984   0.258   2.950
 9287SOL    HW229821   3.861   0.230   2.846
 9288SOL     OW29822   3.743   0.368   2.509
 9288SOL    HW129823   3.661   0.411   2.548
 9288SOL    HW229824   3.715   0.295   2.446
 9289SOL     OW29825   4.293   1.275   3.027
 9289SOL    HW129826   4.200   1.268   2.990
 9289SOL    HW229827   4.304   1.364   3.071
 9290SOL     OW29828   5.279   1.511   2.565
 9290SOL    HW129829   5.222   1.495   2.646
 9290SOL    HW229830   5.220   1.521   2.485
 9291SOL     OW29831   5.467   0.618   2.718
 9291SOL    HW129832   5.500   0.712   2.718
 9291SOL    HW229833   5.518   0.564   2.784
 9292SOL     OW29834   4.859   0.703   2.579
 9292SOL    HW129835   4.916   0.781   2.554
 9292SOL    HW229836   4.799   0.729   2.655
 9293SOL     OW29837   5.479   0.607   2.093
 9293SOL    HW129838   5.467   0.594   1.994
 9293SOL    HW229839   5.449   0.526   2.142
 9294SOL     OW29840   4.492   1.144   2.885
 9294SOL    HW129841   4.414   1.161   2.945
 9294SOL    HW229842   4.526   1.231   2.849
 9295SOL     OW29843   4.574   0.798   3.685
 9295SOL    HW129844   4.570   0.874   3.750
 9295SOL    HW229845   4.596   0.834   3.594
 9296SOL     OW29846   4.409   1.012   2.527
 9296SOL    HW129847   4.478   0.996   2.597
 9296SOL    HW229848   4.336   1.069   2.565
 9297SOL     OW29849   4.410   1.161   3.665
 9297SOL    HW129850   4.470   1.240   3.679
 9297SOL    HW229851   4.324   1.192   3.624
 9298SOL     OW29852   4.059   1.435   2.923
 9298SOL    HW129853   3.981   1.404   2.870
 9298SOL    HW229854   4.117   1.493   2.866
 9299SOL     OW29855   5.184   1.505   3.201
 9299SOL    HW129856   5.208   1.599   3.227
 9299SOL    HW229857   5.168   1.451   3.283
 9300SOL     OW29858   4.162   0.392   3.361
 9300SOL    HW129859   4.244   0.336   3.370
 9300SOL    HW229860   4.081   0.334   3.365
 9301SOL     OW29861   5.327   0.447   2.599
 9301SOL    HW129862   5.253   0.493   2.549
 9301SOL    HW229863   5.378   0.515   2.652
 9302SOL     OW29864   3.955   1.713   2.345
 9302SOL    HW129865   3.989   1.790   2.399
 9302SOL    HW229866   3.999   1.713   2.255
 9303SOL     OW29867   4.851   1.341   3.552
 9303SOL    HW129868   4.898   1.341   3.640
 9303SOL    HW229869   4.803   1.254   3.541
 9304SOL     OW29870   3.954   1.434   2.400
 9304SOL    HW129871   3.928   1.530   2.400
 9304SOL    HW229872   3.883   1.380   2.445
 9305SOL     OW29873   3.964   1.091   2.748
 9305SOL    HW129874   3.978   1.007   2.800
 9305SOL    HW229875   3.909   1.155   2.803
 9306SOL     OW29876   4.344   1.786   3.301
 9306SOL    HW129877   4.252   1.769   3.336
 9306SOL    HW229878   4.372   1.878   3.327
 9307SOL     OW29879   4.330   0.964   1.985
 9307SOL    HW129880   4.337   1.048   1.931
 9307SOL    HW229881   4.376   0.977   2.073
 9308SOL     OW29882   5.318   0.114   3.342
 9308SOL    HW129883   5.300   0.181   3.270
 9308SOL    HW229884   5.315   0.160   3.431
 9309SOL     OW29885   3.846   0.643   2.425
 9309SOL    HW129886   3.801   0.555   2.442
 9309SOL    HW229887   3.845   0.697   2.509
 9310SOL     OW29888   5.566   1.767   2.221
 9310SOL    HW129889   5.620   1.738   2.301
 9310SOL    HW229890   5.596   1.857   2.192
 9311SOL     OW29891   3.751   1.596   1.979
 9311SOL    HW129892   3.732   1.500   2.000
 9311SOL    HW229893   3.718   1.654   2.054
 9312SOL     OW29894   5.413   0.922   2.474
 9312SOL    HW129895   5.508   0.893   2.482
 9312SOL    HW229896   5.405   0.987   2.399
 9313SOL     OW29897   5.365   1.108   2.294
 9313SOL    HW129898   5.451   1.110   2.242
 9313SOL    HW229899   5.379   1.155   2.382
 9314SOL     OW29900   3.837   0.737   3.459
 9314SOL    HW129901   3.925   0.724   3.504
 9314SOL    HW229902   3.824   0.834   3.437
 9315SOL     OW29903   4.337   1.365   2.588
 9315SOL    HW129904   4.288   1.278   2.597
 9315SOL    HW229905   4.314   1.408   2.501
 9316SOL     OW29906   5.017   1.228   3.285
 9316SOL    HW129907   5.054   1.155   3.227
 9316SOL    HW229908   5.069   1.233   3.370
 9317SOL     OW29909   4.533   0.004   2.364
 9317SOL    HW129910   4.573   0.095   2.355
 9317SOL    HW229911   4.433   0.012   2.370
 9318SOL     OW29912   3.921   0.976   3.126
 9318SOL    HW129913   4.010   0.931   3.112
 9318SOL    HW229914   3.848   0.911   3.107
 9319SOL     OW29915   5.249   0.999   2.052
 9319SOL    HW129916   5.186   0.923   2.065
 9319SOL    HW229917   5.297   1.017   2.138
 9320SOL     OW29918   4.911   1.792   3.478
 9320SOL    HW129919   4.935   1.852   3.402
 9320SOL    HW229920   4.918   1.697   3.448
 9321SOL     OW29921   4.041   0.251   3.663
 9321SOL    HW129922   4.112   0.322   3.669
 9321SOL    HW229923   3.953   0.290   3.691
 9322SOL     OW29924   5.190   1.417   2.815
 9322SOL    HW129925   5.131   1.423   2.895
 9322SOL    HW229926   5.175   1.329   2.769
 9323SOL     OW29927   5.391   1.714   2.434
 9323SOL    HW129928   5.350   1.691   2.346
 9323SOL    HW229929   5.373   1.640   2.499
 9324SOL     OW29930   4.322   0.729   2.132
 9324SOL    HW129931   4.346   0.798   2.064
 9324SOL    HW229932   4.244   0.762   2.186
 9325SOL     OW29933   5.005   0.345   2.806
 9325SOL    HW129934   4.919   0.295   2.793
 9325SOL    HW229935   5.067   0.291   2.862
 9326SOL     OW29936   5.300   1.662   2.169
 9326SOL    HW129937   5.389   1.708   2.172
 9326SOL    HW229938   5.279   1.638   2.074
 9327SOL     OW29939   4.531   0.605   3.327
 9327SOL    HW129940   4.484   0.602   3.416
 9327SOL    HW229941   4.480   0.550   3.261
 9328SOL     OW29942   5.118   0.469   3.536
 9328SOL    HW129943   5.098   0.512   3.624
 9328SOL    HW229944   5.196   0.407   3.545
 9329SOL     OW29945   4.697   0.890   3.434
 9329SOL    HW129946   4.743   0.806   3.405
 9329SOL    HW229947   4.641   0.924   3.359
 9330SOL     OW29948   4.715   0.410   3.104
 9330SOL    HW129949   4.638   0.444   3.158
 9330SOL    HW229950   4.681   0.359   3.025
 9331SOL     OW29951   4.765   0.701   2.291
 9331SOL    HW129952   4.791   0.697   2.387
 9331SOL    HW229953   4.680   0.650   2.277
 9332SOL     OW29954   3.800   0.811   2.651
 9332SOL    HW129955   3.899   0.799   2.660
 9332SOL    HW229956   3.776   0.906   2.672
 9333SOL     OW29957   3.854   1.821   3.433
 9333SOL    HW129958   3.844   1.806   3.532
 9333SOL    HW229959   3.768   1.857   3.397
 9334SOL     OW29960   4.589   0.348   2.057
 9334SOL    HW129961   4.648   0.411   2.008
 9334SOL    HW229962   4.608   0.254   2.028
 9335SOL     OW29963   5.443   0.585   3.693
 9335SOL    HW129964   5.417   0.674   3.657
 9335SOL    HW229965   5.441   0.517   3.620
 9336SOL     OW29966   5.086   1.144   2.407
 9336SOL    HW129967   5.169   1.115   2.359
 9336SOL    HW229968   5.037   1.211   2.351
 9337SOL     OW29969   4.274   0.196   2.747
 9337SOL    HW129970   4.269   0.191   2.847
 9337SOL    HW229971   4.276   0.292   2.718
 9338SOL     OW29972   4.732   1.456   2.339
 9338SOL    HW129973   4.686   1.528   2.287
 9338SOL    HW229974   4.728   1.476   2.437
 9339SOL     OW29975   4.075   1.801   2.715
 9339SOL    HW129976   4.125   1.715   2.721
 9339SOL    HW229977   4.140   1.878   2.712
 9340SOL     OW29978   5.519   1.066   2.735
 9340SOL    HW129979   5.457   1.051   2.659
 9340SOL    HW229980   5.467   1.077   2.820
 9341SOL     OW29981   4.951   1.550   3.368
 9341SOL    HW129982   4.957   1.473   3.432
 9341SOL    HW229983   4.899   1.524   3.288
 9342SOL     OW29984   4.045   0.943   2.104
 9342SOL    HW129985   4.127   0.982   2.062
 9342SOL    HW229986   4.018   0.861   2.055
 9343SOL     OW29987   5.182   0.735   2.590
 9343SOL    HW129988   5.177   0.670   2.665
 9343SOL    HW229989   5.262   0.794   2.603
 9344SOL     OW29990   4.185   1.266   3.589
 9344SOL    HW129991   4.135   1.267   3.503
 9344SOL    HW229992   4.122   1.248   3.665
 9345SOL     OW29993   4.835   1.776   2.099
 9345SOL    HW129994   4.775   1.714   2.149
 9345SOL    HW229995   4.866   1.732   2.014
 9346SOL     OW29996   3.926   0.285   3.360
 9346SOL    HW129997   3.846   0.345   3.347
 9346SOL    HW229998   3.916   0.236   3.446
 9347SOL     OW29999   5.356   1.377   1.943
 9347SOL    HW130000   5.324   1.471   1.933
 9347SOL    HW230001   5.280   1.314   1.931
 9348SOL     OW30002   4.188   1.743   2.185
 9348SOL    HW130003   4.221   1.782   2.271
 9348SOL    HW230004   4.264   1.736   2.120
 9349SOL     OW30005   5.124   0.107   2.288
 9349SOL    HW130006   5.100   0.070   2.198
 9349SOL    HW230007   5.223   0.123   2.292
 9350SOL     OW30008   3.973   1.785   3.103
 9350SOL    HW130009   4.030   1.720   3.153
 9350SOL    HW230010   3.957   1.752   3.010
 9351SOL     OW30011   4.664   1.698   2.766
 9351SOL    HW130012   4.744   1.641   2.787
 9351SOL    HW230013   4.615   1.658   2.689
 9352SOL     OW30014   4.106   0.700   2.342
 9352SOL    HW130015   4.151   0.610   2.339
 9352SOL    HW230016   4.012   0.689   2.375
 9353SOL     OW30017   5.271   0.222   3.591
 9353SOL    HW130018   5.266   0.259   3.683
 9353SOL    HW230019   5.199   0.153   3.579
 9354SOL     OW30020   4.338   0.122   1.979
 9354SOL    HW130021   4.436   0.100   1.986
 9354SOL    HW230022   4.307   0.105   1.886
 9355SOL     OW30023   4.505   0.264   3.611
 9355SOL    HW130024   4.572   0.203   3.654
 9355SOL    HW230025   4.432   0.283   3.676
 9356SOL     OW30026   4.612   1.514   3.057
 9356SOL    HW130027   4.589   1.489   2.963
 9356SOL    HW230028   4.673   1.445   3.096
 9357SOL     OW30029   5.075   0.590   3.295
 9357SOL    HW130030   5.103   0.547   3.380
 9357SOL    HW230031   5.100   0.686   3.296
 9358SOL     OW30032   4.527   1.402   2.786
 9358SOL    HW130033   4.617   1.416   2.744
 9358SOL    HW230034   4.456   1.404   2.715
 9359SOL     OW30035   4.646   0.503   2.761
 9359SOL    HW130036   4.621   0.494   2.665
 9359SOL    HW230037   4.694   0.421   2.792
 9360SOL     OW30038   4.263   0.064   2.374
 9360SOL    HW130039   4.182   0.065   2.432
 9360SOL    HW230040   4.266   0.147   2.319
 9361SOL     OW30041   5.158   1.188   1.903
 9361SOL    HW130042   5.190   1.112   1.960
 9361SOL    HW230043   5.066   1.215   1.933
 9362SOL     OW30044   4.021   0.035   2.033
 9362SOL    HW130045   4.070   0.119   2.012
 9362SOL    HW230046   4.083  -0.030   2.078
 9363SOL     OW30047   4.659   0.236   2.342
 9363SOL    HW130048   4.611   0.277   2.264
 9363SOL    HW230049   4.758   0.234   2.323
 9364SOL     OW30050   4.800   0.683   3.326
 9364SOL    HW130051   4.720   0.622   3.329
 9364SOL    HW230052   4.881   0.630   3.302
 9365SOL     OW30053   4.951   1.570   2.655
 9365SOL    HW130054   4.972   1.644   2.590
 9365SOL    HW230055   5.019   1.570   2.728
 9366SOL     OW30056   4.183   1.152   2.603
 9366SOL    HW130057   4.112   1.125   2.668
 9366SOL    HW230058   4.157   1.124   2.510
 9367SOL     OW30059   4.995   1.797   2.453
 9367SOL    HW130060   5.039   1.861   2.389
 9367SOL    HW230061   4.945   1.849   2.523
 9368SOL     OW30062   4.756   0.549   1.878
 9368SOL    HW130063   4.715   0.631   1.839
 9368SOL    HW230064   4.820   0.575   1.951
 9369SOL     OW30065   3.802   0.556   3.248
 9369SOL    HW130066   3.894   0.555   3.207
 9369SOL    HW230067   3.796   0.630   3.315
 9370SOL     OW30068   4.285   0.222   3.009
 9370SOL    HW130069   4.323   0.138   3.046
 9370SOL    HW230070   4.197   0.241   3.053
 9371SOL     OW30071   4.590   0.454   2.504
 9371SOL    HW130072   4.558   0.526   2.442
 9371SOL    HW230073   4.614   0.373   2.451
 9372SOL     OW30074   4.741   0.039   2.615
 9372SOL    HW130075   4.669   0.044   2.546
 9372SOL    HW230076   4.717  -0.030   2.684
 9373SOL     OW30077   5.153   1.173   2.729
 9373SOL    HW130078   5.098   1.089   2.722
 9373SOL    HW230079   5.179   1.202   2.637
 9374SOL     OW30080   5.190   0.590   2.854
 9374SOL    HW130081   5.160   0.495   2.861
 9374SOL    HW230082   5.263   0.606   2.920
 9375SOL     OW30083   5.581   0.833   2.239
 9375SOL    HW130084   5.623   0.769   2.303
 9375SOL    HW230085   5.543   0.782   2.161
 9376SOL     OW30086   4.212   1.385   2.036
 9376SOL    HW130087   4.125   1.370   2.083
 9376SOL    HW230088   4.195   1.411   1.941
 9377SOL     OW30089   5.388   1.280   2.519
 9377SOL    HW130090   5.487   1.288   2.533
 9377SOL    HW230091   5.343   1.364   2.550
 9378SOL     OW30092   5.114   0.575   1.940
 9378SOL    HW130093   5.060   0.554   2.021
 9378SOL    HW230094   5.205   0.534   1.949
 9379SOL     OW30095   4.251   0.256   2.190
 9379SOL    HW130096   4.278   0.197   2.115
 9379SOL    HW230097   4.251   0.351   2.159
 9380SOL     OW30098   5.478   1.223   3.450
 9380SOL    HW130099   5.569   1.184   3.437
 9380SOL    HW230100   5.486   1.319   3.474
 9381SOL     OW30101   4.788   1.347   3.202
 9381SOL    HW130102   4.708   1.324   3.257
 9381SOL    HW230103   4.871   1.321   3.251
 9382SOL     OW30104   5.316   1.629   3.487
 9382SOL    HW130105   5.343   1.663   3.397
 9382SOL    HW230106   5.395   1.591   3.533
 9383SOL     OW30107   4.835   1.195   2.962
 9383SOL    HW130108   4.795   1.239   3.043
 9383SOL    HW230109   4.794   1.232   2.879
 9384SOL     OW30110   5.362   1.099   2.941
 9384SOL    HW130111   5.367   1.180   3.000
 9384SOL    HW230112   5.276   1.101   2.890
 9385SOL     OW30113   4.639   0.089   3.264
 9385SOL    HW130114   4.664   0.069   3.169
 9385SOL    HW230115   4.711   0.145   3.306
 9386SOL     OW30116   4.704   1.116   3.581
 9386SOL    HW130117   4.605   1.122   3.591
 9386SOL    HW230118   4.727   1.036   3.525
 9387SOL     OW30119   4.429   1.050   2.230
 9387SOL    HW130120   4.415   1.057   2.329
 9387SOL    HW230121   4.513   0.999   2.212
 9388SOL     OW30122   4.134   0.813   3.113
 9388SOL    HW130123   4.220   0.825   3.163
 9388SOL    HW230124   4.092   0.726   3.140
 9389SOL     OW30125   4.998   0.386   3.124
 9389SOL    HW130126   5.019   0.460   3.188
 9389SOL    HW230127   4.909   0.403   3.081
 9390SOL     OW30128   3.788   1.564   3.193
 9390SOL    HW130129   3.742   1.646   3.159
 9390SOL    HW230130   3.886   1.583   3.202
 9391SOL     OW30131   4.091   1.100   2.363
 9391SOL    HW130132   4.084   1.183   2.307
 9391SOL    HW230133   4.095   1.020   2.303
 9392SOL     OW30134   4.290   0.537   2.727
 9392SOL    HW130135   4.302   0.603   2.653
 9392SOL    HW230136   4.336   0.571   2.810
 9393SOL     OW30137   4.976   1.348   2.250
 9393SOL    HW130138   5.026   1.425   2.290
 9393SOL    HW230139   4.881   1.350   2.282
 9394SOL     OW30140   4.996   1.445   3.004
 9394SOL    HW130141   5.043   1.458   3.091
 9394SOL    HW230142   4.930   1.371   3.013
 9395SOL     OW30143   5.306   0.639   2.334
 9395SOL    HW130144   5.275   0.700   2.407
 9395SOL    HW230145   5.356   0.691   2.265
 9396SOL     OW30146   4.078   1.510   3.191
 9396SOL    HW130147   4.057   1.466   3.104
 9396SOL    HW230148   4.175   1.536   3.194
 9397SOL     OW30149   4.126   0.751   3.460
 9397SOL    HW130150   4.194   0.806   3.413
 9397SOL    HW230151   4.166   0.663   3.487
 9398SOL     OW30152   5.311   0.779   3.532
 9398SOL    HW130153   5.219   0.817   3.527
 9398SOL    HW230154   5.371   0.826   3.467
 9399SOL     OW30155   4.737   0.105   3.632
 9399SOL    HW130156   4.743   0.190   3.580
 9399SOL    HW230157   4.769   0.029   3.575
 9400SOL     OW30158   4.228   0.050   3.602
 9400SOL    HW130159   4.186  -0.007   3.532
 9400SOL    HW230160   4.162   0.119   3.634
 9401SOL     OW30161   4.297   0.870   2.891
 9401SOL    HW130162   4.341   0.959   2.882
 9401SOL    HW230163   4.234   0.870   2.968
 9402SOL     OW30164   5.084   0.862   2.907
 9402SOL    HW130165   5.009   0.862   2.841
 9402SOL    HW230166   5.121   0.770   2.916
 9403SOL     OW30167   4.933   0.525   2.137
 9403SOL    HW130168   4.946   0.441   2.191
 9403SOL    HW230169   4.904   0.599   2.197
 9404SOL     OW30170   4.031   0.213   3.093
 9404SOL    HW130171   4.008   0.250   3.183
 9404SOL    HW230172   4.001   0.118   3.087
 9405SOL     OW30173   3.761   1.310   3.144
 9405SOL    HW130174   3.814   1.261   3.212
 9405SOL    HW230175   3.783   1.408   3.149
 9406SOL     OW30176   4.456   0.634   2.926
 9406SOL    HW130177   4.515   0.608   2.850
 9406SOL    HW230178   4.428   0.730   2.915
 9407SOL     OW30179   5.452   0.935   3.716
 9407SOL    HW130180   5.406   0.928   3.627
 9407SOL    HW230181   5.390   0.979   3.782
 9408SOL     OW30182   4.031   0.063   2.480
 9408SOL    HW130183   4.020   0.157   2.513
 9408SOL    HW230184   4.026   0.000   2.557
 9409SOL     OW30185   5.346   0.367   2.236
 9409SOL    HW130186   5.348   0.291   2.300
 9409SOL    HW230187   5.298   0.444   2.276
 9410SOL     OW30188   4.747   0.766   2.828
 9410SOL    HW130189   4.762   0.787   2.924
 9410SOL    HW230190   4.717   0.671   2.819
 9411SOL     OW30191   4.704   1.573   3.562
 9411SOL    HW130192   4.684   1.617   3.474
 9411SOL    HW230193   4.743   1.482   3.546
 9412SOL     OW30194   5.583   1.518   3.467
 9412SOL    HW130195   5.597   1.545   3.372
 9412SOL    HW230196   5.666   1.540   3.520
 9413SOL     OW30197   4.074   0.898   3.666
 9413SOL    HW130198   4.150   0.942   3.714
 9413SOL    HW230199   4.109   0.851   3.584
 9414SOL     OW30200   5.264   0.274   1.987
 9414SOL    HW130201   5.203   0.199   2.010
 9414SOL    HW230202   5.286   0.326   2.070
 9415SOL     OW30203   5.027   0.838   1.904
 9415SOL    HW130204   5.061   0.745   1.919
 9415SOL    HW230205   5.045   0.865   1.809
 9416SOL     OW30206   4.792   1.333   2.711
 9416SOL    HW130207   4.799   1.249   2.656
 9416SOL    HW230208   4.854   1.402   2.675
 9417SOL     OW30209   4.043   0.810   2.811
 9417SOL    HW130210   4.136   0.846   2.816
 9417SOL    HW230211   4.037   0.725   2.863
 9418SOL     OW30212   4.063   0.509   2.868
 9418SOL    HW130213   4.011   0.426   2.851
 9418SOL    HW230214   4.140   0.514   2.804
 9419SOL     OW30215   4.862   0.380   3.540
 9419SOL    HW130216   4.817   0.443   3.604
 9419SOL    HW230217   4.955   0.411   3.523
 9420SOL     OW30218   4.884   0.207   3.339
 9420SOL    HW130219   4.884   0.271   3.416
 9420SOL    HW230220   4.912   0.255   3.256
 9421SOL     OW30221   3.732   1.326   2.062
 9421SOL    HW130222   3.639   1.347   2.031
 9421SOL    HW230223   3.742   1.227   2.075
 9422SOL     OW30224   3.812   1.801   2.789
 9422SOL    HW130225   3.770   1.715   2.762
 9422SOL    HW230226   3.906   1.804   2.755
 9423SOL     OW30227   4.228   1.568   2.772
 9423SOL    HW130228   4.294   1.642   2.781
 9423SOL    HW230229   4.272   1.489   2.730
 9424SOL     OW30230   4.726   0.796   3.100
 9424SOL    HW130231   4.767   0.764   3.186
 9424SOL    HW230232   4.630   0.769   3.097
 9425SOL     OW30233   3.764   0.544   2.976
 9425SOL    HW130234   3.849   0.511   2.935
 9425SOL    HW230235   3.777   0.559   3.074
 9426SOL     OW30236   3.913   0.520   3.584
 9426SOL    HW130237   3.972   0.480   3.514
 9426SOL    HW230238   3.855   0.591   3.543
 9427SOL     OW30239   5.093   0.950   3.522
 9427SOL    HW130240   5.132   1.039   3.542
 9427SOL    HW230241   5.103   0.930   3.425
 9428SOL     OW30242   4.539   0.572   2.187
 9428SOL    HW130243   4.546   0.483   2.141
 9428SOL    HW230244   4.445   0.606   2.179
 9429SOL     OW30245   5.381   0.604   3.068
 9429SOL    HW130246   5.343   0.535   3.130
 9429SOL    HW230247   5.463   0.568   3.024
 9430SOL     OW30248   3.976   1.564   3.606
 9430SOL    HW130249   3.946   1.621   3.682
 9430SOL    HW230250   3.969   1.467   3.632
 9431SOL     OW30251   4.395   0.464   3.131
 9431SOL    HW130252   4.361   0.375   3.101
 9431SOL    HW230253   4.421   0.518   3.051
 9432SOL     OW30254   4.654   1.678   3.327
 9432SOL    HW130255   4.630   1.660   3.232
 9432SOL    HW230256   4.684   1.772   3.337
 9433SOL     OW30257   4.197   0.500   2.053
 9433SOL    HW130258   4.258   0.580   2.057
 9433SOL    HW230259   4.102   0.531   2.060
 9434SOL     OW30260   3.883   1.137   3.328
 9434SOL    HW130261   3.905   1.076   3.404
 9434SOL    HW230262   3.893   1.088   3.242
 9435SOL     OW30263   5.071   1.059   3.096
 9435SOL    HW130264   5.095   0.996   3.022
 9435SOL    HW230265   4.981   1.099   3.078
 9436SOL     OW30266   5.026   0.855   2.171
 9436SOL    HW130267   4.940   0.824   2.213
 9436SOL    HW230268   5.022   0.841   2.072
 9437SOL     OW30269   5.483   1.747   3.016
 9437SOL    HW130270   5.544   1.777   2.943
 9437SOL    HW230271   5.445   1.658   2.994
 9438SOL     OW30272   4.976   1.731   2.990
 9438SOL    HW130273   5.060   1.736   2.936
 9438SOL    HW230274   4.953   1.635   3.008
 9439SOL     OW30275   3.807   1.258   2.884
 9439SOL    HW130276   3.802   1.257   2.984
 9439SOL    HW230277   3.724   1.217   2.846
 9440SOL     OW30278   4.412   1.662   3.578
 9440SOL    HW130279   4.356   1.743   3.587
 9440SOL    HW230280   4.464   1.666   3.492
 9441SOL     OW30281   5.450   0.135   2.385
 9441SOL    HW130282   5.523   0.118   2.318
 9441SOL    HW230283   5.419   0.048   2.423
 9442SOL     OW30284   5.112   1.573   2.339
 9442SOL    HW130285   5.179   1.585   2.265
 9442SOL    HW230286   5.072   1.662   2.362
 9443SOL     OW30287   3.854   1.794   3.713
 9443SOL    HW130288   3.813   1.720   3.766
 9443SOL    HW230289   3.918   1.845   3.771
 9444SOL     OW30290   5.004   0.927   2.534
 9444SOL    HW130291   5.064   0.846   2.536
 9444SOL    HW230292   5.044   0.996   2.474
 9445SOL     OW30293   4.554   1.273   3.284
 9445SOL    HW130294   4.549   1.306   3.379
 9445SOL    HW230295   4.468   1.292   3.238
 9446SOL     OW30296   4.396   1.616   2.016
 9446SOL    HW130297   4.405   1.626   1.917
 9446SOL    HW230298   4.356   1.527   2.037
 9447SOL     OW30299   5.374   1.720   3.256
 9447SOL    HW130300   5.427   1.730   3.172
 9447SOL    HW230301   5.347   1.810   3.290
 9448SOL     OW30302   5.565   0.175   2.825
 9448SOL    HW130303   5.604   0.090   2.789
 9448SOL    HW230304   5.467   0.177   2.806
 9449SOL     OW30305   3.987   0.326   2.582
 9449SOL    HW130306   3.908   0.377   2.548
 9449SOL    HW230307   3.978   0.311   2.680
 9450SOL     OW30308   4.918   1.612   1.893
 9450SOL    HW130309   4.924   1.519   1.930
 9450SOL    HW230310   4.859   1.612   1.813
 9451SOL     OW30311   4.546   1.002   3.234
 9451SOL    HW130312   4.586   1.001   3.142
 9451SOL    HW230313   4.556   1.094   3.274
 9452SOL     OW30314   4.640   0.910   2.153
 9452SOL    HW130315   4.703   0.948   2.085
 9452SOL    HW230316   4.680   0.827   2.192
 9453SOL     OW30317   5.228   1.607   1.906
 9453SOL    HW130318   5.136   1.644   1.913
 9453SOL    HW230319   5.266   1.627   1.816
 9454SOL     OW30320   4.096   1.288   3.352
 9454SOL    HW130321   4.083   1.381   3.318
 9454SOL    HW230322   4.012   1.236   3.339
 9455SOL     OW30323   5.338   1.292   3.151
 9455SOL    HW130324   5.398   1.295   3.231
 9455SOL    HW230325   5.263   1.356   3.164
 9456SOL     OW30326   4.763   1.098   2.558
 9456SOL    HW130327   4.693   1.051   2.612
 9456SOL    HW230328   4.822   1.030   2.515
 9457SOL     OW30329   4.738   0.236   2.833
 9457SOL    HW130330   4.730   0.200   2.740
 9457SOL    HW230331   4.736   0.160   2.898
 9458SOL     OW30332   4.314   1.487   2.353
 9458SOL    HW130333   4.356   1.429   2.283
 9458SOL    HW230334   4.270   1.566   2.309
 9459SOL     OW30335   5.433   0.385   3.243
 9459SOL    HW130336   5.506   0.454   3.247
 9459SOL    HW230337   5.461   0.310   3.184
 9460SOL     OW30338   3.979   1.348   2.152
 9460SOL    HW130339   3.883   1.349   2.125
 9460SOL    HW230340   3.991   1.401   2.236
 9461SOL     OW30341   3.829   1.013   3.588
 9461SOL    HW130342   3.752   0.980   3.642
 9461SOL    HW230343   3.914   0.983   3.630
 9462SOL     OW30344   4.396   0.203   3.351
 9462SOL    HW130345   4.486   0.187   3.311
 9462SOL    HW230346   4.404   0.208   3.450
 9463SOL     OW30347   3.799   0.345   1.895
 9463SOL    HW130348   3.707   0.317   1.866
 9463SOL    HW230349   3.830   0.422   1.839
 9464SOL     OW30350   5.164   0.856   3.260
 9464SOL    HW130351   5.107   0.908   3.197
 9464SOL    HW230352   5.260   0.868   3.236
 9465SOL     OW30353   3.796   0.166   2.180
 9465SOL    HW130354   3.779   0.249   2.126
 9465SOL    HW230355   3.886   0.129   2.158
 9466SOL     OW30356   4.907   1.335   1.981
 9466SOL    HW130357   4.808   1.324   1.983
 9466SOL    HW230358   4.941   1.350   2.074
 9467SOL     OW30359   4.337   0.842   3.293
 9467SOL    HW130360   4.393   0.923   3.276
 9467SOL    HW230361   4.396   0.762   3.296
 9468SOL     OW30362   5.217   1.767   2.821
 9468SOL    HW130363   5.250   1.831   2.752
 9468SOL    HW230364   5.283   1.761   2.896
 9469SOL     OW30365   4.440   0.565   3.570
 9469SOL    HW130366   4.459   0.630   3.644
 9469SOL    HW230367   4.500   0.485   3.579
 9470SOL     OW30368   5.174   1.220   3.495
 9470SOL    HW130369   5.165   1.210   3.594
 9470SOL    HW230370   5.270   1.213   3.469
 9471SOL     OW30371   4.114   1.741   3.422
 9471SOL    HW130372   4.023   1.782   3.420
 9471SOL    HW230373   4.107   1.647   3.454
 9472SOL     OW30374   5.398   0.883   3.116
 9472SOL    HW130375   5.371   0.794   3.079
 9472SOL    HW230376   5.399   0.951   3.043
 9473SOL     OW30377   4.949   0.325   2.311
 9473SOL    HW130378   5.014   0.251   2.300
 9473SOL    HW230379   4.969   0.375   2.395
 9474SOL     OW30380   4.318   0.745   2.514
 9474SOL    HW130381   4.368   0.830   2.495
 9474SOL    HW230382   4.230   0.747   2.466
 9475SOL     OW30383   5.501   0.342   3.504
 9475SOL    HW130384   5.484   0.373   3.410
 9475SOL    HW230385   5.417   0.305   3.542
 9476SOL     OW30386   5.454   0.934   3.379
 9476SOL    HW130387   5.492   1.025   3.394
 9476SOL    HW230388   5.446   0.917   3.280
 9477SOL     OW30389   4.583   1.374   1.878
 9477SOL    HW130390   4.537   1.389   1.966
 9477SOL    HW230391   4.627   1.459   1.848
 9478SOL     OW30392   4.385   1.790   2.815
 9478SOL    HW130393   4.339   1.878   2.802
 9478SOL    HW230394   4.484   1.802   2.808
 9479SOL     OW30395   5.132   1.851   3.582
 9479SOL    HW130396   5.036   1.840   3.555
 9479SOL    HW230397   5.188   1.784   3.534
 9480SOL     OW30398   4.583   0.956   2.723
 9480SOL    HW130399   4.637   0.887   2.771
 9480SOL    HW230400   4.551   1.025   2.789
 9481SOL     OW30401   4.807   0.984   1.949
 9481SOL    HW130402   4.784   1.037   1.867
 9481SOL    HW230403   4.888   0.928   1.930
 9482SOL     OW30404   5.585   1.569   2.713
 9482SOL    HW130405   5.514   1.557   2.643
 9482SOL    HW230406   5.586   1.490   2.773
 9483SOL     OW30407   3.945   1.314   3.706
 9483SOL    HW130408   3.880   1.241   3.685
 9483SOL    HW230409   3.949   1.328   3.804
 9484SOL     OW30410   3.803   1.240   2.515
 9484SOL    HW130411   3.802   1.193   2.603
 9484SOL    HW230412   3.885   1.212   2.464
 9485SOL     OW30413   4.396   1.391   3.486
 9485SOL    HW130414   4.318   1.341   3.524
 9485SOL    HW230415   4.393   1.486   3.517
 9486SOL     OW30416   5.548   0.192   3.089
 9486SOL    HW130417   5.544   0.102   3.133
 9486SOL    HW230418   5.551   0.181   2.990
 9487SOL     OW30419   4.152   0.424   2.382
 9487SOL    HW130420   4.182   0.352   2.320
 9487SOL    HW230421   4.113   0.384   2.465
 9488SOL     OW30422   5.429   1.487   2.966
 9488SOL    HW130423   5.336   1.462   2.939
 9488SOL    HW230424   5.455   1.437   3.048
 9489SOL     OW30425   4.041   0.547   3.142
 9489SOL    HW130426   4.079   0.488   3.214
 9489SOL    HW230427   4.081   0.521   3.054
 9490SOL     OW30428   4.536   1.586   2.549
 9490SOL    HW130429   4.568   1.596   2.455
 9490SOL    HW230430   4.457   1.524   2.551
 9491SOL     OW30431   5.148   0.214   2.974
 9491SOL    HW130432   5.200   0.149   3.029
 9491SOL    HW230433   5.099   0.277   3.035
 9492SOL     OW30434   4.725   0.034   3.016
 9492SOL    HW130435   4.662  -0.038   2.985
 9492SOL    HW230436   4.818  -0.002   3.016
 9493SOL     OW30437   4.494   1.330   2.163
 9493SOL    HW130438   4.448   1.243   2.180
 9493SOL    HW230439   4.585   1.327   2.204
 9494SOL     OW30440   4.342   1.567   3.146
 9494SOL    HW130441   4.337   1.649   3.203
 9494SOL    HW230442   4.431   1.564   3.101
 9495SOL     OW30443   5.076   0.052   2.030
 9495SOL    HW130444   5.111   0.011   1.946
 9495SOL    HW230445   4.986   0.014   2.050
 9496SOL     OW30446   5.024   0.453   2.553
 9496SOL    HW130447   4.965   0.533   2.557
 9496SOL    HW230448   5.039   0.418   2.646
 9497SOL     OW30449   5.317   0.221   2.744
 9497SOL    HW130450   5.233   0.220   2.798
 9497SOL    HW230451   5.319   0.304   2.688
 9498SOL     OW30452   3.763   1.077   2.162
 9498SOL    HW130453   3.862   1.066   2.153
 9498SOL    HW230454   3.723   0.991   2.194
 9499SOL     OW30455   4.599   1.646   2.199
 9499SOL    HW130456   4.522   1.611   2.145
 9499SOL    HW230457   4.567   1.717   2.261
 9500SOL     OW30458   3.954   0.628   3.837
 9500SOL    HW130459   3.861   0.626   3.874
 9500SOL    HW230460   3.955   0.589   3.745
 9501SOL     OW30461   3.949   0.275   4.720
 9501SOL    HW130462   3.984   0.258   4.812
 9501SOL    HW230463   3.861   0.230   4.708
 9502SOL     OW30464   3.743   0.368   4.371
 9502SOL    HW130465   3.661   0.411   4.410
 9502SOL    HW230466   3.715   0.295   4.308
 9503SOL     OW30467   4.293   1.275   4.889
 9503SOL    HW130468   4.200   1.268   4.852
 9503SOL    HW230469   4.304   1.364   4.933
 9504SOL     OW30470   5.279   1.511   4.427
 9504SOL    HW130471   5.222   1.495   4.508
 9504SOL    HW230472   5.220   1.521   4.347
 9505SOL     OW30473   5.467   0.618   4.580
 9505SOL    HW130474   5.500   0.712   4.580
 9505SOL    HW230475   5.518   0.564   4.646
 9506SOL     OW30476   4.859   0.703   4.441
 9506SOL    HW130477   4.916   0.781   4.416
 9506SOL    HW230478   4.799   0.729   4.517
 9507SOL     OW30479   5.479   0.607   3.955
 9507SOL    HW130480   5.467   0.594   3.856
 9507SOL    HW230481   5.449   0.526   4.004
 9508SOL     OW30482   4.492   1.144   4.747
 9508SOL    HW130483   4.414   1.161   4.807
 9508SOL    HW230484   4.526   1.231   4.711
 9509SOL     OW30485   4.574   0.798   5.547
 9509SOL    HW130486   4.570   0.874   5.612
 9509SOL    HW230487   4.596   0.834   5.456
 9510SOL     OW30488   4.409   1.012   4.389
 9510SOL    HW130489   4.478   0.996   4.459
 9510SOL    HW230490   4.336   1.069   4.427
 9511SOL     OW30491   4.410   1.161   5.527
 9511SOL    HW130492   4.470   1.240   5.541
 9511SOL    HW230493   4.324   1.192   5.486
 9512SOL     OW30494   4.059   1.435   4.785
 9512SOL    HW130495   3.981   1.404   4.732
 9512SOL    HW230496   4.117   1.493   4.728
 9513SOL     OW30497   5.184   1.505   5.063
 9513SOL    HW130498   5.208   1.599   5.089
 9513SOL    HW230499   5.168   1.451   5.145
 9514SOL     OW30500   4.162   0.392   5.223
 9514SOL    HW130501   4.244   0.336   5.232
 9514SOL    HW230502   4.081   0.334   5.227
 9515SOL     OW30503   5.327   0.447   4.461
 9515SOL    HW130504   5.253   0.493   4.411
 9515SOL    HW230505   5.378   0.515   4.514
 9516SOL     OW30506   3.955   1.713   4.207
 9516SOL    HW130507   3.989   1.790   4.261
 9516SOL    HW230508   3.999   1.713   4.117
 9517SOL     OW30509   4.851   1.341   5.414
 9517SOL    HW130510   4.898   1.341   5.502
 9517SOL    HW230511   4.803   1.254   5.403
 9518SOL     OW30512   3.954   1.434   4.262
 9518SOL    HW130513   3.928   1.530   4.262
 9518SOL    HW230514   3.883   1.380   4.307
 9519SOL     OW30515   3.964   1.091   4.610
 9519SOL    HW130516   3.978   1.007   4.662
 9519SOL    HW230517   3.909   1.155   4.665
 9520SOL     OW30518   4.344   1.786   5.163
 9520SOL    HW130519   4.252   1.769   5.198
 9520SOL    HW230520   4.372   1.878   5.189
 9521SOL     OW30521   4.330   0.964   3.847
 9521SOL    HW130522   4.337   1.048   3.793
 9521SOL    HW230523   4.376   0.977   3.935
 9522SOL     OW30524   5.318   0.114   5.204
 9522SOL    HW130525   5.300   0.181   5.132
 9522SOL    HW230526   5.315   0.160   5.293
 9523SOL     OW30527   3.846   0.643   4.287
 9523SOL    HW130528   3.801   0.555   4.304
 9523SOL    HW230529   3.845   0.697   4.371
 9524SOL     OW30530   5.566   1.767   4.083
 9524SOL    HW130531   5.620   1.738   4.163
 9524SOL    HW230532   5.596   1.857   4.054
 9525SOL     OW30533   3.751   1.596   3.841
 9525SOL    HW130534   3.732   1.500   3.862
 9525SOL    HW230535   3.718   1.654   3.916
 9526SOL     OW30536   5.413   0.922   4.336
 9526SOL    HW130537   5.508   0.893   4.344
 9526SOL    HW230538   5.405   0.987   4.261
 9527SOL     OW30539   5.365   1.108   4.156
 9527SOL    HW130540   5.451   1.110   4.104
 9527SOL    HW230541   5.379   1.155   4.244
 9528SOL     OW30542   3.837   0.737   5.321
 9528SOL    HW130543   3.925   0.724   5.366
 9528SOL    HW230544   3.824   0.834   5.299
 9529SOL     OW30545   4.337   1.365   4.450
 9529SOL    HW130546   4.288   1.278   4.459
 9529SOL    HW230547   4.314   1.408   4.363
 9530SOL     OW30548   5.017   1.228   5.147
 9530SOL    HW130549   5.054   1.155   5.089
 9530SOL    HW230550   5.069   1.233   5.232
 9531SOL     OW30551   4.533   0.004   4.226
 9531SOL    HW130552   4.573   0.095   4.217
 9531SOL    HW230553   4.433   0.012   4.232
 9532SOL     OW30554   3.921   0.976   4.988
 9532SOL    HW130555   4.010   0.931   4.974
 9532SOL    HW230556   3.848   0.911   4.969
 9533SOL     OW30557   5.249   0.999   3.914
 9533SOL    HW130558   5.186   0.923   3.927
 9533SOL    HW230559   5.297   1.017   4.000
 9534SOL     OW30560   4.911   1.792   5.340
 9534SOL    HW130561   4.935   1.852   5.264
 9534SOL    HW230562   4.918   1.697   5.310
 9535SOL     OW30563   4.041   0.251   5.525
 9535SOL    HW130564   4.112   0.322   5.531
 9535SOL    HW230565   3.953   0.290   5.553
 9536SOL     OW30566   5.190   1.417   4.677
 9536SOL    HW130567   5.131   1.423   4.757
 9536SOL    HW230568   5.175   1.329   4.631
 9537SOL     OW30569   5.391   1.714   4.296
 9537SOL    HW130570   5.350   1.691   4.208
 9537SOL    HW230571   5.373   1.640   4.361
 9538SOL     OW30572   4.322   0.729   3.994
 9538SOL    HW130573   4.346   0.798   3.926
 9538SOL    HW230574   4.244   0.762   4.048
 9539SOL     OW30575   5.005   0.345   4.668
 9539SOL    HW130576   4.919   0.295   4.655
 9539SOL    HW230577   5.067   0.291   4.724
 9540SOL     OW30578   5.300   1.662   4.031
 9540SOL    HW130579   5.389   1.708   4.034
 9540SOL    HW230580   5.279   1.638   3.936
 9541SOL     OW30581   4.531   0.605   5.189
 9541SOL    HW130582   4.484   0.602   5.278
 9541SOL    HW230583   4.480   0.550   5.123
 9542SOL     OW30584   5.118   0.469   5.398
 9542SOL    HW130585   5.098   0.512   5.486
 9542SOL    HW230586   5.196   0.407   5.407
 9543SOL     OW30587   4.697   0.890   5.296
 9543SOL    HW130588   4.743   0.806   5.267
 9543SOL    HW230589   4.641   0.924   5.221
 9544SOL     OW30590   4.715   0.410   4.966
 9544SOL    HW130591   4.638   0.444   5.020
 9544SOL    HW230592   4.681   0.359   4.887
 9545SOL     OW30593   4.765   0.701   4.153
 9545SOL    HW130594   4.791   0.697   4.249
 9545SOL    HW230595   4.680   0.650   4.139
 9546SOL     OW30596   3.800   0.811   4.513
 9546SOL    HW130597   3.899   0.799   4.522
 9546SOL    HW230598   3.776   0.906   4.534
 9547SOL     OW30599   3.854   1.821   5.295
 9547SOL    HW130600   3.844   1.806   5.394
 9547SOL    HW230601   3.768   1.857   5.259
 9548SOL     OW30602   4.589   0.348   3.919
 9548SOL    HW130603   4.648   0.411   3.870
 9548SOL    HW230604   4.608   0.254   3.890
 9549SOL     OW30605   5.443   0.585   5.555
 9549SOL    HW130606   5.417   0.674   5.519
 9549SOL    HW230607   5.441   0.517   5.482
 9550SOL     OW30608   5.086   1.144   4.269
 9550SOL    HW130609   5.169   1.115   4.221
 9550SOL    HW230610   5.037   1.211   4.213
 9551SOL     OW30611   4.274   0.196   4.609
 9551SOL    HW130612   4.269   0.191   4.709
 9551SOL    HW230613   4.276   0.292   4.580
 9552SOL     OW30614   4.732   1.456   4.201
 9552SOL    HW130615   4.686   1.528   4.149
 9552SOL    HW230616   4.728   1.476   4.299
 9553SOL     OW30617   4.075   1.801   4.577
 9553SOL    HW130618   4.125   1.715   4.583
 9553SOL    HW230619   4.140   1.878   4.574
 9554SOL     OW30620   5.519   1.066   4.597
 9554SOL    HW130621   5.457   1.051   4.521
 9554SOL    HW230622   5.467   1.077   4.682
 9555SOL     OW30623   4.951   1.550   5.230
 9555SOL    HW130624   4.957   1.473   5.294
 9555SOL    HW230625   4.899   1.524   5.150
 9556SOL     OW30626   4.045   0.943   3.966
 9556SOL    HW130627   4.127   0.982   3.924
 9556SOL    HW230628   4.018   0.861   3.917
 9557SOL     OW30629   5.182   0.735   4.452
 9557SOL    HW130630   5.177   0.670   4.527
 9557SOL    HW230631   5.262   0.794   4.465
 9558SOL     OW30632   4.185   1.266   5.451
 9558SOL    HW130633   4.135   1.267   5.365
 9558SOL    HW230634   4.122   1.248   5.527
 9559SOL     OW30635   4.835   1.776   3.961
 9559SOL    HW130636   4.775   1.714   4.011
 9559SOL    HW230637   4.866   1.732   3.876
 9560SOL     OW30638   3.926   0.285   5.222
 9560SOL    HW130639   3.846   0.345   5.209
 9560SOL    HW230640   3.916   0.236   5.308
 9561SOL     OW30641   5.356   1.377   3.805
 9561SOL    HW130642   5.324   1.471   3.795
 9561SOL    HW230643   5.280   1.314   3.793
 9562SOL     OW30644   4.188   1.743   4.047
 9562SOL    HW130645   4.221   1.782   4.133
 9562SOL    HW230646   4.264   1.736   3.982
 9563SOL     OW30647   5.124   0.107   4.150
 9563SOL    HW130648   5.100   0.070   4.060
 9563SOL    HW230649   5.223   0.123   4.154
 9564SOL     OW30650   3.973   1.785   4.965
 9564SOL    HW130651   4.030   1.720   5.015
 9564SOL    HW230652   3.957   1.752   4.872
 9565SOL     OW30653   4.664   1.698   4.628
 9565SOL    HW130654   4.744   1.641   4.649
 9565SOL    HW230655   4.615   1.658   4.551
 9566SOL     OW30656   4.106   0.700   4.204
 9566SOL    HW130657   4.151   0.610   4.201
 9566SOL    HW230658   4.012   0.689   4.237
 9567SOL     OW30659   5.271   0.222   5.453
 9567SOL    HW130660   5.266   0.259   5.545
 9567SOL    HW230661   5.199   0.153   5.441
 9568SOL     OW30662   4.338   0.122   3.841
 9568SOL    HW130663   4.436   0.100   3.848
 9568SOL    HW230664   4.307   0.105   3.748
 9569SOL     OW30665   4.505   0.264   5.473
 9569SOL    HW130666   4.572   0.203   5.516
 9569SOL    HW230667   4.432   0.283   5.538
 9570SOL     OW30668   4.612   1.514   4.919
 9570SOL    HW130669   4.589   1.489   4.825
 9570SOL    HW230670   4.673   1.445   4.958
 9571SOL     OW30671   5.075   0.590   5.157
 9571SOL    HW130672   5.103   0.547   5.242
 9571SOL    HW230673   5.100   0.686   5.158
 9572SOL     OW30674   4.527   1.402   4.648
 9572SOL    HW130675   4.617   1.416   4.606
 9572SOL    HW230676   4.456   1.404   4.577
 9573SOL     OW30677   4.646   0.503   4.623
 9573SOL    HW130678   4.621   0.494   4.527
 9573SOL    HW230679   4.694   0.421   4.654
 9574SOL     OW30680   4.263   0.064   4.236
 9574SOL    HW130681   4.182   0.065   4.294
 9574SOL    HW230682   4.266   0.147   4.181
 9575SOL     OW30683   5.158   1.188   3.765
 9575SOL    HW130684   5.190   1.112   3.822
 9575SOL    HW230685   5.066   1.215   3.795
 9576SOL     OW30686   4.021   0.035   3.895
 9576SOL    HW130687   4.070   0.119   3.874
 9576SOL    HW230688   4.083  -0.030   3.940
 9577SOL     OW30689   4.659   0.236   4.204
 9577SOL    HW130690   4.611   0.277   4.126
 9577SOL    HW230691   4.758   0.234   4.185
 9578SOL     OW30692   4.800   0.683   5.188
 9578SOL    HW130693   4.720   0.622   5.191
 9578SOL    HW230694   4.881   0.630   5.164
 9579SOL     OW30695   4.951   1.570   4.517
 9579SOL    HW130696   4.972   1.644   4.452
 9579SOL    HW230697   5.019   1.570   4.590
 9580SOL     OW30698   4.183   1.152   4.465
 9580SOL    HW130699   4.112   1.125   4.530
 9580SOL    HW230700   4.157   1.124   4.372
 9581SOL     OW30701   4.995   1.797   4.315
 9581SOL    HW130702   5.039   1.861   4.251
 9581SOL    HW230703   4.945   1.849   4.385
 9582SOL     OW30704   4.756   0.549   3.740
 9582SOL    HW130705   4.715   0.631   3.701
 9582SOL    HW230706   4.820   0.575   3.813
 9583SOL     OW30707   3.802   0.556   5.110
 9583SOL    HW130708   3.894   0.555   5.069
 9583SOL    HW230709   3.796   0.630   5.177
 9584SOL     OW30710   4.285   0.222   4.871
 9584SOL    HW130711   4.323   0.138   4.908
 9584SOL    HW230712   4.197   0.241   4.915
 9585SOL     OW30713   4.590   0.454   4.366
 9585SOL    HW130714   4.558   0.526   4.304
 9585SOL    HW230715   4.614   0.373   4.313
 9586SOL     OW30716   4.741   0.039   4.477
 9586SOL    HW130717   4.669   0.044   4.408
 9586SOL    HW230718   4.717  -0.030   4.546
 9587SOL     OW30719   5.153   1.173   4.591
 9587SOL    HW130720   5.098   1.089   4.584
 9587SOL    HW230721   5.179   1.202   4.499
 9588SOL     OW30722   5.190   0.590   4.716
 9588SOL    HW130723   5.160   0.495   4.723
 9588SOL    HW230724   5.263   0.606   4.782
 9589SOL     OW30725   5.581   0.833   4.101
 9589SOL    HW130726   5.623   0.769   4.165
 9589SOL    HW230727   5.543   0.782   4.023
 9590SOL     OW30728   4.212   1.385   3.898
 9590SOL    HW130729   4.125   1.370   3.945
 9590SOL    HW230730   4.195   1.411   3.803
 9591SOL     OW30731   5.388   1.280   4.381
 9591SOL    HW130732   5.487   1.288   4.395
 9591SOL    HW230733   5.343   1.364   4.412
 9592SOL     OW30734   5.114   0.575   3.802
 9592SOL    HW130735   5.060   0.554   3.883
 9592SOL    HW230736   5.205   0.534   3.811
 9593SOL     OW30737   4.251   0.256   4.052
 9593SOL    HW130738   4.278   0.197   3.977
 9593SOL    HW230739   4.251   0.351   4.021
 9594SOL     OW30740   5.478   1.223   5.312
 9594SOL    HW130741   5.569   1.184   5.299
 9594SOL    HW230742   5.486   1.319   5.336
 9595SOL     OW30743   4.788   1.347   5.064
 9595SOL    HW130744   4.708   1.324   5.119
 9595SOL    HW230745   4.871   1.321   5.113
 9596SOL     OW30746   5.316   1.629   5.349
 9596SOL    HW130747   5.343   1.663   5.259
 9596SOL    HW230748   5.395   1.591   5.395
 9597SOL     OW30749   4.835   1.195   4.824
 9597SOL    HW130750   4.795   1.239   4.905
 9597SOL    HW230751   4.794   1.232   4.741
 9598SOL     OW30752   5.362   1.099   4.803
 9598SOL    HW130753   5.367   1.180   4.862
 9598SOL    HW230754   5.276   1.101   4.752
 9599SOL     OW30755   4.639   0.089   5.126
 9599SOL    HW130756   4.664   0.069   5.031
 9599SOL    HW230757   4.711   0.145   5.168
 9600SOL     OW30758   4.704   1.116   5.443
 9600SOL    HW130759   4.605   1.122   5.453
 9600SOL    HW230760   4.727   1.036   5.387
 9601SOL     OW30761   4.429   1.050   4.092
 9601SOL    HW130762   4.415   1.057   4.191
 9601SOL    HW230763   4.513   0.999   4.074
 9602SOL     OW30764   4.134   0.813   4.975
 9602SOL    HW130765   4.220   0.825   5.025
 9602SOL    HW230766   4.092   0.726   5.002
 9603SOL     OW30767   4.998   0.386   4.986
 9603SOL    HW130768   5.019   0.460   5.050
 9603SOL    HW230769   4.909   0.403   4.943
 9604SOL     OW30770   3.788   1.564   5.055
 9604SOL    HW130771   3.742   1.646   5.021
 9604SOL    HW230772   3.886   1.583   5.064
 9605SOL     OW30773   4.091   1.100   4.225
 9605SOL    HW130774   4.084   1.183   4.169
 9605SOL    HW230775   4.095   1.020   4.165
 9606SOL     OW30776   4.290   0.537   4.589
 9606SOL    HW130777   4.302   0.603   4.515
 9606SOL    HW230778   4.336   0.571   4.672
 9607SOL     OW30779   4.976   1.348   4.112
 9607SOL    HW130780   5.026   1.425   4.152
 9607SOL    HW230781   4.881   1.350   4.144
 9608SOL     OW30782   4.996   1.445   4.866
 9608SOL    HW130783   5.043   1.458   4.953
 9608SOL    HW230784   4.930   1.371   4.875
 9609SOL     OW30785   5.306   0.639   4.196
 9609SOL    HW130786   5.275   0.700   4.269
 9609SOL    HW230787   5.356   0.691   4.127
 9610SOL     OW30788   4.078   1.510   5.053
 9610SOL    HW130789   4.057   1.466   4.966
 9610SOL    HW230790   4.175   1.536   5.056
 9611SOL     OW30791   4.126   0.751   5.322
 9611SOL    HW130792   4.194   0.806   5.275
 9611SOL    HW230793   4.166   0.663   5.349
 9612SOL     OW30794   5.311   0.779   5.394
 9612SOL    HW130795   5.219   0.817   5.389
 9612SOL    HW230796   5.371   0.826   5.329
 9613SOL     OW30797   4.737   0.105   5.494
 9613SOL    HW130798   4.743   0.190   5.442
 9613SOL    HW230799   4.769   0.029   5.437
 9614SOL     OW30800   4.228   0.050   5.464
 9614SOL    HW130801   4.186  -0.007   5.394
 9614SOL    HW230802   4.162   0.119   5.496
 9615SOL     OW30803   4.297   0.870   4.753
 9615SOL    HW130804   4.341   0.959   4.744
 9615SOL    HW230805   4.234   0.870   4.830
 9616SOL     OW30806   5.084   0.862   4.769
 9616SOL    HW130807   5.009   0.862   4.703
 9616SOL    HW230808   5.121   0.770   4.778
 9617SOL     OW30809   4.933   0.525   3.999
 9617SOL    HW130810   4.946   0.441   4.053
 9617SOL    HW230811   4.904   0.599   4.059
 9618SOL     OW30812   4.031   0.213   4.955
 9618SOL    HW130813   4.008   0.250   5.045
 9618SOL    HW230814   4.001   0.118   4.949
 9619SOL     OW30815   3.761   1.310   5.006
 9619SOL    HW130816   3.814   1.261   5.074
 9619SOL    HW230817   3.783   1.408   5.011
 9620SOL     OW30818   4.456   0.634   4.788
 9620SOL    HW130819   4.515   0.608   4.712
 9620SOL    HW230820   4.428   0.730   4.777
 9621SOL     OW30821   5.452   0.935   5.578
 9621SOL    HW130822   5.406   0.928   5.489
 9621SOL    HW230823   5.390   0.979   5.644
 9622SOL     OW30824   4.031   0.063   4.342
 9622SOL    HW130825   4.020   0.157   4.375
 9622SOL    HW230826   4.026   0.000   4.419
 9623SOL     OW30827   5.346   0.367   4.098
 9623SOL    HW130828   5.348   0.291   4.162
 9623SOL    HW230829   5.298   0.444   4.138
 9624SOL     OW30830   4.747   0.766   4.690
 9624SOL    HW130831   4.762   0.787   4.786
 9624SOL    HW230832   4.717   0.671   4.681
 9625SOL     OW30833   4.704   1.573   5.424
 9625SOL    HW130834   4.684   1.617   5.336
 9625SOL    HW230835   4.743   1.482   5.408
 9626SOL     OW30836   5.583   1.518   5.329
 9626SOL    HW130837   5.597   1.545   5.234
 9626SOL    HW230838   5.666   1.540   5.382
 9627SOL     OW30839   4.074   0.898   5.528
 9627SOL    HW130840   4.150   0.942   5.576
 9627SOL    HW230841   4.109   0.851   5.446
 9628SOL     OW30842   5.264   0.274   3.849
 9628SOL    HW130843   5.203   0.199   3.872
 9628SOL    HW230844   5.286   0.326   3.932
 9629SOL     OW30845   5.027   0.838   3.766
 9629SOL    HW130846   5.061   0.745   3.781
 9629SOL    HW230847   5.045   0.865   3.671
 9630SOL     OW30848   4.792   1.333   4.573
 9630SOL    HW130849   4.799   1.249   4.518
 9630SOL    HW230850   4.854   1.402   4.537
 9631SOL     OW30851   4.043   0.810   4.673
 9631SOL    HW130852   4.136   0.846   4.678
 9631SOL    HW230853   4.037   0.725   4.725
 9632SOL     OW30854   4.063   0.509   4.730
 9632SOL    HW130855   4.011   0.426   4.713
 9632SOL    HW230856   4.140   0.514   4.666
 9633SOL     OW30857   4.862   0.380   5.402
 9633SOL    HW130858   4.817   0.443   5.466
 9633SOL    HW230859   4.955   0.411   5.385
 9634SOL     OW30860   4.884   0.207   5.201
 9634SOL    HW130861   4.884   0.271   5.278
 9634SOL    HW230862   4.912   0.255   5.118
 9635SOL     OW30863   3.732   1.326   3.924
 9635SOL    HW130864   3.639   1.347   3.893
 9635SOL    HW230865   3.742   1.227   3.937
 9636SOL     OW30866   3.812   1.801   4.651
 9636SOL    HW130867   3.770   1.715   4.624
 9636SOL    HW230868   3.906   1.804   4.617
 9637SOL     OW30869   4.228   1.568   4.634
 9637SOL    HW130870   4.294   1.642   4.643
 9637SOL    HW230871   4.272   1.489   4.592
 9638SOL     OW30872   4.726   0.796   4.962
 9638SOL    HW130873   4.767   0.764   5.048
 9638SOL    HW230874   4.630   0.769   4.959
 9639SOL     OW30875   3.764   0.544   4.838
 9639SOL    HW130876   3.849   0.511   4.797
 9639SOL    HW230877   3.777   0.559   4.936
 9640SOL     OW30878   3.913   0.520   5.446
 9640SOL    HW130879   3.972   0.480   5.376
 9640SOL    HW230880   3.855   0.591   5.405
 9641SOL     OW30881   5.093   0.950   5.384
 9641SOL    HW130882   5.132   1.039   5.404
 9641SOL    HW230883   5.103   0.930   5.287
 9642SOL     OW30884   4.539   0.572   4.049
 9642SOL    HW130885   4.546   0.483   4.003
 9642SOL    HW230886   4.445   0.606   4.041
 9643SOL     OW30887   5.381   0.604   4.930
 9643SOL    HW130888   5.343   0.535   4.992
 9643SOL    HW230889   5.463   0.568   4.886
 9644SOL     OW30890   3.976   1.564   5.468
 9644SOL    HW130891   3.946   1.621   5.544
 9644SOL    HW230892   3.969   1.467   5.494
 9645SOL     OW30893   4.395   0.464   4.993
 9645SOL    HW130894   4.361   0.375   4.963
 9645SOL    HW230895   4.421   0.518   4.913
 9646SOL     OW30896   4.654   1.678   5.189
 9646SOL    HW130897   4.630   1.660   5.094
 9646SOL    HW230898   4.684   1.772   5.199
 9647SOL     OW30899   4.197   0.500   3.915
 9647SOL    HW130900   4.258   0.580   3.919
 9647SOL    HW230901   4.102   0.531   3.922
 9648SOL     OW30902   3.883   1.137   5.190
 9648SOL    HW130903   3.905   1.076   5.266
 9648SOL    HW230904   3.893   1.088   5.104
 9649SOL     OW30905   5.071   1.059   4.958
 9649SOL    HW130906   5.095   0.996   4.884
 9649SOL    HW230907   4.981   1.099   4.940
 9650SOL     OW30908   5.026   0.855   4.033
 9650SOL    HW130909   4.940   0.824   4.075
 9650SOL    HW230910   5.022   0.841   3.934
 9651SOL     OW30911   5.483   1.747   4.878
 9651SOL    HW130912   5.544   1.777   4.805
 9651SOL    HW230913   5.445   1.658   4.856
 9652SOL     OW30914   4.976   1.731   4.852
 9652SOL    HW130915   5.060   1.736   4.798
 9652SOL    HW230916   4.953   1.635   4.870
 9653SOL     OW30917   3.807   1.258   4.746
 9653SOL    HW130918   3.802   1.257   4.846
 9653SOL    HW230919   3.724   1.217   4.708
 9654SOL     OW30920   4.412   1.662   5.440
 9654SOL    HW130921   4.356   1.743   5.449
 9654SOL    HW230922   4.464   1.666   5.354
 9655SOL     OW30923   5.450   0.135   4.247
 9655SOL    HW130924   5.523   0.118   4.180
 9655SOL    HW230925   5.419   0.048   4.285
 9656SOL     OW30926   5.112   1.573   4.201
 9656SOL    HW130927   5.179   1.585   4.127
 9656SOL    HW230928   5.072   1.662   4.224
 9657SOL     OW30929   3.854   1.794   5.575
 9657SOL    HW130930   3.813   1.720   5.628
 9657SOL    HW230931   3.918   1.845   5.633
 9658SOL     OW30932   5.004   0.927   4.396
 9658SOL    HW130933   5.064   0.846   4.398
 9658SOL    HW230934   5.044   0.996   4.336
 9659SOL     OW30935   4.554   1.273   5.146
 9659SOL    HW130936   4.549   1.306   5.241
 9659SOL    HW230937   4.468   1.292   5.100
 9660SOL     OW30938   4.396   1.616   3.878
 9660SOL    HW130939   4.405   1.626   3.779
 9660SOL    HW230940   4.356   1.527   3.899
 9661SOL     OW30941   5.374   1.720   5.118
 9661SOL    HW130942   5.427   1.730   5.034
 9661SOL    HW230943   5.347   1.810   5.152
 9662SOL     OW30944   5.565   0.175   4.687
 9662SOL    HW130945   5.604   0.090   4.651
 9662SOL    HW230946   5.467   0.177   4.668
 9663SOL     OW30947   3.987   0.326   4.444
 9663SOL    HW130948   3.908   0.377   4.410
 9663SOL    HW230949   3.978   0.311   4.542
 9664SOL     OW30950   4.918   1.612   3.755
 9664SOL    HW130951   4.924   1.519   3.792
 9664SOL    HW230952   4.859   1.612   3.675
 9665SOL     OW30953   4.546   1.002   5.096
 9665SOL    HW130954   4.586   1.001   5.004
 9665SOL    HW230955   4.556   1.094   5.136
 9666SOL     OW30956   4.640   0.910   4.015
 9666SOL    HW130957   4.703   0.948   3.947
 9666SOL    HW230958   4.680   0.827   4.054
 9667SOL     OW30959   5.228   1.607   3.768
 9667SOL    HW130960   5.136   1.644   3.775
 9667SOL    HW230961   5.266   1.627   3.678
 9668SOL     OW30962   4.096   1.288   5.214
 9668SOL    HW130963   4.083   1.381   5.180
 9668SOL    HW230964   4.012   1.236   5.201
 9669SOL     OW30965   5.338   1.292   5.013
 9669SOL    HW130966   5.398   1.295   5.093
 9669SOL    HW230967   5.263   1.356   5.026
 9670SOL     OW30968   4.763   1.098   4.420
 9670SOL    HW130969   4.693   1.051   4.474
 9670SOL    HW230970   4.822   1.030   4.377
 9671SOL     OW30971   4.738   0.236   4.695
 9671SOL    HW130972   4.730   0.200   4.602
 9671SOL    HW230973   4.736   0.160   4.760
 9672SOL     OW30974   4.314   1.487   4.215
 9672SOL    HW130975   4.356   1.429   4.145
 9672SOL    HW230976   4.270   1.566   4.171
 9673SOL     OW30977   5.433   0.385   5.105
 9673SOL    HW130978   5.506   0.454   5.109
 9673SOL    HW230979   5.461   0.310   5.046
 9674SOL     OW30980   3.979   1.348   4.014
 9674SOL    HW130981   3.883   1.349   3.987
 9674SOL    HW230982   3.991   1.401   4.098
 9675SOL     OW30983   3.829   1.013   5.450
 9675SOL    HW130984   3.752   0.980   5.504
 9675SOL    HW230985   3.914   0.983   5.492
 9676SOL     OW30986   4.396   0.203   5.213
 9676SOL    HW130987   4.486   0.187   5.173
 9676SOL    HW230988   4.404   0.208   5.312
 9677SOL     OW30989   3.799   0.345   3.757
 9677SOL    HW130990   3.707   0.317   3.728
 9677SOL    HW230991   3.830   0.422   3.701
 9678SOL     OW30992   5.164   0.856   5.122
 9678SOL    HW130993   5.107   0.908   5.059
 9678SOL    HW230994   5.260   0.868   5.098
 9679SOL     OW30995   3.796   0.166   4.042
 9679SOL    HW130996   3.779   0.249   3.988
 9679SOL    HW230997   3.886   0.129   4.020
 9680SOL     OW30998   4.907   1.335   3.843
 9680SOL    HW130999   4.808   1.324   3.845
 9680SOL    HW231000   4.941   1.350   3.936
 9681SOL     OW31001   4.337   0.842   5.155
 9681SOL    HW131002   4.393   0.923   5.138
 9681SOL    HW231003   4.396   0.762   5.158
 9682SOL     OW31004   5.217   1.767   4.683
 9682SOL    HW131005   5.250   1.831   4.614
 9682SOL    HW231006   5.283   1.761   4.758
 9683SOL     OW31007   4.440   0.565   5.432
 9683SOL    HW131008   4.459   0.630   5.506
 9683SOL    HW231009   4.500   0.485   5.441
 9684SOL     OW31010   5.174   1.220   5.357
 9684SOL    HW131011   5.165   1.210   5.456
 9684SOL    HW231012   5.270   1.213   5.331
 9685SOL     OW31013   4.114   1.741   5.284
 9685SOL    HW131014   4.023   1.782   5.282
 9685SOL    HW231015   4.107   1.647   5.316
 9686SOL     OW31016   5.398   0.883   4.978
 9686SOL    HW131017   5.371   0.794   4.941
 9686SOL    HW231018   5.399   0.951   4.905
 9687SOL     OW31019   4.949   0.325   4.173
 9687SOL    HW131020   5.014   0.251   4.162
 9687SOL    HW231021   4.969   0.375   4.257
 9688SOL     OW31022   4.318   0.745   4.376
 9688SOL    HW131023   4.368   0.830   4.357
 9688SOL    HW231024   4.230   0.747   4.328
 9689SOL     OW31025   5.501   0.342   5.366
 9689SOL    HW131026   5.484   0.373   5.272
 9689SOL    HW231027   5.417   0.305   5.404
 9690SOL     OW31028   5.454   0.934   5.241
 9690SOL    HW131029   5.492   1.025   5.256
 9690SOL    HW231030   5.446   0.917   5.142
 9691SOL     OW31031   4.583   1.374   3.740
 9691SOL    HW131032   4.537   1.389   3.828
 9691SOL    HW231033   4.627   1.459   3.710
 9692SOL     OW31034   4.385   1.790   4.677
 9692SOL    HW131035   4.339   1.878   4.664
 9692SOL    HW231036   4.484   1.802   4.670
 9693SOL     OW31037   5.132   1.851   5.444
 9693SOL    HW131038   5.036   1.840   5.417
 9693SOL    HW231039   5.188   1.784   5.396
 9694SOL     OW31040   4.583   0.956   4.585
 9694SOL    HW131041   4.637   0.887   4.633
 9694SOL    HW231042   4.551   1.025   4.651
 9695SOL     OW31043   4.807   0.984   3.811
 9695SOL    HW131044   4.784   1.037   3.729
 9695SOL    HW231045   4.888   0.928   3.792
 9696SOL     OW31046   5.585   1.569   4.575
 9696SOL    HW131047   5.514   1.557   4.505
 9696SOL    HW231048   5.586   1.490   4.635
 9697SOL     OW31049   3.945   1.314   5.568
 9697SOL    HW131050   3.880   1.241   5.547
 9697SOL    HW231051   3.949   1.328   5.666
 9698SOL     OW31052   3.803   1.240   4.377
 9698SOL    HW131053   3.802   1.193   4.465
 9698SOL    HW231054   3.885   1.212   4.326
 9699SOL     OW31055   4.396   1.391   5.348
 9699SOL    HW131056   4.318   1.341   5.386
 9699SOL    HW231057   4.393   1.486   5.379
 9700SOL     OW31058   5.548   0.192   4.951
 9700SOL    HW131059   5.544   0.102   4.995
 9700SOL    HW231060   5.551   0.181   4.852
 9701SOL     OW31061   4.152   0.424   4.244
 9701SOL    HW131062   4.182   0.352   4.182
 9701SOL    HW231063   4.113   0.384   4.327
 9702SOL     OW31064   5.429   1.487   4.828
 9702SOL    HW131065   5.336   1.462   4.801
 9702SOL    HW231066   5.455   1.437   4.910
 9703SOL     OW31067   4.041   0.547   5.004
 9703SOL    HW131068   4.079   0.488   5.076
 9703SOL    HW231069   4.081   0.521   4.916
 9704SOL     OW31070   4.536   1.586   4.411
 9704SOL    HW131071   4.568   1.596   4.317
 9704SOL    HW231072   4.457   1.524   4.413
 9705SOL     OW31073   5.148   0.214   4.836
 9705SOL    HW131074   5.200   0.149   4.891
 9705SOL    HW231075   5.099   0.277   4.897
 9706SOL     OW31076   4.725   0.034   4.878
 9706SOL    HW131077   4.662  -0.038   4.847
 9706SOL    HW231078   4.818  -0.002   4.878
 9707SOL     OW31079   4.494   1.330   4.025
 9707SOL    HW131080   4.448   1.243   4.042
 9707SOL    HW231081   4.585   1.327   4.066
 9708SOL     OW31082   4.342   1.567   5.008
 9708SOL    HW131083   4.337   1.649   5.065
 9708SOL    HW231084   4.431   1.564   4.963
 9709SOL     OW31085   5.076   0.052   3.892
 9709SOL    HW131086   5.111   0.011   3.808
 9709SOL    HW231087   4.986   0.014   3.912
 9710SOL     OW31088   5.024   0.453   4.415
 9710SOL    HW131089   4.965   0.533   4.419
 9710SOL    HW231090   5.039   0.418   4.508
 9711SOL     OW31091   5.317   0.221   4.606
 9711SOL    HW131092   5.233   0.220   4.660
 9711SOL    HW231093   5.319   0.304   4.550
 9712SOL     OW31094   3.763   1.077   4.024
 9712SOL    HW131095   3.862   1.066   4.015
 9712SOL    HW231096   3.723   0.991   4.056
 9713SOL     OW31097   4.599   1.646   4.061
 9713SOL    HW131098   4.522   1.611   4.007
 9713SOL    HW231099   4.567   1.717   4.123
 9714SOL     OW31100   3.954   0.628   5.699
 9714SOL    HW131101   3.861   0.626   5.736
 9714SOL    HW231102   3.955   0.589   5.607
 9715SOL     OW31103   3.949   0.275   6.582
 9715SOL    HW131104   3.984   0.258   6.674
 9715SOL    HW231105   3.861   0.230   6.570
 9716SOL     OW31106   3.743   0.368   6.233
 9716SOL    HW131107   3.661   0.411   6.272
 9716SOL    HW231108   3.715   0.295   6.170
 9717SOL     OW31109   4.293   1.275   6.751
 9717SOL    HW131110   4.200   1.268   6.714
 9717SOL    HW231111   4.304   1.364   6.795
 9718SOL     OW31112   5.279   1.511   6.289
 9718SOL    HW131113   5.222   1.495   6.370
 9718SOL    HW231114   5.220   1.521   6.209
 9719SOL     OW31115   5.467   0.618   6.442
 9719SOL    HW131116   5.500   0.712   6.442
 9719SOL    HW231117   5.518   0.564   6.508
 9720SOL     OW31118   4.859   0.703   6.303
 9720SOL    HW131119   4.916   0.781   6.278
 9720SOL    HW231120   4.799   0.729   6.379
 9721SOL     OW31121   5.479   0.607   5.817
 9721SOL    HW131122   5.467   0.594   5.718
 9721SOL    HW231123   5.449   0.526   5.866
 9722SOL     OW31124   4.492   1.144   6.609
 9722SOL    HW131125   4.414   1.161   6.669
 9722SOL    HW231126   4.526   1.231   6.573
 9723SOL     OW31127   4.574   0.798   7.409
 9723SOL    HW131128   4.570   0.874   7.474
 9723SOL    HW231129   4.596   0.834   7.318
 9724SOL     OW31130   4.409   1.012   6.251
 9724SOL    HW131131   4.478   0.996   6.321
 9724SOL    HW231132   4.336   1.069   6.289
 9725SOL     OW31133   4.410   1.161   7.389
 9725SOL    HW131134   4.470   1.240   7.403
 9725SOL    HW231135   4.324   1.192   7.348
 9726SOL     OW31136   4.059   1.435   6.647
 9726SOL    HW131137   3.981   1.404   6.594
 9726SOL    HW231138   4.117   1.493   6.590
 9727SOL     OW31139   5.184   1.505   6.925
 9727SOL    HW131140   5.208   1.599   6.951
 9727SOL    HW231141   5.168   1.451   7.007
 9728SOL     OW31142   4.162   0.392   7.085
 9728SOL    HW131143   4.244   0.336   7.094
 9728SOL    HW231144   4.081   0.334   7.089
 9729SOL     OW31145   5.327   0.447   6.323
 9729SOL    HW131146   5.253   0.493   6.273
 9729SOL    HW231147   5.378   0.515   6.376
 9730SOL     OW31148   3.955   1.713   6.069
 9730SOL    HW131149   3.989   1.790   6.123
 9730SOL    HW231150   3.999   1.713   5.979
 9731SOL     OW31151   4.851   1.341   7.276
 9731SOL    HW131152   4.898   1.341   7.364
 9731SOL    HW231153   4.803   1.254   7.265
 9732SOL     OW31154   3.954   1.434   6.124
 9732SOL    HW131155   3.928   1.530   6.124
 9732SOL    HW231156   3.883   1.380   6.169
 9733SOL     OW31157   3.964   1.091   6.472
 9733SOL    HW131158   3.978   1.007   6.524
 9733SOL    HW231159   3.909   1.155   6.527
 9734SOL     OW31160   4.344   1.786   7.025
 9734SOL    HW131161   4.252   1.769   7.060
 9734SOL    HW231162   4.372   1.878   7.051
 9735SOL     OW31163   4.330   0.964   5.709
 9735SOL    HW131164   4.337   1.048   5.655
 9735SOL    HW231165   4.376   0.977   5.797
 9736SOL     OW31166   5.318   0.114   7.066
 9736SOL    HW131167   5.300   0.181   6.994
 9736SOL    HW231168   5.315   0.160   7.155
 9737SOL     OW31169   3.846   0.643   6.149
 9737SOL    HW131170   3.801   0.555   6.166
 9737SOL    HW231171   3.845   0.697   6.233
 9738SOL     OW31172   5.566   1.767   5.945
 9738SOL    HW131173   5.620   1.738   6.025
 9738SOL    HW231174   5.596   1.857   5.916
 9739SOL     OW31175   3.751   1.596   5.703
 9739SOL    HW131176   3.732   1.500   5.724
 9739SOL    HW231177   3.718   1.654   5.778
 9740SOL     OW31178   5.413   0.922   6.198
 9740SOL    HW131179   5.508   0.893   6.206
 9740SOL    HW231180   5.405   0.987   6.123
 9741SOL     OW31181   5.365   1.108   6.018
 9741SOL    HW131182   5.451   1.110   5.966
 9741SOL    HW231183   5.379   1.155   6.106
 9742SOL     OW31184   3.837   0.737   7.183
 9742SOL    HW131185   3.925   0.724   7.228
 9742SOL    HW231186   3.824   0.834   7.161
 9743SOL     OW31187   4.337   1.365   6.312
 9743SOL    HW131188   4.288   1.278   6.321
 9743SOL    HW231189   4.314   1.408   6.225
 9744SOL     OW31190   5.017   1.228   7.009
 9744SOL    HW131191   5.054   1.155   6.951
 9744SOL    HW231192   5.069   1.233   7.094
 9745SOL     OW31193   4.533   0.004   6.088
 9745SOL    HW131194   4.573   0.095   6.079
 9745SOL    HW231195   4.433   0.012   6.094
 9746SOL     OW31196   3.921   0.976   6.850
 9746SOL    HW131197   4.010   0.931   6.836
 9746SOL    HW231198   3.848   0.911   6.831
 9747SOL     OW31199   5.249   0.999   5.776
 9747SOL    HW131200   5.186   0.923   5.789
 9747SOL    HW231201   5.297   1.017   5.862
 9748SOL     OW31202   4.911   1.792   7.202
 9748SOL    HW131203   4.935   1.852   7.126
 9748SOL    HW231204   4.918   1.697   7.172
 9749SOL     OW31205   4.041   0.251   7.387
 9749SOL    HW131206   4.112   0.322   7.393
 9749SOL    HW231207   3.953   0.290   7.415
 9750SOL     OW31208   5.190   1.417   6.539
 9750SOL    HW131209   5.131   1.423   6.619
 9750SOL    HW231210   5.175   1.329   6.493
 9751SOL     OW31211   5.391   1.714   6.158
 9751SOL    HW131212   5.350   1.691   6.070
 9751SOL    HW231213   5.373   1.640   6.223
 9752SOL     OW31214   4.322   0.729   5.856
 9752SOL    HW131215   4.346   0.798   5.788
 9752SOL    HW231216   4.244   0.762   5.910
 9753SOL     OW31217   5.005   0.345   6.530
 9753SOL    HW131218   4.919   0.295   6.517
 9753SOL    HW231219   5.067   0.291   6.586
 9754SOL     OW31220   5.300   1.662   5.893
 9754SOL    HW131221   5.389   1.708   5.896
 9754SOL    HW231222   5.279   1.638   5.798
 9755SOL     OW31223   4.531   0.605   7.051
 9755SOL    HW131224   4.484   0.602   7.140
 9755SOL    HW231225   4.480   0.550   6.985
 9756SOL     OW31226   5.118   0.469   7.260
 9756SOL    HW131227   5.098   0.512   7.348
 9756SOL    HW231228   5.196   0.407   7.269
 9757SOL     OW31229   4.697   0.890   7.158
 9757SOL    HW131230   4.743   0.806   7.129
 9757SOL    HW231231   4.641   0.924   7.083
 9758SOL     OW31232   4.715   0.410   6.828
 9758SOL    HW131233   4.638   0.444   6.882
 9758SOL    HW231234   4.681   0.359   6.749
 9759SOL     OW31235   4.765   0.701   6.015
 9759SOL    HW131236   4.791   0.697   6.111
 9759SOL    HW231237   4.680   0.650   6.001
 9760SOL     OW31238   3.800   0.811   6.375
 9760SOL    HW131239   3.899   0.799   6.384
 9760SOL    HW231240   3.776   0.906   6.396
 9761SOL     OW31241   3.854   1.821   7.157
 9761SOL    HW131242   3.844   1.806   7.256
 9761SOL    HW231243   3.768   1.857   7.121
 9762SOL     OW31244   4.589   0.348   5.781
 9762SOL    HW131245   4.648   0.411   5.732
 9762SOL    HW231246   4.608   0.254   5.752
 9763SOL     OW31247   5.443   0.585   7.417
 9763SOL    HW131248   5.417   0.674   7.381
 9763SOL    HW231249   5.441   0.517   7.344
 9764SOL     OW31250   5.086   1.144   6.131
 9764SOL    HW131251   5.169   1.115   6.083
 9764SOL    HW231252   5.037   1.211   6.075
 9765SOL     OW31253   4.274   0.196   6.471
 9765SOL    HW131254   4.269   0.191   6.571
 9765SOL    HW231255   4.276   0.292   6.442
 9766SOL     OW31256   4.732   1.456   6.063
 9766SOL    HW131257   4.686   1.528   6.011
 9766SOL    HW231258   4.728   1.476   6.161
 9767SOL     OW31259   4.075   1.801   6.439
 9767SOL    HW131260   4.125   1.715   6.445
 9767SOL    HW231261   4.140   1.878   6.436
 9768SOL     OW31262   5.519   1.066   6.459
 9768SOL    HW131263   5.457   1.051   6.383
 9768SOL    HW231264   5.467   1.077   6.544
 9769SOL     OW31265   4.951   1.550   7.092
 9769SOL    HW131266   4.957   1.473   7.156
 9769SOL    HW231267   4.899   1.524   7.012
 9770SOL     OW31268   4.045   0.943   5.828
 9770SOL    HW131269   4.127   0.982   5.786
 9770SOL    HW231270   4.018   0.861   5.779
 9771SOL     OW31271   5.182   0.735   6.314
 9771SOL    HW131272   5.177   0.670   6.389
 9771SOL    HW231273   5.262   0.794   6.327
 9772SOL     OW31274   4.185   1.266   7.313
 9772SOL    HW131275   4.135   1.267   7.227
 9772SOL    HW231276   4.122   1.248   7.389
 9773SOL     OW31277   4.835   1.776   5.823
 9773SOL    HW131278   4.775   1.714   5.873
 9773SOL    HW231279   4.866   1.732   5.738
 9774SOL     OW31280   3.926   0.285   7.084
 9774SOL    HW131281   3.846   0.345   7.071
 9774SOL    HW231282   3.916   0.236   7.170
 9775SOL     OW31283   5.356   1.377   5.667
 9775SOL    HW131284   5.324   1.471   5.657
 9775SOL    HW231285   5.280   1.314   5.655
 9776SOL     OW31286   4.188   1.743   5.909
 9776SOL    HW131287   4.221   1.782   5.995
 9776SOL    HW231288   4.264   1.736   5.844
 9777SOL     OW31289   5.124   0.107   6.012
 9777SOL    HW131290   5.100   0.070   5.922
 9777SOL    HW231291   5.223   0.123   6.016
 9778SOL     OW31292   3.973   1.785   6.827
 9778SOL    HW131293   4.030   1.720   6.877
 9778SOL    HW231294   3.957   1.752   6.734
 9779SOL     OW31295   4.664   1.698   6.490
 9779SOL    HW131296   4.744   1.641   6.511
 9779SOL    HW231297   4.615   1.658   6.413
 9780SOL     OW31298   4.106   0.700   6.066
 9780SOL    HW131299   4.151   0.610   6.063
 9780SOL    HW231300   4.012   0.689   6.099
 9781SOL     OW31301   5.271   0.222   7.315
 9781SOL    HW131302   5.266   0.259   7.407
 9781SOL    HW231303   5.199   0.153   7.303
 9782SOL     OW31304   4.338   0.122   5.703
 9782SOL    HW131305   4.436   0.100   5.710
 9782SOL    HW231306   4.307   0.105   5.610
 9783SOL     OW31307   4.505   0.264   7.335
 9783SOL    HW131308   4.572   0.203   7.378
 9783SOL    HW231309   4.432   0.283   7.400
 9784SOL     OW31310   4.612   1.514   6.781
 9784SOL    HW131311   4.589   1.489   6.687
 9784SOL    HW231312   4.673   1.445   6.820
 9785SOL     OW31313   5.075   0.590   7.019
 9785SOL    HW131314   5.103   0.547   7.104
 9785SOL    HW231315   5.100   0.686   7.020
 9786SOL     OW31316   4.527   1.402   6.510
 9786SOL    HW131317   4.617   1.416   6.468
 9786SOL    HW231318   4.456   1.404   6.439
 9787SOL     OW31319   4.646   0.503   6.485
 9787SOL    HW131320   4.621   0.494   6.389
 9787SOL    HW231321   4.694   0.421   6.516
 9788SOL     OW31322   4.263   0.064   6.098
 9788SOL    HW131323   4.182   0.065   6.156
 9788SOL    HW231324   4.266   0.147   6.043
 9789SOL     OW31325   5.158   1.188   5.627
 9789SOL    HW131326   5.190   1.112   5.684
 9789SOL    HW231327   5.066   1.215   5.657
 9790SOL     OW31328   4.021   0.035   5.757
 9790SOL    HW131329   4.070   0.119   5.736
 9790SOL    HW231330   4.083  -0.030   5.802
 9791SOL     OW31331   4.659   0.236   6.066
 9791SOL    HW131332   4.611   0.277   5.988
 9791SOL    HW231333   4.758   0.234   6.047
 9792SOL     OW31334   4.800   0.683   7.050
 9792SOL    HW131335   4.720   0.622   7.053
 9792SOL    HW231336   4.881   0.630   7.026
 9793SOL     OW31337   4.951   1.570   6.379
 9793SOL    HW131338   4.972   1.644   6.314
 9793SOL    HW231339   5.019   1.570   6.452
 9794SOL     OW31340   4.183   1.152   6.327
 9794SOL    HW131341   4.112   1.125   6.392
 9794SOL    HW231342   4.157   1.124   6.234
 9795SOL     OW31343   4.995   1.797   6.177
 9795SOL    HW131344   5.039   1.861   6.113
 9795SOL    HW231345   4.945   1.849   6.247
 9796SOL     OW31346   4.756   0.549   5.602
 9796SOL    HW131347   4.715   0.631   5.563
 9796SOL    HW231348   4.820   0.575   5.675
 9797SOL     OW31349   3.802   0.556   6.972
 9797SOL    HW131350   3.894   0.555   6.931
 9797SOL    HW231351   3.796   0.630   7.039
 9798SOL     OW31352   4.285   0.222   6.733
 9798SOL    HW131353   4.323   0.138   6.770
 9798SOL    HW231354   4.197   0.241   6.777
 9799SOL     OW31355   4.590   0.454   6.228
 9799SOL    HW131356   4.558   0.526   6.166
 9799SOL    HW231357   4.614   0.373   6.175
 9800SOL     OW31358   4.741   0.039   6.339
 9800SOL    HW131359   4.669   0.044   6.270
 9800SOL    HW231360   4.717  -0.030   6.408
 9801SOL     OW31361   5.153   1.173   6.453
 9801SOL    HW131362   5.098   1.089   6.446
 9801SOL    HW231363   5.179   1.202   6.361
 9802SOL     OW31364   5.190   0.590   6.578
 9802SOL    HW131365   5.160   0.495   6.585
 9802SOL    HW231366   5.263   0.606   6.644
 9803SOL     OW31367   5.581   0.833   5.963
 9803SOL    HW131368   5.623   0.769   6.027
 9803SOL    HW231369   5.543   0.782   5.885
 9804SOL     OW31370   4.212   1.385   5.760
 9804SOL    HW131371   4.125   1.370   5.807
 9804SOL    HW231372   4.195   1.411   5.665
 9805SOL     OW31373   5.388   1.280   6.243
 9805SOL    HW131374   5.487   1.288   6.257
 9805SOL    HW231375   5.343   1.364   6.274
 9806SOL     OW31376   5.114   0.575   5.664
 9806SOL    HW131377   5.060   0.554   5.745
 9806SOL    HW231378   5.205   0.534   5.673
 9807SOL     OW31379   4.251   0.256   5.914
 9807SOL    HW131380   4.278   0.197   5.839
 9807SOL    HW231381   4.251   0.351   5.883
 9808SOL     OW31382   5.478   1.223   7.174
 9808SOL    HW131383   5.569   1.184   7.161
 9808SOL    HW231384   5.486   1.319   7.198
 9809SOL     OW31385   4.788   1.347   6.926
 9809SOL    HW131386   4.708   1.324   6.981
 9809SOL    HW231387   4.871   1.321   6.975
 9810SOL     OW31388   5.316   1.629   7.211
 9810SOL    HW131389   5.343   1.663   7.121
 9810SOL    HW231390   5.395   1.591   7.257
 9811SOL     OW31391   4.835   1.195   6.686
 9811SOL    HW131392   4.795   1.239   6.767
 9811SOL    HW231393   4.794   1.232   6.603
 9812SOL     OW31394   5.362   1.099   6.665
 9812SOL    HW131395   5.367   1.180   6.724
 9812SOL    HW231396   5.276   1.101   6.614
 9813SOL     OW31397   4.639   0.089   6.988
 9813SOL    HW131398   4.664   0.069   6.893
 9813SOL    HW231399   4.711   0.145   7.030
 9814SOL     OW31400   4.704   1.116   7.305
 9814SOL    HW131401   4.605   1.122   7.315
 9814SOL    HW231402   4.727   1.036   7.249
 9815SOL     OW31403   4.429   1.050   5.954
 9815SOL    HW131404   4.415   1.057   6.053
 9815SOL    HW231405   4.513   0.999   5.936
 9816SOL     OW31406   4.134   0.813   6.837
 9816SOL    HW131407   4.220   0.825   6.887
 9816SOL    HW231408   4.092   0.726   6.864
 9817SOL     OW31409   4.998   0.386   6.848
 9817SOL    HW131410   5.019   0.460   6.912
 9817SOL    HW231411   4.909   0.403   6.805
 9818SOL     OW31412   3.788   1.564   6.917
 9818SOL    HW131413   3.742   1.646   6.883
 9818SOL    HW231414   3.886   1.583   6.926
 9819SOL     OW31415   4.091   1.100   6.087
 9819SOL    HW131416   4.084   1.183   6.031
 9819SOL    HW231417   4.095   1.020   6.027
 9820SOL     OW31418   4.290   0.537   6.451
 9820SOL    HW131419   4.302   0.603   6.377
 9820SOL    HW231420   4.336   0.571   6.534
 9821SOL     OW31421   4.976   1.348   5.974
 9821SOL    HW131422   5.026   1.425   6.014
 9821SOL    HW231423   4.881   1.350   6.006
 9822SOL     OW31424   4.996   1.445   6.728
 9822SOL    HW131425   5.043   1.458   6.815
 9822SOL    HW231426   4.930   1.371   6.737
 9823SOL     OW31427   5.306   0.639   6.058
 9823SOL    HW131428   5.275   0.700   6.131
 9823SOL    HW231429   5.356   0.691   5.989
 9824SOL     OW31430   4.078   1.510   6.915
 9824SOL    HW131431   4.057   1.466   6.828
 9824SOL    HW231432   4.175   1.536   6.918
 9825SOL     OW31433   4.126   0.751   7.184
 9825SOL    HW131434   4.194   0.806   7.137
 9825SOL    HW231435   4.166   0.663   7.211
 9826SOL     OW31436   5.311   0.779   7.256
 9826SOL    HW131437   5.219   0.817   7.251
 9826SOL    HW231438   5.371   0.826   7.191
 9827SOL     OW31439   4.737   0.105   7.356
 9827SOL    HW131440   4.743   0.190   7.304
 9827SOL    HW231441   4.769   0.029   7.299
 9828SOL     OW31442   4.228   0.050   7.326
 9828SOL    HW131443   4.186  -0.007   7.256
 9828SOL    HW231444   4.162   0.119   7.358
 9829SOL     OW31445   4.297   0.870   6.615
 9829SOL    HW131446   4.341   0.959   6.606
 9829SOL    HW231447   4.234   0.870   6.692
 9830SOL     OW31448   5.084   0.862   6.631
 9830SOL    HW131449   5.009   0.862   6.565
 9830SOL    HW231450   5.121   0.770   6.640
 9831SOL     OW31451   4.933   0.525   5.861
 9831SOL    HW131452   4.946   0.441   5.915
 9831SOL    HW231453   4.904   0.599   5.921
 9832SOL     OW31454   4.031   0.213   6.817
 9832SOL    HW131455   4.008   0.250   6.907
 9832SOL    HW231456   4.001   0.118   6.811
 9833SOL     OW31457   3.761   1.310   6.868
 9833SOL    HW131458   3.814   1.261   6.936
 9833SOL    HW231459   3.783   1.408   6.873
 9834SOL     OW31460   4.456   0.634   6.650
 9834SOL    HW131461   4.515   0.608   6.574
 9834SOL    HW231462   4.428   0.730   6.639
 9835SOL     OW31463   5.452   0.935   7.440
 9835SOL    HW131464   5.406   0.928   7.351
 9835SOL    HW231465   5.390   0.979   7.506
 9836SOL     OW31466   4.031   0.063   6.204
 9836SOL    HW131467   4.020   0.157   6.237
 9836SOL    HW231468   4.026   0.000   6.281
 9837SOL     OW31469   5.346   0.367   5.960
 9837SOL    HW131470   5.348   0.291   6.024
 9837SOL    HW231471   5.298   0.444   6.000
 9838SOL     OW31472   4.747   0.766   6.552
 9838SOL    HW131473   4.762   0.787   6.648
 9838SOL    HW231474   4.717   0.671   6.543
 9839SOL     OW31475   4.704   1.573   7.286
 9839SOL    HW131476   4.684   1.617   7.198
 9839SOL    HW231477   4.743   1.482   7.270
 9840SOL     OW31478   4.074   0.898   7.390
 9840SOL    HW131479   4.150   0.942   7.438
 9840SOL    HW231480   4.109   0.851   7.308
 9841SOL     OW31481   5.264   0.274   5.711
 9841SOL    HW131482   5.203   0.199   5.734
 9841SOL    HW231483   5.286   0.326   5.794
 9842SOL     OW31484   5.027   0.838   5.628
 9842SOL    HW131485   5.061   0.745   5.643
 9842SOL    HW231486   5.045   0.865   5.533
 9843SOL     OW31487   4.792   1.333   6.435
 9843SOL    HW131488   4.799   1.249   6.380
 9843SOL    HW231489   4.854   1.402   6.399
 9844SOL     OW31490   4.043   0.810   6.535
 9844SOL    HW131491   4.136   0.846   6.540
 9844SOL    HW231492   4.037   0.725   6.587
 9845SOL     OW31493   4.063   0.509   6.592
 9845SOL    HW131494   4.011   0.426   6.575
 9845SOL    HW231495   4.140   0.514   6.528
 9846SOL     OW31496   4.862   0.380   7.264
 9846SOL    HW131497   4.817   0.443   7.328
 9846SOL    HW231498   4.955   0.411   7.247
 9847SOL     OW31499   4.884   0.207   7.063
 9847SOL    HW131500   4.884   0.271   7.140
 9847SOL    HW231501   4.912   0.255   6.980
 9848SOL     OW31502   3.732   1.326   5.786
 9848SOL    HW131503   3.639   1.347   5.755
 9848SOL    HW231504   3.742   1.227   5.799
 9849SOL     OW31505   3.812   1.801   6.513
 9849SOL    HW131506   3.770   1.715   6.486
 9849SOL    HW231507   3.906   1.804   6.479
 9850SOL     OW31508   4.228   1.568   6.496
 9850SOL    HW131509   4.294   1.642   6.505
 9850SOL    HW231510   4.272   1.489   6.454
 9851SOL     OW31511   4.726   0.796   6.824
 9851SOL    HW131512   4.767   0.764   6.910
 9851SOL    HW231513   4.630   0.769   6.821
 9852SOL     OW31514   3.764   0.544   6.700
 9852SOL    HW131515   3.849   0.511   6.659
 9852SOL    HW231516   3.777   0.559   6.798
 9853SOL     OW31517   3.913   0.520   7.308
 9853SOL    HW131518   3.972   0.480   7.238
 9853SOL    HW231519   3.855   0.591   7.267
 9854SOL     OW31520   5.093   0.950   7.246
 9854SOL    HW131521   5.132   1.039   7.266
 9854SOL    HW231522   5.103   0.930   7.149
 9855SOL     OW31523   4.539   0.572   5.911
 9855SOL    HW131524   4.546   0.483   5.865
 9855SOL    HW231525   4.445   0.606   5.903
 9856SOL     OW31526   5.381   0.604   6.792
 9856SOL    HW131527   5.343   0.535   6.854
 9856SOL    HW231528   5.463   0.568   6.748
 9857SOL     OW31529   3.976   1.564   7.330
 9857SOL    HW131530   3.946   1.621   7.406
 9857SOL    HW231531   3.969   1.467   7.356
 9858SOL     OW31532   4.395   0.464   6.855
 9858SOL    HW131533   4.361   0.375   6.825
 9858SOL    HW231534   4.421   0.518   6.775
 9859SOL     OW31535   4.654   1.678   7.051
 9859SOL    HW131536   4.630   1.660   6.956
 9859SOL    HW231537   4.684   1.772   7.061
 9860SOL     OW31538   4.197   0.500   5.777
 9860SOL    HW131539   4.258   0.580   5.781
 9860SOL    HW231540   4.102   0.531   5.784
 9861SOL     OW31541   3.883   1.137   7.052
 9861SOL    HW131542   3.905   1.076   7.128
 9861SOL    HW231543   3.893   1.088   6.966
 9862SOL     OW31544   5.071   1.059   6.820
 9862SOL    HW131545   5.095   0.996   6.746
 9862SOL    HW231546   4.981   1.099   6.802
 9863SOL     OW31547   5.026   0.855   5.895
 9863SOL    HW131548   4.940   0.824   5.937
 9863SOL    HW231549   5.022   0.841   5.796
 9864SOL     OW31550   4.976   1.731   6.714
 9864SOL    HW131551   5.060   1.736   6.660
 9864SOL    HW231552   4.953   1.635   6.732
 9865SOL     OW31553   3.807   1.258   6.608
 9865SOL    HW131554   3.802   1.257   6.708
 9865SOL    HW231555   3.724   1.217   6.570
 9866SOL     OW31556   4.412   1.662   7.302
 9866SOL    HW131557   4.356   1.743   7.311
 9866SOL    HW231558   4.464   1.666   7.216
 9867SOL     OW31559   5.450   0.135   6.109
 9867SOL    HW131560   5.523   0.118   6.042
 9867SOL    HW231561   5.419   0.048   6.147
 9868SOL     OW31562   5.112   1.573   6.063
 9868SOL    HW131563   5.179   1.585   5.989
 9868SOL    HW231564   5.072   1.662   6.086
 9869SOL     OW31565   3.854   1.794   7.437
 9869SOL    HW131566   3.813   1.720   7.490
 9869SOL    HW231567   3.918   1.845   7.495
 9870SOL     OW31568   5.004   0.927   6.258
 9870SOL    HW131569   5.064   0.846   6.260
 9870SOL    HW231570   5.044   0.996   6.198
 9871SOL     OW31571   4.554   1.273   7.008
 9871SOL    HW131572   4.549   1.306   7.103
 9871SOL    HW231573   4.468   1.292   6.962
 9872SOL     OW31574   4.396   1.616   5.740
 9872SOL    HW131575   4.405   1.626   5.641
 9872SOL    HW231576   4.356   1.527   5.761
 9873SOL     OW31577   5.374   1.720   6.980
 9873SOL    HW131578   5.427   1.730   6.896
 9873SOL    HW231579   5.347   1.810   7.014
 9874SOL     OW31580   5.565   0.175   6.549
 9874SOL    HW131581   5.604   0.090   6.513
 9874SOL    HW231582   5.467   0.177   6.530
 9875SOL     OW31583   3.987   0.326   6.306
 9875SOL    HW131584   3.908   0.377   6.272
 9875SOL    HW231585   3.978   0.311   6.404
 9876SOL     OW31586   4.918   1.612   5.617
 9876SOL    HW131587   4.924   1.519   5.654
 9876SOL    HW231588   4.859   1.612   5.537
 9877SOL     OW31589   4.546   1.002   6.958
 9877SOL    HW131590   4.586   1.001   6.866
 9877SOL    HW231591   4.556   1.094   6.998
 9878SOL     OW31592   4.640   0.910   5.877
 9878SOL    HW131593   4.703   0.948   5.809
 9878SOL    HW231594   4.680   0.827   5.916
 9879SOL     OW31595   5.228   1.607   5.630
 9879SOL    HW131596   5.136   1.644   5.637
 9879SOL    HW231597   5.266   1.627   5.540
 9880SOL     OW31598   4.096   1.288   7.076
 9880SOL    HW131599   4.083   1.381   7.042
 9880SOL    HW231600   4.012   1.236   7.063
 9881SOL     OW31601   5.338   1.292   6.875
 9881SOL    HW131602   5.398   1.295   6.955
 9881SOL    HW231603   5.263   1.356   6.888
 9882SOL     OW31604   4.763   1.098   6.282
 9882SOL    HW131605   4.693   1.051   6.336
 9882SOL    HW231606   4.822   1.030   6.239
 9883SOL     OW31607   4.738   0.236   6.557
 9883SOL    HW131608   4.730   0.200   6.464
 9883SOL    HW231609   4.736   0.160   6.622
 9884SOL     OW31610   4.314   1.487   6.077
 9884SOL    HW131611   4.356   1.429   6.007
 9884SOL    HW231612   4.270   1.566   6.033
 9885SOL     OW31613   5.433   0.385   6.967
 9885SOL    HW131614   5.506   0.454   6.971
 9885SOL    HW231615   5.461   0.310   6.908
 9886SOL     OW31616   3.979   1.348   5.876
 9886SOL    HW131617   3.883   1.349   5.849
 9886SOL    HW231618   3.991   1.401   5.960
 9887SOL     OW31619   3.829   1.013   7.312
 9887SOL    HW131620   3.752   0.980   7.366
 9887SOL    HW231621   3.914   0.983   7.354
 9888SOL     OW31622   4.396   0.203   7.075
 9888SOL    HW131623   4.486   0.187   7.035
 9888SOL    HW231624   4.404   0.208   7.174
 9889SOL     OW31625   3.799   0.345   5.619
 9889SOL    HW131626   3.707   0.317   5.590
 9889SOL    HW231627   3.830   0.422   5.563
 9890SOL     OW31628   5.164   0.856   6.984
 9890SOL    HW131629   5.107   0.908   6.921
 9890SOL    HW231630   5.260   0.868   6.960
 9891SOL     OW31631   3.796   0.166   5.904
 9891SOL    HW131632   3.779   0.249   5.850
 9891SOL    HW231633   3.886   0.129   5.882
 9892SOL     OW31634   4.907   1.335   5.705
 9892SOL    HW131635   4.808   1.324   5.707
 9892SOL    HW231636   4.941   1.350   5.798
 9893SOL     OW31637   4.337   0.842   7.017
 9893SOL    HW131638   4.393   0.923   7.000
 9893SOL    HW231639   4.396   0.762   7.020
 9894SOL     OW31640   5.217   1.767   6.545
 9894SOL    HW131641   5.250   1.831   6.476
 9894SOL    HW231642   5.283   1.761   6.620
 9895SOL     OW31643   4.440   0.565   7.294
 9895SOL    HW131644   4.459   0.630   7.368
 9895SOL    HW231645   4.500   0.485   7.303
 9896SOL     OW31646   5.174   1.220   7.219
 9896SOL    HW131647   5.165   1.210   7.318
 9896SOL    HW231648   5.270   1.213   7.193
 9897SOL     OW31649   4.114   1.741   7.146
 9897SOL    HW131650   4.023   1.782   7.144
 9897SOL    HW231651   4.107   1.647   7.178
 9898SOL     OW31652   5.398   0.883   6.840
 9898SOL    HW131653   5.371   0.794   6.803
 9898SOL    HW231654   5.399   0.951   6.767
 9899SOL     OW31655   4.949   0.325   6.035
 9899SOL    HW131656   5.014   0.251   6.024
 9899SOL    HW231657   4.969   0.375   6.119
 9900SOL     OW31658   4.318   0.745   6.238
 9900SOL    HW131659   4.368   0.830   6.219
 9900SOL    HW231660   4.230   0.747   6.190
 9901SOL     OW31661   5.501   0.342   7.228
 9901SOL    HW131662   5.484   0.373   7.134
 9901SOL    HW231663   5.417   0.305   7.266
 9902SOL     OW31664   5.454   0.934   7.103
 9902SOL    HW131665   5.492   1.025   7.118
 9902SOL    HW231666   5.446   0.917   7.004
 9903SOL     OW31667   4.583   1.374   5.602
 9903SOL    HW131668   4.537   1.389   5.690
 9903SOL    HW231669   4.627   1.459   5.572
 9904SOL     OW31670   4.385   1.790   6.539
 9904SOL    HW131671   4.339   1.878   6.526
 9904SOL    HW231672   4.484   1.802   6.532
 9905SOL     OW31673   5.132   1.851   7.306
 9905SOL    HW131674   5.036   1.840   7.279
 9905SOL    HW231675   5.188   1.784   7.258
 9906SOL     OW31676   4.583   0.956   6.447
 9906SOL    HW131677   4.637   0.887   6.495
 9906SOL    HW231678   4.551   1.025   6.513
 9907SOL     OW31679   4.807   0.984   5.673
 9907SOL    HW131680   4.784   1.037   5.591
 9907SOL    HW231681   4.888   0.928   5.654
 9908SOL     OW31682   5.585   1.569   6.437
 9908SOL    HW131683   5.514   1.557   6.367
 9908SOL    HW231684   5.586   1.490   6.497
 9909SOL     OW31685   3.945   1.314   7.430
 9909SOL    HW131686   3.880   1.241   7.409
 9909SOL    HW231687   3.949   1.328   7.528
 9910SOL     OW31688   3.803   1.240   6.239
 9910SOL    HW131689   3.802   1.193   6.327
 9910SOL    HW231690   3.885   1.212   6.188
 9911SOL     OW31691   4.396   1.391   7.210
 9911SOL    HW131692   4.318   1.341   7.248
 9911SOL    HW231693   4.393   1.486   7.241
 9912SOL     OW31694   5.548   0.192   6.813
 9912SOL    HW131695   5.544   0.102   6.857
 9912SOL    HW231696   5.551   0.181   6.714
 9913SOL     OW31697   4.152   0.424   6.106
 9913SOL    HW131698   4.182   0.352   6.044
 9913SOL    HW231699   4.113   0.384   6.189
 9914SOL     OW31700   5.429   1.487   6.690
 9914SOL    HW131701   5.336   1.462   6.663
 9914SOL    HW231702   5.455   1.437   6.772
 9915SOL     OW31703   4.041   0.547   6.866
 9915SOL    HW131704   4.079   0.488   6.938
 9915SOL    HW231705   4.081   0.521   6.778
 9916SOL     OW31706   4.536   1.586   6.273
 9916SOL    HW131707   4.568   1.596   6.179
 9916SOL    HW231708   4.457   1.524   6.275
 9917SOL     OW31709   5.148   0.214   6.698
 9917SOL    HW131710   5.200   0.149   6.753
 9917SOL    HW231711   5.099   0.277   6.759
 9918SOL     OW31712   4.725   0.034   6.740
 9918SOL    HW131713   4.662  -0.038   6.709
 9918SOL    HW231714   4.818  -0.002   6.740
 9919SOL     OW31715   4.494   1.330   5.887
 9919SOL    HW131716   4.448   1.243   5.904
 9919SOL    HW231717   4.585   1.327   5.928
 9920SOL     OW31718   4.342   1.567   6.870
 9920SOL    HW131719   4.337   1.649   6.927
 9920SOL    HW231720   4.431   1.564   6.825
 9921SOL     OW31721   5.076   0.052   5.754
 9921SOL    HW131722   5.111   0.011   5.670
 9921SOL    HW231723   4.986   0.014   5.774
 9922SOL     OW31724   5.024   0.453   6.277
 9922SOL    HW131725   4.965   0.533   6.281
 9922SOL    HW231726   5.039   0.418   6.370
 9923SOL     OW31727   5.317   0.221   6.468
 9923SOL    HW131728   5.233   0.220   6.522
 9923SOL    HW231729   5.319   0.304   6.412
 9924SOL     OW31730   3.763   1.077   5.886
 9924SOL    HW131731   3.862   1.066   5.877
 9924SOL    HW231732   3.723   0.991   5.918
 9925SOL     OW31733   4.599   1.646   5.923
 9925SOL    HW131734   4.522   1.611   5.869
 9925SOL    HW231735   4.567   1.717   5.985
 9926SOL     OW31736   3.954   0.628   7.561
 9926SOL    HW131737   3.861   0.626   7.598
 9926SOL    HW231738   3.955   0.589   7.469
 9927SOL     OW31739   3.949   0.275   8.444
 9927SOL    HW131740   3.984   0.258   8.536
 9927SOL    HW231741   3.861   0.230   8.432
 9928SOL     OW31742   3.743   0.368   8.095
 9928SOL    HW131743   3.661   0.411   8.134
 9928SOL    HW231744   3.715   0.295   8.032
 9929SOL     OW31745   4.293   1.275   8.613
 9929SOL    HW131746   4.200   1.268   8.576
 9929SOL    HW231747   4.304   1.364   8.657
 9930SOL     OW31748   5.279   1.511   8.151
 9930SOL    HW131749   5.222   1.495   8.232
 9930SOL    HW231750   5.220   1.521   8.071
 9931SOL     OW31751   5.467   0.618   8.304
 9931SOL    HW131752   5.500   0.712   8.304
 9931SOL    HW231753   5.518   0.564   8.370
 9932SOL     OW31754   4.859   0.703   8.165
 9932SOL    HW131755   4.916   0.781   8.140
 9932SOL    HW231756   4.799   0.729   8.241
 9933SOL     OW31757   5.479   0.607   7.679
 9933SOL    HW131758   5.467   0.594   7.580
 9933SOL    HW231759   5.449   0.526   7.728
 9934SOL     OW31760   4.492   1.144   8.471
 9934SOL    HW131761   4.414   1.161   8.531
 9934SOL    HW231762   4.526   1.231   8.435
 9935SOL     OW31763   4.409   1.012   8.113
 9935SOL    HW131764   4.478   0.996   8.183
 9935SOL    HW231765   4.336   1.069   8.151
 9936SOL     OW31766   4.059   1.435   8.509
 9936SOL    HW131767   3.981   1.404   8.456
 9936SOL    HW231768   4.117   1.493   8.452
 9937SOL     OW31769   5.184   1.505   8.787
 9937SOL    HW131770   5.208   1.599   8.813
 9937SOL    HW231771   5.168   1.451   8.869
 9938SOL     OW31772   4.162   0.392   8.947
 9938SOL    HW131773   4.244   0.336   8.956
 9938SOL    HW231774   4.081   0.334   8.951
 9939SOL     OW31775   5.327   0.447   8.185
 9939SOL    HW131776   5.253   0.493   8.135
 9939SOL    HW231777   5.378   0.515   8.238
 9940SOL     OW31778   3.955   1.713   7.931
 9940SOL    HW131779   3.989   1.790   7.985
 9940SOL    HW231780   3.999   1.713   7.841
 9941SOL     OW31781   3.954   1.434   7.986
 9941SOL    HW131782   3.928   1.530   7.986
 9941SOL    HW231783   3.883   1.380   8.031
 9942SOL     OW31784   3.964   1.091   8.334
 9942SOL    HW131785   3.978   1.007   8.386
 9942SOL    HW231786   3.909   1.155   8.389
 9943SOL     OW31787   4.344   1.786   8.887
 9943SOL    HW131788   4.252   1.769   8.922
 9943SOL    HW231789   4.372   1.878   8.913
 9944SOL     OW31790   4.330   0.964   7.571
 9944SOL    HW131791   4.337   1.048   7.517
 9944SOL    HW231792   4.376   0.977   7.659
 9945SOL     OW31793   5.318   0.114   8.928
 9945SOL    HW131794   5.300   0.181   8.856
 9945SOL    HW231795   5.315   0.160   9.017
 9946SOL     OW31796   3.846   0.643   8.011
 9946SOL    HW131797   3.801   0.555   8.028
 9946SOL    HW231798   3.845   0.697   8.095
 9947SOL     OW31799   3.751   1.596   7.565
 9947SOL    HW131800   3.732   1.500   7.586
 9947SOL    HW231801   3.718   1.654   7.640
 9948SOL     OW31802   5.413   0.922   8.060
 9948SOL    HW131803   5.508   0.893   8.068
 9948SOL    HW231804   5.405   0.987   7.985
 9949SOL     OW31805   5.365   1.108   7.880
 9949SOL    HW131806   5.451   1.110   7.828
 9949SOL    HW231807   5.379   1.155   7.968
 9950SOL     OW31808   4.337   1.365   8.174
 9950SOL    HW131809   4.288   1.278   8.183
 9950SOL    HW231810   4.314   1.408   8.087
 9951SOL     OW31811   4.533   0.004   7.950
 9951SOL    HW131812   4.573   0.095   7.941
 9951SOL    HW231813   4.433   0.012   7.956
 9952SOL     OW31814   3.921   0.976   8.712
 9952SOL    HW131815   4.010   0.931   8.698
 9952SOL    HW231816   3.848   0.911   8.693
 9953SOL     OW31817   5.249   0.999   7.638
 9953SOL    HW131818   5.186   0.923   7.651
 9953SOL    HW231819   5.297   1.017   7.724
 9954SOL     OW31820   5.190   1.417   8.401
 9954SOL    HW131821   5.131   1.423   8.481
 9954SOL    HW231822   5.175   1.329   8.355
 9955SOL     OW31823   5.391   1.714   8.020
 9955SOL    HW131824   5.350   1.691   7.932
 9955SOL    HW231825   5.373   1.640   8.085
 9956SOL     OW31826   4.322   0.729   7.718
 9956SOL    HW131827   4.346   0.798   7.650
 9956SOL    HW231828   4.244   0.762   7.772
 9957SOL     OW31829   5.005   0.345   8.392
 9957SOL    HW131830   4.919   0.295   8.379
 9957SOL    HW231831   5.067   0.291   8.448
 9958SOL     OW31832   5.300   1.662   7.755
 9958SOL    HW131833   5.389   1.708   7.758
 9958SOL    HW231834   5.279   1.638   7.660
 9959SOL     OW31835   4.531   0.605   8.913
 9959SOL    HW131836   4.484   0.602   9.002
 9959SOL    HW231837   4.480   0.550   8.847
 9960SOL     OW31838   4.715   0.410   8.690
 9960SOL    HW131839   4.638   0.444   8.744
 9960SOL    HW231840   4.681   0.359   8.611
 9961SOL     OW31841   4.765   0.701   7.877
 9961SOL    HW131842   4.791   0.697   7.973
 9961SOL    HW231843   4.680   0.650   7.863
 9962SOL     OW31844   3.800   0.811   8.237
 9962SOL    HW131845   3.899   0.799   8.246
 9962SOL    HW231846   3.776   0.906   8.258
 9963SOL     OW31847   3.854   1.821   0.019
 9963SOL    HW131848   3.844   1.806   0.118
 9963SOL    HW231849   3.768   1.857  -0.017
 9964SOL     OW31850   4.589   0.348   7.643
 9964SOL    HW131851   4.648   0.411   7.594
 9964SOL    HW231852   4.608   0.254   7.614
 9965SOL     OW31853   5.086   1.144   7.993
 9965SOL    HW131854   5.169   1.115   7.945
 9965SOL    HW231855   5.037   1.211   7.937
 9966SOL     OW31856   4.274   0.196   8.333
 9966SOL    HW131857   4.269   0.191   8.433
 9966SOL    HW231858   4.276   0.292   8.304
 9967SOL     OW31859   4.732   1.456   7.925
 9967SOL    HW131860   4.686   1.528   7.873
 9967SOL    HW231861   4.728   1.476   8.023
 9968SOL     OW31862   4.075   1.801   8.301
 9968SOL    HW131863   4.125   1.715   8.307
 9968SOL    HW231864   4.140   1.878   8.298
 9969SOL     OW31865   5.519   1.066   8.321
 9969SOL    HW131866   5.457   1.051   8.245
 9969SOL    HW231867   5.467   1.077   8.406
 9970SOL     OW31868   4.045   0.943   7.690
 9970SOL    HW131869   4.127   0.982   7.648
 9970SOL    HW231870   4.018   0.861   7.641
 9971SOL     OW31871   5.182   0.735   8.176
 9971SOL    HW131872   5.177   0.670   8.251
 9971SOL    HW231873   5.262   0.794   8.189
 9972SOL     OW31874   4.835   1.776   7.685
 9972SOL    HW131875   4.775   1.714   7.735
 9972SOL    HW231876   4.866   1.732   7.600
 9973SOL     OW31877   3.926   0.285   8.946
 9973SOL    HW131878   3.846   0.345   8.933
 9973SOL    HW231879   3.916   0.236   9.032
 9974SOL     OW31880   5.356   1.377   7.529
 9974SOL    HW131881   5.324   1.471   7.519
 9974SOL    HW231882   5.280   1.314   7.517
 9975SOL     OW31883   4.188   1.743   7.771
 9975SOL    HW131884   4.221   1.782   7.857
 9975SOL    HW231885   4.264   1.736   7.706
 9976SOL     OW31886   5.124   0.107   7.874
 9976SOL    HW131887   5.100   0.070   7.784
 9976SOL    HW231888   5.223   0.123   7.878
 9977SOL     OW31889   3.973   1.785   8.689
 9977SOL    HW131890   4.030   1.720   8.739
 9977SOL    HW231891   3.957   1.752   8.596
 9978SOL     OW31892   4.664   1.698   8.352
 9978SOL    HW131893   4.744   1.641   8.373
 9978SOL    HW231894   4.615   1.658   8.275
 9979SOL     OW31895   4.106   0.700   7.928
 9979SOL    HW131896   4.151   0.610   7.925
 9979SOL    HW231897   4.012   0.689   7.961
 9980SOL     OW31898   4.338   0.122   7.565
 9980SOL    HW131899   4.436   0.100   7.572
 9980SOL    HW231900   4.307   0.105   7.472
 9981SOL     OW31901   4.612   1.514   8.643
 9981SOL    HW131902   4.589   1.489   8.549
 9981SOL    HW231903   4.673   1.445   8.682
 9982SOL     OW31904   4.527   1.402   8.372
 9982SOL    HW131905   4.617   1.416   8.330
 9982SOL    HW231906   4.456   1.404   8.301
 9983SOL     OW31907   4.646   0.503   8.347
 9983SOL    HW131908   4.621   0.494   8.251
 9983SOL    HW231909   4.694   0.421   8.378
 9984SOL     OW31910   4.263   0.064   7.960
 9984SOL    HW131911   4.182   0.065   8.018
 9984SOL    HW231912   4.266   0.147   7.905
 9985SOL     OW31913   5.158   1.188   7.489
 9985SOL    HW131914   5.190   1.112   7.546
 9985SOL    HW231915   5.066   1.215   7.519
 9986SOL     OW31916   4.021   0.035   7.619
 9986SOL    HW131917   4.070   0.119   7.598
 9986SOL    HW231918   4.083  -0.030   7.664
 9987SOL     OW31919   4.659   0.236   7.928
 9987SOL    HW131920   4.611   0.277   7.850
 9987SOL    HW231921   4.758   0.234   7.909
 9988SOL     OW31922   4.951   1.570   8.241
 9988SOL    HW131923   4.972   1.644   8.176
 9988SOL    HW231924   5.019   1.570   8.314
 9989SOL     OW31925   4.183   1.152   8.189
 9989SOL    HW131926   4.112   1.125   8.254
 9989SOL    HW231927   4.157   1.124   8.096
 9990SOL     OW31928   4.995   1.797   8.039
 9990SOL    HW131929   5.039   1.861   7.975
 9990SOL    HW231930   4.945   1.849   8.109
 9991SOL     OW31931   4.756   0.549   7.464
 9991SOL    HW131932   4.715   0.631   7.425
 9991SOL    HW231933   4.820   0.575   7.537
 9992SOL     OW31934   3.802   0.556   8.834
 9992SOL    HW131935   3.894   0.555   8.793
 9992SOL    HW231936   3.796   0.630   8.901
 9993SOL     OW31937   4.285   0.222   8.595
 9993SOL    HW131938   4.323   0.138   8.632
 9993SOL    HW231939   4.197   0.241   8.639
 9994SOL     OW31940   4.590   0.454   8.090
 9994SOL    HW131941   4.558   0.526   8.028
 9994SOL    HW231942   4.614   0.373   8.037
 9995SOL     OW31943   4.741   0.039   8.201
 9995SOL    HW131944   4.669   0.044   8.132
 9995SOL    HW231945   4.717  -0.030   8.270
 9996SOL     OW31946   5.153   1.173   8.315
 9996SOL    HW131947   5.098   1.089   8.308
 9996SOL    HW231948   5.179   1.202   8.223
 9997SOL     OW31949   5.190   0.590   8.440
 9997SOL    HW131950   5.160   0.495   8.447
 9997SOL    HW231951   5.263   0.606   8.506
 9998SOL     OW31952   5.581   0.833   7.825
 9998SOL    HW131953   5.623   0.769   7.889
 9998SOL    HW231954   5.543   0.782   7.747
 9999SOL     OW31955   4.212   1.385   7.622
 9999SOL    HW131956   4.125   1.370   7.669
 9999SOL    HW231957   4.195   1.411   7.527
10000SOL     OW31958   5.388   1.280   8.105
10000SOL    HW131959   5.487   1.288   8.119
10000SOL    HW231960   5.343   1.364   8.136
10001SOL     OW31961   5.114   0.575   7.526
10001SOL    HW131962   5.060   0.554   7.607
10001SOL    HW231963   5.205   0.534   7.535
10002SOL     OW31964   4.251   0.256   7.776
10002SOL    HW131965   4.278   0.197   7.701
10002SOL    HW231966   4.251   0.351   7.745
10003SOL     OW31967   4.788   1.347   8.788
10003SOL    HW131968   4.708   1.324   8.843
10003SOL    HW231969   4.871   1.321   8.837
10004SOL     OW31970   4.835   1.195   8.548
10004SOL    HW131971   4.795   1.239   8.629
10004SOL    HW231972   4.794   1.232   8.465
10005SOL     OW31973   5.362   1.099   8.527
10005SOL    HW131974   5.367   1.180   8.586
10005SOL    HW231975   5.276   1.101   8.476
10006SOL     OW31976   4.639   0.089   8.850
10006SOL    HW131977   4.664   0.069   8.755
10006SOL    HW231978   4.711   0.145   8.892
10007SOL     OW31979   4.429   1.050   7.816
10007SOL    HW131980   4.415   1.057   7.915
10007SOL    HW231981   4.513   0.999   7.798
10008SOL     OW31982   4.134   0.813   8.699
10008SOL    HW131983   4.220   0.825   8.749
10008SOL    HW231984   4.092   0.726   8.726
10009SOL     OW31985   4.998   0.386   8.710
10009SOL    HW131986   5.019   0.460   8.774
10009SOL    HW231987   4.909   0.403   8.667
10010SOL     OW31988   3.788   1.564   8.779
10010SOL    HW131989   3.742   1.646   8.745
10010SOL    HW231990   3.886   1.583   8.788
10011SOL     OW31991   4.091   1.100   7.949
10011SOL    HW131992   4.084   1.183   7.893
10011SOL    HW231993   4.095   1.020   7.889
10012SOL     OW31994   4.290   0.537   8.313
10012SOL    HW131995   4.302   0.603   8.239
10012SOL    HW231996   4.336   0.571   8.396
10013SOL     OW31997   4.976   1.348   7.836
10013SOL    HW131998   5.026   1.425   7.876
10013SOL    HW231999   4.881   1.350   7.868
10014SOL     OW32000   4.996   1.445   8.590
10014SOL    HW132001   5.043   1.458   8.677
10014SOL    HW232002   4.930   1.371   8.599
10015SOL     OW32003   5.306   0.639   7.920
10015SOL    HW132004   5.275   0.700   7.993
10015SOL    HW232005   5.356   0.691   7.851
10016SOL     OW32006   4.078   1.510   8.777
10016SOL    HW132007   4.057   1.466   8.690
10016SOL    HW232008   4.175   1.536   8.780
10017SOL     OW32009   4.126   0.751   0.046
10017SOL    HW132010   4.194   0.806  -0.001
10017SOL    HW232011   4.166   0.663   0.073
10018SOL     OW32012   5.311   0.779   0.118
10018SOL    HW132013   5.219   0.817   0.113
10018SOL    HW232014   5.371   0.826   0.053
10019SOL     OW32015   4.297   0.870   8.477
10019SOL    HW132016   4.341   0.959   8.468
10019SOL    HW232017   4.234   0.870   8.554
10020SOL     OW32018   5.084   0.862   8.493
10020SOL    HW132019   5.009   0.862   8.427
10020SOL    HW232020   5.121   0.770   8.502
10021SOL     OW32021   4.933   0.525   7.723
10021SOL    HW132022   4.946   0.441   7.777
10021SOL    HW232023   4.904   0.599   7.783
10022SOL     OW32024   4.031   0.213   8.679
10022SOL    HW132025   4.008   0.250   8.769
10022SOL    HW232026   4.001   0.118   8.673
10023SOL     OW32027   3.761   1.310   8.730
10023SOL    HW132028   3.814   1.261   8.798
10023SOL    HW232029   3.783   1.408   8.735
10024SOL     OW32030   4.456   0.634   8.512
10024SOL    HW132031   4.515   0.608   8.436
10024SOL    HW232032   4.428   0.730   8.501
10025SOL     OW32033   4.031   0.063   8.066
10025SOL    HW132034   4.020   0.157   8.099
10025SOL    HW232035   4.026   0.000   8.143
10026SOL     OW32036   5.346   0.367   7.822
10026SOL    HW132037   5.348   0.291   7.886
10026SOL    HW232038   5.298   0.444   7.862
10027SOL     OW32039   4.747   0.766   8.414
10027SOL    HW132040   4.762   0.787   8.510
10027SOL    HW232041   4.717   0.671   8.405
10028SOL     OW32042   4.704   1.573   0.148
10028SOL    HW132043   4.684   1.617   0.060
10028SOL    HW232044   4.743   1.482   0.132
10029SOL     OW32045   5.583   1.518   0.053
10029SOL    HW132046   5.597   1.545  -0.042
10029SOL    HW232047   5.666   1.540   0.106
10030SOL     OW32048   5.264   0.274   7.573
10030SOL    HW132049   5.203   0.199   7.596
10030SOL    HW232050   5.286   0.326   7.656
10031SOL     OW32051   5.027   0.838   7.490
10031SOL    HW132052   5.061   0.745   7.505
10031SOL    HW232053   5.045   0.865   7.395
10032SOL     OW32054   4.792   1.333   8.297
10032SOL    HW132055   4.799   1.249   8.242
10032SOL    HW232056   4.854   1.402   8.261
10033SOL     OW32057   4.043   0.810   8.397
10033SOL    HW132058   4.136   0.846   8.402
10033SOL    HW232059   4.037   0.725   8.449
10034SOL     OW32060   4.063   0.509   8.454
10034SOL    HW132061   4.011   0.426   8.437
10034SOL    HW232062   4.140   0.514   8.390
10035SOL     OW32063   4.862   0.380   0.126
10035SOL    HW132064   4.817   0.443   0.190
10035SOL    HW232065   4.955   0.411   0.109
10036SOL     OW32066   4.884   0.207   8.925
10036SOL    HW132067   4.884   0.271   9.002
10036SOL    HW232068   4.912   0.255   8.842
10037SOL     OW32069   3.732   1.326   7.648
10037SOL    HW132070   3.639   1.347   7.617
10037SOL    HW232071   3.742   1.227   7.661
10038SOL     OW32072   3.812   1.801   8.375
10038SOL    HW132073   3.770   1.715   8.348
10038SOL    HW232074   3.906   1.804   8.341
10039SOL     OW32075   4.228   1.568   8.358
10039SOL    HW132076   4.294   1.642   8.367
10039SOL    HW232077   4.272   1.489   8.316
10040SOL     OW32078   4.726   0.796   8.686
10040SOL    HW132079   4.767   0.764   8.772
10040SOL    HW232080   4.630   0.769   8.683
10041SOL     OW32081   3.764   0.544   8.562
10041SOL    HW132082   3.849   0.511   8.521
10041SOL    HW232083   3.777   0.559   8.660
10042SOL     OW32084   4.539   0.572   7.773
10042SOL    HW132085   4.546   0.483   7.727
10042SOL    HW232086   4.445   0.606   7.765
10043SOL     OW32087   5.381   0.604   8.654
10043SOL    HW132088   5.343   0.535   8.716
10043SOL    HW232089   5.463   0.568   8.610
10044SOL     OW32090   4.395   0.464   8.717
10044SOL    HW132091   4.361   0.375   8.687
10044SOL    HW232092   4.421   0.518   8.637
10045SOL     OW32093   4.654   1.678   8.913
10045SOL    HW132094   4.630   1.660   8.818
10045SOL    HW232095   4.684   1.772   8.923
10046SOL     OW32096   4.197   0.500   7.639
10046SOL    HW132097   4.258   0.580   7.643
10046SOL    HW232098   4.102   0.531   7.646
10047SOL     OW32099   3.883   1.137   8.914
10047SOL    HW132100   3.905   1.076   8.990
10047SOL    HW232101   3.893   1.088   8.828
10048SOL     OW32102   5.071   1.059   8.682
10048SOL    HW132103   5.095   0.996   8.608
10048SOL    HW232104   4.981   1.099   8.664
10049SOL     OW32105   5.026   0.855   7.757
10049SOL    HW132106   4.940   0.824   7.799
10049SOL    HW232107   5.022   0.841   7.658
10050SOL     OW32108   5.483   1.747   8.602
10050SOL    HW132109   5.544   1.777   8.529
10050SOL    HW232110   5.445   1.658   8.580
10051SOL     OW32111   4.976   1.731   8.576
10051SOL    HW132112   5.060   1.736   8.522
10051SOL    HW232113   4.953   1.635   8.594
10052SOL     OW32114   3.807   1.258   8.470
10052SOL    HW132115   3.802   1.257   8.570
10052SOL    HW232116   3.724   1.217   8.432
10053SOL     OW32117   5.450   0.135   7.971
10053SOL    HW132118   5.523   0.118   7.904
10053SOL    HW232119   5.419   0.048   8.009
10054SOL     OW32120   5.112   1.573   7.925
10054SOL    HW132121   5.179   1.585   7.851
10054SOL    HW232122   5.072   1.662   7.948
10055SOL     OW32123   5.004   0.927   8.120
10055SOL    HW132124   5.064   0.846   8.122
10055SOL    HW232125   5.044   0.996   8.060
10056SOL     OW32126   4.396   1.616   7.602
10056SOL    HW132127   4.405   1.626   7.503
10056SOL    HW232128   4.356   1.527   7.623
10057SOL     OW32129   5.374   1.720   8.842
10057SOL    HW132130   5.427   1.730   8.758
10057SOL    HW232131   5.347   1.810   8.876
10058SOL     OW32132   5.565   0.175   8.411
10058SOL    HW132133   5.604   0.090   8.375
10058SOL    HW232134   5.467   0.177   8.392
10059SOL     OW32135   3.987   0.326   8.168
10059SOL    HW132136   3.908   0.377   8.134
10059SOL    HW232137   3.978   0.311   8.266
10060SOL     OW32138   4.918   1.612   7.479
10060SOL    HW132139   4.924   1.519   7.516
10060SOL    HW232140   4.859   1.612   7.399
10061SOL     OW32141   4.546   1.002   8.820
10061SOL    HW132142   4.586   1.001   8.728
10061SOL    HW232143   4.556   1.094   8.860
10062SOL     OW32144   4.640   0.910   7.739
10062SOL    HW132145   4.703   0.948   7.671
10062SOL    HW232146   4.680   0.827   7.778
10063SOL     OW32147   5.228   1.607   7.492
10063SOL    HW132148   5.136   1.644   7.499
10063SOL    HW232149   5.266   1.627   7.402
10064SOL     OW32150   4.096   1.288   8.938
10064SOL    HW132151   4.083   1.381   8.904
10064SOL    HW232152   4.012   1.236   8.925
10065SOL     OW32153   5.338   1.292   8.737
10065SOL    HW132154   5.398   1.295   8.817
10065SOL    HW232155   5.263   1.356   8.750
10066SOL     OW32156   4.763   1.098   8.144
10066SOL    HW132157   4.693   1.051   8.198
10066SOL    HW232158   4.822   1.030   8.101
10067SOL     OW32159   4.738   0.236   8.419
10067SOL    HW132160   4.730   0.200   8.326
10067SOL    HW232161   4.736   0.160   8.484
10068SOL     OW32162   4.314   1.487   7.939
10068SOL    HW132163   4.356   1.429   7.869
10068SOL    HW232164   4.270   1.566   7.895
10069SOL     OW32165   5.433   0.385   8.829
10069SOL    HW132166   5.506   0.454   8.833
10069SOL    HW232167   5.461   0.310   8.770
10070SOL     OW32168   3.979   1.348   7.738
10070SOL    HW132169   3.883   1.349   7.711
10070SOL    HW232170   3.991   1.401   7.822
10071SOL     OW32171   3.799   0.345   7.481
10071SOL    HW132172   3.707   0.317   7.452
10071SOL    HW232173   3.830   0.422   7.425
10072SOL     OW32174   5.164   0.856   8.846
10072SOL    HW132175   5.107   0.908   8.783
10072SOL    HW232176   5.260   0.868   8.822
10073SOL     OW32177   3.796   0.166   7.766
10073SOL    HW132178   3.779   0.249   7.712
10073SOL    HW232179   3.886   0.129   7.744
10074SOL     OW32180   4.907   1.335   7.567
10074SOL    HW132181   4.808   1.324   7.569
10074SOL    HW232182   4.941   1.350   7.660
10075SOL     OW32183   4.337   0.842   8.879
10075SOL    HW132184   4.393   0.923   8.862
10075SOL    HW232185   4.396   0.762   8.882
10076SOL     OW32186   5.217   1.767   8.407
10076SOL    HW132187   5.250   1.831   8.338
10076SOL    HW232188   5.283   1.761   8.482
10077SOL     OW32189   4.114   1.741   0.008
10077SOL    HW132190   4.023   1.782   0.006
10077SOL    HW232191   4.107   1.647   0.040
10078SOL     OW32192   5.398   0.883   8.702
10078SOL    HW132193   5.371   0.794   8.665
10078SOL    HW232194   5.399   0.951   8.629
10079SOL     OW32195   4.949   0.325   7.897
10079SOL    HW132196   5.014   0.251   7.886
10079SOL    HW232197   4.969   0.375   7.981
10080SOL     OW32198   4.318   0.745   8.100
10080SOL    HW132199   4.368   0.830   8.081
10080SOL    HW232200   4.230   0.747   8.052
10081SOL     OW32201   5.501   0.342   0.090
10081SOL    HW132202   5.484   0.373  -0.004
10081SOL    HW232203   5.417   0.305   0.128
10082SOL     OW32204   5.454   0.934   8.965
10082SOL    HW132205   5.492   1.025   8.980
10082SOL    HW232206   5.446   0.917   8.866
10083SOL     OW32207   4.583   1.374   7.464
10083SOL    HW132208   4.537   1.389   7.552
10083SOL    HW232209   4.627   1.459   7.434
10084SOL     OW32210   4.385   1.790   8.401
10084SOL    HW132211   4.339   1.878   8.388
10084SOL    HW232212   4.484   1.802   8.394
10085SOL     OW32213   5.132   1.851   0.168
10085SOL    HW132214   5.036   1.840   0.141
10085SOL    HW232215   5.188   1.784   0.120
10086SOL     OW32216   4.583   0.956   8.309
10086SOL    HW132217   4.637   0.887   8.357
10086SOL    HW232218   4.551   1.025   8.375
10087SOL     OW32219   4.807   0.984   7.535
10087SOL    HW132220   4.784   1.037   7.453
10087SOL    HW232221   4.888   0.928   7.516
10088SOL     OW32222   5.585   1.569   8.299
10088SOL    HW132223   5.514   1.557   8.229
10088SOL    HW232224   5.586   1.490   8.359
10089SOL     OW32225   3.803   1.240   8.101
10089SOL    HW132226   3.802   1.193   8.189
10089SOL    HW232227   3.885   1.212   8.050
10090SOL     OW32228   5.548   0.192   8.675
10090SOL    HW132229   5.544   0.102   8.719
10090SOL    HW232230   5.551   0.181   8.576
10091SOL     OW32231   4.152   0.424   7.968
10091SOL    HW132232   4.182   0.352   7.906
10091SOL    HW232233   4.113   0.384   8.051
10092SOL     OW32234   5.429   1.487   8.552
10092SOL    HW132235   5.336   1.462   8.525
10092SOL    HW232236   5.455   1.437   8.634
10093SOL     OW32237   4.041   0.547   8.728
10093SOL    HW132238   4.079   0.488   8.800
10093SOL    HW232239   4.081   0.521   8.640
10094SOL     OW32240   4.536   1.586   8.135
10094SOL    HW132241   4.568   1.596   8.041
10094SOL    HW232242   4.457   1.524   8.137
10095SOL     OW32243   5.148   0.214   8.560
10095SOL    HW132244   5.200   0.149   8.615
10095SOL    HW232245   5.099   0.277   8.621
10096SOL     OW32246   4.725   0.034   8.602
10096SOL    HW132247   4.662  -0.038   8.571
10096SOL    HW232248   4.818  -0.002   8.602
10097SOL     OW32249   4.494   1.330   7.749
10097SOL    HW132250   4.448   1.243   7.766
10097SOL    HW232251   4.585   1.327   7.790
10098SOL     OW32252   4.342   1.567   8.732
10098SOL    HW132253   4.337   1.649   8.789
10098SOL    HW232254   4.431   1.564   8.687
10099SOL     OW32255   5.076   0.052   7.616
10099SOL    HW132256   5.111   0.011   7.532
10099SOL    HW232257   4.986   0.014   7.636
10100SOL     OW32258   5.024   0.453   8.139
10100SOL    HW132259   4.965   0.533   8.143
10100SOL    HW232260   5.039   0.418   8.232
10101SOL     OW32261   5.317   0.221   8.330
10101SOL    HW132262   5.233   0.220   8.384
10101SOL    HW232263   5.319   0.304   8.274
10102SOL     OW32264   3.763   1.077   7.748
10102SOL    HW132265   3.862   1.066   7.739
10102SOL    HW232266   3.723   0.991   7.780
10103SOL     OW32267   4.599   1.646   7.785
10103SOL    HW132268   4.522   1.611   7.731
10103SOL    HW232269   4.567   1.717   7.847
10104SOL     OW32270   3.954   2.490   0.113
10104SOL    HW132271   3.861   2.488   0.150
10104SOL    HW232272   3.955   2.451   0.021
10105SOL     OW32273   3.949   2.137   0.996
10105SOL    HW132274   3.984   2.120   1.088
10105SOL    HW232275   3.861   2.092   0.984
10106SOL     OW32276   3.743   2.230   0.647
10106SOL    HW132277   3.661   2.273   0.686
10106SOL    HW232278   3.715   2.157   0.584
10107SOL     OW32279   4.293   3.137   1.165
10107SOL    HW132280   4.200   3.130   1.128
10107SOL    HW232281   4.304   3.226   1.209
10108SOL     OW32282   5.279   3.373   0.703
10108SOL    HW132283   5.222   3.357   0.784
10108SOL    HW232284   5.220   3.383   0.623
10109SOL     OW32285   5.467   2.480   0.856
10109SOL    HW132286   5.500   2.574   0.856
10109SOL    HW232287   5.518   2.426   0.922
10110SOL     OW32288   4.859   2.565   0.717
10110SOL    HW132289   4.916   2.643   0.692
10110SOL    HW232290   4.799   2.591   0.793
10111SOL     OW32291   5.479   2.469   0.231
10111SOL    HW132292   5.467   2.456   0.132
10111SOL    HW232293   5.449   2.388   0.280
10112SOL     OW32294   4.492   3.006   1.023
10112SOL    HW132295   4.414   3.023   1.083
10112SOL    HW232296   4.526   3.093   0.987
10113SOL     OW32297   4.574   2.660   1.823
10113SOL    HW132298   4.570   2.736   1.888
10113SOL    HW232299   4.596   2.696   1.732
10114SOL     OW32300   4.409   2.874   0.665
10114SOL    HW132301   4.478   2.858   0.735
10114SOL    HW232302   4.336   2.931   0.703
10115SOL     OW32303   4.410   3.023   1.803
10115SOL    HW132304   4.470   3.102   1.817
10115SOL    HW232305   4.324   3.054   1.762
10116SOL     OW32306   4.059   3.297   1.061
10116SOL    HW132307   3.981   3.266   1.008
10116SOL    HW232308   4.117   3.355   1.004
10117SOL     OW32309   5.184   3.367   1.339
10117SOL    HW132310   5.208   3.461   1.365
10117SOL    HW232311   5.168   3.313   1.421
10118SOL     OW32312   4.162   2.254   1.499
10118SOL    HW132313   4.244   2.198   1.508
10118SOL    HW232314   4.081   2.196   1.503
10119SOL     OW32315   5.327   2.309   0.737
10119SOL    HW132316   5.253   2.355   0.687
10119SOL    HW232317   5.378   2.377   0.790
10120SOL     OW32318   3.955   3.575   0.483
10120SOL    HW132319   3.989   3.652   0.537
10120SOL    HW232320   3.999   3.575   0.393
10121SOL     OW32321   4.851   3.203   1.690
10121SOL    HW132322   4.898   3.203   1.778
10121SOL    HW232323   4.803   3.116   1.679
10122SOL     OW32324   3.954   3.296   0.538
10122SOL    HW132325   3.928   3.392   0.538
10122SOL    HW232326   3.883   3.242   0.583
10123SOL     OW32327   3.964   2.953   0.886
10123SOL    HW132328   3.978   2.869   0.938
10123SOL    HW232329   3.909   3.017   0.941
10124SOL     OW32330   4.344   3.648   1.439
10124SOL    HW132331   4.252   3.631   1.474
10124SOL    HW232332   4.372   3.740   1.465
10125SOL     OW32333   4.330   2.826   0.123
10125SOL    HW132334   4.337   2.910   0.069
10125SOL    HW232335   4.376   2.839   0.211
10126SOL     OW32336   5.318   1.976   1.480
10126SOL    HW132337   5.300   2.043   1.408
10126SOL    HW232338   5.315   2.022   1.569
10127SOL     OW32339   3.846   2.505   0.563
10127SOL    HW132340   3.801   2.417   0.580
10127SOL    HW232341   3.845   2.559   0.647
10128SOL     OW32342   5.566   3.629   0.359
10128SOL    HW132343   5.620   3.600   0.439
10128SOL    HW232344   5.596   3.719   0.330
10129SOL     OW32345   5.413   2.784   0.612
10129SOL    HW132346   5.508   2.755   0.620
10129SOL    HW232347   5.405   2.849   0.537
10130SOL     OW32348   5.365   2.970   0.432
10130SOL    HW132349   5.451   2.972   0.380
10130SOL    HW232350   5.379   3.017   0.520
10131SOL     OW32351   3.837   2.599   1.597
10131SOL    HW132352   3.925   2.586   1.642
10131SOL    HW232353   3.824   2.696   1.575
10132SOL     OW32354   4.337   3.227   0.726
10132SOL    HW132355   4.288   3.140   0.735
10132SOL    HW232356   4.314   3.270   0.639
10133SOL     OW32357   5.017   3.090   1.423
10133SOL    HW132358   5.054   3.017   1.365
10133SOL    HW232359   5.069   3.095   1.508
10134SOL     OW32360   4.533   1.866   0.502
10134SOL    HW132361   4.573   1.957   0.493
10134SOL    HW232362   4.433   1.874   0.508
10135SOL     OW32363   3.921   2.838   1.264
10135SOL    HW132364   4.010   2.793   1.250
10135SOL    HW232365   3.848   2.773   1.245
10136SOL     OW32366   5.249   2.861   0.190
10136SOL    HW132367   5.186   2.785   0.203
10136SOL    HW232368   5.297   2.879   0.276
10137SOL     OW32369   4.911   3.654   1.616
10137SOL    HW132370   4.935   3.714   1.540
10137SOL    HW232371   4.918   3.559   1.586
10138SOL     OW32372   4.041   2.113   1.801
10138SOL    HW132373   4.112   2.184   1.807
10138SOL    HW232374   3.953   2.152   1.829
10139SOL     OW32375   5.190   3.279   0.953
10139SOL    HW132376   5.131   3.285   1.033
10139SOL    HW232377   5.175   3.191   0.907
10140SOL     OW32378   5.391   3.576   0.572
10140SOL    HW132379   5.350   3.553   0.484
10140SOL    HW232380   5.373   3.502   0.637
10141SOL     OW32381   4.322   2.591   0.270
10141SOL    HW132382   4.346   2.660   0.202
10141SOL    HW232383   4.244   2.624   0.324
10142SOL     OW32384   5.005   2.207   0.944
10142SOL    HW132385   4.919   2.157   0.931
10142SOL    HW232386   5.067   2.153   1.000
10143SOL     OW32387   5.300   3.524   0.307
10143SOL    HW132388   5.389   3.570   0.310
10143SOL    HW232389   5.279   3.500   0.212
10144SOL     OW32390   4.531   2.467   1.465
10144SOL    HW132391   4.484   2.464   1.554
10144SOL    HW232392   4.480   2.412   1.399
10145SOL     OW32393   5.118   2.331   1.674
10145SOL    HW132394   5.098   2.374   1.762
10145SOL    HW232395   5.196   2.269   1.683
10146SOL     OW32396   4.697   2.752   1.572
10146SOL    HW132397   4.743   2.668   1.543
10146SOL    HW232398   4.641   2.786   1.497
10147SOL     OW32399   4.715   2.272   1.242
10147SOL    HW132400   4.638   2.306   1.296
10147SOL    HW232401   4.681   2.221   1.163
10148SOL     OW32402   4.765   2.563   0.429
10148SOL    HW132403   4.791   2.559   0.525
10148SOL    HW232404   4.680   2.512   0.415
10149SOL     OW32405   3.800   2.673   0.789
10149SOL    HW132406   3.899   2.661   0.798
10149SOL    HW232407   3.776   2.768   0.810
10150SOL     OW32408   3.854   3.683   1.571
10150SOL    HW132409   3.844   3.668   1.670
10150SOL    HW232410   3.768   3.719   1.535
10151SOL     OW32411   4.589   2.210   0.195
10151SOL    HW132412   4.648   2.273   0.146
10151SOL    HW232413   4.608   2.116   0.166
10152SOL     OW32414   5.443   2.447   1.831
10152SOL    HW132415   5.417   2.536   1.795
10152SOL    HW232416   5.441   2.379   1.758
10153SOL     OW32417   5.086   3.006   0.545
10153SOL    HW132418   5.169   2.977   0.497
10153SOL    HW232419   5.037   3.073   0.489
10154SOL     OW32420   4.274   2.058   0.885
10154SOL    HW132421   4.269   2.053   0.985
10154SOL    HW232422   4.276   2.154   0.856
10155SOL     OW32423   4.732   3.318   0.477
10155SOL    HW132424   4.686   3.390   0.425
10155SOL    HW232425   4.728   3.338   0.575
10156SOL     OW32426   4.075   3.663   0.853
10156SOL    HW132427   4.125   3.577   0.859
10156SOL    HW232428   4.140   3.740   0.850
10157SOL     OW32429   5.519   2.928   0.873
10157SOL    HW132430   5.457   2.913   0.797
10157SOL    HW232431   5.467   2.939   0.958
10158SOL     OW32432   4.951   3.412   1.506
10158SOL    HW132433   4.957   3.335   1.570
10158SOL    HW232434   4.899   3.386   1.426
10159SOL     OW32435   4.045   2.805   0.242
10159SOL    HW132436   4.127   2.844   0.200
10159SOL    HW232437   4.018   2.723   0.193
10160SOL     OW32438   5.182   2.597   0.728
10160SOL    HW132439   5.177   2.532   0.803
10160SOL    HW232440   5.262   2.656   0.741
10161SOL     OW32441   4.185   3.128   1.727
10161SOL    HW132442   4.135   3.129   1.641
10161SOL    HW232443   4.122   3.110   1.803
10162SOL     OW32444   4.835   3.638   0.237
10162SOL    HW132445   4.775   3.576   0.287
10162SOL    HW232446   4.866   3.594   0.152
10163SOL     OW32447   3.926   2.147   1.498
10163SOL    HW132448   3.846   2.207   1.485
10163SOL    HW232449   3.916   2.098   1.584
10164SOL     OW32450   5.356   3.239   0.081
10164SOL    HW132451   5.324   3.333   0.071
10164SOL    HW232452   5.280   3.176   0.069
10165SOL     OW32453   4.188   3.605   0.323
10165SOL    HW132454   4.221   3.644   0.409
10165SOL    HW232455   4.264   3.598   0.258
10166SOL     OW32456   5.124   1.969   0.426
10166SOL    HW132457   5.100   1.932   0.336
10166SOL    HW232458   5.223   1.985   0.430
10167SOL     OW32459   4.664   3.560   0.904
10167SOL    HW132460   4.744   3.503   0.925
10167SOL    HW232461   4.615   3.520   0.827
10168SOL     OW32462   4.106   2.562   0.480
10168SOL    HW132463   4.151   2.472   0.477
10168SOL    HW232464   4.012   2.551   0.513
10169SOL     OW32465   5.271   2.084   1.729
10169SOL    HW132466   5.266   2.121   1.821
10169SOL    HW232467   5.199   2.015   1.717
10170SOL     OW32468   4.338   1.984   0.117
10170SOL    HW132469   4.436   1.962   0.124
10170SOL    HW232470   4.307   1.967   0.024
10171SOL     OW32471   4.505   2.126   1.749
10171SOL    HW132472   4.572   2.065   1.792
10171SOL    HW232473   4.432   2.145   1.814
10172SOL     OW32474   4.612   3.376   1.195
10172SOL    HW132475   4.589   3.351   1.101
10172SOL    HW232476   4.673   3.307   1.234
10173SOL     OW32477   5.075   2.452   1.433
10173SOL    HW132478   5.103   2.409   1.518
10173SOL    HW232479   5.100   2.548   1.434
10174SOL     OW32480   4.527   3.264   0.924
10174SOL    HW132481   4.617   3.278   0.882
10174SOL    HW232482   4.456   3.266   0.853
10175SOL     OW32483   4.646   2.365   0.899
10175SOL    HW132484   4.621   2.356   0.803
10175SOL    HW232485   4.694   2.283   0.930
10176SOL     OW32486   4.263   1.926   0.512
10176SOL    HW132487   4.182   1.927   0.570
10176SOL    HW232488   4.266   2.009   0.457
10177SOL     OW32489   5.158   3.050   0.041
10177SOL    HW132490   5.190   2.974   0.098
10177SOL    HW232491   5.066   3.077   0.071
10178SOL     OW32492   4.021   1.897   0.171
10178SOL    HW132493   4.070   1.981   0.150
10178SOL    HW232494   4.083   1.832   0.216
10179SOL     OW32495   4.659   2.098   0.480
10179SOL    HW132496   4.611   2.139   0.402
10179SOL    HW232497   4.758   2.096   0.461
10180SOL     OW32498   4.800   2.545   1.464
10180SOL    HW132499   4.720   2.484   1.467
10180SOL    HW232500   4.881   2.492   1.440
10181SOL     OW32501   4.951   3.432   0.793
10181SOL    HW132502   4.972   3.506   0.728
10181SOL    HW232503   5.019   3.432   0.866
10182SOL     OW32504   4.183   3.014   0.741
10182SOL    HW132505   4.112   2.987   0.806
10182SOL    HW232506   4.157   2.986   0.648
10183SOL     OW32507   4.995   3.659   0.591
10183SOL    HW132508   5.039   3.723   0.527
10183SOL    HW232509   4.945   3.711   0.661
10184SOL     OW32510   4.756   2.411   0.016
10184SOL    HW132511   4.715   2.493  -0.023
10184SOL    HW232512   4.820   2.437   0.089
10185SOL     OW32513   3.802   2.418   1.386
10185SOL    HW132514   3.894   2.417   1.345
10185SOL    HW232515   3.796   2.492   1.453
10186SOL     OW32516   4.285   2.084   1.147
10186SOL    HW132517   4.323   2.000   1.184
10186SOL    HW232518   4.197   2.103   1.191
10187SOL     OW32519   4.590   2.316   0.642
10187SOL    HW132520   4.558   2.388   0.580
10187SOL    HW232521   4.614   2.235   0.589
10188SOL     OW32522   4.741   1.901   0.753
10188SOL    HW132523   4.669   1.906   0.684
10188SOL    HW232524   4.717   1.832   0.822
10189SOL     OW32525   5.153   3.035   0.867
10189SOL    HW132526   5.098   2.951   0.860
10189SOL    HW232527   5.179   3.064   0.775
10190SOL     OW32528   5.190   2.452   0.992
10190SOL    HW132529   5.160   2.357   0.999
10190SOL    HW232530   5.263   2.468   1.058
10191SOL     OW32531   5.581   2.695   0.377
10191SOL    HW132532   5.623   2.631   0.441
10191SOL    HW232533   5.543   2.644   0.299
10192SOL     OW32534   4.212   3.247   0.174
10192SOL    HW132535   4.125   3.232   0.221
10192SOL    HW232536   4.195   3.273   0.079
10193SOL     OW32537   5.388   3.142   0.657
10193SOL    HW132538   5.487   3.150   0.671
10193SOL    HW232539   5.343   3.226   0.688
10194SOL     OW32540   5.114   2.437   0.078
10194SOL    HW132541   5.060   2.416   0.159
10194SOL    HW232542   5.205   2.396   0.087
10195SOL     OW32543   4.251   2.118   0.328
10195SOL    HW132544   4.278   2.059   0.253
10195SOL    HW232545   4.251   2.213   0.297
10196SOL     OW32546   5.478   3.085   1.588
10196SOL    HW132547   5.569   3.046   1.575
10196SOL    HW232548   5.486   3.181   1.612
10197SOL     OW32549   4.788   3.209   1.340
10197SOL    HW132550   4.708   3.186   1.395
10197SOL    HW232551   4.871   3.183   1.389
10198SOL     OW32552   5.316   3.491   1.625
10198SOL    HW132553   5.343   3.525   1.535
10198SOL    HW232554   5.395   3.453   1.671
10199SOL     OW32555   4.835   3.057   1.100
10199SOL    HW132556   4.795   3.101   1.181
10199SOL    HW232557   4.794   3.094   1.017
10200SOL     OW32558   5.362   2.961   1.079
10200SOL    HW132559   5.367   3.042   1.138
10200SOL    HW232560   5.276   2.963   1.028
10201SOL     OW32561   4.639   1.951   1.402
10201SOL    HW132562   4.664   1.931   1.307
10201SOL    HW232563   4.711   2.007   1.444
10202SOL     OW32564   4.704   2.978   1.719
10202SOL    HW132565   4.605   2.984   1.729
10202SOL    HW232566   4.727   2.898   1.663
10203SOL     OW32567   4.429   2.912   0.368
10203SOL    HW132568   4.415   2.919   0.467
10203SOL    HW232569   4.513   2.861   0.350
10204SOL     OW32570   4.134   2.675   1.251
10204SOL    HW132571   4.220   2.687   1.301
10204SOL    HW232572   4.092   2.588   1.278
10205SOL     OW32573   4.998   2.248   1.262
10205SOL    HW132574   5.019   2.322   1.326
10205SOL    HW232575   4.909   2.265   1.219
10206SOL     OW32576   3.788   3.426   1.331
10206SOL    HW132577   3.742   3.508   1.297
10206SOL    HW232578   3.886   3.445   1.340
10207SOL     OW32579   4.091   2.962   0.501
10207SOL    HW132580   4.084   3.045   0.445
10207SOL    HW232581   4.095   2.882   0.441
10208SOL     OW32582   4.290   2.399   0.865
10208SOL    HW132583   4.302   2.465   0.791
10208SOL    HW232584   4.336   2.433   0.948
10209SOL     OW32585   4.976   3.210   0.388
10209SOL    HW132586   5.026   3.287   0.428
10209SOL    HW232587   4.881   3.212   0.420
10210SOL     OW32588   4.996   3.307   1.142
10210SOL    HW132589   5.043   3.320   1.229
10210SOL    HW232590   4.930   3.233   1.151
10211SOL     OW32591   5.306   2.501   0.472
10211SOL    HW132592   5.275   2.562   0.545
10211SOL    HW232593   5.356   2.553   0.403
10212SOL     OW32594   4.078   3.372   1.329
10212SOL    HW132595   4.057   3.328   1.242
10212SOL    HW232596   4.175   3.398   1.332
10213SOL     OW32597   4.126   2.613   1.598
10213SOL    HW132598   4.194   2.668   1.551
10213SOL    HW232599   4.166   2.525   1.625
10214SOL     OW32600   5.311   2.641   1.670
10214SOL    HW132601   5.219   2.679   1.665
10214SOL    HW232602   5.371   2.688   1.605
10215SOL     OW32603   4.737   1.967   1.770
10215SOL    HW132604   4.743   2.052   1.718
10215SOL    HW232605   4.769   1.891   1.713
10216SOL     OW32606   4.228   1.912   1.740
10216SOL    HW132607   4.186   1.855   1.670
10216SOL    HW232608   4.162   1.981   1.772
10217SOL     OW32609   4.297   2.732   1.029
10217SOL    HW132610   4.341   2.821   1.020
10217SOL    HW232611   4.234   2.732   1.106
10218SOL     OW32612   5.084   2.724   1.045
10218SOL    HW132613   5.009   2.724   0.979
10218SOL    HW232614   5.121   2.632   1.054
10219SOL     OW32615   4.933   2.387   0.275
10219SOL    HW132616   4.946   2.303   0.329
10219SOL    HW232617   4.904   2.461   0.335
10220SOL     OW32618   4.031   2.075   1.231
10220SOL    HW132619   4.008   2.112   1.321
10220SOL    HW232620   4.001   1.980   1.225
10221SOL     OW32621   3.761   3.172   1.282
10221SOL    HW132622   3.814   3.123   1.350
10221SOL    HW232623   3.783   3.270   1.287
10222SOL     OW32624   4.456   2.496   1.064
10222SOL    HW132625   4.515   2.470   0.988
10222SOL    HW232626   4.428   2.592   1.053
10223SOL     OW32627   5.452   2.797   1.854
10223SOL    HW132628   5.406   2.790   1.765
10223SOL    HW232629   5.390   2.841   1.920
10224SOL     OW32630   4.031   1.925   0.618
10224SOL    HW132631   4.020   2.019   0.651
10224SOL    HW232632   4.026   1.862   0.695
10225SOL     OW32633   5.346   2.229   0.374
10225SOL    HW132634   5.348   2.153   0.438
10225SOL    HW232635   5.298   2.306   0.414
10226SOL     OW32636   4.747   2.628   0.966
10226SOL    HW132637   4.762   2.649   1.062
10226SOL    HW232638   4.717   2.533   0.957
10227SOL     OW32639   4.704   3.435   1.700
10227SOL    HW132640   4.684   3.479   1.612
10227SOL    HW232641   4.743   3.344   1.684
10228SOL     OW32642   5.583   3.380   1.605
10228SOL    HW132643   5.597   3.407   1.510
10228SOL    HW232644   5.666   3.402   1.658
10229SOL     OW32645   4.074   2.760   1.804
10229SOL    HW132646   4.150   2.804   1.852
10229SOL    HW232647   4.109   2.713   1.722
10230SOL     OW32648   5.264   2.136   0.125
10230SOL    HW132649   5.203   2.061   0.148
10230SOL    HW232650   5.286   2.188   0.208
10231SOL     OW32651   5.027   2.700   0.042
10231SOL    HW132652   5.061   2.607   0.057
10231SOL    HW232653   5.045   2.727  -0.053
10232SOL     OW32654   4.792   3.195   0.849
10232SOL    HW132655   4.799   3.111   0.794
10232SOL    HW232656   4.854   3.264   0.813
10233SOL     OW32657   4.043   2.672   0.949
10233SOL    HW132658   4.136   2.708   0.954
10233SOL    HW232659   4.037   2.587   1.001
10234SOL     OW32660   4.063   2.371   1.006
10234SOL    HW132661   4.011   2.288   0.989
10234SOL    HW232662   4.140   2.376   0.942
10235SOL     OW32663   4.235   2.277   1.808
10235SOL    HW132664   4.217   2.322   1.896
10235SOL    HW232665   4.277   2.342   1.745
10236SOL     OW32666   4.862   2.242   1.678
10236SOL    HW132667   4.817   2.305   1.742
10236SOL    HW232668   4.955   2.273   1.661
10237SOL     OW32669   4.884   2.069   1.477
10237SOL    HW132670   4.884   2.133   1.554
10237SOL    HW232671   4.912   2.117   1.394
10238SOL     OW32672   3.732   3.188   0.200
10238SOL    HW132673   3.639   3.209   0.169
10238SOL    HW232674   3.742   3.089   0.213
10239SOL     OW32675   3.812   3.663   0.927
10239SOL    HW132676   3.770   3.577   0.900
10239SOL    HW232677   3.906   3.666   0.893
10240SOL     OW32678   4.228   3.430   0.910
10240SOL    HW132679   4.294   3.504   0.919
10240SOL    HW232680   4.272   3.351   0.868
10241SOL     OW32681   4.726   2.658   1.238
10241SOL    HW132682   4.767   2.626   1.324
10241SOL    HW232683   4.630   2.631   1.235
10242SOL     OW32684   3.764   2.406   1.114
10242SOL    HW132685   3.849   2.373   1.073
10242SOL    HW232686   3.777   2.421   1.212
10243SOL     OW32687   3.913   2.382   1.722
10243SOL    HW132688   3.972   2.342   1.652
10243SOL    HW232689   3.855   2.453   1.681
10244SOL     OW32690   5.093   2.812   1.660
10244SOL    HW132691   5.132   2.901   1.680
10244SOL    HW232692   5.103   2.792   1.563
10245SOL     OW32693   4.539   2.434   0.325
10245SOL    HW132694   4.546   2.345   0.279
10245SOL    HW232695   4.445   2.468   0.317
10246SOL     OW32696   5.381   2.466   1.206
10246SOL    HW132697   5.343   2.397   1.268
10246SOL    HW232698   5.463   2.430   1.162
10247SOL     OW32699   3.976   3.426   1.744
10247SOL    HW132700   3.946   3.483   1.820
10247SOL    HW232701   3.969   3.329   1.770
10248SOL     OW32702   4.395   2.326   1.269
10248SOL    HW132703   4.361   2.237   1.239
10248SOL    HW232704   4.421   2.380   1.189
10249SOL     OW32705   4.654   3.540   1.465
10249SOL    HW132706   4.630   3.522   1.370
10249SOL    HW232707   4.684   3.634   1.475
10250SOL     OW32708   4.197   2.362   0.191
10250SOL    HW132709   4.258   2.442   0.195
10250SOL    HW232710   4.102   2.393   0.198
10251SOL     OW32711   3.883   2.999   1.466
10251SOL    HW132712   3.905   2.938   1.542
10251SOL    HW232713   3.893   2.950   1.380
10252SOL     OW32714   5.071   2.921   1.234
10252SOL    HW132715   5.095   2.858   1.160
10252SOL    HW232716   4.981   2.961   1.216
10253SOL     OW32717   5.026   2.717   0.309
10253SOL    HW132718   4.940   2.686   0.351
10253SOL    HW232719   5.022   2.703   0.210
10254SOL     OW32720   5.483   3.609   1.154
10254SOL    HW132721   5.544   3.639   1.081
10254SOL    HW232722   5.445   3.520   1.132
10255SOL     OW32723   4.976   3.593   1.128
10255SOL    HW132724   5.060   3.598   1.074
10255SOL    HW232725   4.953   3.497   1.146
10256SOL     OW32726   3.807   3.120   1.022
10256SOL    HW132727   3.802   3.119   1.122
10256SOL    HW232728   3.724   3.079   0.984
10257SOL     OW32729   4.412   3.524   1.716
10257SOL    HW132730   4.356   3.605   1.725
10257SOL    HW232731   4.464   3.528   1.630
10258SOL     OW32732   4.627   1.948   0.133
10258SOL    HW132733   4.678   1.949   0.047
10258SOL    HW232734   4.683   1.906   0.204
10259SOL     OW32735   5.450   1.997   0.523
10259SOL    HW132736   5.523   1.980   0.456
10259SOL    HW232737   5.419   1.910   0.561
10260SOL     OW32738   5.112   3.435   0.477
10260SOL    HW132739   5.179   3.447   0.403
10260SOL    HW232740   5.072   3.524   0.500
10261SOL     OW32741   3.854   3.656   1.851
10261SOL    HW132742   3.813   3.582   1.904
10261SOL    HW232743   3.918   3.707   1.909
10262SOL     OW32744   5.004   2.789   0.672
10262SOL    HW132745   5.064   2.708   0.674
10262SOL    HW232746   5.044   2.858   0.612
10263SOL     OW32747   4.554   3.135   1.422
10263SOL    HW132748   4.549   3.168   1.517
10263SOL    HW232749   4.468   3.154   1.376
10264SOL     OW32750   4.396   3.478   0.154
10264SOL    HW132751   4.405   3.488   0.055
10264SOL    HW232752   4.356   3.389   0.175
10265SOL     OW32753   5.374   3.582   1.394
10265SOL    HW132754   5.427   3.592   1.310
10265SOL    HW232755   5.347   3.672   1.428
10266SOL     OW32756   5.565   2.037   0.963
10266SOL    HW132757   5.604   1.952   0.927
10266SOL    HW232758   5.467   2.039   0.944
10267SOL     OW32759   3.987   2.188   0.720
10267SOL    HW132760   3.908   2.239   0.686
10267SOL    HW232761   3.978   2.173   0.818
10268SOL     OW32762   4.918   3.474   0.031
10268SOL    HW132763   4.924   3.381   0.068
10268SOL    HW232764   4.859   3.474  -0.049
10269SOL     OW32765   4.546   2.864   1.372
10269SOL    HW132766   4.586   2.863   1.280
10269SOL    HW232767   4.556   2.956   1.412
10270SOL     OW32768   4.640   2.772   0.291
10270SOL    HW132769   4.703   2.810   0.223
10270SOL    HW232770   4.680   2.689   0.330
10271SOL     OW32771   5.228   3.469   0.044
10271SOL    HW132772   5.136   3.506   0.051
10271SOL    HW232773   5.266   3.489  -0.046
10272SOL     OW32774   4.096   3.150   1.490
10272SOL    HW132775   4.083   3.243   1.456
10272SOL    HW232776   4.012   3.098   1.477
10273SOL     OW32777   5.338   3.154   1.289
10273SOL    HW132778   5.398   3.157   1.369
10273SOL    HW232779   5.263   3.218   1.302
10274SOL     OW32780   4.763   2.960   0.696
10274SOL    HW132781   4.693   2.913   0.750
10274SOL    HW232782   4.822   2.892   0.653
10275SOL     OW32783   4.738   2.098   0.971
10275SOL    HW132784   4.730   2.062   0.878
10275SOL    HW232785   4.736   2.022   1.036
10276SOL     OW32786   4.314   3.349   0.491
10276SOL    HW132787   4.356   3.291   0.421
10276SOL    HW232788   4.270   3.428   0.447
10277SOL     OW32789   5.433   2.247   1.381
10277SOL    HW132790   5.506   2.316   1.385
10277SOL    HW232791   5.461   2.172   1.322
10278SOL     OW32792   3.979   3.210   0.290
10278SOL    HW132793   3.883   3.211   0.263
10278SOL    HW232794   3.991   3.263   0.374
10279SOL     OW32795   3.829   2.875   1.726
10279SOL    HW132796   3.752   2.842   1.780
10279SOL    HW232797   3.914   2.845   1.768
10280SOL     OW32798   4.396   2.065   1.489
10280SOL    HW132799   4.486   2.049   1.449
10280SOL    HW232800   4.404   2.070   1.588
10281SOL     OW32801   5.164   2.718   1.398
10281SOL    HW132802   5.107   2.770   1.335
10281SOL    HW232803   5.260   2.730   1.374
10282SOL     OW32804   3.796   2.028   0.318
10282SOL    HW132805   3.779   2.111   0.264
10282SOL    HW232806   3.886   1.991   0.296
10283SOL     OW32807   4.907   3.197   0.119
10283SOL    HW132808   4.808   3.186   0.121
10283SOL    HW232809   4.941   3.212   0.212
10284SOL     OW32810   4.337   2.704   1.431
10284SOL    HW132811   4.393   2.785   1.414
10284SOL    HW232812   4.396   2.624   1.434
10285SOL     OW32813   5.217   3.629   0.959
10285SOL    HW132814   5.250   3.693   0.890
10285SOL    HW232815   5.283   3.623   1.034
10286SOL     OW32816   4.440   2.427   1.708
10286SOL    HW132817   4.459   2.492   1.782
10286SOL    HW232818   4.500   2.347   1.717
10287SOL     OW32819   5.174   3.082   1.633
10287SOL    HW132820   5.165   3.072   1.732
10287SOL    HW232821   5.270   3.075   1.607
10288SOL     OW32822   4.114   3.603   1.560
10288SOL    HW132823   4.023   3.644   1.558
10288SOL    HW232824   4.107   3.509   1.592
10289SOL     OW32825   5.398   2.745   1.254
10289SOL    HW132826   5.371   2.656   1.217
10289SOL    HW232827   5.399   2.813   1.181
10290SOL     OW32828   4.949   2.187   0.449
10290SOL    HW132829   5.014   2.113   0.438
10290SOL    HW232830   4.969   2.237   0.533
10291SOL     OW32831   4.318   2.607   0.652
10291SOL    HW132832   4.368   2.692   0.633
10291SOL    HW232833   4.230   2.609   0.604
10292SOL     OW32834   5.501   2.204   1.642
10292SOL    HW132835   5.484   2.235   1.548
10292SOL    HW232836   5.417   2.167   1.680
10293SOL     OW32837   5.454   2.796   1.517
10293SOL    HW132838   5.492   2.887   1.532
10293SOL    HW232839   5.446   2.779   1.418
10294SOL     OW32840   4.583   3.236   0.016
10294SOL    HW132841   4.537   3.251   0.104
10294SOL    HW232842   4.627   3.321  -0.014
10295SOL     OW32843   5.132   3.713   1.720
10295SOL    HW132844   5.036   3.702   1.693
10295SOL    HW232845   5.188   3.646   1.672
10296SOL     OW32846   4.583   2.818   0.861
10296SOL    HW132847   4.637   2.749   0.909
10296SOL    HW232848   4.551   2.887   0.927
10297SOL     OW32849   4.807   2.846   0.087
10297SOL    HW132850   4.784   2.899   0.005
10297SOL    HW232851   4.888   2.790   0.068
10298SOL     OW32852   5.585   3.431   0.851
10298SOL    HW132853   5.514   3.419   0.781
10298SOL    HW232854   5.586   3.352   0.911
10299SOL     OW32855   3.945   3.176   1.844
10299SOL    HW132856   3.880   3.103   1.823
10299SOL    HW232857   3.949   3.190   1.942
10300SOL     OW32858   3.803   3.102   0.653
10300SOL    HW132859   3.802   3.055   0.741
10300SOL    HW232860   3.885   3.074   0.602
10301SOL     OW32861   4.396   3.253   1.624
10301SOL    HW132862   4.318   3.203   1.662
10301SOL    HW232863   4.393   3.348   1.655
10302SOL     OW32864   5.548   2.054   1.227
10302SOL    HW132865   5.544   1.964   1.271
10302SOL    HW232866   5.551   2.043   1.128
10303SOL     OW32867   4.152   2.286   0.520
10303SOL    HW132868   4.182   2.214   0.458
10303SOL    HW232869   4.113   2.246   0.603
10304SOL     OW32870   5.429   3.349   1.104
10304SOL    HW132871   5.336   3.324   1.077
10304SOL    HW232872   5.455   3.299   1.186
10305SOL     OW32873   4.041   2.409   1.280
10305SOL    HW132874   4.079   2.350   1.352
10305SOL    HW232875   4.081   2.383   1.192
10306SOL     OW32876   4.536   3.448   0.687
10306SOL    HW132877   4.568   3.458   0.593
10306SOL    HW232878   4.457   3.386   0.689
10307SOL     OW32879   5.148   2.076   1.112
10307SOL    HW132880   5.200   2.011   1.167
10307SOL    HW232881   5.099   2.139   1.173
10308SOL     OW32882   4.725   1.896   1.154
10308SOL    HW132883   4.662   1.824   1.123
10308SOL    HW232884   4.818   1.860   1.154
10309SOL     OW32885   4.494   3.192   0.301
10309SOL    HW132886   4.448   3.105   0.318
10309SOL    HW232887   4.585   3.189   0.342
10310SOL     OW32888   4.342   3.429   1.284
10310SOL    HW132889   4.337   3.511   1.341
10310SOL    HW232890   4.431   3.426   1.239
10311SOL     OW32891   5.024   2.315   0.691
10311SOL    HW132892   4.965   2.395   0.695
10311SOL    HW232893   5.039   2.280   0.784
10312SOL     OW32894   5.317   2.083   0.882
10312SOL    HW132895   5.233   2.082   0.936
10312SOL    HW232896   5.319   2.166   0.826
10313SOL     OW32897   3.763   2.939   0.300
10313SOL    HW132898   3.862   2.928   0.291
10313SOL    HW232899   3.723   2.853   0.332
10314SOL     OW32900   4.599   3.508   0.337
10314SOL    HW132901   4.522   3.473   0.283
10314SOL    HW232902   4.567   3.579   0.399
10315SOL     OW32903   3.954   2.490   1.975
10315SOL    HW132904   3.861   2.488   2.012
10315SOL    HW232905   3.955   2.451   1.883
10316SOL     OW32906   3.949   2.137   2.858
10316SOL    HW132907   3.984   2.120   2.950
10316SOL    HW232908   3.861   2.092   2.846
10317SOL     OW32909   3.743   2.230   2.509
10317SOL    HW132910   3.661   2.273   2.548
10317SOL    HW232911   3.715   2.157   2.446
10318SOL     OW32912   4.293   3.137   3.027
10318SOL    HW132913   4.200   3.130   2.990
10318SOL    HW232914   4.304   3.226   3.071
10319SOL     OW32915   5.279   3.373   2.565
10319SOL    HW132916   5.222   3.357   2.646
10319SOL    HW232917   5.220   3.383   2.485
10320SOL     OW32918   5.467   2.480   2.718
10320SOL    HW132919   5.500   2.574   2.718
10320SOL    HW232920   5.518   2.426   2.784
10321SOL     OW32921   4.859   2.565   2.579
10321SOL    HW132922   4.916   2.643   2.554
10321SOL    HW232923   4.799   2.591   2.655
10322SOL     OW32924   5.479   2.469   2.093
10322SOL    HW132925   5.467   2.456   1.994
10322SOL    HW232926   5.449   2.388   2.142
10323SOL     OW32927   4.492   3.006   2.885
10323SOL    HW132928   4.414   3.023   2.945
10323SOL    HW232929   4.526   3.093   2.849
10324SOL     OW32930   4.574   2.660   3.685
10324SOL    HW132931   4.570   2.736   3.750
10324SOL    HW232932   4.596   2.696   3.594
10325SOL     OW32933   4.409   2.874   2.527
10325SOL    HW132934   4.478   2.858   2.597
10325SOL    HW232935   4.336   2.931   2.565
10326SOL     OW32936   4.059   3.297   2.923
10326SOL    HW132937   3.981   3.266   2.870
10326SOL    HW232938   4.117   3.355   2.866
10327SOL     OW32939   4.162   2.254   3.361
10327SOL    HW132940   4.244   2.198   3.370
10327SOL    HW232941   4.081   2.196   3.365
10328SOL     OW32942   5.327   2.309   2.599
10328SOL    HW132943   5.253   2.355   2.549
10328SOL    HW232944   5.378   2.377   2.652
10329SOL     OW32945   3.955   3.575   2.345
10329SOL    HW132946   3.989   3.652   2.399
10329SOL    HW232947   3.999   3.575   2.255
10330SOL     OW32948   4.851   3.203   3.552
10330SOL    HW132949   4.898   3.203   3.640
10330SOL    HW232950   4.803   3.116   3.541
10331SOL     OW32951   3.954   3.296   2.400
10331SOL    HW132952   3.928   3.392   2.400
10331SOL    HW232953   3.883   3.242   2.445
10332SOL     OW32954   3.964   2.953   2.748
10332SOL    HW132955   3.978   2.869   2.800
10332SOL    HW232956   3.909   3.017   2.803
10333SOL     OW32957   4.344   3.648   3.301
10333SOL    HW132958   4.252   3.631   3.336
10333SOL    HW232959   4.372   3.740   3.327
10334SOL     OW32960   4.330   2.826   1.985
10334SOL    HW132961   4.337   2.910   1.931
10334SOL    HW232962   4.376   2.839   2.073
10335SOL     OW32963   5.318   1.976   3.342
10335SOL    HW132964   5.300   2.043   3.270
10335SOL    HW232965   5.315   2.022   3.431
10336SOL     OW32966   3.846   2.505   2.425
10336SOL    HW132967   3.801   2.417   2.442
10336SOL    HW232968   3.845   2.559   2.509
10337SOL     OW32969   5.566   3.629   2.221
10337SOL    HW132970   5.620   3.600   2.301
10337SOL    HW232971   5.596   3.719   2.192
10338SOL     OW32972   3.751   3.458   1.979
10338SOL    HW132973   3.732   3.362   2.000
10338SOL    HW232974   3.718   3.516   2.054
10339SOL     OW32975   5.413   2.784   2.474
10339SOL    HW132976   5.508   2.755   2.482
10339SOL    HW232977   5.405   2.849   2.399
10340SOL     OW32978   5.365   2.970   2.294
10340SOL    HW132979   5.451   2.972   2.242
10340SOL    HW232980   5.379   3.017   2.382
10341SOL     OW32981   3.837   2.599   3.459
10341SOL    HW132982   3.925   2.586   3.504
10341SOL    HW232983   3.824   2.696   3.437
10342SOL     OW32984   4.337   3.227   2.588
10342SOL    HW132985   4.288   3.140   2.597
10342SOL    HW232986   4.314   3.270   2.501
10343SOL     OW32987   4.533   1.866   2.364
10343SOL    HW132988   4.573   1.957   2.355
10343SOL    HW232989   4.433   1.874   2.370
10344SOL     OW32990   3.921   2.838   3.126
10344SOL    HW132991   4.010   2.793   3.112
10344SOL    HW232992   3.848   2.773   3.107
10345SOL     OW32993   5.249   2.861   2.052
10345SOL    HW132994   5.186   2.785   2.065
10345SOL    HW232995   5.297   2.879   2.138
10346SOL     OW32996   4.041   2.113   3.663
10346SOL    HW132997   4.112   2.184   3.669
10346SOL    HW232998   3.953   2.152   3.691
10347SOL     OW32999   5.190   3.279   2.815
10347SOL    HW133000   5.131   3.285   2.895
10347SOL    HW233001   5.175   3.191   2.769
10348SOL     OW33002   5.391   3.576   2.434
10348SOL    HW133003   5.350   3.553   2.346
10348SOL    HW233004   5.373   3.502   2.499
10349SOL     OW33005   4.322   2.591   2.132
10349SOL    HW133006   4.346   2.660   2.064
10349SOL    HW233007   4.244   2.624   2.186
10350SOL     OW33008   5.005   2.207   2.806
10350SOL    HW133009   4.919   2.157   2.793
10350SOL    HW233010   5.067   2.153   2.862
10351SOL     OW33011   5.300   3.524   2.169
10351SOL    HW133012   5.389   3.570   2.172
10351SOL    HW233013   5.279   3.500   2.074
10352SOL     OW33014   4.531   2.467   3.327
10352SOL    HW133015   4.484   2.464   3.416
10352SOL    HW233016   4.480   2.412   3.261
10353SOL     OW33017   5.118   2.331   3.536
10353SOL    HW133018   5.098   2.374   3.624
10353SOL    HW233019   5.196   2.269   3.545
10354SOL     OW33020   4.697   2.752   3.434
10354SOL    HW133021   4.743   2.668   3.405
10354SOL    HW233022   4.641   2.786   3.359
10355SOL     OW33023   4.715   2.272   3.104
10355SOL    HW133024   4.638   2.306   3.158
10355SOL    HW233025   4.681   2.221   3.025
10356SOL     OW33026   4.765   2.563   2.291
10356SOL    HW133027   4.791   2.559   2.387
10356SOL    HW233028   4.680   2.512   2.277
10357SOL     OW33029   3.800   2.673   2.651
10357SOL    HW133030   3.899   2.661   2.660
10357SOL    HW233031   3.776   2.768   2.672
10358SOL     OW33032   3.854   3.683   3.433
10358SOL    HW133033   3.844   3.668   3.532
10358SOL    HW233034   3.768   3.719   3.397
10359SOL     OW33035   4.589   2.210   2.057
10359SOL    HW133036   4.648   2.273   2.008
10359SOL    HW233037   4.608   2.116   2.028
10360SOL     OW33038   5.443   2.447   3.693
10360SOL    HW133039   5.417   2.536   3.657
10360SOL    HW233040   5.441   2.379   3.620
10361SOL     OW33041   5.086   3.006   2.407
10361SOL    HW133042   5.169   2.977   2.359
10361SOL    HW233043   5.037   3.073   2.351
10362SOL     OW33044   4.274   2.058   2.747
10362SOL    HW133045   4.269   2.053   2.847
10362SOL    HW233046   4.276   2.154   2.718
10363SOL     OW33047   4.075   3.663   2.715
10363SOL    HW133048   4.125   3.577   2.721
10363SOL    HW233049   4.140   3.740   2.712
10364SOL     OW33050   5.519   2.928   2.735
10364SOL    HW133051   5.457   2.913   2.659
10364SOL    HW233052   5.467   2.939   2.820
10365SOL     OW33053   4.951   3.412   3.368
10365SOL    HW133054   4.957   3.335   3.432
10365SOL    HW233055   4.899   3.386   3.288
10366SOL     OW33056   4.045   2.805   2.104
10366SOL    HW133057   4.127   2.844   2.062
10366SOL    HW233058   4.018   2.723   2.055
10367SOL     OW33059   5.182   2.597   2.590
10367SOL    HW133060   5.177   2.532   2.665
10367SOL    HW233061   5.262   2.656   2.603
10368SOL     OW33062   4.185   3.128   3.589
10368SOL    HW133063   4.135   3.129   3.503
10368SOL    HW233064   4.122   3.110   3.665
10369SOL     OW33065   4.835   3.638   2.099
10369SOL    HW133066   4.775   3.576   2.149
10369SOL    HW233067   4.866   3.594   2.014
10370SOL     OW33068   3.926   2.147   3.360
10370SOL    HW133069   3.846   2.207   3.347
10370SOL    HW233070   3.916   2.098   3.446
10371SOL     OW33071   5.356   3.239   1.943
10371SOL    HW133072   5.324   3.333   1.933
10371SOL    HW233073   5.280   3.176   1.931
10372SOL     OW33074   4.188   3.605   2.185
10372SOL    HW133075   4.221   3.644   2.271
10372SOL    HW233076   4.264   3.598   2.120
10373SOL     OW33077   5.124   1.969   2.288
10373SOL    HW133078   5.100   1.932   2.198
10373SOL    HW233079   5.223   1.985   2.292
10374SOL     OW33080   3.973   3.647   3.103
10374SOL    HW133081   4.030   3.582   3.153
10374SOL    HW233082   3.957   3.614   3.010
10375SOL     OW33083   4.106   2.562   2.342
10375SOL    HW133084   4.151   2.472   2.339
10375SOL    HW233085   4.012   2.551   2.375
10376SOL     OW33086   5.271   2.084   3.591
10376SOL    HW133087   5.266   2.121   3.683
10376SOL    HW233088   5.199   2.015   3.579
10377SOL     OW33089   4.338   1.984   1.979
10377SOL    HW133090   4.436   1.962   1.986
10377SOL    HW233091   4.307   1.967   1.886
10378SOL     OW33092   4.505   2.126   3.611
10378SOL    HW133093   4.572   2.065   3.654
10378SOL    HW233094   4.432   2.145   3.676
10379SOL     OW33095   5.075   2.452   3.295
10379SOL    HW133096   5.103   2.409   3.380
10379SOL    HW233097   5.100   2.548   3.296
10380SOL     OW33098   4.646   2.365   2.761
10380SOL    HW133099   4.621   2.356   2.665
10380SOL    HW233100   4.694   2.283   2.792
10381SOL     OW33101   4.263   1.926   2.374
10381SOL    HW133102   4.182   1.927   2.432
10381SOL    HW233103   4.266   2.009   2.319
10382SOL     OW33104   5.158   3.050   1.903
10382SOL    HW133105   5.190   2.974   1.960
10382SOL    HW233106   5.066   3.077   1.933
10383SOL     OW33107   4.021   1.897   2.033
10383SOL    HW133108   4.070   1.981   2.012
10383SOL    HW233109   4.083   1.832   2.078
10384SOL     OW33110   4.659   2.098   2.342
10384SOL    HW133111   4.611   2.139   2.264
10384SOL    HW233112   4.758   2.096   2.323
10385SOL     OW33113   4.800   2.545   3.326
10385SOL    HW133114   4.720   2.484   3.329
10385SOL    HW233115   4.881   2.492   3.302
10386SOL     OW33116   4.951   3.432   2.655
10386SOL    HW133117   4.972   3.506   2.590
10386SOL    HW233118   5.019   3.432   2.728
10387SOL     OW33119   4.183   3.014   2.603
10387SOL    HW133120   4.112   2.987   2.668
10387SOL    HW233121   4.157   2.986   2.510
10388SOL     OW33122   4.995   3.659   2.453
10388SOL    HW133123   5.039   3.723   2.389
10388SOL    HW233124   4.945   3.711   2.523
10389SOL     OW33125   4.756   2.411   1.878
10389SOL    HW133126   4.715   2.493   1.839
10389SOL    HW233127   4.820   2.437   1.951
10390SOL     OW33128   3.802   2.418   3.248
10390SOL    HW133129   3.894   2.417   3.207
10390SOL    HW233130   3.796   2.492   3.315
10391SOL     OW33131   4.285   2.084   3.009
10391SOL    HW133132   4.323   2.000   3.046
10391SOL    HW233133   4.197   2.103   3.053
10392SOL     OW33134   4.590   2.316   2.504
10392SOL    HW133135   4.558   2.388   2.442
10392SOL    HW233136   4.614   2.235   2.451
10393SOL     OW33137   4.741   1.901   2.615
10393SOL    HW133138   4.669   1.906   2.546
10393SOL    HW233139   4.717   1.832   2.684
10394SOL     OW33140   5.153   3.035   2.729
10394SOL    HW133141   5.098   2.951   2.722
10394SOL    HW233142   5.179   3.064   2.637
10395SOL     OW33143   5.190   2.452   2.854
10395SOL    HW133144   5.160   2.357   2.861
10395SOL    HW233145   5.263   2.468   2.920
10396SOL     OW33146   5.581   2.695   2.239
10396SOL    HW133147   5.623   2.631   2.303
10396SOL    HW233148   5.543   2.644   2.161
10397SOL     OW33149   4.212   3.247   2.036
10397SOL    HW133150   4.125   3.232   2.083
10397SOL    HW233151   4.195   3.273   1.941
10398SOL     OW33152   5.388   3.142   2.519
10398SOL    HW133153   5.487   3.150   2.533
10398SOL    HW233154   5.343   3.226   2.550
10399SOL     OW33155   5.114   2.437   1.940
10399SOL    HW133156   5.060   2.416   2.021
10399SOL    HW233157   5.205   2.396   1.949
10400SOL     OW33158   4.251   2.118   2.190
10400SOL    HW133159   4.278   2.059   2.115
10400SOL    HW233160   4.251   2.213   2.159
10401SOL     OW33161   5.478   3.085   3.450
10401SOL    HW133162   5.569   3.046   3.437
10401SOL    HW233163   5.486   3.181   3.474
10402SOL     OW33164   4.835   3.057   2.962
10402SOL    HW133165   4.795   3.101   3.043
10402SOL    HW233166   4.794   3.094   2.879
10403SOL     OW33167   5.362   2.961   2.941
10403SOL    HW133168   5.367   3.042   3.000
10403SOL    HW233169   5.276   2.963   2.890
10404SOL     OW33170   4.639   1.951   3.264
10404SOL    HW133171   4.664   1.931   3.169
10404SOL    HW233172   4.711   2.007   3.306
10405SOL     OW33173   4.704   2.978   3.581
10405SOL    HW133174   4.605   2.984   3.591
10405SOL    HW233175   4.727   2.898   3.525
10406SOL     OW33176   4.429   2.912   2.230
10406SOL    HW133177   4.415   2.919   2.329
10406SOL    HW233178   4.513   2.861   2.212
10407SOL     OW33179   4.134   2.675   3.113
10407SOL    HW133180   4.220   2.687   3.163
10407SOL    HW233181   4.092   2.588   3.140
10408SOL     OW33182   4.998   2.248   3.124
10408SOL    HW133183   5.019   2.322   3.188
10408SOL    HW233184   4.909   2.265   3.081
10409SOL     OW33185   3.788   3.426   3.193
10409SOL    HW133186   3.742   3.508   3.159
10409SOL    HW233187   3.886   3.445   3.202
10410SOL     OW33188   4.091   2.962   2.363
10410SOL    HW133189   4.084   3.045   2.307
10410SOL    HW233190   4.095   2.882   2.303
10411SOL     OW33191   4.290   2.399   2.727
10411SOL    HW133192   4.302   2.465   2.653
10411SOL    HW233193   4.336   2.433   2.810
10412SOL     OW33194   4.976   3.210   2.250
10412SOL    HW133195   5.026   3.287   2.290
10412SOL    HW233196   4.881   3.212   2.282
10413SOL     OW33197   4.996   3.307   3.004
10413SOL    HW133198   5.043   3.320   3.091
10413SOL    HW233199   4.930   3.233   3.013
10414SOL     OW33200   5.306   2.501   2.334
10414SOL    HW133201   5.275   2.562   2.407
10414SOL    HW233202   5.356   2.553   2.265
10415SOL     OW33203   4.078   3.372   3.191
10415SOL    HW133204   4.057   3.328   3.104
10415SOL    HW233205   4.175   3.398   3.194
10416SOL     OW33206   4.126   2.613   3.460
10416SOL    HW133207   4.194   2.668   3.413
10416SOL    HW233208   4.166   2.525   3.487
10417SOL     OW33209   5.311   2.641   3.532
10417SOL    HW133210   5.219   2.679   3.527
10417SOL    HW233211   5.371   2.688   3.467
10418SOL     OW33212   4.737   1.967   3.632
10418SOL    HW133213   4.743   2.052   3.580
10418SOL    HW233214   4.769   1.891   3.575
10419SOL     OW33215   4.228   1.912   3.602
10419SOL    HW133216   4.186   1.855   3.532
10419SOL    HW233217   4.162   1.981   3.634
10420SOL     OW33218   4.297   2.732   2.891
10420SOL    HW133219   4.341   2.821   2.882
10420SOL    HW233220   4.234   2.732   2.968
10421SOL     OW33221   5.084   2.724   2.907
10421SOL    HW133222   5.009   2.724   2.841
10421SOL    HW233223   5.121   2.632   2.916
10422SOL     OW33224   4.933   2.387   2.137
10422SOL    HW133225   4.946   2.303   2.191
10422SOL    HW233226   4.904   2.461   2.197
10423SOL     OW33227   4.031   2.075   3.093
10423SOL    HW133228   4.008   2.112   3.183
10423SOL    HW233229   4.001   1.980   3.087
10424SOL     OW33230   3.761   3.172   3.144
10424SOL    HW133231   3.814   3.123   3.212
10424SOL    HW233232   3.783   3.270   3.149
10425SOL     OW33233   4.456   2.496   2.926
10425SOL    HW133234   4.515   2.470   2.850
10425SOL    HW233235   4.428   2.592   2.915
10426SOL     OW33236   5.452   2.797   3.716
10426SOL    HW133237   5.406   2.790   3.627
10426SOL    HW233238   5.390   2.841   3.782
10427SOL     OW33239   4.031   1.925   2.480
10427SOL    HW133240   4.020   2.019   2.513
10427SOL    HW233241   4.026   1.862   2.557
10428SOL     OW33242   5.346   2.229   2.236
10428SOL    HW133243   5.348   2.153   2.300
10428SOL    HW233244   5.298   2.306   2.276
10429SOL     OW33245   4.747   2.628   2.828
10429SOL    HW133246   4.762   2.649   2.924
10429SOL    HW233247   4.717   2.533   2.819
10430SOL     OW33248   4.074   2.760   3.666
10430SOL    HW133249   4.150   2.804   3.714
10430SOL    HW233250   4.109   2.713   3.584
10431SOL     OW33251   5.264   2.136   1.987
10431SOL    HW133252   5.203   2.061   2.010
10431SOL    HW233253   5.286   2.188   2.070
10432SOL     OW33254   5.027   2.700   1.904
10432SOL    HW133255   5.061   2.607   1.919
10432SOL    HW233256   5.045   2.727   1.809
10433SOL     OW33257   4.043   2.672   2.811
10433SOL    HW133258   4.136   2.708   2.816
10433SOL    HW233259   4.037   2.587   2.863
10434SOL     OW33260   4.063   2.371   2.868
10434SOL    HW133261   4.011   2.288   2.851
10434SOL    HW233262   4.140   2.376   2.804
10435SOL     OW33263   4.235   2.277   3.670
10435SOL    HW133264   4.217   2.322   3.758
10435SOL    HW233265   4.277   2.342   3.607
10436SOL     OW33266   4.862   2.242   3.540
10436SOL    HW133267   4.817   2.305   3.604
10436SOL    HW233268   4.955   2.273   3.523
10437SOL     OW33269   4.884   2.069   3.339
10437SOL    HW133270   4.884   2.133   3.416
10437SOL    HW233271   4.912   2.117   3.256
10438SOL     OW33272   3.732   3.188   2.062
10438SOL    HW133273   3.639   3.209   2.031
10438SOL    HW233274   3.742   3.089   2.075
10439SOL     OW33275   3.812   3.663   2.789
10439SOL    HW133276   3.770   3.577   2.762
10439SOL    HW233277   3.906   3.666   2.755
10440SOL     OW33278   4.228   3.430   2.772
10440SOL    HW133279   4.294   3.504   2.781
10440SOL    HW233280   4.272   3.351   2.730
10441SOL     OW33281   4.726   2.658   3.100
10441SOL    HW133282   4.767   2.626   3.186
10441SOL    HW233283   4.630   2.631   3.097
10442SOL     OW33284   3.764   2.406   2.976
10442SOL    HW133285   3.849   2.373   2.935
10442SOL    HW233286   3.777   2.421   3.074
10443SOL     OW33287   3.913   2.382   3.584
10443SOL    HW133288   3.972   2.342   3.514
10443SOL    HW233289   3.855   2.453   3.543
10444SOL     OW33290   5.093   2.812   3.522
10444SOL    HW133291   5.132   2.901   3.542
10444SOL    HW233292   5.103   2.792   3.425
10445SOL     OW33293   4.539   2.434   2.187
10445SOL    HW133294   4.546   2.345   2.141
10445SOL    HW233295   4.445   2.468   2.179
10446SOL     OW33296   5.381   2.466   3.068
10446SOL    HW133297   5.343   2.397   3.130
10446SOL    HW233298   5.463   2.430   3.024
10447SOL     OW33299   3.976   3.426   3.606
10447SOL    HW133300   3.946   3.483   3.682
10447SOL    HW233301   3.969   3.329   3.632
10448SOL     OW33302   4.395   2.326   3.131
10448SOL    HW133303   4.361   2.237   3.101
10448SOL    HW233304   4.421   2.380   3.051
10449SOL     OW33305   4.197   2.362   2.053
10449SOL    HW133306   4.258   2.442   2.057
10449SOL    HW233307   4.102   2.393   2.060
10450SOL     OW33308   3.883   2.999   3.328
10450SOL    HW133309   3.905   2.938   3.404
10450SOL    HW233310   3.893   2.950   3.242
10451SOL     OW33311   5.026   2.717   2.171
10451SOL    HW133312   4.940   2.686   2.213
10451SOL    HW233313   5.022   2.703   2.072
10452SOL     OW33314   3.807   3.120   2.884
10452SOL    HW133315   3.802   3.119   2.984
10452SOL    HW233316   3.724   3.079   2.846
10453SOL     OW33317   4.627   1.948   1.995
10453SOL    HW133318   4.678   1.949   1.909
10453SOL    HW233319   4.683   1.906   2.066
10454SOL     OW33320   5.450   1.997   2.385
10454SOL    HW133321   5.523   1.980   2.318
10454SOL    HW233322   5.419   1.910   2.423
10455SOL     OW33323   5.112   3.435   2.339
10455SOL    HW133324   5.179   3.447   2.265
10455SOL    HW233325   5.072   3.524   2.362
10456SOL     OW33326   5.004   2.789   2.534
10456SOL    HW133327   5.064   2.708   2.536
10456SOL    HW233328   5.044   2.858   2.474
10457SOL     OW33329   4.396   3.478   2.016
10457SOL    HW133330   4.405   3.488   1.917
10457SOL    HW233331   4.356   3.389   2.037
10458SOL     OW33332   5.565   2.037   2.825
10458SOL    HW133333   5.604   1.952   2.789
10458SOL    HW233334   5.467   2.039   2.806
10459SOL     OW33335   3.987   2.188   2.582
10459SOL    HW133336   3.908   2.239   2.548
10459SOL    HW233337   3.978   2.173   2.680
10460SOL     OW33338   4.918   3.474   1.893
10460SOL    HW133339   4.924   3.381   1.930
10460SOL    HW233340   4.859   3.474   1.813
10461SOL     OW33341   4.546   2.864   3.234
10461SOL    HW133342   4.586   2.863   3.142
10461SOL    HW233343   4.556   2.956   3.274
10462SOL     OW33344   4.640   2.772   2.153
10462SOL    HW133345   4.703   2.810   2.085
10462SOL    HW233346   4.680   2.689   2.192
10463SOL     OW33347   5.228   3.469   1.906
10463SOL    HW133348   5.136   3.506   1.913
10463SOL    HW233349   5.266   3.489   1.816
10464SOL     OW33350   4.096   3.150   3.352
10464SOL    HW133351   4.083   3.243   3.318
10464SOL    HW233352   4.012   3.098   3.339
10465SOL     OW33353   4.763   2.960   2.558
10465SOL    HW133354   4.693   2.913   2.612
10465SOL    HW233355   4.822   2.892   2.515
10466SOL     OW33356   4.738   2.098   2.833
10466SOL    HW133357   4.730   2.062   2.740
10466SOL    HW233358   4.736   2.022   2.898
10467SOL     OW33359   4.314   3.349   2.353
10467SOL    HW133360   4.356   3.291   2.283
10467SOL    HW233361   4.270   3.428   2.309
10468SOL     OW33362   5.433   2.247   3.243
10468SOL    HW133363   5.506   2.316   3.247
10468SOL    HW233364   5.461   2.172   3.184
10469SOL     OW33365   3.979   3.210   2.152
10469SOL    HW133366   3.883   3.211   2.125
10469SOL    HW233367   3.991   3.263   2.236
10470SOL     OW33368   3.829   2.875   3.588
10470SOL    HW133369   3.752   2.842   3.642
10470SOL    HW233370   3.914   2.845   3.630
10471SOL     OW33371   4.396   2.065   3.351
10471SOL    HW133372   4.486   2.049   3.311
10471SOL    HW233373   4.404   2.070   3.450
10472SOL     OW33374   3.799   2.207   1.895
10472SOL    HW133375   3.707   2.179   1.866
10472SOL    HW233376   3.830   2.284   1.839
10473SOL     OW33377   5.164   2.718   3.260
10473SOL    HW133378   5.107   2.770   3.197
10473SOL    HW233379   5.260   2.730   3.236
10474SOL     OW33380   3.796   2.028   2.180
10474SOL    HW133381   3.779   2.111   2.126
10474SOL    HW233382   3.886   1.991   2.158
10475SOL     OW33383   4.907   3.197   1.981
10475SOL    HW133384   4.808   3.186   1.983
10475SOL    HW233385   4.941   3.212   2.074
10476SOL     OW33386   4.337   2.704   3.293
10476SOL    HW133387   4.393   2.785   3.276
10476SOL    HW233388   4.396   2.624   3.296
10477SOL     OW33389   4.440   2.427   3.570
10477SOL    HW133390   4.459   2.492   3.644
10477SOL    HW233391   4.500   2.347   3.579
10478SOL     OW33392   5.174   3.082   3.495
10478SOL    HW133393   5.165   3.072   3.594
10478SOL    HW233394   5.270   3.075   3.469
10479SOL     OW33395   4.114   3.603   3.422
10479SOL    HW133396   4.023   3.644   3.420
10479SOL    HW233397   4.107   3.509   3.454
10480SOL     OW33398   5.398   2.745   3.116
10480SOL    HW133399   5.371   2.656   3.079
10480SOL    HW233400   5.399   2.813   3.043
10481SOL     OW33401   4.949   2.187   2.311
10481SOL    HW133402   5.014   2.113   2.300
10481SOL    HW233403   4.969   2.237   2.395
10482SOL     OW33404   4.318   2.607   2.514
10482SOL    HW133405   4.368   2.692   2.495
10482SOL    HW233406   4.230   2.609   2.466
10483SOL     OW33407   5.501   2.204   3.504
10483SOL    HW133408   5.484   2.235   3.410
10483SOL    HW233409   5.417   2.167   3.542
10484SOL     OW33410   5.454   2.796   3.379
10484SOL    HW133411   5.492   2.887   3.394
10484SOL    HW233412   5.446   2.779   3.280
10485SOL     OW33413   4.583   3.236   1.878
10485SOL    HW133414   4.537   3.251   1.966
10485SOL    HW233415   4.627   3.321   1.848
10486SOL     OW33416   4.583   2.818   2.723
10486SOL    HW133417   4.637   2.749   2.771
10486SOL    HW233418   4.551   2.887   2.789
10487SOL     OW33419   4.807   2.846   1.949
10487SOL    HW133420   4.784   2.899   1.867
10487SOL    HW233421   4.888   2.790   1.930
10488SOL     OW33422   3.945   3.176   3.706
10488SOL    HW133423   3.880   3.103   3.685
10488SOL    HW233424   3.949   3.190   3.804
10489SOL     OW33425   3.803   3.102   2.515
10489SOL    HW133426   3.802   3.055   2.603
10489SOL    HW233427   3.885   3.074   2.464
10490SOL     OW33428   5.548   2.054   3.089
10490SOL    HW133429   5.544   1.964   3.133
10490SOL    HW233430   5.551   2.043   2.990
10491SOL     OW33431   4.152   2.286   2.382
10491SOL    HW133432   4.182   2.214   2.320
10491SOL    HW233433   4.113   2.246   2.465
10492SOL     OW33434   4.041   2.409   3.142
10492SOL    HW133435   4.079   2.350   3.214
10492SOL    HW233436   4.081   2.383   3.054
10493SOL     OW33437   5.148   2.076   2.974
10493SOL    HW133438   5.200   2.011   3.029
10493SOL    HW233439   5.099   2.139   3.035
10494SOL     OW33440   4.725   1.896   3.016
10494SOL    HW133441   4.662   1.824   2.985
10494SOL    HW233442   4.818   1.860   3.016
10495SOL     OW33443   4.494   3.192   2.163
10495SOL    HW133444   4.448   3.105   2.180
10495SOL    HW233445   4.585   3.189   2.204
10496SOL     OW33446   5.076   1.914   2.030
10496SOL    HW133447   5.111   1.873   1.946
10496SOL    HW233448   4.986   1.876   2.050
10497SOL     OW33449   5.024   2.315   2.553
10497SOL    HW133450   4.965   2.395   2.557
10497SOL    HW233451   5.039   2.280   2.646
10498SOL     OW33452   5.317   2.083   2.744
10498SOL    HW133453   5.233   2.082   2.798
10498SOL    HW233454   5.319   2.166   2.688
10499SOL     OW33455   3.763   2.939   2.162
10499SOL    HW133456   3.862   2.928   2.153
10499SOL    HW233457   3.723   2.853   2.194
10500SOL     OW33458   4.599   3.508   2.199
10500SOL    HW133459   4.522   3.473   2.145
10500SOL    HW233460   4.567   3.579   2.261
10501SOL     OW33461   3.954   2.490   3.837
10501SOL    HW133462   3.861   2.488   3.874
10501SOL    HW233463   3.955   2.451   3.745
10502SOL     OW33464   3.949   2.137   4.720
10502SOL    HW133465   3.984   2.120   4.812
10502SOL    HW233466   3.861   2.092   4.708
10503SOL     OW33467   3.743   2.230   4.371
10503SOL    HW133468   3.661   2.273   4.410
10503SOL    HW233469   3.715   2.157   4.308
10504SOL     OW33470   4.293   3.137   4.889
10504SOL    HW133471   4.200   3.130   4.852
10504SOL    HW233472   4.304   3.226   4.933
10505SOL     OW33473   5.279   3.373   4.427
10505SOL    HW133474   5.222   3.357   4.508
10505SOL    HW233475   5.220   3.383   4.347
10506SOL     OW33476   5.467   2.480   4.580
10506SOL    HW133477   5.500   2.574   4.580
10506SOL    HW233478   5.518   2.426   4.646
10507SOL     OW33479   4.859   2.565   4.441
10507SOL    HW133480   4.916   2.643   4.416
10507SOL    HW233481   4.799   2.591   4.517
10508SOL     OW33482   5.479   2.469   3.955
10508SOL    HW133483   5.467   2.456   3.856
10508SOL    HW233484   5.449   2.388   4.004
10509SOL     OW33485   4.492   3.006   4.747
10509SOL    HW133486   4.414   3.023   4.807
10509SOL    HW233487   4.526   3.093   4.711
10510SOL     OW33488   4.574   2.660   5.547
10510SOL    HW133489   4.570   2.736   5.612
10510SOL    HW233490   4.596   2.696   5.456
10511SOL     OW33491   4.409   2.874   4.389
10511SOL    HW133492   4.478   2.858   4.459
10511SOL    HW233493   4.336   2.931   4.427
10512SOL     OW33494   4.410   3.023   5.527
10512SOL    HW133495   4.470   3.102   5.541
10512SOL    HW233496   4.324   3.054   5.486
10513SOL     OW33497   4.059   3.297   4.785
10513SOL    HW133498   3.981   3.266   4.732
10513SOL    HW233499   4.117   3.355   4.728
10514SOL     OW33500   5.184   3.367   5.063
10514SOL    HW133501   5.208   3.461   5.089
10514SOL    HW233502   5.168   3.313   5.145
10515SOL     OW33503   4.162   2.254   5.223
10515SOL    HW133504   4.244   2.198   5.232
10515SOL    HW233505   4.081   2.196   5.227
10516SOL     OW33506   5.327   2.309   4.461
10516SOL    HW133507   5.253   2.355   4.411
10516SOL    HW233508   5.378   2.377   4.514
10517SOL     OW33509   4.851   3.203   5.414
10517SOL    HW133510   4.898   3.203   5.502
10517SOL    HW233511   4.803   3.116   5.403
10518SOL     OW33512   3.964   2.953   4.610
10518SOL    HW133513   3.978   2.869   4.662
10518SOL    HW233514   3.909   3.017   4.665
10519SOL     OW33515   4.344   3.648   5.163
10519SOL    HW133516   4.252   3.631   5.198
10519SOL    HW233517   4.372   3.740   5.189
10520SOL     OW33518   4.330   2.826   3.847
10520SOL    HW133519   4.337   2.910   3.793
10520SOL    HW233520   4.376   2.839   3.935
10521SOL     OW33521   5.318   1.976   5.204
10521SOL    HW133522   5.300   2.043   5.132
10521SOL    HW233523   5.315   2.022   5.293
10522SOL     OW33524   3.846   2.505   4.287
10522SOL    HW133525   3.801   2.417   4.304
10522SOL    HW233526   3.845   2.559   4.371
10523SOL     OW33527   5.566   3.629   4.083
10523SOL    HW133528   5.620   3.600   4.163
10523SOL    HW233529   5.596   3.719   4.054
10524SOL     OW33530   3.751   3.458   3.841
10524SOL    HW133531   3.732   3.362   3.862
10524SOL    HW233532   3.718   3.516   3.916
10525SOL     OW33533   5.413   2.784   4.336
10525SOL    HW133534   5.508   2.755   4.344
10525SOL    HW233535   5.405   2.849   4.261
10526SOL     OW33536   5.365   2.970   4.156
10526SOL    HW133537   5.451   2.972   4.104
10526SOL    HW233538   5.379   3.017   4.244
10527SOL     OW33539   3.837   2.599   5.321
10527SOL    HW133540   3.925   2.586   5.366
10527SOL    HW233541   3.824   2.696   5.299
10528SOL     OW33542   5.017   3.090   5.147
10528SOL    HW133543   5.054   3.017   5.089
10528SOL    HW233544   5.069   3.095   5.232
10529SOL     OW33545   4.533   1.866   4.226
10529SOL    HW133546   4.573   1.957   4.217
10529SOL    HW233547   4.433   1.874   4.232
10530SOL     OW33548   3.921   2.838   4.988
10530SOL    HW133549   4.010   2.793   4.974
10530SOL    HW233550   3.848   2.773   4.969
10531SOL     OW33551   5.249   2.861   3.914
10531SOL    HW133552   5.186   2.785   3.927
10531SOL    HW233553   5.297   2.879   4.000
10532SOL     OW33554   4.911   3.654   5.340
10532SOL    HW133555   4.935   3.714   5.264
10532SOL    HW233556   4.918   3.559   5.310
10533SOL     OW33557   4.041   2.113   5.525
10533SOL    HW133558   4.112   2.184   5.531
10533SOL    HW233559   3.953   2.152   5.553
10534SOL     OW33560   5.190   3.279   4.677
10534SOL    HW133561   5.131   3.285   4.757
10534SOL    HW233562   5.175   3.191   4.631
10535SOL     OW33563   5.391   3.576   4.296
10535SOL    HW133564   5.350   3.553   4.208
10535SOL    HW233565   5.373   3.502   4.361
10536SOL     OW33566   4.322   2.591   3.994
10536SOL    HW133567   4.346   2.660   3.926
10536SOL    HW233568   4.244   2.624   4.048
10537SOL     OW33569   5.005   2.207   4.668
10537SOL    HW133570   4.919   2.157   4.655
10537SOL    HW233571   5.067   2.153   4.724
10538SOL     OW33572   5.300   3.524   4.031
10538SOL    HW133573   5.389   3.570   4.034
10538SOL    HW233574   5.279   3.500   3.936
10539SOL     OW33575   4.531   2.467   5.189
10539SOL    HW133576   4.484   2.464   5.278
10539SOL    HW233577   4.480   2.412   5.123
10540SOL     OW33578   5.118   2.331   5.398
10540SOL    HW133579   5.098   2.374   5.486
10540SOL    HW233580   5.196   2.269   5.407
10541SOL     OW33581   4.697   2.752   5.296
10541SOL    HW133582   4.743   2.668   5.267
10541SOL    HW233583   4.641   2.786   5.221
10542SOL     OW33584   4.715   2.272   4.966
10542SOL    HW133585   4.638   2.306   5.020
10542SOL    HW233586   4.681   2.221   4.887
10543SOL     OW33587   4.765   2.563   4.153
10543SOL    HW133588   4.791   2.559   4.249
10543SOL    HW233589   4.680   2.512   4.139
10544SOL     OW33590   3.800   2.673   4.513
10544SOL    HW133591   3.899   2.661   4.522
10544SOL    HW233592   3.776   2.768   4.534
10545SOL     OW33593   3.854   3.683   5.295
10545SOL    HW133594   3.844   3.668   5.394
10545SOL    HW233595   3.768   3.719   5.259
10546SOL     OW33596   4.589   2.210   3.919
10546SOL    HW133597   4.648   2.273   3.870
10546SOL    HW233598   4.608   2.116   3.890
10547SOL     OW33599   5.443   2.447   5.555
10547SOL    HW133600   5.417   2.536   5.519
10547SOL    HW233601   5.441   2.379   5.482
10548SOL     OW33602   5.086   3.006   4.269
10548SOL    HW133603   5.169   2.977   4.221
10548SOL    HW233604   5.037   3.073   4.213
10549SOL     OW33605   4.274   2.058   4.609
10549SOL    HW133606   4.269   2.053   4.709
10549SOL    HW233607   4.276   2.154   4.580
10550SOL     OW33608   4.732   3.318   4.201
10550SOL    HW133609   4.686   3.390   4.149
10550SOL    HW233610   4.728   3.338   4.299
10551SOL     OW33611   5.519   2.928   4.597
10551SOL    HW133612   5.457   2.913   4.521
10551SOL    HW233613   5.467   2.939   4.682
10552SOL     OW33614   4.951   3.412   5.230
10552SOL    HW133615   4.957   3.335   5.294
10552SOL    HW233616   4.899   3.386   5.150
10553SOL     OW33617   4.045   2.805   3.966
10553SOL    HW133618   4.127   2.844   3.924
10553SOL    HW233619   4.018   2.723   3.917
10554SOL     OW33620   5.182   2.597   4.452
10554SOL    HW133621   5.177   2.532   4.527
10554SOL    HW233622   5.262   2.656   4.465
10555SOL     OW33623   4.185   3.128   5.451
10555SOL    HW133624   4.135   3.129   5.365
10555SOL    HW233625   4.122   3.110   5.527
10556SOL     OW33626   4.835   3.638   3.961
10556SOL    HW133627   4.775   3.576   4.011
10556SOL    HW233628   4.866   3.594   3.876
10557SOL     OW33629   3.926   2.147   5.222
10557SOL    HW133630   3.846   2.207   5.209
10557SOL    HW233631   3.916   2.098   5.308
10558SOL     OW33632   5.124   1.969   4.150
10558SOL    HW133633   5.100   1.932   4.060
10558SOL    HW233634   5.223   1.985   4.154
10559SOL     OW33635   3.973   3.647   4.965
10559SOL    HW133636   4.030   3.582   5.015
10559SOL    HW233637   3.957   3.614   4.872
10560SOL     OW33638   4.106   2.562   4.204
10560SOL    HW133639   4.151   2.472   4.201
10560SOL    HW233640   4.012   2.551   4.237
10561SOL     OW33641   5.271   2.084   5.453
10561SOL    HW133642   5.266   2.121   5.545
10561SOL    HW233643   5.199   2.015   5.441
10562SOL     OW33644   4.338   1.984   3.841
10562SOL    HW133645   4.436   1.962   3.848
10562SOL    HW233646   4.307   1.967   3.748
10563SOL     OW33647   4.505   2.126   5.473
10563SOL    HW133648   4.572   2.065   5.516
10563SOL    HW233649   4.432   2.145   5.538
10564SOL     OW33650   4.612   3.376   4.919
10564SOL    HW133651   4.589   3.351   4.825
10564SOL    HW233652   4.673   3.307   4.958
10565SOL     OW33653   5.075   2.452   5.157
10565SOL    HW133654   5.103   2.409   5.242
10565SOL    HW233655   5.100   2.548   5.158
10566SOL     OW33656   4.527   3.264   4.648
10566SOL    HW133657   4.617   3.278   4.606
10566SOL    HW233658   4.456   3.266   4.577
10567SOL     OW33659   4.646   2.365   4.623
10567SOL    HW133660   4.621   2.356   4.527
10567SOL    HW233661   4.694   2.283   4.654
10568SOL     OW33662   4.263   1.926   4.236
10568SOL    HW133663   4.182   1.927   4.294
10568SOL    HW233664   4.266   2.009   4.181
10569SOL     OW33665   5.158   3.050   3.765
10569SOL    HW133666   5.190   2.974   3.822
10569SOL    HW233667   5.066   3.077   3.795
10570SOL     OW33668   4.021   1.897   3.895
10570SOL    HW133669   4.070   1.981   3.874
10570SOL    HW233670   4.083   1.832   3.940
10571SOL     OW33671   4.659   2.098   4.204
10571SOL    HW133672   4.611   2.139   4.126
10571SOL    HW233673   4.758   2.096   4.185
10572SOL     OW33674   4.800   2.545   5.188
10572SOL    HW133675   4.720   2.484   5.191
10572SOL    HW233676   4.881   2.492   5.164
10573SOL     OW33677   4.951   3.432   4.517
10573SOL    HW133678   4.972   3.506   4.452
10573SOL    HW233679   5.019   3.432   4.590
10574SOL     OW33680   4.183   3.014   4.465
10574SOL    HW133681   4.112   2.987   4.530
10574SOL    HW233682   4.157   2.986   4.372
10575SOL     OW33683   4.995   3.659   4.315
10575SOL    HW133684   5.039   3.723   4.251
10575SOL    HW233685   4.945   3.711   4.385
10576SOL     OW33686   4.756   2.411   3.740
10576SOL    HW133687   4.715   2.493   3.701
10576SOL    HW233688   4.820   2.437   3.813
10577SOL     OW33689   3.802   2.418   5.110
10577SOL    HW133690   3.894   2.417   5.069
10577SOL    HW233691   3.796   2.492   5.177
10578SOL     OW33692   4.285   2.084   4.871
10578SOL    HW133693   4.323   2.000   4.908
10578SOL    HW233694   4.197   2.103   4.915
10579SOL     OW33695   4.590   2.316   4.366
10579SOL    HW133696   4.558   2.388   4.304
10579SOL    HW233697   4.614   2.235   4.313
10580SOL     OW33698   4.741   1.901   4.477
10580SOL    HW133699   4.669   1.906   4.408
10580SOL    HW233700   4.717   1.832   4.546
10581SOL     OW33701   5.153   3.035   4.591
10581SOL    HW133702   5.098   2.951   4.584
10581SOL    HW233703   5.179   3.064   4.499
10582SOL     OW33704   5.190   2.452   4.716
10582SOL    HW133705   5.160   2.357   4.723
10582SOL    HW233706   5.263   2.468   4.782
10583SOL     OW33707   5.581   2.695   4.101
10583SOL    HW133708   5.623   2.631   4.165
10583SOL    HW233709   5.543   2.644   4.023
10584SOL     OW33710   5.388   3.142   4.381
10584SOL    HW133711   5.487   3.150   4.395
10584SOL    HW233712   5.343   3.226   4.412
10585SOL     OW33713   5.114   2.437   3.802
10585SOL    HW133714   5.060   2.416   3.883
10585SOL    HW233715   5.205   2.396   3.811
10586SOL     OW33716   4.251   2.118   4.052
10586SOL    HW133717   4.278   2.059   3.977
10586SOL    HW233718   4.251   2.213   4.021
10587SOL     OW33719   5.478   3.085   5.312
10587SOL    HW133720   5.569   3.046   5.299
10587SOL    HW233721   5.486   3.181   5.336
10588SOL     OW33722   4.788   3.209   5.064
10588SOL    HW133723   4.708   3.186   5.119
10588SOL    HW233724   4.871   3.183   5.113
10589SOL     OW33725   5.316   3.491   5.349
10589SOL    HW133726   5.343   3.525   5.259
10589SOL    HW233727   5.395   3.453   5.395
10590SOL     OW33728   4.835   3.057   4.824
10590SOL    HW133729   4.795   3.101   4.905
10590SOL    HW233730   4.794   3.094   4.741
10591SOL     OW33731   5.362   2.961   4.803
10591SOL    HW133732   5.367   3.042   4.862
10591SOL    HW233733   5.276   2.963   4.752
10592SOL     OW33734   4.639   1.951   5.126
10592SOL    HW133735   4.664   1.931   5.031
10592SOL    HW233736   4.711   2.007   5.168
10593SOL     OW33737   4.704   2.978   5.443
10593SOL    HW133738   4.605   2.984   5.453
10593SOL    HW233739   4.727   2.898   5.387
10594SOL     OW33740   4.134   2.675   4.975
10594SOL    HW133741   4.220   2.687   5.025
10594SOL    HW233742   4.092   2.588   5.002
10595SOL     OW33743   4.998   2.248   4.986
10595SOL    HW133744   5.019   2.322   5.050
10595SOL    HW233745   4.909   2.265   4.943
10596SOL     OW33746   4.091   2.962   4.225
10596SOL    HW133747   4.084   3.045   4.169
10596SOL    HW233748   4.095   2.882   4.165
10597SOL     OW33749   4.290   2.399   4.589
10597SOL    HW133750   4.302   2.465   4.515
10597SOL    HW233751   4.336   2.433   4.672
10598SOL     OW33752   4.976   3.210   4.112
10598SOL    HW133753   5.026   3.287   4.152
10598SOL    HW233754   4.881   3.212   4.144
10599SOL     OW33755   4.996   3.307   4.866
10599SOL    HW133756   5.043   3.320   4.953
10599SOL    HW233757   4.930   3.233   4.875
10600SOL     OW33758   5.306   2.501   4.196
10600SOL    HW133759   5.275   2.562   4.269
10600SOL    HW233760   5.356   2.553   4.127
10601SOL     OW33761   4.126   2.613   5.322
10601SOL    HW133762   4.194   2.668   5.275
10601SOL    HW233763   4.166   2.525   5.349
10602SOL     OW33764   5.311   2.641   5.394
10602SOL    HW133765   5.219   2.679   5.389
10602SOL    HW233766   5.371   2.688   5.329
10603SOL     OW33767   4.737   1.967   5.494
10603SOL    HW133768   4.743   2.052   5.442
10603SOL    HW233769   4.769   1.891   5.437
10604SOL     OW33770   4.228   1.912   5.464
10604SOL    HW133771   4.186   1.855   5.394
10604SOL    HW233772   4.162   1.981   5.496
10605SOL     OW33773   4.297   2.732   4.753
10605SOL    HW133774   4.341   2.821   4.744
10605SOL    HW233775   4.234   2.732   4.830
10606SOL     OW33776   5.084   2.724   4.769
10606SOL    HW133777   5.009   2.724   4.703
10606SOL    HW233778   5.121   2.632   4.778
10607SOL     OW33779   4.933   2.387   3.999
10607SOL    HW133780   4.946   2.303   4.053
10607SOL    HW233781   4.904   2.461   4.059
10608SOL     OW33782   4.031   2.075   4.955
10608SOL    HW133783   4.008   2.112   5.045
10608SOL    HW233784   4.001   1.980   4.949
10609SOL     OW33785   4.456   2.496   4.788
10609SOL    HW133786   4.515   2.470   4.712
10609SOL    HW233787   4.428   2.592   4.777
10610SOL     OW33788   5.452   2.797   5.578
10610SOL    HW133789   5.406   2.790   5.489
10610SOL    HW233790   5.390   2.841   5.644
10611SOL     OW33791   4.031   1.925   4.342
10611SOL    HW133792   4.020   2.019   4.375
10611SOL    HW233793   4.026   1.862   4.419
10612SOL     OW33794   5.346   2.229   4.098
10612SOL    HW133795   5.348   2.153   4.162
10612SOL    HW233796   5.298   2.306   4.138
10613SOL     OW33797   4.747   2.628   4.690
10613SOL    HW133798   4.762   2.649   4.786
10613SOL    HW233799   4.717   2.533   4.681
10614SOL     OW33800   4.704   3.435   5.424
10614SOL    HW133801   4.684   3.479   5.336
10614SOL    HW233802   4.743   3.344   5.408
10615SOL     OW33803   5.583   3.380   5.329
10615SOL    HW133804   5.597   3.407   5.234
10615SOL    HW233805   5.666   3.402   5.382
10616SOL     OW33806   4.074   2.760   5.528
10616SOL    HW133807   4.150   2.804   5.576
10616SOL    HW233808   4.109   2.713   5.446
10617SOL     OW33809   5.264   2.136   3.849
10617SOL    HW133810   5.203   2.061   3.872
10617SOL    HW233811   5.286   2.188   3.932
10618SOL     OW33812   5.027   2.700   3.766
10618SOL    HW133813   5.061   2.607   3.781
10618SOL    HW233814   5.045   2.727   3.671
10619SOL     OW33815   4.792   3.195   4.573
10619SOL    HW133816   4.799   3.111   4.518
10619SOL    HW233817   4.854   3.264   4.537
10620SOL     OW33818   4.043   2.672   4.673
10620SOL    HW133819   4.136   2.708   4.678
10620SOL    HW233820   4.037   2.587   4.725
10621SOL     OW33821   4.063   2.371   4.730
10621SOL    HW133822   4.011   2.288   4.713
10621SOL    HW233823   4.140   2.376   4.666
10622SOL     OW33824   4.235   2.277   5.532
10622SOL    HW133825   4.217   2.322   5.620
10622SOL    HW233826   4.277   2.342   5.469
10623SOL     OW33827   4.862   2.242   5.402
10623SOL    HW133828   4.817   2.305   5.466
10623SOL    HW233829   4.955   2.273   5.385
10624SOL     OW33830   4.884   2.069   5.201
10624SOL    HW133831   4.884   2.133   5.278
10624SOL    HW233832   4.912   2.117   5.118
10625SOL     OW33833   3.732   3.188   3.924
10625SOL    HW133834   3.639   3.209   3.893
10625SOL    HW233835   3.742   3.089   3.937
10626SOL     OW33836   4.726   2.658   4.962
10626SOL    HW133837   4.767   2.626   5.048
10626SOL    HW233838   4.630   2.631   4.959
10627SOL     OW33839   3.764   2.406   4.838
10627SOL    HW133840   3.849   2.373   4.797
10627SOL    HW233841   3.777   2.421   4.936
10628SOL     OW33842   3.913   2.382   5.446
10628SOL    HW133843   3.972   2.342   5.376
10628SOL    HW233844   3.855   2.453   5.405
10629SOL     OW33845   5.093   2.812   5.384
10629SOL    HW133846   5.132   2.901   5.404
10629SOL    HW233847   5.103   2.792   5.287
10630SOL     OW33848   4.539   2.434   4.049
10630SOL    HW133849   4.546   2.345   4.003
10630SOL    HW233850   4.445   2.468   4.041
10631SOL     OW33851   5.381   2.466   4.930
10631SOL    HW133852   5.343   2.397   4.992
10631SOL    HW233853   5.463   2.430   4.886
10632SOL     OW33854   3.976   3.426   5.468
10632SOL    HW133855   3.946   3.483   5.544
10632SOL    HW233856   3.969   3.329   5.494
10633SOL     OW33857   4.395   2.326   4.993
10633SOL    HW133858   4.361   2.237   4.963
10633SOL    HW233859   4.421   2.380   4.913
10634SOL     OW33860   4.654   3.540   5.189
10634SOL    HW133861   4.630   3.522   5.094
10634SOL    HW233862   4.684   3.634   5.199
10635SOL     OW33863   4.197   2.362   3.915
10635SOL    HW133864   4.258   2.442   3.919
10635SOL    HW233865   4.102   2.393   3.922
10636SOL     OW33866   3.883   2.999   5.190
10636SOL    HW133867   3.905   2.938   5.266
10636SOL    HW233868   3.893   2.950   5.104
10637SOL     OW33869   5.071   2.921   4.958
10637SOL    HW133870   5.095   2.858   4.884
10637SOL    HW233871   4.981   2.961   4.940
10638SOL     OW33872   5.026   2.717   4.033
10638SOL    HW133873   4.940   2.686   4.075
10638SOL    HW233874   5.022   2.703   3.934
10639SOL     OW33875   5.483   3.609   4.878
10639SOL    HW133876   5.544   3.639   4.805
10639SOL    HW233877   5.445   3.520   4.856
10640SOL     OW33878   4.976   3.593   4.852
10640SOL    HW133879   5.060   3.598   4.798
10640SOL    HW233880   4.953   3.497   4.870
10641SOL     OW33881   3.807   3.120   4.746
10641SOL    HW133882   3.802   3.119   4.846
10641SOL    HW233883   3.724   3.079   4.708
10642SOL     OW33884   4.412   3.524   5.440
10642SOL    HW133885   4.356   3.605   5.449
10642SOL    HW233886   4.464   3.528   5.354
10643SOL     OW33887   4.627   1.948   3.857
10643SOL    HW133888   4.678   1.949   3.771
10643SOL    HW233889   4.683   1.906   3.928
10644SOL     OW33890   5.450   1.997   4.247
10644SOL    HW133891   5.523   1.980   4.180
10644SOL    HW233892   5.419   1.910   4.285
10645SOL     OW33893   5.112   3.435   4.201
10645SOL    HW133894   5.179   3.447   4.127
10645SOL    HW233895   5.072   3.524   4.224
10646SOL     OW33896   3.854   3.656   5.575
10646SOL    HW133897   3.813   3.582   5.628
10646SOL    HW233898   3.918   3.707   5.633
10647SOL     OW33899   5.004   2.789   4.396
10647SOL    HW133900   5.064   2.708   4.398
10647SOL    HW233901   5.044   2.858   4.336
10648SOL     OW33902   4.554   3.135   5.146
10648SOL    HW133903   4.549   3.168   5.241
10648SOL    HW233904   4.468   3.154   5.100
10649SOL     OW33905   5.374   3.582   5.118
10649SOL    HW133906   5.427   3.592   5.034
10649SOL    HW233907   5.347   3.672   5.152
10650SOL     OW33908   5.565   2.037   4.687
10650SOL    HW133909   5.604   1.952   4.651
10650SOL    HW233910   5.467   2.039   4.668
10651SOL     OW33911   3.987   2.188   4.444
10651SOL    HW133912   3.908   2.239   4.410
10651SOL    HW233913   3.978   2.173   4.542
10652SOL     OW33914   4.546   2.864   5.096
10652SOL    HW133915   4.586   2.863   5.004
10652SOL    HW233916   4.556   2.956   5.136
10653SOL     OW33917   4.640   2.772   4.015
10653SOL    HW133918   4.703   2.810   3.947
10653SOL    HW233919   4.680   2.689   4.054
10654SOL     OW33920   4.096   3.150   5.214
10654SOL    HW133921   4.083   3.243   5.180
10654SOL    HW233922   4.012   3.098   5.201
10655SOL     OW33923   5.338   3.154   5.013
10655SOL    HW133924   5.398   3.157   5.093
10655SOL    HW233925   5.263   3.218   5.026
10656SOL     OW33926   4.763   2.960   4.420
10656SOL    HW133927   4.693   2.913   4.474
10656SOL    HW233928   4.822   2.892   4.377
10657SOL     OW33929   4.738   2.098   4.695
10657SOL    HW133930   4.730   2.062   4.602
10657SOL    HW233931   4.736   2.022   4.760
10658SOL     OW33932   5.433   2.247   5.105
10658SOL    HW133933   5.506   2.316   5.109
10658SOL    HW233934   5.461   2.172   5.046
10659SOL     OW33935   3.979   3.210   4.014
10659SOL    HW133936   3.883   3.211   3.987
10659SOL    HW233937   3.991   3.263   4.098
10660SOL     OW33938   3.829   2.875   5.450
10660SOL    HW133939   3.752   2.842   5.504
10660SOL    HW233940   3.914   2.845   5.492
10661SOL     OW33941   4.396   2.065   5.213
10661SOL    HW133942   4.486   2.049   5.173
10661SOL    HW233943   4.404   2.070   5.312
10662SOL     OW33944   3.799   2.207   3.757
10662SOL    HW133945   3.707   2.179   3.728
10662SOL    HW233946   3.830   2.284   3.701
10663SOL     OW33947   5.164   2.718   5.122
10663SOL    HW133948   5.107   2.770   5.059
10663SOL    HW233949   5.260   2.730   5.098
10664SOL     OW33950   3.796   2.028   4.042
10664SOL    HW133951   3.779   2.111   3.988
10664SOL    HW233952   3.886   1.991   4.020
10665SOL     OW33953   4.907   3.197   3.843
10665SOL    HW133954   4.808   3.186   3.845
10665SOL    HW233955   4.941   3.212   3.936
10666SOL     OW33956   4.337   2.704   5.155
10666SOL    HW133957   4.393   2.785   5.138
10666SOL    HW233958   4.396   2.624   5.158
10667SOL     OW33959   5.217   3.629   4.683
10667SOL    HW133960   5.250   3.693   4.614
10667SOL    HW233961   5.283   3.623   4.758
10668SOL     OW33962   4.440   2.427   5.432
10668SOL    HW133963   4.459   2.492   5.506
10668SOL    HW233964   4.500   2.347   5.441
10669SOL     OW33965   5.174   3.082   5.357
10669SOL    HW133966   5.165   3.072   5.456
10669SOL    HW233967   5.270   3.075   5.331
10670SOL     OW33968   4.114   3.603   5.284
10670SOL    HW133969   4.023   3.644   5.282
10670SOL    HW233970   4.107   3.509   5.316
10671SOL     OW33971   5.398   2.745   4.978
10671SOL    HW133972   5.371   2.656   4.941
10671SOL    HW233973   5.399   2.813   4.905
10672SOL     OW33974   4.949   2.187   4.173
10672SOL    HW133975   5.014   2.113   4.162
10672SOL    HW233976   4.969   2.237   4.257
10673SOL     OW33977   4.318   2.607   4.376
10673SOL    HW133978   4.368   2.692   4.357
10673SOL    HW233979   4.230   2.609   4.328
10674SOL     OW33980   5.454   2.796   5.241
10674SOL    HW133981   5.492   2.887   5.256
10674SOL    HW233982   5.446   2.779   5.142
10675SOL     OW33983   5.132   3.713   5.444
10675SOL    HW133984   5.036   3.702   5.417
10675SOL    HW233985   5.188   3.646   5.396
10676SOL     OW33986   4.583   2.818   4.585
10676SOL    HW133987   4.637   2.749   4.633
10676SOL    HW233988   4.551   2.887   4.651
10677SOL     OW33989   4.807   2.846   3.811
10677SOL    HW133990   4.784   2.899   3.729
10677SOL    HW233991   4.888   2.790   3.792
10678SOL     OW33992   5.585   3.431   4.575
10678SOL    HW133993   5.514   3.419   4.505
10678SOL    HW233994   5.586   3.352   4.635
10679SOL     OW33995   3.945   3.176   5.568
10679SOL    HW133996   3.880   3.103   5.547
10679SOL    HW233997   3.949   3.190   5.666
10680SOL     OW33998   4.396   3.253   5.348
10680SOL    HW133999   4.318   3.203   5.386
10680SOL    HW234000   4.393   3.348   5.379
10681SOL     OW34001   5.548   2.054   4.951
10681SOL    HW134002   5.544   1.964   4.995
10681SOL    HW234003   5.551   2.043   4.852
10682SOL     OW34004   4.152   2.286   4.244
10682SOL    HW134005   4.182   2.214   4.182
10682SOL    HW234006   4.113   2.246   4.327
10683SOL     OW34007   5.429   3.349   4.828
10683SOL    HW134008   5.336   3.324   4.801
10683SOL    HW234009   5.455   3.299   4.910
10684SOL     OW34010   4.041   2.409   5.004
10684SOL    HW134011   4.079   2.350   5.076
10684SOL    HW234012   4.081   2.383   4.916
10685SOL     OW34013   5.148   2.076   4.836
10685SOL    HW134014   5.200   2.011   4.891
10685SOL    HW234015   5.099   2.139   4.897
10686SOL     OW34016   4.725   1.896   4.878
10686SOL    HW134017   4.662   1.824   4.847
10686SOL    HW234018   4.818   1.860   4.878
10687SOL     OW34019   4.342   3.429   5.008
10687SOL    HW134020   4.337   3.511   5.065
10687SOL    HW234021   4.431   3.426   4.963
10688SOL     OW34022   5.076   1.914   3.892
10688SOL    HW134023   5.111   1.873   3.808
10688SOL    HW234024   4.986   1.876   3.912
10689SOL     OW34025   5.024   2.315   4.415
10689SOL    HW134026   4.965   2.395   4.419
10689SOL    HW234027   5.039   2.280   4.508
10690SOL     OW34028   5.317   2.083   4.606
10690SOL    HW134029   5.233   2.082   4.660
10690SOL    HW234030   5.319   2.166   4.550
10691SOL     OW34031   3.763   2.939   4.024
10691SOL    HW134032   3.862   2.928   4.015
10691SOL    HW234033   3.723   2.853   4.056
10692SOL     OW34034   3.954   2.490   5.699
10692SOL    HW134035   3.861   2.488   5.736
10692SOL    HW234036   3.955   2.451   5.607
10693SOL     OW34037   3.949   2.137   6.582
10693SOL    HW134038   3.984   2.120   6.674
10693SOL    HW234039   3.861   2.092   6.570
10694SOL     OW34040   3.743   2.230   6.233
10694SOL    HW134041   3.661   2.273   6.272
10694SOL    HW234042   3.715   2.157   6.170
10695SOL     OW34043   4.293   3.137   6.751
10695SOL    HW134044   4.200   3.130   6.714
10695SOL    HW234045   4.304   3.226   6.795
10696SOL     OW34046   5.279   3.373   6.289
10696SOL    HW134047   5.222   3.357   6.370
10696SOL    HW234048   5.220   3.383   6.209
10697SOL     OW34049   5.467   2.480   6.442
10697SOL    HW134050   5.500   2.574   6.442
10697SOL    HW234051   5.518   2.426   6.508
10698SOL     OW34052   4.859   2.565   6.303
10698SOL    HW134053   4.916   2.643   6.278
10698SOL    HW234054   4.799   2.591   6.379
10699SOL     OW34055   5.479   2.469   5.817
10699SOL    HW134056   5.467   2.456   5.718
10699SOL    HW234057   5.449   2.388   5.866
10700SOL     OW34058   4.492   3.006   6.609
10700SOL    HW134059   4.414   3.023   6.669
10700SOL    HW234060   4.526   3.093   6.573
10701SOL     OW34061   4.574   2.660   7.409
10701SOL    HW134062   4.570   2.736   7.474
10701SOL    HW234063   4.596   2.696   7.318
10702SOL     OW34064   4.409   2.874   6.251
10702SOL    HW134065   4.478   2.858   6.321
10702SOL    HW234066   4.336   2.931   6.289
10703SOL     OW34067   4.410   3.023   7.389
10703SOL    HW134068   4.470   3.102   7.403
10703SOL    HW234069   4.324   3.054   7.348
10704SOL     OW34070   4.059   3.297   6.647
10704SOL    HW134071   3.981   3.266   6.594
10704SOL    HW234072   4.117   3.355   6.590
10705SOL     OW34073   5.184   3.367   6.925
10705SOL    HW134074   5.208   3.461   6.951
10705SOL    HW234075   5.168   3.313   7.007
10706SOL     OW34076   4.162   2.254   7.085
10706SOL    HW134077   4.244   2.198   7.094
10706SOL    HW234078   4.081   2.196   7.089
10707SOL     OW34079   5.327   2.309   6.323
10707SOL    HW134080   5.253   2.355   6.273
10707SOL    HW234081   5.378   2.377   6.376
10708SOL     OW34082   3.955   3.575   6.069
10708SOL    HW134083   3.989   3.652   6.123
10708SOL    HW234084   3.999   3.575   5.979
10709SOL     OW34085   4.851   3.203   7.276
10709SOL    HW134086   4.898   3.203   7.364
10709SOL    HW234087   4.803   3.116   7.265
10710SOL     OW34088   3.954   3.296   6.124
10710SOL    HW134089   3.928   3.392   6.124
10710SOL    HW234090   3.883   3.242   6.169
10711SOL     OW34091   3.964   2.953   6.472
10711SOL    HW134092   3.978   2.869   6.524
10711SOL    HW234093   3.909   3.017   6.527
10712SOL     OW34094   4.344   3.648   7.025
10712SOL    HW134095   4.252   3.631   7.060
10712SOL    HW234096   4.372   3.740   7.051
10713SOL     OW34097   4.330   2.826   5.709
10713SOL    HW134098   4.337   2.910   5.655
10713SOL    HW234099   4.376   2.839   5.797
10714SOL     OW34100   5.318   1.976   7.066
10714SOL    HW134101   5.300   2.043   6.994
10714SOL    HW234102   5.315   2.022   7.155
10715SOL     OW34103   3.846   2.505   6.149
10715SOL    HW134104   3.801   2.417   6.166
10715SOL    HW234105   3.845   2.559   6.233
10716SOL     OW34106   5.566   3.629   5.945
10716SOL    HW134107   5.620   3.600   6.025
10716SOL    HW234108   5.596   3.719   5.916
10717SOL     OW34109   3.751   3.458   5.703
10717SOL    HW134110   3.732   3.362   5.724
10717SOL    HW234111   3.718   3.516   5.778
10718SOL     OW34112   5.413   2.784   6.198
10718SOL    HW134113   5.508   2.755   6.206
10718SOL    HW234114   5.405   2.849   6.123
10719SOL     OW34115   5.365   2.970   6.018
10719SOL    HW134116   5.451   2.972   5.966
10719SOL    HW234117   5.379   3.017   6.106
10720SOL     OW34118   3.837   2.599   7.183
10720SOL    HW134119   3.925   2.586   7.228
10720SOL    HW234120   3.824   2.696   7.161
10721SOL     OW34121   4.337   3.227   6.312
10721SOL    HW134122   4.288   3.140   6.321
10721SOL    HW234123   4.314   3.270   6.225
10722SOL     OW34124   5.017   3.090   7.009
10722SOL    HW134125   5.054   3.017   6.951
10722SOL    HW234126   5.069   3.095   7.094
10723SOL     OW34127   4.533   1.866   6.088
10723SOL    HW134128   4.573   1.957   6.079
10723SOL    HW234129   4.433   1.874   6.094
10724SOL     OW34130   3.921   2.838   6.850
10724SOL    HW134131   4.010   2.793   6.836
10724SOL    HW234132   3.848   2.773   6.831
10725SOL     OW34133   5.249   2.861   5.776
10725SOL    HW134134   5.186   2.785   5.789
10725SOL    HW234135   5.297   2.879   5.862
10726SOL     OW34136   4.911   3.654   7.202
10726SOL    HW134137   4.935   3.714   7.126
10726SOL    HW234138   4.918   3.559   7.172
10727SOL     OW34139   4.041   2.113   7.387
10727SOL    HW134140   4.112   2.184   7.393
10727SOL    HW234141   3.953   2.152   7.415
10728SOL     OW34142   5.190   3.279   6.539
10728SOL    HW134143   5.131   3.285   6.619
10728SOL    HW234144   5.175   3.191   6.493
10729SOL     OW34145   5.391   3.576   6.158
10729SOL    HW134146   5.350   3.553   6.070
10729SOL    HW234147   5.373   3.502   6.223
10730SOL     OW34148   4.322   2.591   5.856
10730SOL    HW134149   4.346   2.660   5.788
10730SOL    HW234150   4.244   2.624   5.910
10731SOL     OW34151   5.005   2.207   6.530
10731SOL    HW134152   4.919   2.157   6.517
10731SOL    HW234153   5.067   2.153   6.586
10732SOL     OW34154   5.300   3.524   5.893
10732SOL    HW134155   5.389   3.570   5.896
10732SOL    HW234156   5.279   3.500   5.798
10733SOL     OW34157   4.531   2.467   7.051
10733SOL    HW134158   4.484   2.464   7.140
10733SOL    HW234159   4.480   2.412   6.985
10734SOL     OW34160   5.118   2.331   7.260
10734SOL    HW134161   5.098   2.374   7.348
10734SOL    HW234162   5.196   2.269   7.269
10735SOL     OW34163   4.697   2.752   7.158
10735SOL    HW134164   4.743   2.668   7.129
10735SOL    HW234165   4.641   2.786   7.083
10736SOL     OW34166   4.715   2.272   6.828
10736SOL    HW134167   4.638   2.306   6.882
10736SOL    HW234168   4.681   2.221   6.749
10737SOL     OW34169   4.765   2.563   6.015
10737SOL    HW134170   4.791   2.559   6.111
10737SOL    HW234171   4.680   2.512   6.001
10738SOL     OW34172   3.800   2.673   6.375
10738SOL    HW134173   3.899   2.661   6.384
10738SOL    HW234174   3.776   2.768   6.396
10739SOL     OW34175   3.854   3.683   7.157
10739SOL    HW134176   3.844   3.668   7.256
10739SOL    HW234177   3.768   3.719   7.121
10740SOL     OW34178   4.589   2.210   5.781
10740SOL    HW134179   4.648   2.273   5.732
10740SOL    HW234180   4.608   2.116   5.752
10741SOL     OW34181   5.443   2.447   7.417
10741SOL    HW134182   5.417   2.536   7.381
10741SOL    HW234183   5.441   2.379   7.344
10742SOL     OW34184   5.086   3.006   6.131
10742SOL    HW134185   5.169   2.977   6.083
10742SOL    HW234186   5.037   3.073   6.075
10743SOL     OW34187   4.274   2.058   6.471
10743SOL    HW134188   4.269   2.053   6.571
10743SOL    HW234189   4.276   2.154   6.442
10744SOL     OW34190   4.732   3.318   6.063
10744SOL    HW134191   4.686   3.390   6.011
10744SOL    HW234192   4.728   3.338   6.161
10745SOL     OW34193   4.075   3.663   6.439
10745SOL    HW134194   4.125   3.577   6.445
10745SOL    HW234195   4.140   3.740   6.436
10746SOL     OW34196   5.519   2.928   6.459
10746SOL    HW134197   5.457   2.913   6.383
10746SOL    HW234198   5.467   2.939   6.544
10747SOL     OW34199   4.951   3.412   7.092
10747SOL    HW134200   4.957   3.335   7.156
10747SOL    HW234201   4.899   3.386   7.012
10748SOL     OW34202   4.045   2.805   5.828
10748SOL    HW134203   4.127   2.844   5.786
10748SOL    HW234204   4.018   2.723   5.779
10749SOL     OW34205   5.182   2.597   6.314
10749SOL    HW134206   5.177   2.532   6.389
10749SOL    HW234207   5.262   2.656   6.327
10750SOL     OW34208   4.185   3.128   7.313
10750SOL    HW134209   4.135   3.129   7.227
10750SOL    HW234210   4.122   3.110   7.389
10751SOL     OW34211   4.835   3.638   5.823
10751SOL    HW134212   4.775   3.576   5.873
10751SOL    HW234213   4.866   3.594   5.738
10752SOL     OW34214   3.926   2.147   7.084
10752SOL    HW134215   3.846   2.207   7.071
10752SOL    HW234216   3.916   2.098   7.170
10753SOL     OW34217   5.356   3.239   5.667
10753SOL    HW134218   5.324   3.333   5.657
10753SOL    HW234219   5.280   3.176   5.655
10754SOL     OW34220   4.188   3.605   5.909
10754SOL    HW134221   4.221   3.644   5.995
10754SOL    HW234222   4.264   3.598   5.844
10755SOL     OW34223   5.124   1.969   6.012
10755SOL    HW134224   5.100   1.932   5.922
10755SOL    HW234225   5.223   1.985   6.016
10756SOL     OW34226   3.973   3.647   6.827
10756SOL    HW134227   4.030   3.582   6.877
10756SOL    HW234228   3.957   3.614   6.734
10757SOL     OW34229   4.664   3.560   6.490
10757SOL    HW134230   4.744   3.503   6.511
10757SOL    HW234231   4.615   3.520   6.413
10758SOL     OW34232   4.106   2.562   6.066
10758SOL    HW134233   4.151   2.472   6.063
10758SOL    HW234234   4.012   2.551   6.099
10759SOL     OW34235   5.271   2.084   7.315
10759SOL    HW134236   5.266   2.121   7.407
10759SOL    HW234237   5.199   2.015   7.303
10760SOL     OW34238   4.338   1.984   5.703
10760SOL    HW134239   4.436   1.962   5.710
10760SOL    HW234240   4.307   1.967   5.610
10761SOL     OW34241   4.505   2.126   7.335
10761SOL    HW134242   4.572   2.065   7.378
10761SOL    HW234243   4.432   2.145   7.400
10762SOL     OW34244   4.612   3.376   6.781
10762SOL    HW134245   4.589   3.351   6.687
10762SOL    HW234246   4.673   3.307   6.820
10763SOL     OW34247   5.075   2.452   7.019
10763SOL    HW134248   5.103   2.409   7.104
10763SOL    HW234249   5.100   2.548   7.020
10764SOL     OW34250   4.527   3.264   6.510
10764SOL    HW134251   4.617   3.278   6.468
10764SOL    HW234252   4.456   3.266   6.439
10765SOL     OW34253   4.646   2.365   6.485
10765SOL    HW134254   4.621   2.356   6.389
10765SOL    HW234255   4.694   2.283   6.516
10766SOL     OW34256   4.263   1.926   6.098
10766SOL    HW134257   4.182   1.927   6.156
10766SOL    HW234258   4.266   2.009   6.043
10767SOL     OW34259   5.158   3.050   5.627
10767SOL    HW134260   5.190   2.974   5.684
10767SOL    HW234261   5.066   3.077   5.657
10768SOL     OW34262   4.021   1.897   5.757
10768SOL    HW134263   4.070   1.981   5.736
10768SOL    HW234264   4.083   1.832   5.802
10769SOL     OW34265   4.659   2.098   6.066
10769SOL    HW134266   4.611   2.139   5.988
10769SOL    HW234267   4.758   2.096   6.047
10770SOL     OW34268   4.800   2.545   7.050
10770SOL    HW134269   4.720   2.484   7.053
10770SOL    HW234270   4.881   2.492   7.026
10771SOL     OW34271   4.951   3.432   6.379
10771SOL    HW134272   4.972   3.506   6.314
10771SOL    HW234273   5.019   3.432   6.452
10772SOL     OW34274   4.183   3.014   6.327
10772SOL    HW134275   4.112   2.987   6.392
10772SOL    HW234276   4.157   2.986   6.234
10773SOL     OW34277   4.995   3.659   6.177
10773SOL    HW134278   5.039   3.723   6.113
10773SOL    HW234279   4.945   3.711   6.247
10774SOL     OW34280   4.756   2.411   5.602
10774SOL    HW134281   4.715   2.493   5.563
10774SOL    HW234282   4.820   2.437   5.675
10775SOL     OW34283   3.802   2.418   6.972
10775SOL    HW134284   3.894   2.417   6.931
10775SOL    HW234285   3.796   2.492   7.039
10776SOL     OW34286   4.285   2.084   6.733
10776SOL    HW134287   4.323   2.000   6.770
10776SOL    HW234288   4.197   2.103   6.777
10777SOL     OW34289   4.590   2.316   6.228
10777SOL    HW134290   4.558   2.388   6.166
10777SOL    HW234291   4.614   2.235   6.175
10778SOL     OW34292   4.741   1.901   6.339
10778SOL    HW134293   4.669   1.906   6.270
10778SOL    HW234294   4.717   1.832   6.408
10779SOL     OW34295   5.153   3.035   6.453
10779SOL    HW134296   5.098   2.951   6.446
10779SOL    HW234297   5.179   3.064   6.361
10780SOL     OW34298   5.190   2.452   6.578
10780SOL    HW134299   5.160   2.357   6.585
10780SOL    HW234300   5.263   2.468   6.644
10781SOL     OW34301   5.581   2.695   5.963
10781SOL    HW134302   5.623   2.631   6.027
10781SOL    HW234303   5.543   2.644   5.885
10782SOL     OW34304   4.212   3.247   5.760
10782SOL    HW134305   4.125   3.232   5.807
10782SOL    HW234306   4.195   3.273   5.665
10783SOL     OW34307   5.388   3.142   6.243
10783SOL    HW134308   5.487   3.150   6.257
10783SOL    HW234309   5.343   3.226   6.274
10784SOL     OW34310   5.114   2.437   5.664
10784SOL    HW134311   5.060   2.416   5.745
10784SOL    HW234312   5.205   2.396   5.673
10785SOL     OW34313   4.251   2.118   5.914
10785SOL    HW134314   4.278   2.059   5.839
10785SOL    HW234315   4.251   2.213   5.883
10786SOL     OW34316   5.478   3.085   7.174
10786SOL    HW134317   5.569   3.046   7.161
10786SOL    HW234318   5.486   3.181   7.198
10787SOL     OW34319   4.788   3.209   6.926
10787SOL    HW134320   4.708   3.186   6.981
10787SOL    HW234321   4.871   3.183   6.975
10788SOL     OW34322   5.316   3.491   7.211
10788SOL    HW134323   5.343   3.525   7.121
10788SOL    HW234324   5.395   3.453   7.257
10789SOL     OW34325   4.835   3.057   6.686
10789SOL    HW134326   4.795   3.101   6.767
10789SOL    HW234327   4.794   3.094   6.603
10790SOL     OW34328   5.362   2.961   6.665
10790SOL    HW134329   5.367   3.042   6.724
10790SOL    HW234330   5.276   2.963   6.614
10791SOL     OW34331   4.639   1.951   6.988
10791SOL    HW134332   4.664   1.931   6.893
10791SOL    HW234333   4.711   2.007   7.030
10792SOL     OW34334   4.704   2.978   7.305
10792SOL    HW134335   4.605   2.984   7.315
10792SOL    HW234336   4.727   2.898   7.249
10793SOL     OW34337   4.429   2.912   5.954
10793SOL    HW134338   4.415   2.919   6.053
10793SOL    HW234339   4.513   2.861   5.936
10794SOL     OW34340   4.134   2.675   6.837
10794SOL    HW134341   4.220   2.687   6.887
10794SOL    HW234342   4.092   2.588   6.864
10795SOL     OW34343   4.998   2.248   6.848
10795SOL    HW134344   5.019   2.322   6.912
10795SOL    HW234345   4.909   2.265   6.805
10796SOL     OW34346   3.788   3.426   6.917
10796SOL    HW134347   3.742   3.508   6.883
10796SOL    HW234348   3.886   3.445   6.926
10797SOL     OW34349   4.091   2.962   6.087
10797SOL    HW134350   4.084   3.045   6.031
10797SOL    HW234351   4.095   2.882   6.027
10798SOL     OW34352   4.290   2.399   6.451
10798SOL    HW134353   4.302   2.465   6.377
10798SOL    HW234354   4.336   2.433   6.534
10799SOL     OW34355   4.976   3.210   5.974
10799SOL    HW134356   5.026   3.287   6.014
10799SOL    HW234357   4.881   3.212   6.006
10800SOL     OW34358   4.996   3.307   6.728
10800SOL    HW134359   5.043   3.320   6.815
10800SOL    HW234360   4.930   3.233   6.737
10801SOL     OW34361   5.306   2.501   6.058
10801SOL    HW134362   5.275   2.562   6.131
10801SOL    HW234363   5.356   2.553   5.989
10802SOL     OW34364   4.078   3.372   6.915
10802SOL    HW134365   4.057   3.328   6.828
10802SOL    HW234366   4.175   3.398   6.918
10803SOL     OW34367   4.126   2.613   7.184
10803SOL    HW134368   4.194   2.668   7.137
10803SOL    HW234369   4.166   2.525   7.211
10804SOL     OW34370   5.311   2.641   7.256
10804SOL    HW134371   5.219   2.679   7.251
10804SOL    HW234372   5.371   2.688   7.191
10805SOL     OW34373   4.737   1.967   7.356
10805SOL    HW134374   4.743   2.052   7.304
10805SOL    HW234375   4.769   1.891   7.299
10806SOL     OW34376   4.228   1.912   7.326
10806SOL    HW134377   4.186   1.855   7.256
10806SOL    HW234378   4.162   1.981   7.358
10807SOL     OW34379   4.297   2.732   6.615
10807SOL    HW134380   4.341   2.821   6.606
10807SOL    HW234381   4.234   2.732   6.692
10808SOL     OW34382   5.084   2.724   6.631
10808SOL    HW134383   5.009   2.724   6.565
10808SOL    HW234384   5.121   2.632   6.640
10809SOL     OW34385   4.933   2.387   5.861
10809SOL    HW134386   4.946   2.303   5.915
10809SOL    HW234387   4.904   2.461   5.921
10810SOL     OW34388   4.031   2.075   6.817
10810SOL    HW134389   4.008   2.112   6.907
10810SOL    HW234390   4.001   1.980   6.811
10811SOL     OW34391   3.761   3.172   6.868
10811SOL    HW134392   3.814   3.123   6.936
10811SOL    HW234393   3.783   3.270   6.873
10812SOL     OW34394   4.456   2.496   6.650
10812SOL    HW134395   4.515   2.470   6.574
10812SOL    HW234396   4.428   2.592   6.639
10813SOL     OW34397   4.031   1.925   6.204
10813SOL    HW134398   4.020   2.019   6.237
10813SOL    HW234399   4.026   1.862   6.281
10814SOL     OW34400   5.346   2.229   5.960
10814SOL    HW134401   5.348   2.153   6.024
10814SOL    HW234402   5.298   2.306   6.000
10815SOL     OW34403   4.747   2.628   6.552
10815SOL    HW134404   4.762   2.649   6.648
10815SOL    HW234405   4.717   2.533   6.543
10816SOL     OW34406   4.704   3.435   7.286
10816SOL    HW134407   4.684   3.479   7.198
10816SOL    HW234408   4.743   3.344   7.270
10817SOL     OW34409   5.583   3.380   7.191
10817SOL    HW134410   5.597   3.407   7.096
10817SOL    HW234411   5.666   3.402   7.244
10818SOL     OW34412   4.074   2.760   7.390
10818SOL    HW134413   4.150   2.804   7.438
10818SOL    HW234414   4.109   2.713   7.308
10819SOL     OW34415   5.264   2.136   5.711
10819SOL    HW134416   5.203   2.061   5.734
10819SOL    HW234417   5.286   2.188   5.794
10820SOL     OW34418   5.027   2.700   5.628
10820SOL    HW134419   5.061   2.607   5.643
10820SOL    HW234420   5.045   2.727   5.533
10821SOL     OW34421   4.792   3.195   6.435
10821SOL    HW134422   4.799   3.111   6.380
10821SOL    HW234423   4.854   3.264   6.399
10822SOL     OW34424   4.043   2.672   6.535
10822SOL    HW134425   4.136   2.708   6.540
10822SOL    HW234426   4.037   2.587   6.587
10823SOL     OW34427   4.063   2.371   6.592
10823SOL    HW134428   4.011   2.288   6.575
10823SOL    HW234429   4.140   2.376   6.528
10824SOL     OW34430   4.235   2.277   7.394
10824SOL    HW134431   4.217   2.322   7.482
10824SOL    HW234432   4.277   2.342   7.331
10825SOL     OW34433   4.862   2.242   7.264
10825SOL    HW134434   4.817   2.305   7.328
10825SOL    HW234435   4.955   2.273   7.247
10826SOL     OW34436   4.884   2.069   7.063
10826SOL    HW134437   4.884   2.133   7.140
10826SOL    HW234438   4.912   2.117   6.980
10827SOL     OW34439   3.732   3.188   5.786
10827SOL    HW134440   3.639   3.209   5.755
10827SOL    HW234441   3.742   3.089   5.799
10828SOL     OW34442   3.812   3.663   6.513
10828SOL    HW134443   3.770   3.577   6.486
10828SOL    HW234444   3.906   3.666   6.479
10829SOL     OW34445   4.228   3.430   6.496
10829SOL    HW134446   4.294   3.504   6.505
10829SOL    HW234447   4.272   3.351   6.454
10830SOL     OW34448   4.726   2.658   6.824
10830SOL    HW134449   4.767   2.626   6.910
10830SOL    HW234450   4.630   2.631   6.821
10831SOL     OW34451   3.764   2.406   6.700
10831SOL    HW134452   3.849   2.373   6.659
10831SOL    HW234453   3.777   2.421   6.798
10832SOL     OW34454   3.913   2.382   7.308
10832SOL    HW134455   3.972   2.342   7.238
10832SOL    HW234456   3.855   2.453   7.267
10833SOL     OW34457   5.093   2.812   7.246
10833SOL    HW134458   5.132   2.901   7.266
10833SOL    HW234459   5.103   2.792   7.149
10834SOL     OW34460   4.539   2.434   5.911
10834SOL    HW134461   4.546   2.345   5.865
10834SOL    HW234462   4.445   2.468   5.903
10835SOL     OW34463   5.381   2.466   6.792
10835SOL    HW134464   5.343   2.397   6.854
10835SOL    HW234465   5.463   2.430   6.748
10836SOL     OW34466   3.976   3.426   7.330
10836SOL    HW134467   3.946   3.483   7.406
10836SOL    HW234468   3.969   3.329   7.356
10837SOL     OW34469   4.395   2.326   6.855
10837SOL    HW134470   4.361   2.237   6.825
10837SOL    HW234471   4.421   2.380   6.775
10838SOL     OW34472   4.654   3.540   7.051
10838SOL    HW134473   4.630   3.522   6.956
10838SOL    HW234474   4.684   3.634   7.061
10839SOL     OW34475   4.197   2.362   5.777
10839SOL    HW134476   4.258   2.442   5.781
10839SOL    HW234477   4.102   2.393   5.784
10840SOL     OW34478   3.883   2.999   7.052
10840SOL    HW134479   3.905   2.938   7.128
10840SOL    HW234480   3.893   2.950   6.966
10841SOL     OW34481   5.071   2.921   6.820
10841SOL    HW134482   5.095   2.858   6.746
10841SOL    HW234483   4.981   2.961   6.802
10842SOL     OW34484   5.026   2.717   5.895
10842SOL    HW134485   4.940   2.686   5.937
10842SOL    HW234486   5.022   2.703   5.796
10843SOL     OW34487   5.483   3.609   6.740
10843SOL    HW134488   5.544   3.639   6.667
10843SOL    HW234489   5.445   3.520   6.718
10844SOL     OW34490   4.976   3.593   6.714
10844SOL    HW134491   5.060   3.598   6.660
10844SOL    HW234492   4.953   3.497   6.732
10845SOL     OW34493   3.807   3.120   6.608
10845SOL    HW134494   3.802   3.119   6.708
10845SOL    HW234495   3.724   3.079   6.570
10846SOL     OW34496   4.412   3.524   7.302
10846SOL    HW134497   4.356   3.605   7.311
10846SOL    HW234498   4.464   3.528   7.216
10847SOL     OW34499   4.627   1.948   5.719
10847SOL    HW134500   4.678   1.949   5.633
10847SOL    HW234501   4.683   1.906   5.790
10848SOL     OW34502   5.450   1.997   6.109
10848SOL    HW134503   5.523   1.980   6.042
10848SOL    HW234504   5.419   1.910   6.147
10849SOL     OW34505   5.112   3.435   6.063
10849SOL    HW134506   5.179   3.447   5.989
10849SOL    HW234507   5.072   3.524   6.086
10850SOL     OW34508   3.854   3.656   7.437
10850SOL    HW134509   3.813   3.582   7.490
10850SOL    HW234510   3.918   3.707   7.495
10851SOL     OW34511   5.004   2.789   6.258
10851SOL    HW134512   5.064   2.708   6.260
10851SOL    HW234513   5.044   2.858   6.198
10852SOL     OW34514   4.554   3.135   7.008
10852SOL    HW134515   4.549   3.168   7.103
10852SOL    HW234516   4.468   3.154   6.962
10853SOL     OW34517   4.396   3.478   5.740
10853SOL    HW134518   4.405   3.488   5.641
10853SOL    HW234519   4.356   3.389   5.761
10854SOL     OW34520   5.374   3.582   6.980
10854SOL    HW134521   5.427   3.592   6.896
10854SOL    HW234522   5.347   3.672   7.014
10855SOL     OW34523   3.987   2.188   6.306
10855SOL    HW134524   3.908   2.239   6.272
10855SOL    HW234525   3.978   2.173   6.404
10856SOL     OW34526   4.918   3.474   5.617
10856SOL    HW134527   4.924   3.381   5.654
10856SOL    HW234528   4.859   3.474   5.537
10857SOL     OW34529   4.546   2.864   6.958
10857SOL    HW134530   4.586   2.863   6.866
10857SOL    HW234531   4.556   2.956   6.998
10858SOL     OW34532   4.640   2.772   5.877
10858SOL    HW134533   4.703   2.810   5.809
10858SOL    HW234534   4.680   2.689   5.916
10859SOL     OW34535   5.228   3.469   5.630
10859SOL    HW134536   5.136   3.506   5.637
10859SOL    HW234537   5.266   3.489   5.540
10860SOL     OW34538   4.096   3.150   7.076
10860SOL    HW134539   4.083   3.243   7.042
10860SOL    HW234540   4.012   3.098   7.063
10861SOL     OW34541   5.338   3.154   6.875
10861SOL    HW134542   5.398   3.157   6.955
10861SOL    HW234543   5.263   3.218   6.888
10862SOL     OW34544   4.763   2.960   6.282
10862SOL    HW134545   4.693   2.913   6.336
10862SOL    HW234546   4.822   2.892   6.239
10863SOL     OW34547   4.738   2.098   6.557
10863SOL    HW134548   4.730   2.062   6.464
10863SOL    HW234549   4.736   2.022   6.622
10864SOL     OW34550   4.314   3.349   6.077
10864SOL    HW134551   4.356   3.291   6.007
10864SOL    HW234552   4.270   3.428   6.033
10865SOL     OW34553   3.979   3.210   5.876
10865SOL    HW134554   3.883   3.211   5.849
10865SOL    HW234555   3.991   3.263   5.960
10866SOL     OW34556   3.829   2.875   7.312
10866SOL    HW134557   3.752   2.842   7.366
10866SOL    HW234558   3.914   2.845   7.354
10867SOL     OW34559   4.396   2.065   7.075
10867SOL    HW134560   4.486   2.049   7.035
10867SOL    HW234561   4.404   2.070   7.174
10868SOL     OW34562   3.799   2.207   5.619
10868SOL    HW134563   3.707   2.179   5.590
10868SOL    HW234564   3.830   2.284   5.563
10869SOL     OW34565   5.164   2.718   6.984
10869SOL    HW134566   5.107   2.770   6.921
10869SOL    HW234567   5.260   2.730   6.960
10870SOL     OW34568   3.796   2.028   5.904
10870SOL    HW134569   3.779   2.111   5.850
10870SOL    HW234570   3.886   1.991   5.882
10871SOL     OW34571   4.907   3.197   5.705
10871SOL    HW134572   4.808   3.186   5.707
10871SOL    HW234573   4.941   3.212   5.798
10872SOL     OW34574   4.337   2.704   7.017
10872SOL    HW134575   4.393   2.785   7.000
10872SOL    HW234576   4.396   2.624   7.020
10873SOL     OW34577   5.217   3.629   6.545
10873SOL    HW134578   5.250   3.693   6.476
10873SOL    HW234579   5.283   3.623   6.620
10874SOL     OW34580   4.440   2.427   7.294
10874SOL    HW134581   4.459   2.492   7.368
10874SOL    HW234582   4.500   2.347   7.303
10875SOL     OW34583   5.174   3.082   7.219
10875SOL    HW134584   5.165   3.072   7.318
10875SOL    HW234585   5.270   3.075   7.193
10876SOL     OW34586   4.114   3.603   7.146
10876SOL    HW134587   4.023   3.644   7.144
10876SOL    HW234588   4.107   3.509   7.178
10877SOL     OW34589   5.398   2.745   6.840
10877SOL    HW134590   5.371   2.656   6.803
10877SOL    HW234591   5.399   2.813   6.767
10878SOL     OW34592   4.949   2.187   6.035
10878SOL    HW134593   5.014   2.113   6.024
10878SOL    HW234594   4.969   2.237   6.119
10879SOL     OW34595   4.318   2.607   6.238
10879SOL    HW134596   4.368   2.692   6.219
10879SOL    HW234597   4.230   2.609   6.190
10880SOL     OW34598   5.501   2.204   7.228
10880SOL    HW134599   5.484   2.235   7.134
10880SOL    HW234600   5.417   2.167   7.266
10881SOL     OW34601   5.454   2.796   7.103
10881SOL    HW134602   5.492   2.887   7.118
10881SOL    HW234603   5.446   2.779   7.004
10882SOL     OW34604   4.583   3.236   5.602
10882SOL    HW134605   4.537   3.251   5.690
10882SOL    HW234606   4.627   3.321   5.572
10883SOL     OW34607   4.385   3.652   6.539
10883SOL    HW134608   4.339   3.740   6.526
10883SOL    HW234609   4.484   3.664   6.532
10884SOL     OW34610   5.132   3.713   7.306
10884SOL    HW134611   5.036   3.702   7.279
10884SOL    HW234612   5.188   3.646   7.258
10885SOL     OW34613   4.583   2.818   6.447
10885SOL    HW134614   4.637   2.749   6.495
10885SOL    HW234615   4.551   2.887   6.513
10886SOL     OW34616   4.807   2.846   5.673
10886SOL    HW134617   4.784   2.899   5.591
10886SOL    HW234618   4.888   2.790   5.654
10887SOL     OW34619   5.585   3.431   6.437
10887SOL    HW134620   5.514   3.419   6.367
10887SOL    HW234621   5.586   3.352   6.497
10888SOL     OW34622   3.945   3.176   7.430
10888SOL    HW134623   3.880   3.103   7.409
10888SOL    HW234624   3.949   3.190   7.528
10889SOL     OW34625   3.803   3.102   6.239
10889SOL    HW134626   3.802   3.055   6.327
10889SOL    HW234627   3.885   3.074   6.188
10890SOL     OW34628   4.396   3.253   7.210
10890SOL    HW134629   4.318   3.203   7.248
10890SOL    HW234630   4.393   3.348   7.241
10891SOL     OW34631   5.548   2.054   6.813
10891SOL    HW134632   5.544   1.964   6.857
10891SOL    HW234633   5.551   2.043   6.714
10892SOL     OW34634   4.152   2.286   6.106
10892SOL    HW134635   4.182   2.214   6.044
10892SOL    HW234636   4.113   2.246   6.189
10893SOL     OW34637   5.429   3.349   6.690
10893SOL    HW134638   5.336   3.324   6.663
10893SOL    HW234639   5.455   3.299   6.772
10894SOL     OW34640   4.041   2.409   6.866
10894SOL    HW134641   4.079   2.350   6.938
10894SOL    HW234642   4.081   2.383   6.778
10895SOL     OW34643   4.536   3.448   6.273
10895SOL    HW134644   4.568   3.458   6.179
10895SOL    HW234645   4.457   3.386   6.275
10896SOL     OW34646   5.148   2.076   6.698
10896SOL    HW134647   5.200   2.011   6.753
10896SOL    HW234648   5.099   2.139   6.759
10897SOL     OW34649   4.725   1.896   6.740
10897SOL    HW134650   4.662   1.824   6.709
10897SOL    HW234651   4.818   1.860   6.740
10898SOL     OW34652   4.494   3.192   5.887
10898SOL    HW134653   4.448   3.105   5.904
10898SOL    HW234654   4.585   3.189   5.928
10899SOL     OW34655   4.342   3.429   6.870
10899SOL    HW134656   4.337   3.511   6.927
10899SOL    HW234657   4.431   3.426   6.825
10900SOL     OW34658   5.076   1.914   5.754
10900SOL    HW134659   5.111   1.873   5.670
10900SOL    HW234660   4.986   1.876   5.774
10901SOL     OW34661   5.024   2.315   6.277
10901SOL    HW134662   4.965   2.395   6.281
10901SOL    HW234663   5.039   2.280   6.370
10902SOL     OW34664   5.317   2.083   6.468
10902SOL    HW134665   5.233   2.082   6.522
10902SOL    HW234666   5.319   2.166   6.412
10903SOL     OW34667   3.763   2.939   5.886
10903SOL    HW134668   3.862   2.928   5.877
10903SOL    HW234669   3.723   2.853   5.918
10904SOL     OW34670   4.599   3.508   5.923
10904SOL    HW134671   4.522   3.473   5.869
10904SOL    HW234672   4.567   3.579   5.985
10905SOL     OW34673   3.954   2.490   7.561
10905SOL    HW134674   3.861   2.488   7.598
10905SOL    HW234675   3.955   2.451   7.469
10906SOL     OW34676   3.949   2.137   8.444
10906SOL    HW134677   3.984   2.120   8.536
10906SOL    HW234678   3.861   2.092   8.432
10907SOL     OW34679   3.743   2.230   8.095
10907SOL    HW134680   3.661   2.273   8.134
10907SOL    HW234681   3.715   2.157   8.032
10908SOL     OW34682   4.293   3.137   8.613
10908SOL    HW134683   4.200   3.130   8.576
10908SOL    HW234684   4.304   3.226   8.657
10909SOL     OW34685   5.279   3.373   8.151
10909SOL    HW134686   5.222   3.357   8.232
10909SOL    HW234687   5.220   3.383   8.071
10910SOL     OW34688   5.467   2.480   8.304
10910SOL    HW134689   5.500   2.574   8.304
10910SOL    HW234690   5.518   2.426   8.370
10911SOL     OW34691   4.859   2.565   8.165
10911SOL    HW134692   4.916   2.643   8.140
10911SOL    HW234693   4.799   2.591   8.241
10912SOL     OW34694   5.479   2.469   7.679
10912SOL    HW134695   5.467   2.456   7.580
10912SOL    HW234696   5.449   2.388   7.728
10913SOL     OW34697   4.492   3.006   8.471
10913SOL    HW134698   4.414   3.023   8.531
10913SOL    HW234699   4.526   3.093   8.435
10914SOL     OW34700   4.409   2.874   8.113
10914SOL    HW134701   4.478   2.858   8.183
10914SOL    HW234702   4.336   2.931   8.151
10915SOL     OW34703   4.059   3.297   8.509
10915SOL    HW134704   3.981   3.266   8.456
10915SOL    HW234705   4.117   3.355   8.452
10916SOL     OW34706   5.184   3.367   8.787
10916SOL    HW134707   5.208   3.461   8.813
10916SOL    HW234708   5.168   3.313   8.869
10917SOL     OW34709   4.162   2.254   8.947
10917SOL    HW134710   4.244   2.198   8.956
10917SOL    HW234711   4.081   2.196   8.951
10918SOL     OW34712   5.327   2.309   8.185
10918SOL    HW134713   5.253   2.355   8.135
10918SOL    HW234714   5.378   2.377   8.238
10919SOL     OW34715   3.955   3.575   7.931
10919SOL    HW134716   3.989   3.652   7.985
10919SOL    HW234717   3.999   3.575   7.841
10920SOL     OW34718   3.954   3.296   7.986
10920SOL    HW134719   3.928   3.392   7.986
10920SOL    HW234720   3.883   3.242   8.031
10921SOL     OW34721   3.964   2.953   8.334
10921SOL    HW134722   3.978   2.869   8.386
10921SOL    HW234723   3.909   3.017   8.389
10922SOL     OW34724   4.344   3.648   8.887
10922SOL    HW134725   4.252   3.631   8.922
10922SOL    HW234726   4.372   3.740   8.913
10923SOL     OW34727   4.330   2.826   7.571
10923SOL    HW134728   4.337   2.910   7.517
10923SOL    HW234729   4.376   2.839   7.659
10924SOL     OW34730   5.318   1.976   8.928
10924SOL    HW134731   5.300   2.043   8.856
10924SOL    HW234732   5.315   2.022   9.017
10925SOL     OW34733   3.846   2.505   8.011
10925SOL    HW134734   3.801   2.417   8.028
10925SOL    HW234735   3.845   2.559   8.095
10926SOL     OW34736   5.566   3.629   7.807
10926SOL    HW134737   5.620   3.600   7.887
10926SOL    HW234738   5.596   3.719   7.778
10927SOL     OW34739   3.751   3.458   7.565
10927SOL    HW134740   3.732   3.362   7.586
10927SOL    HW234741   3.718   3.516   7.640
10928SOL     OW34742   4.337   3.227   8.174
10928SOL    HW134743   4.288   3.140   8.183
10928SOL    HW234744   4.314   3.270   8.087
10929SOL     OW34745   4.533   1.866   7.950
10929SOL    HW134746   4.573   1.957   7.941
10929SOL    HW234747   4.433   1.874   7.956
10930SOL     OW34748   3.921   2.838   8.712
10930SOL    HW134749   4.010   2.793   8.698
10930SOL    HW234750   3.848   2.773   8.693
10931SOL     OW34751   5.249   2.861   7.638
10931SOL    HW134752   5.186   2.785   7.651
10931SOL    HW234753   5.297   2.879   7.724
10932SOL     OW34754   5.391   3.576   8.020
10932SOL    HW134755   5.350   3.553   7.932
10932SOL    HW234756   5.373   3.502   8.085
10933SOL     OW34757   4.322   2.591   7.718
10933SOL    HW134758   4.346   2.660   7.650
10933SOL    HW234759   4.244   2.624   7.772
10934SOL     OW34760   5.005   2.207   8.392
10934SOL    HW134761   4.919   2.157   8.379
10934SOL    HW234762   5.067   2.153   8.448
10935SOL     OW34763   5.300   3.524   7.755
10935SOL    HW134764   5.389   3.570   7.758
10935SOL    HW234765   5.279   3.500   7.660
10936SOL     OW34766   4.531   2.467   8.913
10936SOL    HW134767   4.484   2.464   9.002
10936SOL    HW234768   4.480   2.412   8.847
10937SOL     OW34769   4.715   2.272   8.690
10937SOL    HW134770   4.638   2.306   8.744
10937SOL    HW234771   4.681   2.221   8.611
10938SOL     OW34772   4.765   2.563   7.877
10938SOL    HW134773   4.791   2.559   7.973
10938SOL    HW234774   4.680   2.512   7.863
10939SOL     OW34775   3.800   2.673   8.237
10939SOL    HW134776   3.899   2.661   8.246
10939SOL    HW234777   3.776   2.768   8.258
10940SOL     OW34778   3.854   3.683   0.019
10940SOL    HW134779   3.844   3.668   0.118
10940SOL    HW234780   3.768   3.719  -0.017
10941SOL     OW34781   4.589   2.210   7.643
10941SOL    HW134782   4.648   2.273   7.594
10941SOL    HW234783   4.608   2.116   7.614
10942SOL     OW34784   4.274   2.058   8.333
10942SOL    HW134785   4.269   2.053   8.433
10942SOL    HW234786   4.276   2.154   8.304
10943SOL     OW34787   4.732   3.318   7.925
10943SOL    HW134788   4.686   3.390   7.873
10943SOL    HW234789   4.728   3.338   8.023
10944SOL     OW34790   4.075   3.663   8.301
10944SOL    HW134791   4.125   3.577   8.307
10944SOL    HW234792   4.140   3.740   8.298
10945SOL     OW34793   5.519   2.928   8.321
10945SOL    HW134794   5.457   2.913   8.245
10945SOL    HW234795   5.467   2.939   8.406
10946SOL     OW34796   4.045   2.805   7.690
10946SOL    HW134797   4.127   2.844   7.648
10946SOL    HW234798   4.018   2.723   7.641
10947SOL     OW34799   5.182   2.597   8.176
10947SOL    HW134800   5.177   2.532   8.251
10947SOL    HW234801   5.262   2.656   8.189
10948SOL     OW34802   4.835   3.638   7.685
10948SOL    HW134803   4.775   3.576   7.735
10948SOL    HW234804   4.866   3.594   7.600
10949SOL     OW34805   3.926   2.147   8.946
10949SOL    HW134806   3.846   2.207   8.933
10949SOL    HW234807   3.916   2.098   9.032
10950SOL     OW34808   5.356   3.239   7.529
10950SOL    HW134809   5.324   3.333   7.519
10950SOL    HW234810   5.280   3.176   7.517
10951SOL     OW34811   4.188   3.605   7.771
10951SOL    HW134812   4.221   3.644   7.857
10951SOL    HW234813   4.264   3.598   7.706
10952SOL     OW34814   5.124   1.969   7.874
10952SOL    HW134815   5.100   1.932   7.784
10952SOL    HW234816   5.223   1.985   7.878
10953SOL     OW34817   3.973   3.647   8.689
10953SOL    HW134818   4.030   3.582   8.739
10953SOL    HW234819   3.957   3.614   8.596
10954SOL     OW34820   4.664   3.560   8.352
10954SOL    HW134821   4.744   3.503   8.373
10954SOL    HW234822   4.615   3.520   8.275
10955SOL     OW34823   4.106   2.562   7.928
10955SOL    HW134824   4.151   2.472   7.925
10955SOL    HW234825   4.012   2.551   7.961
10956SOL     OW34826   4.338   1.984   7.565
10956SOL    HW134827   4.436   1.962   7.572
10956SOL    HW234828   4.307   1.967   7.472
10957SOL     OW34829   4.612   3.376   8.643
10957SOL    HW134830   4.589   3.351   8.549
10957SOL    HW234831   4.673   3.307   8.682
10958SOL     OW34832   4.527   3.264   8.372
10958SOL    HW134833   4.617   3.278   8.330
10958SOL    HW234834   4.456   3.266   8.301
10959SOL     OW34835   4.646   2.365   8.347
10959SOL    HW134836   4.621   2.356   8.251
10959SOL    HW234837   4.694   2.283   8.378
10960SOL     OW34838   4.263   1.926   7.960
10960SOL    HW134839   4.182   1.927   8.018
10960SOL    HW234840   4.266   2.009   7.905
10961SOL     OW34841   5.158   3.050   7.489
10961SOL    HW134842   5.190   2.974   7.546
10961SOL    HW234843   5.066   3.077   7.519
10962SOL     OW34844   4.021   1.897   7.619
10962SOL    HW134845   4.070   1.981   7.598
10962SOL    HW234846   4.083   1.832   7.664
10963SOL     OW34847   4.659   2.098   7.928
10963SOL    HW134848   4.611   2.139   7.850
10963SOL    HW234849   4.758   2.096   7.909
10964SOL     OW34850   4.951   3.432   8.241
10964SOL    HW134851   4.972   3.506   8.176
10964SOL    HW234852   5.019   3.432   8.314
10965SOL     OW34853   4.183   3.014   8.189
10965SOL    HW134854   4.112   2.987   8.254
10965SOL    HW234855   4.157   2.986   8.096
10966SOL     OW34856   4.995   3.659   8.039
10966SOL    HW134857   5.039   3.723   7.975
10966SOL    HW234858   4.945   3.711   8.109
10967SOL     OW34859   4.756   2.411   7.464
10967SOL    HW134860   4.715   2.493   7.425
10967SOL    HW234861   4.820   2.437   7.537
10968SOL     OW34862   3.802   2.418   8.834
10968SOL    HW134863   3.894   2.417   8.793
10968SOL    HW234864   3.796   2.492   8.901
10969SOL     OW34865   4.285   2.084   8.595
10969SOL    HW134866   4.323   2.000   8.632
10969SOL    HW234867   4.197   2.103   8.639
10970SOL     OW34868   4.590   2.316   8.090
10970SOL    HW134869   4.558   2.388   8.028
10970SOL    HW234870   4.614   2.235   8.037
10971SOL     OW34871   4.741   1.901   8.201
10971SOL    HW134872   4.669   1.906   8.132
10971SOL    HW234873   4.717   1.832   8.270
10972SOL     OW34874   5.190   2.452   8.440
10972SOL    HW134875   5.160   2.357   8.447
10972SOL    HW234876   5.263   2.468   8.506
10973SOL     OW34877   5.581   2.695   7.825
10973SOL    HW134878   5.623   2.631   7.889
10973SOL    HW234879   5.543   2.644   7.747
10974SOL     OW34880   4.212   3.247   7.622
10974SOL    HW134881   4.125   3.232   7.669
10974SOL    HW234882   4.195   3.273   7.527
10975SOL     OW34883   5.114   2.437   7.526
10975SOL    HW134884   5.060   2.416   7.607
10975SOL    HW234885   5.205   2.396   7.535
10976SOL     OW34886   4.251   2.118   7.776
10976SOL    HW134887   4.278   2.059   7.701
10976SOL    HW234888   4.251   2.213   7.745
10977SOL     OW34889   4.788   3.209   8.788
10977SOL    HW134890   4.708   3.186   8.843
10977SOL    HW234891   4.871   3.183   8.837
10978SOL     OW34892   4.835   3.057   8.548
10978SOL    HW134893   4.795   3.101   8.629
10978SOL    HW234894   4.794   3.094   8.465
10979SOL     OW34895   4.639   1.951   8.850
10979SOL    HW134896   4.664   1.931   8.755
10979SOL    HW234897   4.711   2.007   8.892
10980SOL     OW34898   4.429   2.912   7.816
10980SOL    HW134899   4.415   2.919   7.915
10980SOL    HW234900   4.513   2.861   7.798
10981SOL     OW34901   4.134   2.675   8.699
10981SOL    HW134902   4.220   2.687   8.749
10981SOL    HW234903   4.092   2.588   8.726
10982SOL     OW34904   4.998   2.248   8.710
10982SOL    HW134905   5.019   2.322   8.774
10982SOL    HW234906   4.909   2.265   8.667
10983SOL     OW34907   3.788   3.426   8.779
10983SOL    HW134908   3.742   3.508   8.745
10983SOL    HW234909   3.886   3.445   8.788
10984SOL     OW34910   4.091   2.962   7.949
10984SOL    HW134911   4.084   3.045   7.893
10984SOL    HW234912   4.095   2.882   7.889
10985SOL     OW34913   4.290   2.399   8.313
10985SOL    HW134914   4.302   2.465   8.239
10985SOL    HW234915   4.336   2.433   8.396
10986SOL     OW34916   4.976   3.210   7.836
10986SOL    HW134917   5.026   3.287   7.876
10986SOL    HW234918   4.881   3.212   7.868
10987SOL     OW34919   4.996   3.307   8.590
10987SOL    HW134920   5.043   3.320   8.677
10987SOL    HW234921   4.930   3.233   8.599
10988SOL     OW34922   5.306   2.501   7.920
10988SOL    HW134923   5.275   2.562   7.993
10988SOL    HW234924   5.356   2.553   7.851
10989SOL     OW34925   4.078   3.372   8.777
10989SOL    HW134926   4.057   3.328   8.690
10989SOL    HW234927   4.175   3.398   8.780
10990SOL     OW34928   4.126   2.613   0.046
10990SOL    HW134929   4.194   2.668  -0.001
10990SOL    HW234930   4.166   2.525   0.073
10991SOL     OW34931   5.311   2.641   0.118
10991SOL    HW134932   5.219   2.679   0.113
10991SOL    HW234933   5.371   2.688   0.053
10992SOL     OW34934   4.297   2.732   8.477
10992SOL    HW134935   4.341   2.821   8.468
10992SOL    HW234936   4.234   2.732   8.554
10993SOL     OW34937   5.084   2.724   8.493
10993SOL    HW134938   5.009   2.724   8.427
10993SOL    HW234939   5.121   2.632   8.502
10994SOL     OW34940   4.933   2.387   7.723
10994SOL    HW134941   4.946   2.303   7.777
10994SOL    HW234942   4.904   2.461   7.783
10995SOL     OW34943   4.031   2.075   8.679
10995SOL    HW134944   4.008   2.112   8.769
10995SOL    HW234945   4.001   1.980   8.673
10996SOL     OW34946   3.761   3.172   8.730
10996SOL    HW134947   3.814   3.123   8.798
10996SOL    HW234948   3.783   3.270   8.735
10997SOL     OW34949   4.456   2.496   8.512
10997SOL    HW134950   4.515   2.470   8.436
10997SOL    HW234951   4.428   2.592   8.501
10998SOL     OW34952   4.031   1.925   8.066
10998SOL    HW134953   4.020   2.019   8.099
10998SOL    HW234954   4.026   1.862   8.143
10999SOL     OW34955   5.346   2.229   7.822
10999SOL    HW134956   5.348   2.153   7.886
10999SOL    HW234957   5.298   2.306   7.862
11000SOL     OW34958   4.747   2.628   8.414
11000SOL    HW134959   4.762   2.649   8.510
11000SOL    HW234960   4.717   2.533   8.405
11001SOL     OW34961   4.704   3.435   0.148
11001SOL    HW134962   4.684   3.479   0.060
11001SOL    HW234963   4.743   3.344   0.132
11002SOL     OW34964   5.583   3.380   0.053
11002SOL    HW134965   5.597   3.407  -0.042
11002SOL    HW234966   5.666   3.402   0.106
11003SOL     OW34967   5.264   2.136   7.573
11003SOL    HW134968   5.203   2.061   7.596
11003SOL    HW234969   5.286   2.188   7.656
11004SOL     OW34970   5.027   2.700   7.490
11004SOL    HW134971   5.061   2.607   7.505
11004SOL    HW234972   5.045   2.727   7.395
11005SOL     OW34973   4.792   3.195   8.297
11005SOL    HW134974   4.799   3.111   8.242
11005SOL    HW234975   4.854   3.264   8.261
11006SOL     OW34976   4.043   2.672   8.397
11006SOL    HW134977   4.136   2.708   8.402
11006SOL    HW234978   4.037   2.587   8.449
11007SOL     OW34979   4.063   2.371   8.454
11007SOL    HW134980   4.011   2.288   8.437
11007SOL    HW234981   4.140   2.376   8.390
11008SOL     OW34982   4.862   2.242   0.126
11008SOL    HW134983   4.817   2.305   0.190
11008SOL    HW234984   4.955   2.273   0.109
11009SOL     OW34985   4.884   2.069   8.925
11009SOL    HW134986   4.884   2.133   9.002
11009SOL    HW234987   4.912   2.117   8.842
11010SOL     OW34988   3.732   3.188   7.648
11010SOL    HW134989   3.639   3.209   7.617
11010SOL    HW234990   3.742   3.089   7.661
11011SOL     OW34991   3.812   3.663   8.375
11011SOL    HW134992   3.770   3.577   8.348
11011SOL    HW234993   3.906   3.666   8.341
11012SOL     OW34994   4.228   3.430   8.358
11012SOL    HW134995   4.294   3.504   8.367
11012SOL    HW234996   4.272   3.351   8.316
11013SOL     OW34997   4.726   2.658   8.686
11013SOL    HW134998   4.767   2.626   8.772
11013SOL    HW234999   4.630   2.631   8.683
11014SOL     OW35000   3.764   2.406   8.562
11014SOL    HW135001   3.849   2.373   8.521
11014SOL    HW235002   3.777   2.421   8.660
11015SOL     OW35003   4.539   2.434   7.773
11015SOL    HW135004   4.546   2.345   7.727
11015SOL    HW235005   4.445   2.468   7.765
11016SOL     OW35006   5.381   2.466   8.654
11016SOL    HW135007   5.343   2.397   8.716
11016SOL    HW235008   5.463   2.430   8.610
11017SOL     OW35009   4.395   2.326   8.717
11017SOL    HW135010   4.361   2.237   8.687
11017SOL    HW235011   4.421   2.380   8.637
11018SOL     OW35012   4.654   3.540   8.913
11018SOL    HW135013   4.630   3.522   8.818
11018SOL    HW235014   4.684   3.634   8.923
11019SOL     OW35015   4.197   2.362   7.639
11019SOL    HW135016   4.258   2.442   7.643
11019SOL    HW235017   4.102   2.393   7.646
11020SOL     OW35018   3.883   2.999   8.914
11020SOL    HW135019   3.905   2.938   8.990
11020SOL    HW235020   3.893   2.950   8.828
11021SOL     OW35021   5.026   2.717   7.757
11021SOL    HW135022   4.940   2.686   7.799
11021SOL    HW235023   5.022   2.703   7.658
11022SOL     OW35024   5.483   3.609   8.602
11022SOL    HW135025   5.544   3.639   8.529
11022SOL    HW235026   5.445   3.520   8.580
11023SOL     OW35027   4.976   3.593   8.576
11023SOL    HW135028   5.060   3.598   8.522
11023SOL    HW235029   4.953   3.497   8.594
11024SOL     OW35030   3.807   3.120   8.470
11024SOL    HW135031   3.802   3.119   8.570
11024SOL    HW235032   3.724   3.079   8.432
11025SOL     OW35033   4.627   1.948   7.581
11025SOL    HW135034   4.678   1.949   7.495
11025SOL    HW235035   4.683   1.906   7.652
11026SOL     OW35036   5.450   1.997   7.971
11026SOL    HW135037   5.523   1.980   7.904
11026SOL    HW235038   5.419   1.910   8.009
11027SOL     OW35039   5.112   3.435   7.925
11027SOL    HW135040   5.179   3.447   7.851
11027SOL    HW235041   5.072   3.524   7.948
11028SOL     OW35042   5.004   2.789   8.120
11028SOL    HW135043   5.064   2.708   8.122
11028SOL    HW235044   5.044   2.858   8.060
11029SOL     OW35045   4.396   3.478   7.602
11029SOL    HW135046   4.405   3.488   7.503
11029SOL    HW235047   4.356   3.389   7.623
11030SOL     OW35048   5.374   3.582   8.842
11030SOL    HW135049   5.427   3.592   8.758
11030SOL    HW235050   5.347   3.672   8.876
11031SOL     OW35051   5.565   2.037   8.411
11031SOL    HW135052   5.604   1.952   8.375
11031SOL    HW235053   5.467   2.039   8.392
11032SOL     OW35054   3.987   2.188   8.168
11032SOL    HW135055   3.908   2.239   8.134
11032SOL    HW235056   3.978   2.173   8.266
11033SOL     OW35057   4.918   3.474   7.479
11033SOL    HW135058   4.924   3.381   7.516
11033SOL    HW235059   4.859   3.474   7.399
11034SOL     OW35060   4.546   2.864   8.820
11034SOL    HW135061   4.586   2.863   8.728
11034SOL    HW235062   4.556   2.956   8.860
11035SOL     OW35063   4.640   2.772   7.739
11035SOL    HW135064   4.703   2.810   7.671
11035SOL    HW235065   4.680   2.689   7.778
11036SOL     OW35066   5.228   3.469   7.492
11036SOL    HW135067   5.136   3.506   7.499
11036SOL    HW235068   5.266   3.489   7.402
11037SOL     OW35069   4.096   3.150   8.938
11037SOL    HW135070   4.083   3.243   8.904
11037SOL    HW235071   4.012   3.098   8.925
11038SOL     OW35072   4.763   2.960   8.144
11038SOL    HW135073   4.693   2.913   8.198
11038SOL    HW235074   4.822   2.892   8.101
11039SOL     OW35075   4.738   2.098   8.419
11039SOL    HW135076   4.730   2.062   8.326
11039SOL    HW235077   4.736   2.022   8.484
11040SOL     OW35078   4.314   3.349   7.939
11040SOL    HW135079   4.356   3.291   7.869
11040SOL    HW235080   4.270   3.428   7.895
11041SOL     OW35081   5.433   2.247   8.829
11041SOL    HW135082   5.506   2.316   8.833
11041SOL    HW235083   5.461   2.172   8.770
11042SOL     OW35084   3.979   3.210   7.738
11042SOL    HW135085   3.883   3.211   7.711
11042SOL    HW235086   3.991   3.263   7.822
11043SOL     OW35087   3.799   2.207   7.481
11043SOL    HW135088   3.707   2.179   7.452
11043SOL    HW235089   3.830   2.284   7.425
11044SOL     OW35090   5.164   2.718   8.846
11044SOL    HW135091   5.107   2.770   8.783
11044SOL    HW235092   5.260   2.730   8.822
11045SOL     OW35093   3.796   2.028   7.766
11045SOL    HW135094   3.779   2.111   7.712
11045SOL    HW235095   3.886   1.991   7.744
11046SOL     OW35096   4.907   3.197   7.567
11046SOL    HW135097   4.808   3.186   7.569
11046SOL    HW235098   4.941   3.212   7.660
11047SOL     OW35099   4.337   2.704   8.879
11047SOL    HW135100   4.393   2.785   8.862
11047SOL    HW235101   4.396   2.624   8.882
11048SOL     OW35102   5.217   3.629   8.407
11048SOL    HW135103   5.250   3.693   8.338
11048SOL    HW235104   5.283   3.623   8.482
11049SOL     OW35105   4.114   3.603   0.008
11049SOL    HW135106   4.023   3.644   0.006
11049SOL    HW235107   4.107   3.509   0.040
11050SOL     OW35108   5.398   2.745   8.702
11050SOL    HW135109   5.371   2.656   8.665
11050SOL    HW235110   5.399   2.813   8.629
11051SOL     OW35111   4.949   2.187   7.897
11051SOL    HW135112   5.014   2.113   7.886
11051SOL    HW235113   4.969   2.237   7.981
11052SOL     OW35114   4.318   2.607   8.100
11052SOL    HW135115   4.368   2.692   8.081
11052SOL    HW235116   4.230   2.609   8.052
11053SOL     OW35117   5.501   2.204   0.090
11053SOL    HW135118   5.484   2.235  -0.004
11053SOL    HW235119   5.417   2.167   0.128
11054SOL     OW35120   5.454   2.796   8.965
11054SOL    HW135121   5.492   2.887   8.980
11054SOL    HW235122   5.446   2.779   8.866
11055SOL     OW35123   4.583   3.236   7.464
11055SOL    HW135124   4.537   3.251   7.552
11055SOL    HW235125   4.627   3.321   7.434
11056SOL     OW35126   4.385   3.652   8.401
11056SOL    HW135127   4.339   3.740   8.388
11056SOL    HW235128   4.484   3.664   8.394
11057SOL     OW35129   5.132   3.713   0.168
11057SOL    HW135130   5.036   3.702   0.141
11057SOL    HW235131   5.188   3.646   0.120
11058SOL     OW35132   4.583   2.818   8.309
11058SOL    HW135133   4.637   2.749   8.357
11058SOL    HW235134   4.551   2.887   8.375
11059SOL     OW35135   4.807   2.846   7.535
11059SOL    HW135136   4.784   2.899   7.453
11059SOL    HW235137   4.888   2.790   7.516
11060SOL     OW35138   3.803   3.102   8.101
11060SOL    HW135139   3.802   3.055   8.189
11060SOL    HW235140   3.885   3.074   8.050
11061SOL     OW35141   5.548   2.054   8.675
11061SOL    HW135142   5.544   1.964   8.719
11061SOL    HW235143   5.551   2.043   8.576
11062SOL     OW35144   4.152   2.286   7.968
11062SOL    HW135145   4.182   2.214   7.906
11062SOL    HW235146   4.113   2.246   8.051
11063SOL     OW35147   4.041   2.409   8.728
11063SOL    HW135148   4.079   2.350   8.800
11063SOL    HW235149   4.081   2.383   8.640
11064SOL     OW35150   4.536   3.448   8.135
11064SOL    HW135151   4.568   3.458   8.041
11064SOL    HW235152   4.457   3.386   8.137
11065SOL     OW35153   5.148   2.076   8.560
11065SOL    HW135154   5.200   2.011   8.615
11065SOL    HW235155   5.099   2.139   8.621
11066SOL     OW35156   4.725   1.896   8.602
11066SOL    HW135157   4.662   1.824   8.571
11066SOL    HW235158   4.818   1.860   8.602
11067SOL     OW35159   4.494   3.192   7.749
11067SOL    HW135160   4.448   3.105   7.766
11067SOL    HW235161   4.585   3.189   7.790
11068SOL     OW35162   4.342   3.429   8.732
11068SOL    HW135163   4.337   3.511   8.789
11068SOL    HW235164   4.431   3.426   8.687
11069SOL     OW35165   5.076   1.914   7.616
11069SOL    HW135166   5.111   1.873   7.532
11069SOL    HW235167   4.986   1.876   7.636
11070SOL     OW35168   5.024   2.315   8.139
11070SOL    HW135169   4.965   2.395   8.143
11070SOL    HW235170   5.039   2.280   8.232
11071SOL     OW35171   5.317   2.083   8.330
11071SOL    HW135172   5.233   2.082   8.384
11071SOL    HW235173   5.319   2.166   8.274
11072SOL     OW35174   3.763   2.939   7.748
11072SOL    HW135175   3.862   2.928   7.739
11072SOL    HW235176   3.723   2.853   7.780
11073SOL     OW35177   4.599   3.508   7.785
11073SOL    HW135178   4.522   3.473   7.731
11073SOL    HW235179   4.567   3.579   7.847
11074SOL     OW35180   3.954   4.352   0.113
11074SOL    HW135181   3.861   4.350   0.150
11074SOL    HW235182   3.955   4.313   0.021
11075SOL     OW35183   3.743   4.092   0.647
11075SOL    HW135184   3.661   4.135   0.686
11075SOL    HW235185   3.715   4.019   0.584
11076SOL     OW35186   4.293   4.999   1.165
11076SOL    HW135187   4.200   4.992   1.128
11076SOL    HW235188   4.304   5.088   1.209
11077SOL     OW35189   5.279   5.235   0.703
11077SOL    HW135190   5.222   5.219   0.784
11077SOL    HW235191   5.220   5.245   0.623
11078SOL     OW35192   5.467   4.342   0.856
11078SOL    HW135193   5.500   4.436   0.856
11078SOL    HW235194   5.518   4.288   0.922
11079SOL     OW35195   4.859   4.427   0.717
11079SOL    HW135196   4.916   4.505   0.692
11079SOL    HW235197   4.799   4.453   0.793
11080SOL     OW35198   5.479   4.331   0.231
11080SOL    HW135199   5.467   4.318   0.132
11080SOL    HW235200   5.449   4.250   0.280
11081SOL     OW35201   4.492   4.868   1.023
11081SOL    HW135202   4.414   4.885   1.083
11081SOL    HW235203   4.526   4.955   0.987
11082SOL     OW35204   4.409   4.736   0.665
11082SOL    HW135205   4.478   4.720   0.735
11082SOL    HW235206   4.336   4.793   0.703
11083SOL     OW35207   4.059   5.159   1.061
11083SOL    HW135208   3.981   5.128   1.008
11083SOL    HW235209   4.117   5.217   1.004
11084SOL     OW35210   4.162   4.116   1.499
11084SOL    HW135211   4.244   4.060   1.508
11084SOL    HW235212   4.081   4.058   1.503
11085SOL     OW35213   5.327   4.171   0.737
11085SOL    HW135214   5.253   4.217   0.687
11085SOL    HW235215   5.378   4.239   0.790
11086SOL     OW35216   3.955   5.437   0.483
11086SOL    HW135217   3.989   5.514   0.537
11086SOL    HW235218   3.999   5.437   0.393
11087SOL     OW35219   3.954   5.158   0.538
11087SOL    HW135220   3.928   5.254   0.538
11087SOL    HW235221   3.883   5.104   0.583
11088SOL     OW35222   3.964   4.815   0.886
11088SOL    HW135223   3.978   4.731   0.938
11088SOL    HW235224   3.909   4.879   0.941
11089SOL     OW35225   4.344   5.510   1.439
11089SOL    HW135226   4.252   5.493   1.474
11089SOL    HW235227   4.372   5.602   1.465
11090SOL     OW35228   4.330   4.688   0.123
11090SOL    HW135229   4.337   4.772   0.069
11090SOL    HW235230   4.376   4.701   0.211
11091SOL     OW35231   5.318   3.838   1.480
11091SOL    HW135232   5.300   3.905   1.408
11091SOL    HW235233   5.315   3.884   1.569
11092SOL     OW35234   3.846   4.367   0.563
11092SOL    HW135235   3.801   4.279   0.580
11092SOL    HW235236   3.845   4.421   0.647
11093SOL     OW35237   5.566   5.491   0.359
11093SOL    HW135238   5.620   5.462   0.439
11093SOL    HW235239   5.596   5.581   0.330
11094SOL     OW35240   5.413   4.646   0.612
11094SOL    HW135241   5.508   4.617   0.620
11094SOL    HW235242   5.405   4.711   0.537
11095SOL     OW35243   5.365   4.832   0.432
11095SOL    HW135244   5.451   4.834   0.380
11095SOL    HW235245   5.379   4.879   0.520
11096SOL     OW35246   4.337   5.089   0.726
11096SOL    HW135247   4.288   5.002   0.735
11096SOL    HW235248   4.314   5.132   0.639
11097SOL     OW35249   4.533   3.728   0.502
11097SOL    HW135250   4.573   3.819   0.493
11097SOL    HW235251   4.433   3.736   0.508
11098SOL     OW35252   3.921   4.700   1.264
11098SOL    HW135253   4.010   4.655   1.250
11098SOL    HW235254   3.848   4.635   1.245
11099SOL     OW35255   5.249   4.723   0.190
11099SOL    HW135256   5.186   4.647   0.203
11099SOL    HW235257   5.297   4.741   0.276
11100SOL     OW35258   4.911   5.516   1.616
11100SOL    HW135259   4.935   5.576   1.540
11100SOL    HW235260   4.918   5.421   1.586
11101SOL     OW35261   4.041   3.975   1.801
11101SOL    HW135262   4.112   4.046   1.807
11101SOL    HW235263   3.953   4.014   1.829
11102SOL     OW35264   5.190   5.141   0.953
11102SOL    HW135265   5.131   5.147   1.033
11102SOL    HW235266   5.175   5.053   0.907
11103SOL     OW35267   5.391   5.438   0.572
11103SOL    HW135268   5.350   5.415   0.484
11103SOL    HW235269   5.373   5.364   0.637
11104SOL     OW35270   4.322   4.453   0.270
11104SOL    HW135271   4.346   4.522   0.202
11104SOL    HW235272   4.244   4.486   0.324
11105SOL     OW35273   5.005   4.069   0.944
11105SOL    HW135274   4.919   4.019   0.931
11105SOL    HW235275   5.067   4.015   1.000
11106SOL     OW35276   5.300   5.386   0.307
11106SOL    HW135277   5.389   5.432   0.310
11106SOL    HW235278   5.279   5.362   0.212
11107SOL     OW35279   5.118   4.193   1.674
11107SOL    HW135280   5.098   4.236   1.762
11107SOL    HW235281   5.196   4.131   1.683
11108SOL     OW35282   4.715   4.134   1.242
11108SOL    HW135283   4.638   4.168   1.296
11108SOL    HW235284   4.681   4.083   1.163
11109SOL     OW35285   4.765   4.425   0.429
11109SOL    HW135286   4.791   4.421   0.525
11109SOL    HW235287   4.680   4.374   0.415
11110SOL     OW35288   3.800   4.535   0.789
11110SOL    HW135289   3.899   4.523   0.798
11110SOL    HW235290   3.776   4.630   0.810
11111SOL     OW35291   3.854   5.545   1.571
11111SOL    HW135292   3.844   5.530   1.670
11111SOL    HW235293   3.768   5.581   1.535
11112SOL     OW35294   4.589   4.072   0.195
11112SOL    HW135295   4.648   4.135   0.146
11112SOL    HW235296   4.608   3.978   0.166
11113SOL     OW35297   5.086   4.868   0.545
11113SOL    HW135298   5.169   4.839   0.497
11113SOL    HW235299   5.037   4.935   0.489
11114SOL     OW35300   4.274   3.920   0.885
11114SOL    HW135301   4.269   3.915   0.985
11114SOL    HW235302   4.276   4.016   0.856
11115SOL     OW35303   4.732   5.180   0.477
11115SOL    HW135304   4.686   5.252   0.425
11115SOL    HW235305   4.728   5.200   0.575
11116SOL     OW35306   4.075   5.525   0.853
11116SOL    HW135307   4.125   5.439   0.859
11116SOL    HW235308   4.140   5.602   0.850
11117SOL     OW35309   5.519   4.790   0.873
11117SOL    HW135310   5.457   4.775   0.797
11117SOL    HW235311   5.467   4.801   0.958
11118SOL     OW35312   4.951   5.274   1.506
11118SOL    HW135313   4.957   5.197   1.570
11118SOL    HW235314   4.899   5.248   1.426
11119SOL     OW35315   4.045   4.667   0.242
11119SOL    HW135316   4.127   4.706   0.200
11119SOL    HW235317   4.018   4.585   0.193
11120SOL     OW35318   5.182   4.459   0.728
11120SOL    HW135319   5.177   4.394   0.803
11120SOL    HW235320   5.262   4.518   0.741
11121SOL     OW35321   4.185   4.990   1.727
11121SOL    HW135322   4.135   4.991   1.641
11121SOL    HW235323   4.122   4.972   1.803
11122SOL     OW35324   4.835   5.500   0.237
11122SOL    HW135325   4.775   5.438   0.287
11122SOL    HW235326   4.866   5.456   0.152
11123SOL     OW35327   3.926   4.009   1.498
11123SOL    HW135328   3.846   4.069   1.485
11123SOL    HW235329   3.916   3.960   1.584
11124SOL     OW35330   5.356   5.101   0.081
11124SOL    HW135331   5.324   5.195   0.071
11124SOL    HW235332   5.280   5.038   0.069
11125SOL     OW35333   4.188   5.467   0.323
11125SOL    HW135334   4.221   5.506   0.409
11125SOL    HW235335   4.264   5.460   0.258
11126SOL     OW35336   5.124   3.831   0.426
11126SOL    HW135337   5.100   3.794   0.336
11126SOL    HW235338   5.223   3.847   0.430
11127SOL     OW35339   3.973   5.509   1.241
11127SOL    HW135340   4.030   5.444   1.291
11127SOL    HW235341   3.957   5.476   1.148
11128SOL     OW35342   4.664   5.422   0.904
11128SOL    HW135343   4.744   5.365   0.925
11128SOL    HW235344   4.615   5.382   0.827
11129SOL     OW35345   4.106   4.424   0.480
11129SOL    HW135346   4.151   4.334   0.477
11129SOL    HW235347   4.012   4.413   0.513
11130SOL     OW35348   5.271   3.946   1.729
11130SOL    HW135349   5.266   3.983   1.821
11130SOL    HW235350   5.199   3.877   1.717
11131SOL     OW35351   4.338   3.846   0.117
11131SOL    HW135352   4.436   3.824   0.124
11131SOL    HW235353   4.307   3.829   0.024
11132SOL     OW35354   4.612   5.238   1.195
11132SOL    HW135355   4.589   5.213   1.101
11132SOL    HW235356   4.673   5.169   1.234
11133SOL     OW35357   4.527   5.126   0.924
11133SOL    HW135358   4.617   5.140   0.882
11133SOL    HW235359   4.456   5.128   0.853
11134SOL     OW35360   4.646   4.227   0.899
11134SOL    HW135361   4.621   4.218   0.803
11134SOL    HW235362   4.694   4.145   0.930
11135SOL     OW35363   4.263   3.788   0.512
11135SOL    HW135364   4.182   3.789   0.570
11135SOL    HW235365   4.266   3.871   0.457
11136SOL     OW35366   5.158   4.912   0.041
11136SOL    HW135367   5.190   4.836   0.098
11136SOL    HW235368   5.066   4.939   0.071
11137SOL     OW35369   4.021   3.759   0.171
11137SOL    HW135370   4.070   3.843   0.150
11137SOL    HW235371   4.083   3.694   0.216
11138SOL     OW35372   4.659   3.960   0.480
11138SOL    HW135373   4.611   4.001   0.402
11138SOL    HW235374   4.758   3.958   0.461
11139SOL     OW35375   4.951   5.294   0.793
11139SOL    HW135376   4.972   5.368   0.728
11139SOL    HW235377   5.019   5.294   0.866
11140SOL     OW35378   4.183   4.876   0.741
11140SOL    HW135379   4.112   4.849   0.806
11140SOL    HW235380   4.157   4.848   0.648
11141SOL     OW35381   4.995   5.521   0.591
11141SOL    HW135382   5.039   5.585   0.527
11141SOL    HW235383   4.945   5.573   0.661
11142SOL     OW35384   4.756   4.273   0.016
11142SOL    HW135385   4.715   4.355  -0.023
11142SOL    HW235386   4.820   4.299   0.089
11143SOL     OW35387   4.590   4.178   0.642
11143SOL    HW135388   4.558   4.250   0.580
11143SOL    HW235389   4.614   4.097   0.589
11144SOL     OW35390   4.741   3.763   0.753
11144SOL    HW135391   4.669   3.768   0.684
11144SOL    HW235392   4.717   3.694   0.822
11145SOL     OW35393   5.153   4.897   0.867
11145SOL    HW135394   5.098   4.813   0.860
11145SOL    HW235395   5.179   4.926   0.775
11146SOL     OW35396   5.190   4.314   0.992
11146SOL    HW135397   5.160   4.219   0.999
11146SOL    HW235398   5.263   4.330   1.058
11147SOL     OW35399   5.581   4.557   0.377
11147SOL    HW135400   5.623   4.493   0.441
11147SOL    HW235401   5.543   4.506   0.299
11148SOL     OW35402   4.212   5.109   0.174
11148SOL    HW135403   4.125   5.094   0.221
11148SOL    HW235404   4.195   5.135   0.079
11149SOL     OW35405   5.388   5.004   0.657
11149SOL    HW135406   5.487   5.012   0.671
11149SOL    HW235407   5.343   5.088   0.688
11150SOL     OW35408   5.114   4.299   0.078
11150SOL    HW135409   5.060   4.278   0.159
11150SOL    HW235410   5.205   4.258   0.087
11151SOL     OW35411   4.251   3.980   0.328
11151SOL    HW135412   4.278   3.921   0.253
11151SOL    HW235413   4.251   4.075   0.297
11152SOL     OW35414   4.788   5.071   1.340
11152SOL    HW135415   4.708   5.048   1.395
11152SOL    HW235416   4.871   5.045   1.389
11153SOL     OW35417   5.316   5.353   1.625
11153SOL    HW135418   5.343   5.387   1.535
11153SOL    HW235419   5.395   5.315   1.671
11154SOL     OW35420   4.835   4.919   1.100
11154SOL    HW135421   4.795   4.963   1.181
11154SOL    HW235422   4.794   4.956   1.017
11155SOL     OW35423   5.362   4.823   1.079
11155SOL    HW135424   5.367   4.904   1.138
11155SOL    HW235425   5.276   4.825   1.028
11156SOL     OW35426   4.639   3.813   1.402
11156SOL    HW135427   4.664   3.793   1.307
11156SOL    HW235428   4.711   3.869   1.444
11157SOL     OW35429   4.429   4.774   0.368
11157SOL    HW135430   4.415   4.781   0.467
11157SOL    HW235431   4.513   4.723   0.350
11158SOL     OW35432   3.788   5.288   1.331
11158SOL    HW135433   3.742   5.370   1.297
11158SOL    HW235434   3.886   5.307   1.340
11159SOL     OW35435   4.091   4.824   0.501
11159SOL    HW135436   4.084   4.907   0.445
11159SOL    HW235437   4.095   4.744   0.441
11160SOL     OW35438   4.976   5.072   0.388
11160SOL    HW135439   5.026   5.149   0.428
11160SOL    HW235440   4.881   5.074   0.420
11161SOL     OW35441   4.996   5.169   1.142
11161SOL    HW135442   5.043   5.182   1.229
11161SOL    HW235443   4.930   5.095   1.151
11162SOL     OW35444   5.306   4.363   0.472
11162SOL    HW135445   5.275   4.424   0.545
11162SOL    HW235446   5.356   4.415   0.403
11163SOL     OW35447   4.078   5.234   1.329
11163SOL    HW135448   4.057   5.190   1.242
11163SOL    HW235449   4.175   5.260   1.332
11164SOL     OW35450   4.126   4.475   1.598
11164SOL    HW135451   4.194   4.530   1.551
11164SOL    HW235452   4.166   4.387   1.625
11165SOL     OW35453   4.228   3.774   1.740
11165SOL    HW135454   4.186   3.717   1.670
11165SOL    HW235455   4.162   3.843   1.772
11166SOL     OW35456   5.084   4.586   1.045
11166SOL    HW135457   5.009   4.586   0.979
11166SOL    HW235458   5.121   4.494   1.054
11167SOL     OW35459   4.933   4.249   0.275
11167SOL    HW135460   4.946   4.165   0.329
11167SOL    HW235461   4.904   4.323   0.335
11168SOL     OW35462   3.761   5.034   1.282
11168SOL    HW135463   3.814   4.985   1.350
11168SOL    HW235464   3.783   5.132   1.287
11169SOL     OW35465   4.031   3.787   0.618
11169SOL    HW135466   4.020   3.881   0.651
11169SOL    HW235467   4.026   3.724   0.695
11170SOL     OW35468   5.346   4.091   0.374
11170SOL    HW135469   5.348   4.015   0.438
11170SOL    HW235470   5.298   4.168   0.414
11171SOL     OW35471   4.704   5.297   1.700
11171SOL    HW135472   4.684   5.341   1.612
11171SOL    HW235473   4.743   5.206   1.684
11172SOL     OW35474   5.583   5.242   1.605
11172SOL    HW135475   5.597   5.269   1.510
11172SOL    HW235476   5.666   5.264   1.658
11173SOL     OW35477   4.074   4.622   1.804
11173SOL    HW135478   4.150   4.666   1.852
11173SOL    HW235479   4.109   4.575   1.722
11174SOL     OW35480   5.264   3.998   0.125
11174SOL    HW135481   5.203   3.923   0.148
11174SOL    HW235482   5.286   4.050   0.208
11175SOL     OW35483   5.027   4.562   0.042
11175SOL    HW135484   5.061   4.469   0.057
11175SOL    HW235485   5.045   4.589  -0.053
11176SOL     OW35486   4.792   5.057   0.849
11176SOL    HW135487   4.799   4.973   0.794
11176SOL    HW235488   4.854   5.126   0.813
11177SOL     OW35489   4.043   4.534   0.949
11177SOL    HW135490   4.136   4.570   0.954
11177SOL    HW235491   4.037   4.449   1.001
11178SOL     OW35492   4.235   4.139   1.808
11178SOL    HW135493   4.217   4.184   1.896
11178SOL    HW235494   4.277   4.204   1.745
11179SOL     OW35495   4.862   4.104   1.678
11179SOL    HW135496   4.817   4.167   1.742
11179SOL    HW235497   4.955   4.135   1.661
11180SOL     OW35498   4.884   3.931   1.477
11180SOL    HW135499   4.884   3.995   1.554
11180SOL    HW235500   4.912   3.979   1.394
11181SOL     OW35501   3.732   5.050   0.200
11181SOL    HW135502   3.639   5.071   0.169
11181SOL    HW235503   3.742   4.951   0.213
11182SOL     OW35504   3.812   5.525   0.927
11182SOL    HW135505   3.770   5.439   0.900
11182SOL    HW235506   3.906   5.528   0.893
11183SOL     OW35507   4.228   5.292   0.910
11183SOL    HW135508   4.294   5.366   0.919
11183SOL    HW235509   4.272   5.213   0.868
11184SOL     OW35510   4.726   4.520   1.238
11184SOL    HW135511   4.767   4.488   1.324
11184SOL    HW235512   4.630   4.493   1.235
11185SOL     OW35513   4.539   4.296   0.325
11185SOL    HW135514   4.546   4.207   0.279
11185SOL    HW235515   4.445   4.330   0.317
11186SOL     OW35516   5.381   4.328   1.206
11186SOL    HW135517   5.343   4.259   1.268
11186SOL    HW235518   5.463   4.292   1.162
11187SOL     OW35519   3.976   5.288   1.744
11187SOL    HW135520   3.946   5.345   1.820
11187SOL    HW235521   3.969   5.191   1.770
11188SOL     OW35522   4.654   5.402   1.465
11188SOL    HW135523   4.630   5.384   1.370
11188SOL    HW235524   4.684   5.496   1.475
11189SOL     OW35525   4.197   4.224   0.191
11189SOL    HW135526   4.258   4.304   0.195
11189SOL    HW235527   4.102   4.255   0.198
11190SOL     OW35528   3.883   4.861   1.466
11190SOL    HW135529   3.905   4.800   1.542
11190SOL    HW235530   3.893   4.812   1.380
11191SOL     OW35531   5.071   4.783   1.234
11191SOL    HW135532   5.095   4.720   1.160
11191SOL    HW235533   4.981   4.823   1.216
11192SOL     OW35534   5.026   4.579   0.309
11192SOL    HW135535   4.940   4.548   0.351
11192SOL    HW235536   5.022   4.565   0.210
11193SOL     OW35537   5.483   5.471   1.154
11193SOL    HW135538   5.544   5.501   1.081
11193SOL    HW235539   5.445   5.382   1.132
11194SOL     OW35540   4.976   5.455   1.128
11194SOL    HW135541   5.060   5.460   1.074
11194SOL    HW235542   4.953   5.359   1.146
11195SOL     OW35543   3.807   4.982   1.022
11195SOL    HW135544   3.802   4.981   1.122
11195SOL    HW235545   3.724   4.941   0.984
11196SOL     OW35546   4.412   5.386   1.716
11196SOL    HW135547   4.356   5.467   1.725
11196SOL    HW235548   4.464   5.390   1.630
11197SOL     OW35549   4.627   3.810   0.133
11197SOL    HW135550   4.678   3.811   0.047
11197SOL    HW235551   4.683   3.768   0.204
11198SOL     OW35552   5.450   3.859   0.523
11198SOL    HW135553   5.523   3.842   0.456
11198SOL    HW235554   5.419   3.772   0.561
11199SOL     OW35555   5.112   5.297   0.477
11199SOL    HW135556   5.179   5.309   0.403
11199SOL    HW235557   5.072   5.386   0.500
11200SOL     OW35558   3.854   5.518   1.851
11200SOL    HW135559   3.813   5.444   1.904
11200SOL    HW235560   3.918   5.569   1.909
11201SOL     OW35561   5.004   4.651   0.672
11201SOL    HW135562   5.064   4.570   0.674
11201SOL    HW235563   5.044   4.720   0.612
11202SOL     OW35564   4.554   4.997   1.422
11202SOL    HW135565   4.549   5.030   1.517
11202SOL    HW235566   4.468   5.016   1.376
11203SOL     OW35567   4.396   5.340   0.154
11203SOL    HW135568   4.405   5.350   0.055
11203SOL    HW235569   4.356   5.251   0.175
11204SOL     OW35570   5.374   5.444   1.394
11204SOL    HW135571   5.427   5.454   1.310
11204SOL    HW235572   5.347   5.534   1.428
11205SOL     OW35573   5.565   3.899   0.963
11205SOL    HW135574   5.604   3.814   0.927
11205SOL    HW235575   5.467   3.901   0.944
11206SOL     OW35576   3.987   4.050   0.720
11206SOL    HW135577   3.908   4.101   0.686
11206SOL    HW235578   3.978   4.035   0.818
11207SOL     OW35579   4.918   5.336   0.031
11207SOL    HW135580   4.924   5.243   0.068
11207SOL    HW235581   4.859   5.336  -0.049
11208SOL     OW35582   4.640   4.634   0.291
11208SOL    HW135583   4.703   4.672   0.223
11208SOL    HW235584   4.680   4.551   0.330
11209SOL     OW35585   5.228   5.331   0.044
11209SOL    HW135586   5.136   5.368   0.051
11209SOL    HW235587   5.266   5.351  -0.046
11210SOL     OW35588   4.096   5.012   1.490
11210SOL    HW135589   4.083   5.105   1.456
11210SOL    HW235590   4.012   4.960   1.477
11211SOL     OW35591   4.763   4.822   0.696
11211SOL    HW135592   4.693   4.775   0.750
11211SOL    HW235593   4.822   4.754   0.653
11212SOL     OW35594   4.738   3.960   0.971
11212SOL    HW135595   4.730   3.924   0.878
11212SOL    HW235596   4.736   3.884   1.036
11213SOL     OW35597   4.314   5.211   0.491
11213SOL    HW135598   4.356   5.153   0.421
11213SOL    HW235599   4.270   5.290   0.447
11214SOL     OW35600   5.433   4.109   1.381
11214SOL    HW135601   5.506   4.178   1.385
11214SOL    HW235602   5.461   4.034   1.322
11215SOL     OW35603   3.979   5.072   0.290
11215SOL    HW135604   3.883   5.073   0.263
11215SOL    HW235605   3.991   5.125   0.374
11216SOL     OW35606   3.829   4.737   1.726
11216SOL    HW135607   3.752   4.704   1.780
11216SOL    HW235608   3.914   4.707   1.768
11217SOL     OW35609   5.164   4.580   1.398
11217SOL    HW135610   5.107   4.632   1.335
11217SOL    HW235611   5.260   4.592   1.374
11218SOL     OW35612   3.796   3.890   0.318
11218SOL    HW135613   3.779   3.973   0.264
11218SOL    HW235614   3.886   3.853   0.296
11219SOL     OW35615   4.907   5.059   0.119
11219SOL    HW135616   4.808   5.048   0.121
11219SOL    HW235617   4.941   5.074   0.212
11220SOL     OW35618   5.217   5.491   0.959
11220SOL    HW135619   5.250   5.555   0.890
11220SOL    HW235620   5.283   5.485   1.034
11221SOL     OW35621   4.114   5.465   1.560
11221SOL    HW135622   4.023   5.506   1.558
11221SOL    HW235623   4.107   5.371   1.592
11222SOL     OW35624   5.398   4.607   1.254
11222SOL    HW135625   5.371   4.518   1.217
11222SOL    HW235626   5.399   4.675   1.181
11223SOL     OW35627   4.949   4.049   0.449
11223SOL    HW135628   5.014   3.975   0.438
11223SOL    HW235629   4.969   4.099   0.533
11224SOL     OW35630   4.318   4.469   0.652
11224SOL    HW135631   4.368   4.554   0.633
11224SOL    HW235632   4.230   4.471   0.604
11225SOL     OW35633   5.501   4.066   1.642
11225SOL    HW135634   5.484   4.097   1.548
11225SOL    HW235635   5.417   4.029   1.680
11226SOL     OW35636   4.583   5.098   0.016
11226SOL    HW135637   4.537   5.113   0.104
11226SOL    HW235638   4.627   5.183  -0.014
11227SOL     OW35639   4.385   5.514   0.953
11227SOL    HW135640   4.339   5.602   0.940
11227SOL    HW235641   4.484   5.526   0.946
11228SOL     OW35642   5.132   5.575   1.720
11228SOL    HW135643   5.036   5.564   1.693
11228SOL    HW235644   5.188   5.508   1.672
11229SOL     OW35645   4.807   4.708   0.087
11229SOL    HW135646   4.784   4.761   0.005
11229SOL    HW235647   4.888   4.652   0.068
11230SOL     OW35648   5.585   5.293   0.851
11230SOL    HW135649   5.514   5.281   0.781
11230SOL    HW235650   5.586   5.214   0.911
11231SOL     OW35651   3.945   5.038   1.844
11231SOL    HW135652   3.880   4.965   1.823
11231SOL    HW235653   3.949   5.052   1.942
11232SOL     OW35654   3.803   4.964   0.653
11232SOL    HW135655   3.802   4.917   0.741
11232SOL    HW235656   3.885   4.936   0.602
11233SOL     OW35657   4.396   5.115   1.624
11233SOL    HW135658   4.318   5.065   1.662
11233SOL    HW235659   4.393   5.210   1.655
11234SOL     OW35660   5.548   3.916   1.227
11234SOL    HW135661   5.544   3.826   1.271
11234SOL    HW235662   5.551   3.905   1.128
11235SOL     OW35663   4.152   4.148   0.520
11235SOL    HW135664   4.182   4.076   0.458
11235SOL    HW235665   4.113   4.108   0.603
11236SOL     OW35666   5.429   5.211   1.104
11236SOL    HW135667   5.336   5.186   1.077
11236SOL    HW235668   5.455   5.161   1.186
11237SOL     OW35669   4.536   5.310   0.687
11237SOL    HW135670   4.568   5.320   0.593
11237SOL    HW235671   4.457   5.248   0.689
11238SOL     OW35672   5.148   3.938   1.112
11238SOL    HW135673   5.200   3.873   1.167
11238SOL    HW235674   5.099   4.001   1.173
11239SOL     OW35675   4.725   3.758   1.154
11239SOL    HW135676   4.662   3.686   1.123
11239SOL    HW235677   4.818   3.722   1.154
11240SOL     OW35678   4.494   5.054   0.301
11240SOL    HW135679   4.448   4.967   0.318
11240SOL    HW235680   4.585   5.051   0.342
11241SOL     OW35681   4.342   5.291   1.284
11241SOL    HW135682   4.337   5.373   1.341
11241SOL    HW235683   4.431   5.288   1.239
11242SOL     OW35684   5.024   4.177   0.691
11242SOL    HW135685   4.965   4.257   0.695
11242SOL    HW235686   5.039   4.142   0.784
11243SOL     OW35687   5.317   3.945   0.882
11243SOL    HW135688   5.233   3.944   0.936
11243SOL    HW235689   5.319   4.028   0.826
11244SOL     OW35690   3.763   4.801   0.300
11244SOL    HW135691   3.862   4.790   0.291
11244SOL    HW235692   3.723   4.715   0.332
11245SOL     OW35693   4.599   5.370   0.337
11245SOL    HW135694   4.522   5.335   0.283
11245SOL    HW235695   4.567   5.441   0.399
11246SOL     OW35696   3.954   4.352   1.975
11246SOL    HW135697   3.861   4.350   2.012
11246SOL    HW235698   3.955   4.313   1.883
11247SOL     OW35699   3.949   3.999   2.858
11247SOL    HW135700   3.984   3.982   2.950
11247SOL    HW235701   3.861   3.954   2.846
11248SOL     OW35702   3.743   4.092   2.509
11248SOL    HW135703   3.661   4.135   2.548
11248SOL    HW235704   3.715   4.019   2.446
11249SOL     OW35705   4.293   4.999   3.027
11249SOL    HW135706   4.200   4.992   2.990
11249SOL    HW235707   4.304   5.088   3.071
11250SOL     OW35708   5.279   5.235   2.565
11250SOL    HW135709   5.222   5.219   2.646
11250SOL    HW235710   5.220   5.245   2.485
11251SOL     OW35711   5.467   4.342   2.718
11251SOL    HW135712   5.500   4.436   2.718
11251SOL    HW235713   5.518   4.288   2.784
11252SOL     OW35714   4.859   4.427   2.579
11252SOL    HW135715   4.916   4.505   2.554
11252SOL    HW235716   4.799   4.453   2.655
11253SOL     OW35717   4.492   4.868   2.885
11253SOL    HW135718   4.414   4.885   2.945
11253SOL    HW235719   4.526   4.955   2.849
11254SOL     OW35720   4.574   4.522   3.685
11254SOL    HW135721   4.570   4.598   3.750
11254SOL    HW235722   4.596   4.558   3.594
11255SOL     OW35723   4.409   4.736   2.527
11255SOL    HW135724   4.478   4.720   2.597
11255SOL    HW235725   4.336   4.793   2.565
11256SOL     OW35726   4.410   4.885   3.665
11256SOL    HW135727   4.470   4.964   3.679
11256SOL    HW235728   4.324   4.916   3.624
11257SOL     OW35729   4.059   5.159   2.923
11257SOL    HW135730   3.981   5.128   2.870
11257SOL    HW235731   4.117   5.217   2.866
11258SOL     OW35732   5.184   5.229   3.201
11258SOL    HW135733   5.208   5.323   3.227
11258SOL    HW235734   5.168   5.175   3.283
11259SOL     OW35735   4.162   4.116   3.361
11259SOL    HW135736   4.244   4.060   3.370
11259SOL    HW235737   4.081   4.058   3.365
11260SOL     OW35738   5.327   4.171   2.599
11260SOL    HW135739   5.253   4.217   2.549
11260SOL    HW235740   5.378   4.239   2.652
11261SOL     OW35741   3.955   5.437   2.345
11261SOL    HW135742   3.989   5.514   2.399
11261SOL    HW235743   3.999   5.437   2.255
11262SOL     OW35744   4.851   5.065   3.552
11262SOL    HW135745   4.898   5.065   3.640
11262SOL    HW235746   4.803   4.978   3.541
11263SOL     OW35747   3.954   5.158   2.400
11263SOL    HW135748   3.928   5.254   2.400
11263SOL    HW235749   3.883   5.104   2.445
11264SOL     OW35750   3.964   4.815   2.748
11264SOL    HW135751   3.978   4.731   2.800
11264SOL    HW235752   3.909   4.879   2.803
11265SOL     OW35753   4.344   5.510   3.301
11265SOL    HW135754   4.252   5.493   3.336
11265SOL    HW235755   4.372   5.602   3.327
11266SOL     OW35756   4.330   4.688   1.985
11266SOL    HW135757   4.337   4.772   1.931
11266SOL    HW235758   4.376   4.701   2.073
11267SOL     OW35759   5.318   3.838   3.342
11267SOL    HW135760   5.300   3.905   3.270
11267SOL    HW235761   5.315   3.884   3.431
11268SOL     OW35762   3.846   4.367   2.425
11268SOL    HW135763   3.801   4.279   2.442
11268SOL    HW235764   3.845   4.421   2.509
11269SOL     OW35765   5.566   5.491   2.221
11269SOL    HW135766   5.620   5.462   2.301
11269SOL    HW235767   5.596   5.581   2.192
11270SOL     OW35768   3.751   5.320   1.979
11270SOL    HW135769   3.732   5.224   2.000
11270SOL    HW235770   3.718   5.378   2.054
11271SOL     OW35771   5.413   4.646   2.474
11271SOL    HW135772   5.508   4.617   2.482
11271SOL    HW235773   5.405   4.711   2.399
11272SOL     OW35774   5.365   4.832   2.294
11272SOL    HW135775   5.451   4.834   2.242
11272SOL    HW235776   5.379   4.879   2.382
11273SOL     OW35777   3.837   4.461   3.459
11273SOL    HW135778   3.925   4.448   3.504
11273SOL    HW235779   3.824   4.558   3.437
11274SOL     OW35780   4.337   5.089   2.588
11274SOL    HW135781   4.288   5.002   2.597
11274SOL    HW235782   4.314   5.132   2.501
11275SOL     OW35783   5.017   4.952   3.285
11275SOL    HW135784   5.054   4.879   3.227
11275SOL    HW235785   5.069   4.957   3.370
11276SOL     OW35786   4.533   3.728   2.364
11276SOL    HW135787   4.573   3.819   2.355
11276SOL    HW235788   4.433   3.736   2.370
11277SOL     OW35789   3.921   4.700   3.126
11277SOL    HW135790   4.010   4.655   3.112
11277SOL    HW235791   3.848   4.635   3.107
11278SOL     OW35792   4.911   5.516   3.478
11278SOL    HW135793   4.935   5.576   3.402
11278SOL    HW235794   4.918   5.421   3.448
11279SOL     OW35795   4.041   3.975   3.663
11279SOL    HW135796   4.112   4.046   3.669
11279SOL    HW235797   3.953   4.014   3.691
11280SOL     OW35798   5.190   5.141   2.815
11280SOL    HW135799   5.131   5.147   2.895
11280SOL    HW235800   5.175   5.053   2.769
11281SOL     OW35801   5.391   5.438   2.434
11281SOL    HW135802   5.350   5.415   2.346
11281SOL    HW235803   5.373   5.364   2.499
11282SOL     OW35804   4.322   4.453   2.132
11282SOL    HW135805   4.346   4.522   2.064
11282SOL    HW235806   4.244   4.486   2.186
11283SOL     OW35807   5.005   4.069   2.806
11283SOL    HW135808   4.919   4.019   2.793
11283SOL    HW235809   5.067   4.015   2.862
11284SOL     OW35810   5.300   5.386   2.169
11284SOL    HW135811   5.389   5.432   2.172
11284SOL    HW235812   5.279   5.362   2.074
11285SOL     OW35813   4.531   4.329   3.327
11285SOL    HW135814   4.484   4.326   3.416
11285SOL    HW235815   4.480   4.274   3.261
11286SOL     OW35816   5.118   4.193   3.536
11286SOL    HW135817   5.098   4.236   3.624
11286SOL    HW235818   5.196   4.131   3.545
11287SOL     OW35819   4.697   4.614   3.434
11287SOL    HW135820   4.743   4.530   3.405
11287SOL    HW235821   4.641   4.648   3.359
11288SOL     OW35822   4.715   4.134   3.104
11288SOL    HW135823   4.638   4.168   3.158
11288SOL    HW235824   4.681   4.083   3.025
11289SOL     OW35825   4.765   4.425   2.291
11289SOL    HW135826   4.791   4.421   2.387
11289SOL    HW235827   4.680   4.374   2.277
11290SOL     OW35828   3.800   4.535   2.651
11290SOL    HW135829   3.899   4.523   2.660
11290SOL    HW235830   3.776   4.630   2.672
11291SOL     OW35831   3.854   5.545   3.433
11291SOL    HW135832   3.844   5.530   3.532
11291SOL    HW235833   3.768   5.581   3.397
11292SOL     OW35834   4.589   4.072   2.057
11292SOL    HW135835   4.648   4.135   2.008
11292SOL    HW235836   4.608   3.978   2.028
11293SOL     OW35837   5.443   4.309   3.693
11293SOL    HW135838   5.417   4.398   3.657
11293SOL    HW235839   5.441   4.241   3.620
11294SOL     OW35840   5.086   4.868   2.407
11294SOL    HW135841   5.169   4.839   2.359
11294SOL    HW235842   5.037   4.935   2.351
11295SOL     OW35843   4.274   3.920   2.747
11295SOL    HW135844   4.269   3.915   2.847
11295SOL    HW235845   4.276   4.016   2.718
11296SOL     OW35846   4.732   5.180   2.339
11296SOL    HW135847   4.686   5.252   2.287
11296SOL    HW235848   4.728   5.200   2.437
11297SOL     OW35849   4.075   5.525   2.715
11297SOL    HW135850   4.125   5.439   2.721
11297SOL    HW235851   4.140   5.602   2.712
11298SOL     OW35852   5.519   4.790   2.735
11298SOL    HW135853   5.457   4.775   2.659
11298SOL    HW235854   5.467   4.801   2.820
11299SOL     OW35855   4.951   5.274   3.368
11299SOL    HW135856   4.957   5.197   3.432
11299SOL    HW235857   4.899   5.248   3.288
11300SOL     OW35858   4.045   4.667   2.104
11300SOL    HW135859   4.127   4.706   2.062
11300SOL    HW235860   4.018   4.585   2.055
11301SOL     OW35861   5.182   4.459   2.590
11301SOL    HW135862   5.177   4.394   2.665
11301SOL    HW235863   5.262   4.518   2.603
11302SOL     OW35864   4.185   4.990   3.589
11302SOL    HW135865   4.135   4.991   3.503
11302SOL    HW235866   4.122   4.972   3.665
11303SOL     OW35867   4.835   5.500   2.099
11303SOL    HW135868   4.775   5.438   2.149
11303SOL    HW235869   4.866   5.456   2.014
11304SOL     OW35870   3.926   4.009   3.360
11304SOL    HW135871   3.846   4.069   3.347
11304SOL    HW235872   3.916   3.960   3.446
11305SOL     OW35873   4.188   5.467   2.185
11305SOL    HW135874   4.221   5.506   2.271
11305SOL    HW235875   4.264   5.460   2.120
11306SOL     OW35876   5.124   3.831   2.288
11306SOL    HW135877   5.100   3.794   2.198
11306SOL    HW235878   5.223   3.847   2.292
11307SOL     OW35879   3.973   5.509   3.103
11307SOL    HW135880   4.030   5.444   3.153
11307SOL    HW235881   3.957   5.476   3.010
11308SOL     OW35882   4.664   5.422   2.766
11308SOL    HW135883   4.744   5.365   2.787
11308SOL    HW235884   4.615   5.382   2.689
11309SOL     OW35885   4.106   4.424   2.342
11309SOL    HW135886   4.151   4.334   2.339
11309SOL    HW235887   4.012   4.413   2.375
11310SOL     OW35888   4.338   3.846   1.979
11310SOL    HW135889   4.436   3.824   1.986
11310SOL    HW235890   4.307   3.829   1.886
11311SOL     OW35891   4.505   3.988   3.611
11311SOL    HW135892   4.572   3.927   3.654
11311SOL    HW235893   4.432   4.007   3.676
11312SOL     OW35894   4.612   5.238   3.057
11312SOL    HW135895   4.589   5.213   2.963
11312SOL    HW235896   4.673   5.169   3.096
11313SOL     OW35897   5.075   4.314   3.295
11313SOL    HW135898   5.103   4.271   3.380
11313SOL    HW235899   5.100   4.410   3.296
11314SOL     OW35900   4.527   5.126   2.786
11314SOL    HW135901   4.617   5.140   2.744
11314SOL    HW235902   4.456   5.128   2.715
11315SOL     OW35903   4.646   4.227   2.761
11315SOL    HW135904   4.621   4.218   2.665
11315SOL    HW235905   4.694   4.145   2.792
11316SOL     OW35906   4.263   3.788   2.374
11316SOL    HW135907   4.182   3.789   2.432
11316SOL    HW235908   4.266   3.871   2.319
11317SOL     OW35909   5.158   4.912   1.903
11317SOL    HW135910   5.190   4.836   1.960
11317SOL    HW235911   5.066   4.939   1.933
11318SOL     OW35912   4.021   3.759   2.033
11318SOL    HW135913   4.070   3.843   2.012
11318SOL    HW235914   4.083   3.694   2.078
11319SOL     OW35915   4.659   3.960   2.342
11319SOL    HW135916   4.611   4.001   2.264
11319SOL    HW235917   4.758   3.958   2.323
11320SOL     OW35918   4.800   4.407   3.326
11320SOL    HW135919   4.720   4.346   3.329
11320SOL    HW235920   4.881   4.354   3.302
11321SOL     OW35921   4.951   5.294   2.655
11321SOL    HW135922   4.972   5.368   2.590
11321SOL    HW235923   5.019   5.294   2.728
11322SOL     OW35924   4.183   4.876   2.603
11322SOL    HW135925   4.112   4.849   2.668
11322SOL    HW235926   4.157   4.848   2.510
11323SOL     OW35927   4.995   5.521   2.453
11323SOL    HW135928   5.039   5.585   2.389
11323SOL    HW235929   4.945   5.573   2.523
11324SOL     OW35930   3.802   4.280   3.248
11324SOL    HW135931   3.894   4.279   3.207
11324SOL    HW235932   3.796   4.354   3.315
11325SOL     OW35933   4.285   3.946   3.009
11325SOL    HW135934   4.323   3.862   3.046
11325SOL    HW235935   4.197   3.965   3.053
11326SOL     OW35936   4.590   4.178   2.504
11326SOL    HW135937   4.558   4.250   2.442
11326SOL    HW235938   4.614   4.097   2.451
11327SOL     OW35939   4.741   3.763   2.615
11327SOL    HW135940   4.669   3.768   2.546
11327SOL    HW235941   4.717   3.694   2.684
11328SOL     OW35942   5.153   4.897   2.729
11328SOL    HW135943   5.098   4.813   2.722
11328SOL    HW235944   5.179   4.926   2.637
11329SOL     OW35945   5.190   4.314   2.854
11329SOL    HW135946   5.160   4.219   2.861
11329SOL    HW235947   5.263   4.330   2.920
11330SOL     OW35948   5.581   4.557   2.239
11330SOL    HW135949   5.623   4.493   2.303
11330SOL    HW235950   5.543   4.506   2.161
11331SOL     OW35951   4.212   5.109   2.036
11331SOL    HW135952   4.125   5.094   2.083
11331SOL    HW235953   4.195   5.135   1.941
11332SOL     OW35954   5.388   5.004   2.519
11332SOL    HW135955   5.487   5.012   2.533
11332SOL    HW235956   5.343   5.088   2.550
11333SOL     OW35957   4.251   3.980   2.190
11333SOL    HW135958   4.278   3.921   2.115
11333SOL    HW235959   4.251   4.075   2.159
11334SOL     OW35960   5.478   4.947   3.450
11334SOL    HW135961   5.569   4.908   3.437
11334SOL    HW235962   5.486   5.043   3.474
11335SOL     OW35963   4.788   5.071   3.202
11335SOL    HW135964   4.708   5.048   3.257
11335SOL    HW235965   4.871   5.045   3.251
11336SOL     OW35966   5.316   5.353   3.487
11336SOL    HW135967   5.343   5.387   3.397
11336SOL    HW235968   5.395   5.315   3.533
11337SOL     OW35969   4.835   4.919   2.962
11337SOL    HW135970   4.795   4.963   3.043
11337SOL    HW235971   4.794   4.956   2.879
11338SOL     OW35972   5.362   4.823   2.941
11338SOL    HW135973   5.367   4.904   3.000
11338SOL    HW235974   5.276   4.825   2.890
11339SOL     OW35975   4.704   4.840   3.581
11339SOL    HW135976   4.605   4.846   3.591
11339SOL    HW235977   4.727   4.760   3.525
11340SOL     OW35978   4.429   4.774   2.230
11340SOL    HW135979   4.415   4.781   2.329
11340SOL    HW235980   4.513   4.723   2.212
11341SOL     OW35981   4.134   4.537   3.113
11341SOL    HW135982   4.220   4.549   3.163
11341SOL    HW235983   4.092   4.450   3.140
11342SOL     OW35984   4.998   4.110   3.124
11342SOL    HW135985   5.019   4.184   3.188
11342SOL    HW235986   4.909   4.127   3.081
11343SOL     OW35987   3.788   5.288   3.193
11343SOL    HW135988   3.742   5.370   3.159
11343SOL    HW235989   3.886   5.307   3.202
11344SOL     OW35990   4.091   4.824   2.363
11344SOL    HW135991   4.084   4.907   2.307
11344SOL    HW235992   4.095   4.744   2.303
11345SOL     OW35993   4.290   4.261   2.727
11345SOL    HW135994   4.302   4.327   2.653
11345SOL    HW235995   4.336   4.295   2.810
11346SOL     OW35996   4.976   5.072   2.250
11346SOL    HW135997   5.026   5.149   2.290
11346SOL    HW235998   4.881   5.074   2.282
11347SOL     OW35999   4.996   5.169   3.004
11347SOL    HW136000   5.043   5.182   3.091
11347SOL    HW236001   4.930   5.095   3.013
11348SOL     OW36002   5.306   4.363   2.334
11348SOL    HW136003   5.275   4.424   2.407
11348SOL    HW236004   5.356   4.415   2.265
11349SOL     OW36005   4.078   5.234   3.191
11349SOL    HW136006   4.057   5.190   3.104
11349SOL    HW236007   4.175   5.260   3.194
11350SOL     OW36008   4.126   4.475   3.460
11350SOL    HW136009   4.194   4.530   3.413
11350SOL    HW236010   4.166   4.387   3.487
11351SOL     OW36011   5.311   4.503   3.532
11351SOL    HW136012   5.219   4.541   3.527
11351SOL    HW236013   5.371   4.550   3.467
11352SOL     OW36014   4.228   3.774   3.602
11352SOL    HW136015   4.186   3.717   3.532
11352SOL    HW236016   4.162   3.843   3.634
11353SOL     OW36017   4.297   4.594   2.891
11353SOL    HW136018   4.341   4.683   2.882
11353SOL    HW236019   4.234   4.594   2.968
11354SOL     OW36020   5.084   4.586   2.907
11354SOL    HW136021   5.009   4.586   2.841
11354SOL    HW236022   5.121   4.494   2.916
11355SOL     OW36023   4.933   4.249   2.137
11355SOL    HW136024   4.946   4.165   2.191
11355SOL    HW236025   4.904   4.323   2.197
11356SOL     OW36026   4.031   3.937   3.093
11356SOL    HW136027   4.008   3.974   3.183
11356SOL    HW236028   4.001   3.842   3.087
11357SOL     OW36029   3.761   5.034   3.144
11357SOL    HW136030   3.814   4.985   3.212
11357SOL    HW236031   3.783   5.132   3.149
11358SOL     OW36032   4.456   4.358   2.926
11358SOL    HW136033   4.515   4.332   2.850
11358SOL    HW236034   4.428   4.454   2.915
11359SOL     OW36035   5.452   4.659   3.716
11359SOL    HW136036   5.406   4.652   3.627
11359SOL    HW236037   5.390   4.703   3.782
11360SOL     OW36038   4.031   3.787   2.480
11360SOL    HW136039   4.020   3.881   2.513
11360SOL    HW236040   4.026   3.724   2.557
11361SOL     OW36041   5.346   4.091   2.236
11361SOL    HW136042   5.348   4.015   2.300
11361SOL    HW236043   5.298   4.168   2.276
11362SOL     OW36044   4.747   4.490   2.828
11362SOL    HW136045   4.762   4.511   2.924
11362SOL    HW236046   4.717   4.395   2.819
11363SOL     OW36047   4.704   5.297   3.562
11363SOL    HW136048   4.684   5.341   3.474
11363SOL    HW236049   4.743   5.206   3.546
11364SOL     OW36050   5.583   5.242   3.467
11364SOL    HW136051   5.597   5.269   3.372
11364SOL    HW236052   5.666   5.264   3.520
11365SOL     OW36053   4.074   4.622   3.666
11365SOL    HW136054   4.150   4.666   3.714
11365SOL    HW236055   4.109   4.575   3.584
11366SOL     OW36056   5.264   3.998   1.987
11366SOL    HW136057   5.203   3.923   2.010
11366SOL    HW236058   5.286   4.050   2.070
11367SOL     OW36059   4.792   5.057   2.711
11367SOL    HW136060   4.799   4.973   2.656
11367SOL    HW236061   4.854   5.126   2.675
11368SOL     OW36062   4.043   4.534   2.811
11368SOL    HW136063   4.136   4.570   2.816
11368SOL    HW236064   4.037   4.449   2.863
11369SOL     OW36065   4.063   4.233   2.868
11369SOL    HW136066   4.011   4.150   2.851
11369SOL    HW236067   4.140   4.238   2.804
11370SOL     OW36068   4.235   4.139   3.670
11370SOL    HW136069   4.217   4.184   3.758
11370SOL    HW236070   4.277   4.204   3.607
11371SOL     OW36071   4.862   4.104   3.540
11371SOL    HW136072   4.817   4.167   3.604
11371SOL    HW236073   4.955   4.135   3.523
11372SOL     OW36074   3.732   5.050   2.062
11372SOL    HW136075   3.639   5.071   2.031
11372SOL    HW236076   3.742   4.951   2.075
11373SOL     OW36077   3.812   5.525   2.789
11373SOL    HW136078   3.770   5.439   2.762
11373SOL    HW236079   3.906   5.528   2.755
11374SOL     OW36080   4.228   5.292   2.772
11374SOL    HW136081   4.294   5.366   2.781
11374SOL    HW236082   4.272   5.213   2.730
11375SOL     OW36083   4.726   4.520   3.100
11375SOL    HW136084   4.767   4.488   3.186
11375SOL    HW236085   4.630   4.493   3.097
11376SOL     OW36086   3.764   4.268   2.976
11376SOL    HW136087   3.849   4.235   2.935
11376SOL    HW236088   3.777   4.283   3.074
11377SOL     OW36089   3.913   4.244   3.584
11377SOL    HW136090   3.972   4.204   3.514
11377SOL    HW236091   3.855   4.315   3.543
11378SOL     OW36092   5.093   4.674   3.522
11378SOL    HW136093   5.132   4.763   3.542
11378SOL    HW236094   5.103   4.654   3.425
11379SOL     OW36095   4.539   4.296   2.187
11379SOL    HW136096   4.546   4.207   2.141
11379SOL    HW236097   4.445   4.330   2.179
11380SOL     OW36098   5.381   4.328   3.068
11380SOL    HW136099   5.343   4.259   3.130
11380SOL    HW236100   5.463   4.292   3.024
11381SOL     OW36101   3.976   5.288   3.606
11381SOL    HW136102   3.946   5.345   3.682
11381SOL    HW236103   3.969   5.191   3.632
11382SOL     OW36104   4.395   4.188   3.131
11382SOL    HW136105   4.361   4.099   3.101
11382SOL    HW236106   4.421   4.242   3.051
11383SOL     OW36107   4.654   5.402   3.327
11383SOL    HW136108   4.630   5.384   3.232
11383SOL    HW236109   4.684   5.496   3.337
11384SOL     OW36110   4.197   4.224   2.053
11384SOL    HW136111   4.258   4.304   2.057
11384SOL    HW236112   4.102   4.255   2.060
11385SOL     OW36113   3.883   4.861   3.328
11385SOL    HW136114   3.905   4.800   3.404
11385SOL    HW236115   3.893   4.812   3.242
11386SOL     OW36116   5.071   4.783   3.096
11386SOL    HW136117   5.095   4.720   3.022
11386SOL    HW236118   4.981   4.823   3.078
11387SOL     OW36119   5.483   5.471   3.016
11387SOL    HW136120   5.544   5.501   2.943
11387SOL    HW236121   5.445   5.382   2.994
11388SOL     OW36122   4.976   5.455   2.990
11388SOL    HW136123   5.060   5.460   2.936
11388SOL    HW236124   4.953   5.359   3.008
11389SOL     OW36125   3.807   4.982   2.884
11389SOL    HW136126   3.802   4.981   2.984
11389SOL    HW236127   3.724   4.941   2.846
11390SOL     OW36128   4.412   5.386   3.578
11390SOL    HW136129   4.356   5.467   3.587
11390SOL    HW236130   4.464   5.390   3.492
11391SOL     OW36131   4.627   3.810   1.995
11391SOL    HW136132   4.678   3.811   1.909
11391SOL    HW236133   4.683   3.768   2.066
11392SOL     OW36134   5.450   3.859   2.385
11392SOL    HW136135   5.523   3.842   2.318
11392SOL    HW236136   5.419   3.772   2.423
11393SOL     OW36137   5.112   5.297   2.339
11393SOL    HW136138   5.179   5.309   2.265
11393SOL    HW236139   5.072   5.386   2.362
11394SOL     OW36140   3.854   5.518   3.713
11394SOL    HW136141   3.813   5.444   3.766
11394SOL    HW236142   3.918   5.569   3.771
11395SOL     OW36143   5.004   4.651   2.534
11395SOL    HW136144   5.064   4.570   2.536
11395SOL    HW236145   5.044   4.720   2.474
11396SOL     OW36146   4.554   4.997   3.284
11396SOL    HW136147   4.549   5.030   3.379
11396SOL    HW236148   4.468   5.016   3.238
11397SOL     OW36149   4.396   5.340   2.016
11397SOL    HW136150   4.405   5.350   1.917
11397SOL    HW236151   4.356   5.251   2.037
11398SOL     OW36152   5.374   5.444   3.256
11398SOL    HW136153   5.427   5.454   3.172
11398SOL    HW236154   5.347   5.534   3.290
11399SOL     OW36155   5.565   3.899   2.825
11399SOL    HW136156   5.604   3.814   2.789
11399SOL    HW236157   5.467   3.901   2.806
11400SOL     OW36158   3.987   4.050   2.582
11400SOL    HW136159   3.908   4.101   2.548
11400SOL    HW236160   3.978   4.035   2.680
11401SOL     OW36161   4.918   5.336   1.893
11401SOL    HW136162   4.924   5.243   1.930
11401SOL    HW236163   4.859   5.336   1.813
11402SOL     OW36164   4.546   4.726   3.234
11402SOL    HW136165   4.586   4.725   3.142
11402SOL    HW236166   4.556   4.818   3.274
11403SOL     OW36167   5.228   5.331   1.906
11403SOL    HW136168   5.136   5.368   1.913
11403SOL    HW236169   5.266   5.351   1.816
11404SOL     OW36170   4.096   5.012   3.352
11404SOL    HW136171   4.083   5.105   3.318
11404SOL    HW236172   4.012   4.960   3.339
11405SOL     OW36173   5.338   5.016   3.151
11405SOL    HW136174   5.398   5.019   3.231
11405SOL    HW236175   5.263   5.080   3.164
11406SOL     OW36176   4.763   4.822   2.558
11406SOL    HW136177   4.693   4.775   2.612
11406SOL    HW236178   4.822   4.754   2.515
11407SOL     OW36179   4.738   3.960   2.833
11407SOL    HW136180   4.730   3.924   2.740
11407SOL    HW236181   4.736   3.884   2.898
11408SOL     OW36182   4.314   5.211   2.353
11408SOL    HW136183   4.356   5.153   2.283
11408SOL    HW236184   4.270   5.290   2.309
11409SOL     OW36185   5.433   4.109   3.243
11409SOL    HW136186   5.506   4.178   3.247
11409SOL    HW236187   5.461   4.034   3.184
11410SOL     OW36188   3.979   5.072   2.152
11410SOL    HW136189   3.883   5.073   2.125
11410SOL    HW236190   3.991   5.125   2.236
11411SOL     OW36191   3.829   4.737   3.588
11411SOL    HW136192   3.752   4.704   3.642
11411SOL    HW236193   3.914   4.707   3.630
11412SOL     OW36194   4.396   3.927   3.351
11412SOL    HW136195   4.486   3.911   3.311
11412SOL    HW236196   4.404   3.932   3.450
11413SOL     OW36197   3.799   4.069   1.895
11413SOL    HW136198   3.707   4.041   1.866
11413SOL    HW236199   3.830   4.146   1.839
11414SOL     OW36200   5.164   4.580   3.260
11414SOL    HW136201   5.107   4.632   3.197
11414SOL    HW236202   5.260   4.592   3.236
11415SOL     OW36203   3.796   3.890   2.180
11415SOL    HW136204   3.779   3.973   2.126
11415SOL    HW236205   3.886   3.853   2.158
11416SOL     OW36206   4.907   5.059   1.981
11416SOL    HW136207   4.808   5.048   1.983
11416SOL    HW236208   4.941   5.074   2.074
11417SOL     OW36209   4.337   4.566   3.293
11417SOL    HW136210   4.393   4.647   3.276
11417SOL    HW236211   4.396   4.486   3.296
11418SOL     OW36212   5.217   5.491   2.821
11418SOL    HW136213   5.250   5.555   2.752
11418SOL    HW236214   5.283   5.485   2.896
11419SOL     OW36215   4.440   4.289   3.570
11419SOL    HW136216   4.459   4.354   3.644
11419SOL    HW236217   4.500   4.209   3.579
11420SOL     OW36218   5.174   4.944   3.495
11420SOL    HW136219   5.165   4.934   3.594
11420SOL    HW236220   5.270   4.937   3.469
11421SOL     OW36221   4.114   5.465   3.422
11421SOL    HW136222   4.023   5.506   3.420
11421SOL    HW236223   4.107   5.371   3.454
11422SOL     OW36224   5.398   4.607   3.116
11422SOL    HW136225   5.371   4.518   3.079
11422SOL    HW236226   5.399   4.675   3.043
11423SOL     OW36227   4.949   4.049   2.311
11423SOL    HW136228   5.014   3.975   2.300
11423SOL    HW236229   4.969   4.099   2.395
11424SOL     OW36230   4.318   4.469   2.514
11424SOL    HW136231   4.368   4.554   2.495
11424SOL    HW236232   4.230   4.471   2.466
11425SOL     OW36233   5.501   4.066   3.504
11425SOL    HW136234   5.484   4.097   3.410
11425SOL    HW236235   5.417   4.029   3.542
11426SOL     OW36236   5.454   4.658   3.379
11426SOL    HW136237   5.492   4.749   3.394
11426SOL    HW236238   5.446   4.641   3.280
11427SOL     OW36239   4.583   5.098   1.878
11427SOL    HW136240   4.537   5.113   1.966
11427SOL    HW236241   4.627   5.183   1.848
11428SOL     OW36242   4.385   5.514   2.815
11428SOL    HW136243   4.339   5.602   2.802
11428SOL    HW236244   4.484   5.526   2.808
11429SOL     OW36245   5.132   5.575   3.582
11429SOL    HW136246   5.036   5.564   3.555
11429SOL    HW236247   5.188   5.508   3.534
11430SOL     OW36248   4.583   4.680   2.723
11430SOL    HW136249   4.637   4.611   2.771
11430SOL    HW236250   4.551   4.749   2.789
11431SOL     OW36251   5.585   5.293   2.713
11431SOL    HW136252   5.514   5.281   2.643
11431SOL    HW236253   5.586   5.214   2.773
11432SOL     OW36254   3.945   5.038   3.706
11432SOL    HW136255   3.880   4.965   3.685
11432SOL    HW236256   3.949   5.052   3.804
11433SOL     OW36257   3.803   4.964   2.515
11433SOL    HW136258   3.802   4.917   2.603
11433SOL    HW236259   3.885   4.936   2.464
11434SOL     OW36260   4.396   5.115   3.486
11434SOL    HW136261   4.318   5.065   3.524
11434SOL    HW236262   4.393   5.210   3.517
11435SOL     OW36263   5.548   3.916   3.089
11435SOL    HW136264   5.544   3.826   3.133
11435SOL    HW236265   5.551   3.905   2.990
11436SOL     OW36266   4.152   4.148   2.382
11436SOL    HW136267   4.182   4.076   2.320
11436SOL    HW236268   4.113   4.108   2.465
11437SOL     OW36269   5.429   5.211   2.966
11437SOL    HW136270   5.336   5.186   2.939
11437SOL    HW236271   5.455   5.161   3.048
11438SOL     OW36272   4.041   4.271   3.142
11438SOL    HW136273   4.079   4.212   3.214
11438SOL    HW236274   4.081   4.245   3.054
11439SOL     OW36275   4.536   5.310   2.549
11439SOL    HW136276   4.568   5.320   2.455
11439SOL    HW236277   4.457   5.248   2.551
11440SOL     OW36278   4.725   3.758   3.016
11440SOL    HW136279   4.662   3.686   2.985
11440SOL    HW236280   4.818   3.722   3.016
11441SOL     OW36281   4.494   5.054   2.163
11441SOL    HW136282   4.448   4.967   2.180
11441SOL    HW236283   4.585   5.051   2.204
11442SOL     OW36284   4.342   5.291   3.146
11442SOL    HW136285   4.337   5.373   3.203
11442SOL    HW236286   4.431   5.288   3.101
11443SOL     OW36287   5.076   3.776   2.030
11443SOL    HW136288   5.111   3.735   1.946
11443SOL    HW236289   4.986   3.738   2.050
11444SOL     OW36290   5.024   4.177   2.553
11444SOL    HW136291   4.965   4.257   2.557
11444SOL    HW236292   5.039   4.142   2.646
11445SOL     OW36293   5.317   3.945   2.744
11445SOL    HW136294   5.233   3.944   2.798
11445SOL    HW236295   5.319   4.028   2.688
11446SOL     OW36296   3.763   4.801   2.162
11446SOL    HW136297   3.862   4.790   2.153
11446SOL    HW236298   3.723   4.715   2.194
11447SOL     OW36299   4.599   5.370   2.199
11447SOL    HW136300   4.522   5.335   2.145
11447SOL    HW236301   4.567   5.441   2.261
11448SOL     OW36302   3.954   4.352   3.837
11448SOL    HW136303   3.861   4.350   3.874
11448SOL    HW236304   3.955   4.313   3.745
11449SOL     OW36305   3.949   3.999   4.720
11449SOL    HW136306   3.984   3.982   4.812
11449SOL    HW236307   3.861   3.954   4.708
11450SOL     OW36308   4.293   4.999   4.889
11450SOL    HW136309   4.200   4.992   4.852
11450SOL    HW236310   4.304   5.088   4.933
11451SOL     OW36311   5.279   5.235   4.427
11451SOL    HW136312   5.222   5.219   4.508
11451SOL    HW236313   5.220   5.245   4.347
11452SOL     OW36314   5.467   4.342   4.580
11452SOL    HW136315   5.500   4.436   4.580
11452SOL    HW236316   5.518   4.288   4.646
11453SOL     OW36317   4.859   4.427   4.441
11453SOL    HW136318   4.916   4.505   4.416
11453SOL    HW236319   4.799   4.453   4.517
11454SOL     OW36320   5.479   4.331   3.955
11454SOL    HW136321   5.467   4.318   3.856
11454SOL    HW236322   5.449   4.250   4.004
11455SOL     OW36323   4.574   4.522   5.547
11455SOL    HW136324   4.570   4.598   5.612
11455SOL    HW236325   4.596   4.558   5.456
11456SOL     OW36326   4.409   4.736   4.389
11456SOL    HW136327   4.478   4.720   4.459
11456SOL    HW236328   4.336   4.793   4.427
11457SOL     OW36329   4.410   4.885   5.527
11457SOL    HW136330   4.470   4.964   5.541
11457SOL    HW236331   4.324   4.916   5.486
11458SOL     OW36332   4.059   5.159   4.785
11458SOL    HW136333   3.981   5.128   4.732
11458SOL    HW236334   4.117   5.217   4.728
11459SOL     OW36335   5.184   5.229   5.063
11459SOL    HW136336   5.208   5.323   5.089
11459SOL    HW236337   5.168   5.175   5.145
11460SOL     OW36338   4.162   4.116   5.223
11460SOL    HW136339   4.244   4.060   5.232
11460SOL    HW236340   4.081   4.058   5.227
11461SOL     OW36341   5.327   4.171   4.461
11461SOL    HW136342   5.253   4.217   4.411
11461SOL    HW236343   5.378   4.239   4.514
11462SOL     OW36344   3.955   5.437   4.207
11462SOL    HW136345   3.989   5.514   4.261
11462SOL    HW236346   3.999   5.437   4.117
11463SOL     OW36347   4.851   5.065   5.414
11463SOL    HW136348   4.898   5.065   5.502
11463SOL    HW236349   4.803   4.978   5.403
11464SOL     OW36350   3.954   5.158   4.262
11464SOL    HW136351   3.928   5.254   4.262
11464SOL    HW236352   3.883   5.104   4.307
11465SOL     OW36353   4.344   5.510   5.163
11465SOL    HW136354   4.252   5.493   5.198
11465SOL    HW236355   4.372   5.602   5.189
11466SOL     OW36356   4.330   4.688   3.847
11466SOL    HW136357   4.337   4.772   3.793
11466SOL    HW236358   4.376   4.701   3.935
11467SOL     OW36359   5.318   3.838   5.204
11467SOL    HW136360   5.300   3.905   5.132
11467SOL    HW236361   5.315   3.884   5.293
11468SOL     OW36362   3.846   4.367   4.287
11468SOL    HW136363   3.801   4.279   4.304
11468SOL    HW236364   3.845   4.421   4.371
11469SOL     OW36365   5.566   5.491   4.083
11469SOL    HW136366   5.620   5.462   4.163
11469SOL    HW236367   5.596   5.581   4.054
11470SOL     OW36368   3.751   5.320   3.841
11470SOL    HW136369   3.732   5.224   3.862
11470SOL    HW236370   3.718   5.378   3.916
11471SOL     OW36371   5.413   4.646   4.336
11471SOL    HW136372   5.508   4.617   4.344
11471SOL    HW236373   5.405   4.711   4.261
11472SOL     OW36374   5.365   4.832   4.156
11472SOL    HW136375   5.451   4.834   4.104
11472SOL    HW236376   5.379   4.879   4.244
11473SOL     OW36377   3.837   4.461   5.321
11473SOL    HW136378   3.925   4.448   5.366
11473SOL    HW236379   3.824   4.558   5.299
11474SOL     OW36380   4.337   5.089   4.450
11474SOL    HW136381   4.288   5.002   4.459
11474SOL    HW236382   4.314   5.132   4.363
11475SOL     OW36383   5.017   4.952   5.147
11475SOL    HW136384   5.054   4.879   5.089
11475SOL    HW236385   5.069   4.957   5.232
11476SOL     OW36386   5.249   4.723   3.914
11476SOL    HW136387   5.186   4.647   3.927
11476SOL    HW236388   5.297   4.741   4.000
11477SOL     OW36389   4.911   5.516   5.340
11477SOL    HW136390   4.935   5.576   5.264
11477SOL    HW236391   4.918   5.421   5.310
11478SOL     OW36392   4.041   3.975   5.525
11478SOL    HW136393   4.112   4.046   5.531
11478SOL    HW236394   3.953   4.014   5.553
11479SOL     OW36395   5.190   5.141   4.677
11479SOL    HW136396   5.131   5.147   4.757
11479SOL    HW236397   5.175   5.053   4.631
11480SOL     OW36398   5.391   5.438   4.296
11480SOL    HW136399   5.350   5.415   4.208
11480SOL    HW236400   5.373   5.364   4.361
11481SOL     OW36401   4.322   4.453   3.994
11481SOL    HW136402   4.346   4.522   3.926
11481SOL    HW236403   4.244   4.486   4.048
11482SOL     OW36404   5.005   4.069   4.668
11482SOL    HW136405   4.919   4.019   4.655
11482SOL    HW236406   5.067   4.015   4.724
11483SOL     OW36407   5.300   5.386   4.031
11483SOL    HW136408   5.389   5.432   4.034
11483SOL    HW236409   5.279   5.362   3.936
11484SOL     OW36410   4.531   4.329   5.189
11484SOL    HW136411   4.484   4.326   5.278
11484SOL    HW236412   4.480   4.274   5.123
11485SOL     OW36413   5.118   4.193   5.398
11485SOL    HW136414   5.098   4.236   5.486
11485SOL    HW236415   5.196   4.131   5.407
11486SOL     OW36416   4.697   4.614   5.296
11486SOL    HW136417   4.743   4.530   5.267
11486SOL    HW236418   4.641   4.648   5.221
11487SOL     OW36419   4.715   4.134   4.966
11487SOL    HW136420   4.638   4.168   5.020
11487SOL    HW236421   4.681   4.083   4.887
11488SOL     OW36422   4.765   4.425   4.153
11488SOL    HW136423   4.791   4.421   4.249
11488SOL    HW236424   4.680   4.374   4.139
11489SOL     OW36425   3.800   4.535   4.513
11489SOL    HW136426   3.899   4.523   4.522
11489SOL    HW236427   3.776   4.630   4.534
11490SOL     OW36428   3.854   5.545   5.295
11490SOL    HW136429   3.844   5.530   5.394
11490SOL    HW236430   3.768   5.581   5.259
11491SOL     OW36431   4.589   4.072   3.919
11491SOL    HW136432   4.648   4.135   3.870
11491SOL    HW236433   4.608   3.978   3.890
11492SOL     OW36434   5.443   4.309   5.555
11492SOL    HW136435   5.417   4.398   5.519
11492SOL    HW236436   5.441   4.241   5.482
11493SOL     OW36437   5.086   4.868   4.269
11493SOL    HW136438   5.169   4.839   4.221
11493SOL    HW236439   5.037   4.935   4.213
11494SOL     OW36440   4.732   5.180   4.201
11494SOL    HW136441   4.686   5.252   4.149
11494SOL    HW236442   4.728   5.200   4.299
11495SOL     OW36443   4.075   5.525   4.577
11495SOL    HW136444   4.125   5.439   4.583
11495SOL    HW236445   4.140   5.602   4.574
11496SOL     OW36446   5.519   4.790   4.597
11496SOL    HW136447   5.457   4.775   4.521
11496SOL    HW236448   5.467   4.801   4.682
11497SOL     OW36449   4.951   5.274   5.230
11497SOL    HW136450   4.957   5.197   5.294
11497SOL    HW236451   4.899   5.248   5.150
11498SOL     OW36452   4.045   4.667   3.966
11498SOL    HW136453   4.127   4.706   3.924
11498SOL    HW236454   4.018   4.585   3.917
11499SOL     OW36455   5.182   4.459   4.452
11499SOL    HW136456   5.177   4.394   4.527
11499SOL    HW236457   5.262   4.518   4.465
11500SOL     OW36458   4.185   4.990   5.451
11500SOL    HW136459   4.135   4.991   5.365
11500SOL    HW236460   4.122   4.972   5.527
11501SOL     OW36461   4.835   5.500   3.961
11501SOL    HW136462   4.775   5.438   4.011
11501SOL    HW236463   4.866   5.456   3.876
11502SOL     OW36464   3.926   4.009   5.222
11502SOL    HW136465   3.846   4.069   5.209
11502SOL    HW236466   3.916   3.960   5.308
11503SOL     OW36467   5.356   5.101   3.805
11503SOL    HW136468   5.324   5.195   3.795
11503SOL    HW236469   5.280   5.038   3.793
11504SOL     OW36470   4.188   5.467   4.047
11504SOL    HW136471   4.221   5.506   4.133
11504SOL    HW236472   4.264   5.460   3.982
11505SOL     OW36473   5.124   3.831   4.150
11505SOL    HW136474   5.100   3.794   4.060
11505SOL    HW236475   5.223   3.847   4.154
11506SOL     OW36476   3.973   5.509   4.965
11506SOL    HW136477   4.030   5.444   5.015
11506SOL    HW236478   3.957   5.476   4.872
11507SOL     OW36479   4.664   5.422   4.628
11507SOL    HW136480   4.744   5.365   4.649
11507SOL    HW236481   4.615   5.382   4.551
11508SOL     OW36482   4.106   4.424   4.204
11508SOL    HW136483   4.151   4.334   4.201
11508SOL    HW236484   4.012   4.413   4.237
11509SOL     OW36485   5.271   3.946   5.453
11509SOL    HW136486   5.266   3.983   5.545
11509SOL    HW236487   5.199   3.877   5.441
11510SOL     OW36488   4.338   3.846   3.841
11510SOL    HW136489   4.436   3.824   3.848
11510SOL    HW236490   4.307   3.829   3.748
11511SOL     OW36491   4.505   3.988   5.473
11511SOL    HW136492   4.572   3.927   5.516
11511SOL    HW236493   4.432   4.007   5.538
11512SOL     OW36494   4.612   5.238   4.919
11512SOL    HW136495   4.589   5.213   4.825
11512SOL    HW236496   4.673   5.169   4.958
11513SOL     OW36497   5.075   4.314   5.157
11513SOL    HW136498   5.103   4.271   5.242
11513SOL    HW236499   5.100   4.410   5.158
11514SOL     OW36500   4.527   5.126   4.648
11514SOL    HW136501   4.617   5.140   4.606
11514SOL    HW236502   4.456   5.128   4.577
11515SOL     OW36503   4.646   4.227   4.623
11515SOL    HW136504   4.621   4.218   4.527
11515SOL    HW236505   4.694   4.145   4.654
11516SOL     OW36506   4.263   3.788   4.236
11516SOL    HW136507   4.182   3.789   4.294
11516SOL    HW236508   4.266   3.871   4.181
11517SOL     OW36509   5.158   4.912   3.765
11517SOL    HW136510   5.190   4.836   3.822
11517SOL    HW236511   5.066   4.939   3.795
11518SOL     OW36512   4.800   4.407   5.188
11518SOL    HW136513   4.720   4.346   5.191
11518SOL    HW236514   4.881   4.354   5.164
11519SOL     OW36515   4.951   5.294   4.517
11519SOL    HW136516   4.972   5.368   4.452
11519SOL    HW236517   5.019   5.294   4.590
11520SOL     OW36518   4.995   5.521   4.315
11520SOL    HW136519   5.039   5.585   4.251
11520SOL    HW236520   4.945   5.573   4.385
11521SOL     OW36521   4.756   4.273   3.740
11521SOL    HW136522   4.715   4.355   3.701
11521SOL    HW236523   4.820   4.299   3.813
11522SOL     OW36524   3.802   4.280   5.110
11522SOL    HW136525   3.894   4.279   5.069
11522SOL    HW236526   3.796   4.354   5.177
11523SOL     OW36527   4.285   3.946   4.871
11523SOL    HW136528   4.323   3.862   4.908
11523SOL    HW236529   4.197   3.965   4.915
11524SOL     OW36530   4.590   4.178   4.366
11524SOL    HW136531   4.558   4.250   4.304
11524SOL    HW236532   4.614   4.097   4.313
11525SOL     OW36533   5.153   4.897   4.591
11525SOL    HW136534   5.098   4.813   4.584
11525SOL    HW236535   5.179   4.926   4.499
11526SOL     OW36536   5.190   4.314   4.716
11526SOL    HW136537   5.160   4.219   4.723
11526SOL    HW236538   5.263   4.330   4.782
11527SOL     OW36539   5.581   4.557   4.101
11527SOL    HW136540   5.623   4.493   4.165
11527SOL    HW236541   5.543   4.506   4.023
11528SOL     OW36542   4.212   5.109   3.898
11528SOL    HW136543   4.125   5.094   3.945
11528SOL    HW236544   4.195   5.135   3.803
11529SOL     OW36545   5.388   5.004   4.381
11529SOL    HW136546   5.487   5.012   4.395
11529SOL    HW236547   5.343   5.088   4.412
11530SOL     OW36548   5.114   4.299   3.802
11530SOL    HW136549   5.060   4.278   3.883
11530SOL    HW236550   5.205   4.258   3.811
11531SOL     OW36551   4.251   3.980   4.052
11531SOL    HW136552   4.278   3.921   3.977
11531SOL    HW236553   4.251   4.075   4.021
11532SOL     OW36554   5.478   4.947   5.312
11532SOL    HW136555   5.569   4.908   5.299
11532SOL    HW236556   5.486   5.043   5.336
11533SOL     OW36557   4.788   5.071   5.064
11533SOL    HW136558   4.708   5.048   5.119
11533SOL    HW236559   4.871   5.045   5.113
11534SOL     OW36560   5.316   5.353   5.349
11534SOL    HW136561   5.343   5.387   5.259
11534SOL    HW236562   5.395   5.315   5.395
11535SOL     OW36563   4.835   4.919   4.824
11535SOL    HW136564   4.795   4.963   4.905
11535SOL    HW236565   4.794   4.956   4.741
11536SOL     OW36566   5.362   4.823   4.803
11536SOL    HW136567   5.367   4.904   4.862
11536SOL    HW236568   5.276   4.825   4.752
11537SOL     OW36569   4.639   3.813   5.126
11537SOL    HW136570   4.664   3.793   5.031
11537SOL    HW236571   4.711   3.869   5.168
11538SOL     OW36572   4.704   4.840   5.443
11538SOL    HW136573   4.605   4.846   5.453
11538SOL    HW236574   4.727   4.760   5.387
11539SOL     OW36575   4.429   4.774   4.092
11539SOL    HW136576   4.415   4.781   4.191
11539SOL    HW236577   4.513   4.723   4.074
11540SOL     OW36578   4.134   4.537   4.975
11540SOL    HW136579   4.220   4.549   5.025
11540SOL    HW236580   4.092   4.450   5.002
11541SOL     OW36581   4.998   4.110   4.986
11541SOL    HW136582   5.019   4.184   5.050
11541SOL    HW236583   4.909   4.127   4.943
11542SOL     OW36584   3.788   5.288   5.055
11542SOL    HW136585   3.742   5.370   5.021
11542SOL    HW236586   3.886   5.307   5.064
11543SOL     OW36587   4.091   4.824   4.225
11543SOL    HW136588   4.084   4.907   4.169
11543SOL    HW236589   4.095   4.744   4.165
11544SOL     OW36590   4.290   4.261   4.589
11544SOL    HW136591   4.302   4.327   4.515
11544SOL    HW236592   4.336   4.295   4.672
11545SOL     OW36593   4.976   5.072   4.112
11545SOL    HW136594   5.026   5.149   4.152
11545SOL    HW236595   4.881   5.074   4.144
11546SOL     OW36596   4.996   5.169   4.866
11546SOL    HW136597   5.043   5.182   4.953
11546SOL    HW236598   4.930   5.095   4.875
11547SOL     OW36599   5.306   4.363   4.196
11547SOL    HW136600   5.275   4.424   4.269
11547SOL    HW236601   5.356   4.415   4.127
11548SOL     OW36602   4.078   5.234   5.053
11548SOL    HW136603   4.057   5.190   4.966
11548SOL    HW236604   4.175   5.260   5.056
11549SOL     OW36605   4.126   4.475   5.322
11549SOL    HW136606   4.194   4.530   5.275
11549SOL    HW236607   4.166   4.387   5.349
11550SOL     OW36608   5.311   4.503   5.394
11550SOL    HW136609   5.219   4.541   5.389
11550SOL    HW236610   5.371   4.550   5.329
11551SOL     OW36611   4.737   3.829   5.494
11551SOL    HW136612   4.743   3.914   5.442
11551SOL    HW236613   4.769   3.753   5.437
11552SOL     OW36614   4.228   3.774   5.464
11552SOL    HW136615   4.186   3.717   5.394
11552SOL    HW236616   4.162   3.843   5.496
11553SOL     OW36617   5.084   4.586   4.769
11553SOL    HW136618   5.009   4.586   4.703
11553SOL    HW236619   5.121   4.494   4.778
11554SOL     OW36620   4.933   4.249   3.999
11554SOL    HW136621   4.946   4.165   4.053
11554SOL    HW236622   4.904   4.323   4.059
11555SOL     OW36623   4.031   3.937   4.955
11555SOL    HW136624   4.008   3.974   5.045
11555SOL    HW236625   4.001   3.842   4.949
11556SOL     OW36626   3.761   5.034   5.006
11556SOL    HW136627   3.814   4.985   5.074
11556SOL    HW236628   3.783   5.132   5.011
11557SOL     OW36629   4.456   4.358   4.788
11557SOL    HW136630   4.515   4.332   4.712
11557SOL    HW236631   4.428   4.454   4.777
11558SOL     OW36632   5.452   4.659   5.578
11558SOL    HW136633   5.406   4.652   5.489
11558SOL    HW236634   5.390   4.703   5.644
11559SOL     OW36635   4.031   3.787   4.342
11559SOL    HW136636   4.020   3.881   4.375
11559SOL    HW236637   4.026   3.724   4.419
11560SOL     OW36638   5.346   4.091   4.098
11560SOL    HW136639   5.348   4.015   4.162
11560SOL    HW236640   5.298   4.168   4.138
11561SOL     OW36641   4.747   4.490   4.690
11561SOL    HW136642   4.762   4.511   4.786
11561SOL    HW236643   4.717   4.395   4.681
11562SOL     OW36644   4.704   5.297   5.424
11562SOL    HW136645   4.684   5.341   5.336
11562SOL    HW236646   4.743   5.206   5.408
11563SOL     OW36647   5.583   5.242   5.329
11563SOL    HW136648   5.597   5.269   5.234
11563SOL    HW236649   5.666   5.264   5.382
11564SOL     OW36650   4.074   4.622   5.528
11564SOL    HW136651   4.150   4.666   5.576
11564SOL    HW236652   4.109   4.575   5.446
11565SOL     OW36653   5.264   3.998   3.849
11565SOL    HW136654   5.203   3.923   3.872
11565SOL    HW236655   5.286   4.050   3.932
11566SOL     OW36656   5.027   4.562   3.766
11566SOL    HW136657   5.061   4.469   3.781
11566SOL    HW236658   5.045   4.589   3.671
11567SOL     OW36659   4.792   5.057   4.573
11567SOL    HW136660   4.799   4.973   4.518
11567SOL    HW236661   4.854   5.126   4.537
11568SOL     OW36662   4.043   4.534   4.673
11568SOL    HW136663   4.136   4.570   4.678
11568SOL    HW236664   4.037   4.449   4.725
11569SOL     OW36665   4.063   4.233   4.730
11569SOL    HW136666   4.011   4.150   4.713
11569SOL    HW236667   4.140   4.238   4.666
11570SOL     OW36668   4.235   4.139   5.532
11570SOL    HW136669   4.217   4.184   5.620
11570SOL    HW236670   4.277   4.204   5.469
11571SOL     OW36671   4.862   4.104   5.402
11571SOL    HW136672   4.817   4.167   5.466
11571SOL    HW236673   4.955   4.135   5.385
11572SOL     OW36674   4.884   3.931   5.201
11572SOL    HW136675   4.884   3.995   5.278
11572SOL    HW236676   4.912   3.979   5.118
11573SOL     OW36677   3.732   5.050   3.924
11573SOL    HW136678   3.639   5.071   3.893
11573SOL    HW236679   3.742   4.951   3.937
11574SOL     OW36680   3.812   5.525   4.651
11574SOL    HW136681   3.770   5.439   4.624
11574SOL    HW236682   3.906   5.528   4.617
11575SOL     OW36683   4.228   5.292   4.634
11575SOL    HW136684   4.294   5.366   4.643
11575SOL    HW236685   4.272   5.213   4.592
11576SOL     OW36686   4.726   4.520   4.962
11576SOL    HW136687   4.767   4.488   5.048
11576SOL    HW236688   4.630   4.493   4.959
11577SOL     OW36689   3.764   4.268   4.838
11577SOL    HW136690   3.849   4.235   4.797
11577SOL    HW236691   3.777   4.283   4.936
11578SOL     OW36692   3.913   4.244   5.446
11578SOL    HW136693   3.972   4.204   5.376
11578SOL    HW236694   3.855   4.315   5.405
11579SOL     OW36695   5.093   4.674   5.384
11579SOL    HW136696   5.132   4.763   5.404
11579SOL    HW236697   5.103   4.654   5.287
11580SOL     OW36698   4.539   4.296   4.049
11580SOL    HW136699   4.546   4.207   4.003
11580SOL    HW236700   4.445   4.330   4.041
11581SOL     OW36701   5.381   4.328   4.930
11581SOL    HW136702   5.343   4.259   4.992
11581SOL    HW236703   5.463   4.292   4.886
11582SOL     OW36704   3.976   5.288   5.468
11582SOL    HW136705   3.946   5.345   5.544
11582SOL    HW236706   3.969   5.191   5.494
11583SOL     OW36707   4.395   4.188   4.993
11583SOL    HW136708   4.361   4.099   4.963
11583SOL    HW236709   4.421   4.242   4.913
11584SOL     OW36710   4.654   5.402   5.189
11584SOL    HW136711   4.630   5.384   5.094
11584SOL    HW236712   4.684   5.496   5.199
11585SOL     OW36713   4.197   4.224   3.915
11585SOL    HW136714   4.258   4.304   3.919
11585SOL    HW236715   4.102   4.255   3.922
11586SOL     OW36716   3.883   4.861   5.190
11586SOL    HW136717   3.905   4.800   5.266
11586SOL    HW236718   3.893   4.812   5.104
11587SOL     OW36719   5.071   4.783   4.958
11587SOL    HW136720   5.095   4.720   4.884
11587SOL    HW236721   4.981   4.823   4.940
11588SOL     OW36722   5.026   4.579   4.033
11588SOL    HW136723   4.940   4.548   4.075
11588SOL    HW236724   5.022   4.565   3.934
11589SOL     OW36725   5.483   5.471   4.878
11589SOL    HW136726   5.544   5.501   4.805
11589SOL    HW236727   5.445   5.382   4.856
11590SOL     OW36728   4.976   5.455   4.852
11590SOL    HW136729   5.060   5.460   4.798
11590SOL    HW236730   4.953   5.359   4.870
11591SOL     OW36731   3.807   4.982   4.746
11591SOL    HW136732   3.802   4.981   4.846
11591SOL    HW236733   3.724   4.941   4.708
11592SOL     OW36734   4.412   5.386   5.440
11592SOL    HW136735   4.356   5.467   5.449
11592SOL    HW236736   4.464   5.390   5.354
11593SOL     OW36737   5.450   3.859   4.247
11593SOL    HW136738   5.523   3.842   4.180
11593SOL    HW236739   5.419   3.772   4.285
11594SOL     OW36740   5.112   5.297   4.201
11594SOL    HW136741   5.179   5.309   4.127
11594SOL    HW236742   5.072   5.386   4.224
11595SOL     OW36743   3.854   5.518   5.575
11595SOL    HW136744   3.813   5.444   5.628
11595SOL    HW236745   3.918   5.569   5.633
11596SOL     OW36746   5.004   4.651   4.396
11596SOL    HW136747   5.064   4.570   4.398
11596SOL    HW236748   5.044   4.720   4.336
11597SOL     OW36749   4.554   4.997   5.146
11597SOL    HW136750   4.549   5.030   5.241
11597SOL    HW236751   4.468   5.016   5.100
11598SOL     OW36752   4.396   5.340   3.878
11598SOL    HW136753   4.405   5.350   3.779
11598SOL    HW236754   4.356   5.251   3.899
11599SOL     OW36755   5.374   5.444   5.118
11599SOL    HW136756   5.427   5.454   5.034
11599SOL    HW236757   5.347   5.534   5.152
11600SOL     OW36758   5.565   3.899   4.687
11600SOL    HW136759   5.604   3.814   4.651
11600SOL    HW236760   5.467   3.901   4.668
11601SOL     OW36761   4.918   5.336   3.755
11601SOL    HW136762   4.924   5.243   3.792
11601SOL    HW236763   4.859   5.336   3.675
11602SOL     OW36764   4.546   4.726   5.096
11602SOL    HW136765   4.586   4.725   5.004
11602SOL    HW236766   4.556   4.818   5.136
11603SOL     OW36767   4.640   4.634   4.015
11603SOL    HW136768   4.703   4.672   3.947
11603SOL    HW236769   4.680   4.551   4.054
11604SOL     OW36770   5.228   5.331   3.768
11604SOL    HW136771   5.136   5.368   3.775
11604SOL    HW236772   5.266   5.351   3.678
11605SOL     OW36773   4.096   5.012   5.214
11605SOL    HW136774   4.083   5.105   5.180
11605SOL    HW236775   4.012   4.960   5.201
11606SOL     OW36776   5.338   5.016   5.013
11606SOL    HW136777   5.398   5.019   5.093
11606SOL    HW236778   5.263   5.080   5.026
11607SOL     OW36779   4.763   4.822   4.420
11607SOL    HW136780   4.693   4.775   4.474
11607SOL    HW236781   4.822   4.754   4.377
11608SOL     OW36782   4.738   3.960   4.695
11608SOL    HW136783   4.730   3.924   4.602
11608SOL    HW236784   4.736   3.884   4.760
11609SOL     OW36785   4.314   5.211   4.215
11609SOL    HW136786   4.356   5.153   4.145
11609SOL    HW236787   4.270   5.290   4.171
11610SOL     OW36788   5.433   4.109   5.105
11610SOL    HW136789   5.506   4.178   5.109
11610SOL    HW236790   5.461   4.034   5.046
11611SOL     OW36791   3.979   5.072   4.014
11611SOL    HW136792   3.883   5.073   3.987
11611SOL    HW236793   3.991   5.125   4.098
11612SOL     OW36794   3.829   4.737   5.450
11612SOL    HW136795   3.752   4.704   5.504
11612SOL    HW236796   3.914   4.707   5.492
11613SOL     OW36797   4.396   3.927   5.213
11613SOL    HW136798   4.486   3.911   5.173
11613SOL    HW236799   4.404   3.932   5.312
11614SOL     OW36800   3.799   4.069   3.757
11614SOL    HW136801   3.707   4.041   3.728
11614SOL    HW236802   3.830   4.146   3.701
11615SOL     OW36803   5.164   4.580   5.122
11615SOL    HW136804   5.107   4.632   5.059
11615SOL    HW236805   5.260   4.592   5.098
11616SOL     OW36806   3.796   3.890   4.042
11616SOL    HW136807   3.779   3.973   3.988
11616SOL    HW236808   3.886   3.853   4.020
11617SOL     OW36809   4.907   5.059   3.843
11617SOL    HW136810   4.808   5.048   3.845
11617SOL    HW236811   4.941   5.074   3.936
11618SOL     OW36812   4.337   4.566   5.155
11618SOL    HW136813   4.393   4.647   5.138
11618SOL    HW236814   4.396   4.486   5.158
11619SOL     OW36815   5.217   5.491   4.683
11619SOL    HW136816   5.250   5.555   4.614
11619SOL    HW236817   5.283   5.485   4.758
11620SOL     OW36818   4.440   4.289   5.432
11620SOL    HW136819   4.459   4.354   5.506
11620SOL    HW236820   4.500   4.209   5.441
11621SOL     OW36821   5.174   4.944   5.357
11621SOL    HW136822   5.165   4.934   5.456
11621SOL    HW236823   5.270   4.937   5.331
11622SOL     OW36824   4.114   5.465   5.284
11622SOL    HW136825   4.023   5.506   5.282
11622SOL    HW236826   4.107   5.371   5.316
11623SOL     OW36827   5.398   4.607   4.978
11623SOL    HW136828   5.371   4.518   4.941
11623SOL    HW236829   5.399   4.675   4.905
11624SOL     OW36830   4.949   4.049   4.173
11624SOL    HW136831   5.014   3.975   4.162
11624SOL    HW236832   4.969   4.099   4.257
11625SOL     OW36833   4.318   4.469   4.376
11625SOL    HW136834   4.368   4.554   4.357
11625SOL    HW236835   4.230   4.471   4.328
11626SOL     OW36836   5.501   4.066   5.366
11626SOL    HW136837   5.484   4.097   5.272
11626SOL    HW236838   5.417   4.029   5.404
11627SOL     OW36839   5.454   4.658   5.241
11627SOL    HW136840   5.492   4.749   5.256
11627SOL    HW236841   5.446   4.641   5.142
11628SOL     OW36842   4.583   5.098   3.740
11628SOL    HW136843   4.537   5.113   3.828
11628SOL    HW236844   4.627   5.183   3.710
11629SOL     OW36845   4.385   5.514   4.677
11629SOL    HW136846   4.339   5.602   4.664
11629SOL    HW236847   4.484   5.526   4.670
11630SOL     OW36848   5.132   5.575   5.444
11630SOL    HW136849   5.036   5.564   5.417
11630SOL    HW236850   5.188   5.508   5.396
11631SOL     OW36851   4.807   4.708   3.811
11631SOL    HW136852   4.784   4.761   3.729
11631SOL    HW236853   4.888   4.652   3.792
11632SOL     OW36854   5.585   5.293   4.575
11632SOL    HW136855   5.514   5.281   4.505
11632SOL    HW236856   5.586   5.214   4.635
11633SOL     OW36857   3.945   5.038   5.568
11633SOL    HW136858   3.880   4.965   5.547
11633SOL    HW236859   3.949   5.052   5.666
11634SOL     OW36860   3.803   4.964   4.377
11634SOL    HW136861   3.802   4.917   4.465
11634SOL    HW236862   3.885   4.936   4.326
11635SOL     OW36863   4.396   5.115   5.348
11635SOL    HW136864   4.318   5.065   5.386
11635SOL    HW236865   4.393   5.210   5.379
11636SOL     OW36866   5.548   3.916   4.951
11636SOL    HW136867   5.544   3.826   4.995
11636SOL    HW236868   5.551   3.905   4.852
11637SOL     OW36869   4.152   4.148   4.244
11637SOL    HW136870   4.182   4.076   4.182
11637SOL    HW236871   4.113   4.108   4.327
11638SOL     OW36872   5.429   5.211   4.828
11638SOL    HW136873   5.336   5.186   4.801
11638SOL    HW236874   5.455   5.161   4.910
11639SOL     OW36875   4.041   4.271   5.004
11639SOL    HW136876   4.079   4.212   5.076
11639SOL    HW236877   4.081   4.245   4.916
11640SOL     OW36878   4.536   5.310   4.411
11640SOL    HW136879   4.568   5.320   4.317
11640SOL    HW236880   4.457   5.248   4.413
11641SOL     OW36881   5.148   3.938   4.836
11641SOL    HW136882   5.200   3.873   4.891
11641SOL    HW236883   5.099   4.001   4.897
11642SOL     OW36884   4.725   3.758   4.878
11642SOL    HW136885   4.662   3.686   4.847
11642SOL    HW236886   4.818   3.722   4.878
11643SOL     OW36887   4.494   5.054   4.025
11643SOL    HW136888   4.448   4.967   4.042
11643SOL    HW236889   4.585   5.051   4.066
11644SOL     OW36890   4.342   5.291   5.008
11644SOL    HW136891   4.337   5.373   5.065
11644SOL    HW236892   4.431   5.288   4.963
11645SOL     OW36893   5.076   3.776   3.892
11645SOL    HW136894   5.111   3.735   3.808
11645SOL    HW236895   4.986   3.738   3.912
11646SOL     OW36896   5.024   4.177   4.415
11646SOL    HW136897   4.965   4.257   4.419
11646SOL    HW236898   5.039   4.142   4.508
11647SOL     OW36899   5.317   3.945   4.606
11647SOL    HW136900   5.233   3.944   4.660
11647SOL    HW236901   5.319   4.028   4.550
11648SOL     OW36902   3.763   4.801   4.024
11648SOL    HW136903   3.862   4.790   4.015
11648SOL    HW236904   3.723   4.715   4.056
11649SOL     OW36905   4.599   5.370   4.061
11649SOL    HW136906   4.522   5.335   4.007
11649SOL    HW236907   4.567   5.441   4.123
11650SOL     OW36908   3.954   4.352   5.699
11650SOL    HW136909   3.861   4.350   5.736
11650SOL    HW236910   3.955   4.313   5.607
11651SOL     OW36911   3.949   3.999   6.582
11651SOL    HW136912   3.984   3.982   6.674
11651SOL    HW236913   3.861   3.954   6.570
11652SOL     OW36914   3.743   4.092   6.233
11652SOL    HW136915   3.661   4.135   6.272
11652SOL    HW236916   3.715   4.019   6.170
11653SOL     OW36917   4.293   4.999   6.751
11653SOL    HW136918   4.200   4.992   6.714
11653SOL    HW236919   4.304   5.088   6.795
11654SOL     OW36920   5.279   5.235   6.289
11654SOL    HW136921   5.222   5.219   6.370
11654SOL    HW236922   5.220   5.245   6.209
11655SOL     OW36923   5.467   4.342   6.442
11655SOL    HW136924   5.500   4.436   6.442
11655SOL    HW236925   5.518   4.288   6.508
11656SOL     OW36926   4.859   4.427   6.303
11656SOL    HW136927   4.916   4.505   6.278
11656SOL    HW236928   4.799   4.453   6.379
11657SOL     OW36929   5.479   4.331   5.817
11657SOL    HW136930   5.467   4.318   5.718
11657SOL    HW236931   5.449   4.250   5.866
11658SOL     OW36932   4.492   4.868   6.609
11658SOL    HW136933   4.414   4.885   6.669
11658SOL    HW236934   4.526   4.955   6.573
11659SOL     OW36935   4.574   4.522   7.409
11659SOL    HW136936   4.570   4.598   7.474
11659SOL    HW236937   4.596   4.558   7.318
11660SOL     OW36938   4.409   4.736   6.251
11660SOL    HW136939   4.478   4.720   6.321
11660SOL    HW236940   4.336   4.793   6.289
11661SOL     OW36941   4.410   4.885   7.389
11661SOL    HW136942   4.470   4.964   7.403
11661SOL    HW236943   4.324   4.916   7.348
11662SOL     OW36944   4.059   5.159   6.647
11662SOL    HW136945   3.981   5.128   6.594
11662SOL    HW236946   4.117   5.217   6.590
11663SOL     OW36947   5.184   5.229   6.925
11663SOL    HW136948   5.208   5.323   6.951
11663SOL    HW236949   5.168   5.175   7.007
11664SOL     OW36950   4.162   4.116   7.085
11664SOL    HW136951   4.244   4.060   7.094
11664SOL    HW236952   4.081   4.058   7.089
11665SOL     OW36953   5.327   4.171   6.323
11665SOL    HW136954   5.253   4.217   6.273
11665SOL    HW236955   5.378   4.239   6.376
11666SOL     OW36956   3.955   5.437   6.069
11666SOL    HW136957   3.989   5.514   6.123
11666SOL    HW236958   3.999   5.437   5.979
11667SOL     OW36959   4.851   5.065   7.276
11667SOL    HW136960   4.898   5.065   7.364
11667SOL    HW236961   4.803   4.978   7.265
11668SOL     OW36962   3.954   5.158   6.124
11668SOL    HW136963   3.928   5.254   6.124
11668SOL    HW236964   3.883   5.104   6.169
11669SOL     OW36965   3.964   4.815   6.472
11669SOL    HW136966   3.978   4.731   6.524
11669SOL    HW236967   3.909   4.879   6.527
11670SOL     OW36968   4.344   5.510   7.025
11670SOL    HW136969   4.252   5.493   7.060
11670SOL    HW236970   4.372   5.602   7.051
11671SOL     OW36971   4.330   4.688   5.709
11671SOL    HW136972   4.337   4.772   5.655
11671SOL    HW236973   4.376   4.701   5.797
11672SOL     OW36974   5.318   3.838   7.066
11672SOL    HW136975   5.300   3.905   6.994
11672SOL    HW236976   5.315   3.884   7.155
11673SOL     OW36977   3.846   4.367   6.149
11673SOL    HW136978   3.801   4.279   6.166
11673SOL    HW236979   3.845   4.421   6.233
11674SOL     OW36980   5.566   5.491   5.945
11674SOL    HW136981   5.620   5.462   6.025
11674SOL    HW236982   5.596   5.581   5.916
11675SOL     OW36983   3.751   5.320   5.703
11675SOL    HW136984   3.732   5.224   5.724
11675SOL    HW236985   3.718   5.378   5.778
11676SOL     OW36986   5.413   4.646   6.198
11676SOL    HW136987   5.508   4.617   6.206
11676SOL    HW236988   5.405   4.711   6.123
11677SOL     OW36989   5.365   4.832   6.018
11677SOL    HW136990   5.451   4.834   5.966
11677SOL    HW236991   5.379   4.879   6.106
11678SOL     OW36992   3.837   4.461   7.183
11678SOL    HW136993   3.925   4.448   7.228
11678SOL    HW236994   3.824   4.558   7.161
11679SOL     OW36995   4.337   5.089   6.312
11679SOL    HW136996   4.288   5.002   6.321
11679SOL    HW236997   4.314   5.132   6.225
11680SOL     OW36998   5.017   4.952   7.009
11680SOL    HW136999   5.054   4.879   6.951
11680SOL    HW237000   5.069   4.957   7.094
11681SOL     OW37001   4.533   3.728   6.088
11681SOL    HW137002   4.573   3.819   6.079
11681SOL    HW237003   4.433   3.736   6.094
11682SOL     OW37004   3.921   4.700   6.850
11682SOL    HW137005   4.010   4.655   6.836
11682SOL    HW237006   3.848   4.635   6.831
11683SOL     OW37007   5.249   4.723   5.776
11683SOL    HW137008   5.186   4.647   5.789
11683SOL    HW237009   5.297   4.741   5.862
11684SOL     OW37010   4.911   5.516   7.202
11684SOL    HW137011   4.935   5.576   7.126
11684SOL    HW237012   4.918   5.421   7.172
11685SOL     OW37013   4.041   3.975   7.387
11685SOL    HW137014   4.112   4.046   7.393
11685SOL    HW237015   3.953   4.014   7.415
11686SOL     OW37016   5.190   5.141   6.539
11686SOL    HW137017   5.131   5.147   6.619
11686SOL    HW237018   5.175   5.053   6.493
11687SOL     OW37019   5.391   5.438   6.158
11687SOL    HW137020   5.350   5.415   6.070
11687SOL    HW237021   5.373   5.364   6.223
11688SOL     OW37022   4.322   4.453   5.856
11688SOL    HW137023   4.346   4.522   5.788
11688SOL    HW237024   4.244   4.486   5.910
11689SOL     OW37025   5.005   4.069   6.530
11689SOL    HW137026   4.919   4.019   6.517
11689SOL    HW237027   5.067   4.015   6.586
11690SOL     OW37028   5.300   5.386   5.893
11690SOL    HW137029   5.389   5.432   5.896
11690SOL    HW237030   5.279   5.362   5.798
11691SOL     OW37031   4.531   4.329   7.051
11691SOL    HW137032   4.484   4.326   7.140
11691SOL    HW237033   4.480   4.274   6.985
11692SOL     OW37034   5.118   4.193   7.260
11692SOL    HW137035   5.098   4.236   7.348
11692SOL    HW237036   5.196   4.131   7.269
11693SOL     OW37037   4.697   4.614   7.158
11693SOL    HW137038   4.743   4.530   7.129
11693SOL    HW237039   4.641   4.648   7.083
11694SOL     OW37040   4.715   4.134   6.828
11694SOL    HW137041   4.638   4.168   6.882
11694SOL    HW237042   4.681   4.083   6.749
11695SOL     OW37043   4.765   4.425   6.015
11695SOL    HW137044   4.791   4.421   6.111
11695SOL    HW237045   4.680   4.374   6.001
11696SOL     OW37046   3.800   4.535   6.375
11696SOL    HW137047   3.899   4.523   6.384
11696SOL    HW237048   3.776   4.630   6.396
11697SOL     OW37049   3.854   5.545   7.157
11697SOL    HW137050   3.844   5.530   7.256
11697SOL    HW237051   3.768   5.581   7.121
11698SOL     OW37052   4.589   4.072   5.781
11698SOL    HW137053   4.648   4.135   5.732
11698SOL    HW237054   4.608   3.978   5.752
11699SOL     OW37055   5.443   4.309   7.417
11699SOL    HW137056   5.417   4.398   7.381
11699SOL    HW237057   5.441   4.241   7.344
11700SOL     OW37058   5.086   4.868   6.131
11700SOL    HW137059   5.169   4.839   6.083
11700SOL    HW237060   5.037   4.935   6.075
11701SOL     OW37061   4.274   3.920   6.471
11701SOL    HW137062   4.269   3.915   6.571
11701SOL    HW237063   4.276   4.016   6.442
11702SOL     OW37064   4.732   5.180   6.063
11702SOL    HW137065   4.686   5.252   6.011
11702SOL    HW237066   4.728   5.200   6.161
11703SOL     OW37067   4.075   5.525   6.439
11703SOL    HW137068   4.125   5.439   6.445
11703SOL    HW237069   4.140   5.602   6.436
11704SOL     OW37070   5.519   4.790   6.459
11704SOL    HW137071   5.457   4.775   6.383
11704SOL    HW237072   5.467   4.801   6.544
11705SOL     OW37073   4.951   5.274   7.092
11705SOL    HW137074   4.957   5.197   7.156
11705SOL    HW237075   4.899   5.248   7.012
11706SOL     OW37076   4.045   4.667   5.828
11706SOL    HW137077   4.127   4.706   5.786
11706SOL    HW237078   4.018   4.585   5.779
11707SOL     OW37079   5.182   4.459   6.314
11707SOL    HW137080   5.177   4.394   6.389
11707SOL    HW237081   5.262   4.518   6.327
11708SOL     OW37082   4.185   4.990   7.313
11708SOL    HW137083   4.135   4.991   7.227
11708SOL    HW237084   4.122   4.972   7.389
11709SOL     OW37085   4.835   5.500   5.823
11709SOL    HW137086   4.775   5.438   5.873
11709SOL    HW237087   4.866   5.456   5.738
11710SOL     OW37088   3.926   4.009   7.084
11710SOL    HW137089   3.846   4.069   7.071
11710SOL    HW237090   3.916   3.960   7.170
11711SOL     OW37091   5.356   5.101   5.667
11711SOL    HW137092   5.324   5.195   5.657
11711SOL    HW237093   5.280   5.038   5.655
11712SOL     OW37094   4.188   5.467   5.909
11712SOL    HW137095   4.221   5.506   5.995
11712SOL    HW237096   4.264   5.460   5.844
11713SOL     OW37097   5.124   3.831   6.012
11713SOL    HW137098   5.100   3.794   5.922
11713SOL    HW237099   5.223   3.847   6.016
11714SOL     OW37100   3.973   5.509   6.827
11714SOL    HW137101   4.030   5.444   6.877
11714SOL    HW237102   3.957   5.476   6.734
11715SOL     OW37103   4.664   5.422   6.490
11715SOL    HW137104   4.744   5.365   6.511
11715SOL    HW237105   4.615   5.382   6.413
11716SOL     OW37106   4.106   4.424   6.066
11716SOL    HW137107   4.151   4.334   6.063
11716SOL    HW237108   4.012   4.413   6.099
11717SOL     OW37109   5.271   3.946   7.315
11717SOL    HW137110   5.266   3.983   7.407
11717SOL    HW237111   5.199   3.877   7.303
11718SOL     OW37112   4.338   3.846   5.703
11718SOL    HW137113   4.436   3.824   5.710
11718SOL    HW237114   4.307   3.829   5.610
11719SOL     OW37115   4.505   3.988   7.335
11719SOL    HW137116   4.572   3.927   7.378
11719SOL    HW237117   4.432   4.007   7.400
11720SOL     OW37118   4.612   5.238   6.781
11720SOL    HW137119   4.589   5.213   6.687
11720SOL    HW237120   4.673   5.169   6.820
11721SOL     OW37121   5.075   4.314   7.019
11721SOL    HW137122   5.103   4.271   7.104
11721SOL    HW237123   5.100   4.410   7.020
11722SOL     OW37124   4.527   5.126   6.510
11722SOL    HW137125   4.617   5.140   6.468
11722SOL    HW237126   4.456   5.128   6.439
11723SOL     OW37127   4.646   4.227   6.485
11723SOL    HW137128   4.621   4.218   6.389
11723SOL    HW237129   4.694   4.145   6.516
11724SOL     OW37130   4.263   3.788   6.098
11724SOL    HW137131   4.182   3.789   6.156
11724SOL    HW237132   4.266   3.871   6.043
11725SOL     OW37133   5.158   4.912   5.627
11725SOL    HW137134   5.190   4.836   5.684
11725SOL    HW237135   5.066   4.939   5.657
11726SOL     OW37136   4.021   3.759   5.757
11726SOL    HW137137   4.070   3.843   5.736
11726SOL    HW237138   4.083   3.694   5.802
11727SOL     OW37139   4.659   3.960   6.066
11727SOL    HW137140   4.611   4.001   5.988
11727SOL    HW237141   4.758   3.958   6.047
11728SOL     OW37142   4.800   4.407   7.050
11728SOL    HW137143   4.720   4.346   7.053
11728SOL    HW237144   4.881   4.354   7.026
11729SOL     OW37145   4.951   5.294   6.379
11729SOL    HW137146   4.972   5.368   6.314
11729SOL    HW237147   5.019   5.294   6.452
11730SOL     OW37148   4.183   4.876   6.327
11730SOL    HW137149   4.112   4.849   6.392
11730SOL    HW237150   4.157   4.848   6.234
11731SOL     OW37151   4.995   5.521   6.177
11731SOL    HW137152   5.039   5.585   6.113
11731SOL    HW237153   4.945   5.573   6.247
11732SOL     OW37154   4.756   4.273   5.602
11732SOL    HW137155   4.715   4.355   5.563
11732SOL    HW237156   4.820   4.299   5.675
11733SOL     OW37157   3.802   4.280   6.972
11733SOL    HW137158   3.894   4.279   6.931
11733SOL    HW237159   3.796   4.354   7.039
11734SOL     OW37160   4.285   3.946   6.733
11734SOL    HW137161   4.323   3.862   6.770
11734SOL    HW237162   4.197   3.965   6.777
11735SOL     OW37163   4.590   4.178   6.228
11735SOL    HW137164   4.558   4.250   6.166
11735SOL    HW237165   4.614   4.097   6.175
11736SOL     OW37166   4.741   3.763   6.339
11736SOL    HW137167   4.669   3.768   6.270
11736SOL    HW237168   4.717   3.694   6.408
11737SOL     OW37169   5.153   4.897   6.453
11737SOL    HW137170   5.098   4.813   6.446
11737SOL    HW237171   5.179   4.926   6.361
11738SOL     OW37172   5.190   4.314   6.578
11738SOL    HW137173   5.160   4.219   6.585
11738SOL    HW237174   5.263   4.330   6.644
11739SOL     OW37175   5.581   4.557   5.963
11739SOL    HW137176   5.623   4.493   6.027
11739SOL    HW237177   5.543   4.506   5.885
11740SOL     OW37178   4.212   5.109   5.760
11740SOL    HW137179   4.125   5.094   5.807
11740SOL    HW237180   4.195   5.135   5.665
11741SOL     OW37181   5.388   5.004   6.243
11741SOL    HW137182   5.487   5.012   6.257
11741SOL    HW237183   5.343   5.088   6.274
11742SOL     OW37184   5.114   4.299   5.664
11742SOL    HW137185   5.060   4.278   5.745
11742SOL    HW237186   5.205   4.258   5.673
11743SOL     OW37187   4.251   3.980   5.914
11743SOL    HW137188   4.278   3.921   5.839
11743SOL    HW237189   4.251   4.075   5.883
11744SOL     OW37190   5.478   4.947   7.174
11744SOL    HW137191   5.569   4.908   7.161
11744SOL    HW237192   5.486   5.043   7.198
11745SOL     OW37193   4.788   5.071   6.926
11745SOL    HW137194   4.708   5.048   6.981
11745SOL    HW237195   4.871   5.045   6.975
11746SOL     OW37196   5.316   5.353   7.211
11746SOL    HW137197   5.343   5.387   7.121
11746SOL    HW237198   5.395   5.315   7.257
11747SOL     OW37199   4.835   4.919   6.686
11747SOL    HW137200   4.795   4.963   6.767
11747SOL    HW237201   4.794   4.956   6.603
11748SOL     OW37202   5.362   4.823   6.665
11748SOL    HW137203   5.367   4.904   6.724
11748SOL    HW237204   5.276   4.825   6.614
11749SOL     OW37205   4.639   3.813   6.988
11749SOL    HW137206   4.664   3.793   6.893
11749SOL    HW237207   4.711   3.869   7.030
11750SOL     OW37208   4.704   4.840   7.305
11750SOL    HW137209   4.605   4.846   7.315
11750SOL    HW237210   4.727   4.760   7.249
11751SOL     OW37211   4.429   4.774   5.954
11751SOL    HW137212   4.415   4.781   6.053
11751SOL    HW237213   4.513   4.723   5.936
11752SOL     OW37214   4.134   4.537   6.837
11752SOL    HW137215   4.220   4.549   6.887
11752SOL    HW237216   4.092   4.450   6.864
11753SOL     OW37217   4.998   4.110   6.848
11753SOL    HW137218   5.019   4.184   6.912
11753SOL    HW237219   4.909   4.127   6.805
11754SOL     OW37220   3.788   5.288   6.917
11754SOL    HW137221   3.742   5.370   6.883
11754SOL    HW237222   3.886   5.307   6.926
11755SOL     OW37223   4.091   4.824   6.087
11755SOL    HW137224   4.084   4.907   6.031
11755SOL    HW237225   4.095   4.744   6.027
11756SOL     OW37226   4.290   4.261   6.451
11756SOL    HW137227   4.302   4.327   6.377
11756SOL    HW237228   4.336   4.295   6.534
11757SOL     OW37229   4.976   5.072   5.974
11757SOL    HW137230   5.026   5.149   6.014
11757SOL    HW237231   4.881   5.074   6.006
11758SOL     OW37232   4.996   5.169   6.728
11758SOL    HW137233   5.043   5.182   6.815
11758SOL    HW237234   4.930   5.095   6.737
11759SOL     OW37235   5.306   4.363   6.058
11759SOL    HW137236   5.275   4.424   6.131
11759SOL    HW237237   5.356   4.415   5.989
11760SOL     OW37238   4.078   5.234   6.915
11760SOL    HW137239   4.057   5.190   6.828
11760SOL    HW237240   4.175   5.260   6.918
11761SOL     OW37241   4.126   4.475   7.184
11761SOL    HW137242   4.194   4.530   7.137
11761SOL    HW237243   4.166   4.387   7.211
11762SOL     OW37244   5.311   4.503   7.256
11762SOL    HW137245   5.219   4.541   7.251
11762SOL    HW237246   5.371   4.550   7.191
11763SOL     OW37247   4.737   3.829   7.356
11763SOL    HW137248   4.743   3.914   7.304
11763SOL    HW237249   4.769   3.753   7.299
11764SOL     OW37250   4.228   3.774   7.326
11764SOL    HW137251   4.186   3.717   7.256
11764SOL    HW237252   4.162   3.843   7.358
11765SOL     OW37253   4.297   4.594   6.615
11765SOL    HW137254   4.341   4.683   6.606
11765SOL    HW237255   4.234   4.594   6.692
11766SOL     OW37256   5.084   4.586   6.631
11766SOL    HW137257   5.009   4.586   6.565
11766SOL    HW237258   5.121   4.494   6.640
11767SOL     OW37259   4.933   4.249   5.861
11767SOL    HW137260   4.946   4.165   5.915
11767SOL    HW237261   4.904   4.323   5.921
11768SOL     OW37262   4.031   3.937   6.817
11768SOL    HW137263   4.008   3.974   6.907
11768SOL    HW237264   4.001   3.842   6.811
11769SOL     OW37265   3.761   5.034   6.868
11769SOL    HW137266   3.814   4.985   6.936
11769SOL    HW237267   3.783   5.132   6.873
11770SOL     OW37268   4.456   4.358   6.650
11770SOL    HW137269   4.515   4.332   6.574
11770SOL    HW237270   4.428   4.454   6.639
11771SOL     OW37271   5.452   4.659   7.440
11771SOL    HW137272   5.406   4.652   7.351
11771SOL    HW237273   5.390   4.703   7.506
11772SOL     OW37274   4.031   3.787   6.204
11772SOL    HW137275   4.020   3.881   6.237
11772SOL    HW237276   4.026   3.724   6.281
11773SOL     OW37277   5.346   4.091   5.960
11773SOL    HW137278   5.348   4.015   6.024
11773SOL    HW237279   5.298   4.168   6.000
11774SOL     OW37280   4.747   4.490   6.552
11774SOL    HW137281   4.762   4.511   6.648
11774SOL    HW237282   4.717   4.395   6.543
11775SOL     OW37283   4.704   5.297   7.286
11775SOL    HW137284   4.684   5.341   7.198
11775SOL    HW237285   4.743   5.206   7.270
11776SOL     OW37286   5.583   5.242   7.191
11776SOL    HW137287   5.597   5.269   7.096
11776SOL    HW237288   5.666   5.264   7.244
11777SOL     OW37289   4.074   4.622   7.390
11777SOL    HW137290   4.150   4.666   7.438
11777SOL    HW237291   4.109   4.575   7.308
11778SOL     OW37292   5.264   3.998   5.711
11778SOL    HW137293   5.203   3.923   5.734
11778SOL    HW237294   5.286   4.050   5.794
11779SOL     OW37295   5.027   4.562   5.628
11779SOL    HW137296   5.061   4.469   5.643
11779SOL    HW237297   5.045   4.589   5.533
11780SOL     OW37298   4.792   5.057   6.435
11780SOL    HW137299   4.799   4.973   6.380
11780SOL    HW237300   4.854   5.126   6.399
11781SOL     OW37301   4.043   4.534   6.535
11781SOL    HW137302   4.136   4.570   6.540
11781SOL    HW237303   4.037   4.449   6.587
11782SOL     OW37304   4.063   4.233   6.592
11782SOL    HW137305   4.011   4.150   6.575
11782SOL    HW237306   4.140   4.238   6.528
11783SOL     OW37307   4.235   4.139   7.394
11783SOL    HW137308   4.217   4.184   7.482
11783SOL    HW237309   4.277   4.204   7.331
11784SOL     OW37310   4.862   4.104   7.264
11784SOL    HW137311   4.817   4.167   7.328
11784SOL    HW237312   4.955   4.135   7.247
11785SOL     OW37313   4.884   3.931   7.063
11785SOL    HW137314   4.884   3.995   7.140
11785SOL    HW237315   4.912   3.979   6.980
11786SOL     OW37316   3.732   5.050   5.786
11786SOL    HW137317   3.639   5.071   5.755
11786SOL    HW237318   3.742   4.951   5.799
11787SOL     OW37319   3.812   5.525   6.513
11787SOL    HW137320   3.770   5.439   6.486
11787SOL    HW237321   3.906   5.528   6.479
11788SOL     OW37322   4.228   5.292   6.496
11788SOL    HW137323   4.294   5.366   6.505
11788SOL    HW237324   4.272   5.213   6.454
11789SOL     OW37325   4.726   4.520   6.824
11789SOL    HW137326   4.767   4.488   6.910
11789SOL    HW237327   4.630   4.493   6.821
11790SOL     OW37328   3.764   4.268   6.700
11790SOL    HW137329   3.849   4.235   6.659
11790SOL    HW237330   3.777   4.283   6.798
11791SOL     OW37331   3.913   4.244   7.308
11791SOL    HW137332   3.972   4.204   7.238
11791SOL    HW237333   3.855   4.315   7.267
11792SOL     OW37334   5.093   4.674   7.246
11792SOL    HW137335   5.132   4.763   7.266
11792SOL    HW237336   5.103   4.654   7.149
11793SOL     OW37337   4.539   4.296   5.911
11793SOL    HW137338   4.546   4.207   5.865
11793SOL    HW237339   4.445   4.330   5.903
11794SOL     OW37340   5.381   4.328   6.792
11794SOL    HW137341   5.343   4.259   6.854
11794SOL    HW237342   5.463   4.292   6.748
11795SOL     OW37343   3.976   5.288   7.330
11795SOL    HW137344   3.946   5.345   7.406
11795SOL    HW237345   3.969   5.191   7.356
11796SOL     OW37346   4.395   4.188   6.855
11796SOL    HW137347   4.361   4.099   6.825
11796SOL    HW237348   4.421   4.242   6.775
11797SOL     OW37349   4.654   5.402   7.051
11797SOL    HW137350   4.630   5.384   6.956
11797SOL    HW237351   4.684   5.496   7.061
11798SOL     OW37352   4.197   4.224   5.777
11798SOL    HW137353   4.258   4.304   5.781
11798SOL    HW237354   4.102   4.255   5.784
11799SOL     OW37355   3.883   4.861   7.052
11799SOL    HW137356   3.905   4.800   7.128
11799SOL    HW237357   3.893   4.812   6.966
11800SOL     OW37358   5.071   4.783   6.820
11800SOL    HW137359   5.095   4.720   6.746
11800SOL    HW237360   4.981   4.823   6.802
11801SOL     OW37361   5.026   4.579   5.895
11801SOL    HW137362   4.940   4.548   5.937
11801SOL    HW237363   5.022   4.565   5.796
11802SOL     OW37364   5.483   5.471   6.740
11802SOL    HW137365   5.544   5.501   6.667
11802SOL    HW237366   5.445   5.382   6.718
11803SOL     OW37367   4.976   5.455   6.714
11803SOL    HW137368   5.060   5.460   6.660
11803SOL    HW237369   4.953   5.359   6.732
11804SOL     OW37370   3.807   4.982   6.608
11804SOL    HW137371   3.802   4.981   6.708
11804SOL    HW237372   3.724   4.941   6.570
11805SOL     OW37373   4.412   5.386   7.302
11805SOL    HW137374   4.356   5.467   7.311
11805SOL    HW237375   4.464   5.390   7.216
11806SOL     OW37376   4.627   3.810   5.719
11806SOL    HW137377   4.678   3.811   5.633
11806SOL    HW237378   4.683   3.768   5.790
11807SOL     OW37379   5.450   3.859   6.109
11807SOL    HW137380   5.523   3.842   6.042
11807SOL    HW237381   5.419   3.772   6.147
11808SOL     OW37382   5.112   5.297   6.063
11808SOL    HW137383   5.179   5.309   5.989
11808SOL    HW237384   5.072   5.386   6.086
11809SOL     OW37385   3.854   5.518   7.437
11809SOL    HW137386   3.813   5.444   7.490
11809SOL    HW237387   3.918   5.569   7.495
11810SOL     OW37388   5.004   4.651   6.258
11810SOL    HW137389   5.064   4.570   6.260
11810SOL    HW237390   5.044   4.720   6.198
11811SOL     OW37391   4.554   4.997   7.008
11811SOL    HW137392   4.549   5.030   7.103
11811SOL    HW237393   4.468   5.016   6.962
11812SOL     OW37394   4.396   5.340   5.740
11812SOL    HW137395   4.405   5.350   5.641
11812SOL    HW237396   4.356   5.251   5.761
11813SOL     OW37397   5.374   5.444   6.980
11813SOL    HW137398   5.427   5.454   6.896
11813SOL    HW237399   5.347   5.534   7.014
11814SOL     OW37400   5.565   3.899   6.549
11814SOL    HW137401   5.604   3.814   6.513
11814SOL    HW237402   5.467   3.901   6.530
11815SOL     OW37403   3.987   4.050   6.306
11815SOL    HW137404   3.908   4.101   6.272
11815SOL    HW237405   3.978   4.035   6.404
11816SOL     OW37406   4.918   5.336   5.617
11816SOL    HW137407   4.924   5.243   5.654
11816SOL    HW237408   4.859   5.336   5.537
11817SOL     OW37409   4.546   4.726   6.958
11817SOL    HW137410   4.586   4.725   6.866
11817SOL    HW237411   4.556   4.818   6.998
11818SOL     OW37412   4.640   4.634   5.877
11818SOL    HW137413   4.703   4.672   5.809
11818SOL    HW237414   4.680   4.551   5.916
11819SOL     OW37415   5.228   5.331   5.630
11819SOL    HW137416   5.136   5.368   5.637
11819SOL    HW237417   5.266   5.351   5.540
11820SOL     OW37418   4.096   5.012   7.076
11820SOL    HW137419   4.083   5.105   7.042
11820SOL    HW237420   4.012   4.960   7.063
11821SOL     OW37421   5.338   5.016   6.875
11821SOL    HW137422   5.398   5.019   6.955
11821SOL    HW237423   5.263   5.080   6.888
11822SOL     OW37424   4.763   4.822   6.282
11822SOL    HW137425   4.693   4.775   6.336
11822SOL    HW237426   4.822   4.754   6.239
11823SOL     OW37427   4.738   3.960   6.557
11823SOL    HW137428   4.730   3.924   6.464
11823SOL    HW237429   4.736   3.884   6.622
11824SOL     OW37430   4.314   5.211   6.077
11824SOL    HW137431   4.356   5.153   6.007
11824SOL    HW237432   4.270   5.290   6.033
11825SOL     OW37433   5.433   4.109   6.967
11825SOL    HW137434   5.506   4.178   6.971
11825SOL    HW237435   5.461   4.034   6.908
11826SOL     OW37436   3.979   5.072   5.876
11826SOL    HW137437   3.883   5.073   5.849
11826SOL    HW237438   3.991   5.125   5.960
11827SOL     OW37439   3.829   4.737   7.312
11827SOL    HW137440   3.752   4.704   7.366
11827SOL    HW237441   3.914   4.707   7.354
11828SOL     OW37442   4.396   3.927   7.075
11828SOL    HW137443   4.486   3.911   7.035
11828SOL    HW237444   4.404   3.932   7.174
11829SOL     OW37445   3.799   4.069   5.619
11829SOL    HW137446   3.707   4.041   5.590
11829SOL    HW237447   3.830   4.146   5.563
11830SOL     OW37448   5.164   4.580   6.984
11830SOL    HW137449   5.107   4.632   6.921
11830SOL    HW237450   5.260   4.592   6.960
11831SOL     OW37451   3.796   3.890   5.904
11831SOL    HW137452   3.779   3.973   5.850
11831SOL    HW237453   3.886   3.853   5.882
11832SOL     OW37454   4.907   5.059   5.705
11832SOL    HW137455   4.808   5.048   5.707
11832SOL    HW237456   4.941   5.074   5.798
11833SOL     OW37457   4.337   4.566   7.017
11833SOL    HW137458   4.393   4.647   7.000
11833SOL    HW237459   4.396   4.486   7.020
11834SOL     OW37460   5.217   5.491   6.545
11834SOL    HW137461   5.250   5.555   6.476
11834SOL    HW237462   5.283   5.485   6.620
11835SOL     OW37463   4.440   4.289   7.294
11835SOL    HW137464   4.459   4.354   7.368
11835SOL    HW237465   4.500   4.209   7.303
11836SOL     OW37466   5.174   4.944   7.219
11836SOL    HW137467   5.165   4.934   7.318
11836SOL    HW237468   5.270   4.937   7.193
11837SOL     OW37469   4.114   5.465   7.146
11837SOL    HW137470   4.023   5.506   7.144
11837SOL    HW237471   4.107   5.371   7.178
11838SOL     OW37472   5.398   4.607   6.840
11838SOL    HW137473   5.371   4.518   6.803
11838SOL    HW237474   5.399   4.675   6.767
11839SOL     OW37475   4.949   4.049   6.035
11839SOL    HW137476   5.014   3.975   6.024
11839SOL    HW237477   4.969   4.099   6.119
11840SOL     OW37478   4.318   4.469   6.238
11840SOL    HW137479   4.368   4.554   6.219
11840SOL    HW237480   4.230   4.471   6.190
11841SOL     OW37481   5.501   4.066   7.228
11841SOL    HW137482   5.484   4.097   7.134
11841SOL    HW237483   5.417   4.029   7.266
11842SOL     OW37484   5.454   4.658   7.103
11842SOL    HW137485   5.492   4.749   7.118
11842SOL    HW237486   5.446   4.641   7.004
11843SOL     OW37487   4.583   5.098   5.602
11843SOL    HW137488   4.537   5.113   5.690
11843SOL    HW237489   4.627   5.183   5.572
11844SOL     OW37490   4.385   5.514   6.539
11844SOL    HW137491   4.339   5.602   6.526
11844SOL    HW237492   4.484   5.526   6.532
11845SOL     OW37493   5.132   5.575   7.306
11845SOL    HW137494   5.036   5.564   7.279
11845SOL    HW237495   5.188   5.508   7.258
11846SOL     OW37496   4.583   4.680   6.447
11846SOL    HW137497   4.637   4.611   6.495
11846SOL    HW237498   4.551   4.749   6.513
11847SOL     OW37499   4.807   4.708   5.673
11847SOL    HW137500   4.784   4.761   5.591
11847SOL    HW237501   4.888   4.652   5.654
11848SOL     OW37502   5.585   5.293   6.437
11848SOL    HW137503   5.514   5.281   6.367
11848SOL    HW237504   5.586   5.214   6.497
11849SOL     OW37505   3.945   5.038   7.430
11849SOL    HW137506   3.880   4.965   7.409
11849SOL    HW237507   3.949   5.052   7.528
11850SOL     OW37508   3.803   4.964   6.239
11850SOL    HW137509   3.802   4.917   6.327
11850SOL    HW237510   3.885   4.936   6.188
11851SOL     OW37511   4.396   5.115   7.210
11851SOL    HW137512   4.318   5.065   7.248
11851SOL    HW237513   4.393   5.210   7.241
11852SOL     OW37514   5.548   3.916   6.813
11852SOL    HW137515   5.544   3.826   6.857
11852SOL    HW237516   5.551   3.905   6.714
11853SOL     OW37517   4.152   4.148   6.106
11853SOL    HW137518   4.182   4.076   6.044
11853SOL    HW237519   4.113   4.108   6.189
11854SOL     OW37520   5.429   5.211   6.690
11854SOL    HW137521   5.336   5.186   6.663
11854SOL    HW237522   5.455   5.161   6.772
11855SOL     OW37523   4.041   4.271   6.866
11855SOL    HW137524   4.079   4.212   6.938
11855SOL    HW237525   4.081   4.245   6.778
11856SOL     OW37526   4.536   5.310   6.273
11856SOL    HW137527   4.568   5.320   6.179
11856SOL    HW237528   4.457   5.248   6.275
11857SOL     OW37529   5.148   3.938   6.698
11857SOL    HW137530   5.200   3.873   6.753
11857SOL    HW237531   5.099   4.001   6.759
11858SOL     OW37532   4.725   3.758   6.740
11858SOL    HW137533   4.662   3.686   6.709
11858SOL    HW237534   4.818   3.722   6.740
11859SOL     OW37535   4.494   5.054   5.887
11859SOL    HW137536   4.448   4.967   5.904
11859SOL    HW237537   4.585   5.051   5.928
11860SOL     OW37538   4.342   5.291   6.870
11860SOL    HW137539   4.337   5.373   6.927
11860SOL    HW237540   4.431   5.288   6.825
11861SOL     OW37541   5.076   3.776   5.754
11861SOL    HW137542   5.111   3.735   5.670
11861SOL    HW237543   4.986   3.738   5.774
11862SOL     OW37544   5.024   4.177   6.277
11862SOL    HW137545   4.965   4.257   6.281
11862SOL    HW237546   5.039   4.142   6.370
11863SOL     OW37547   5.317   3.945   6.468
11863SOL    HW137548   5.233   3.944   6.522
11863SOL    HW237549   5.319   4.028   6.412
11864SOL     OW37550   3.763   4.801   5.886
11864SOL    HW137551   3.862   4.790   5.877
11864SOL    HW237552   3.723   4.715   5.918
11865SOL     OW37553   4.599   5.370   5.923
11865SOL    HW137554   4.522   5.335   5.869
11865SOL    HW237555   4.567   5.441   5.985
11866SOL     OW37556   3.954   4.352   7.561
11866SOL    HW137557   3.861   4.350   7.598
11866SOL    HW237558   3.955   4.313   7.469
11867SOL     OW37559   3.949   3.999   8.444
11867SOL    HW137560   3.984   3.982   8.536
11867SOL    HW237561   3.861   3.954   8.432
11868SOL     OW37562   3.743   4.092   8.095
11868SOL    HW137563   3.661   4.135   8.134
11868SOL    HW237564   3.715   4.019   8.032
11869SOL     OW37565   4.293   4.999   8.613
11869SOL    HW137566   4.200   4.992   8.576
11869SOL    HW237567   4.304   5.088   8.657
11870SOL     OW37568   5.279   5.235   8.151
11870SOL    HW137569   5.222   5.219   8.232
11870SOL    HW237570   5.220   5.245   8.071
11871SOL     OW37571   5.467   4.342   8.304
11871SOL    HW137572   5.500   4.436   8.304
11871SOL    HW237573   5.518   4.288   8.370
11872SOL     OW37574   4.859   4.427   8.165
11872SOL    HW137575   4.916   4.505   8.140
11872SOL    HW237576   4.799   4.453   8.241
11873SOL     OW37577   5.479   4.331   7.679
11873SOL    HW137578   5.467   4.318   7.580
11873SOL    HW237579   5.449   4.250   7.728
11874SOL     OW37580   4.492   4.868   8.471
11874SOL    HW137581   4.414   4.885   8.531
11874SOL    HW237582   4.526   4.955   8.435
11875SOL     OW37583   4.409   4.736   8.113
11875SOL    HW137584   4.478   4.720   8.183
11875SOL    HW237585   4.336   4.793   8.151
11876SOL     OW37586   4.059   5.159   8.509
11876SOL    HW137587   3.981   5.128   8.456
11876SOL    HW237588   4.117   5.217   8.452
11877SOL     OW37589   5.184   5.229   8.787
11877SOL    HW137590   5.208   5.323   8.813
11877SOL    HW237591   5.168   5.175   8.869
11878SOL     OW37592   4.162   4.116   8.947
11878SOL    HW137593   4.244   4.060   8.956
11878SOL    HW237594   4.081   4.058   8.951
11879SOL     OW37595   5.327   4.171   8.185
11879SOL    HW137596   5.253   4.217   8.135
11879SOL    HW237597   5.378   4.239   8.238
11880SOL     OW37598   3.955   5.437   7.931
11880SOL    HW137599   3.989   5.514   7.985
11880SOL    HW237600   3.999   5.437   7.841
11881SOL     OW37601   3.954   5.158   7.986
11881SOL    HW137602   3.928   5.254   7.986
11881SOL    HW237603   3.883   5.104   8.031
11882SOL     OW37604   3.964   4.815   8.334
11882SOL    HW137605   3.978   4.731   8.386
11882SOL    HW237606   3.909   4.879   8.389
11883SOL     OW37607   4.344   5.510   8.887
11883SOL    HW137608   4.252   5.493   8.922
11883SOL    HW237609   4.372   5.602   8.913
11884SOL     OW37610   4.330   4.688   7.571
11884SOL    HW137611   4.337   4.772   7.517
11884SOL    HW237612   4.376   4.701   7.659
11885SOL     OW37613   5.318   3.838   8.928
11885SOL    HW137614   5.300   3.905   8.856
11885SOL    HW237615   5.315   3.884   9.017
11886SOL     OW37616   3.846   4.367   8.011
11886SOL    HW137617   3.801   4.279   8.028
11886SOL    HW237618   3.845   4.421   8.095
11887SOL     OW37619   5.566   5.491   7.807
11887SOL    HW137620   5.620   5.462   7.887
11887SOL    HW237621   5.596   5.581   7.778
11888SOL     OW37622   3.751   5.320   7.565
11888SOL    HW137623   3.732   5.224   7.586
11888SOL    HW237624   3.718   5.378   7.640
11889SOL     OW37625   5.413   4.646   8.060
11889SOL    HW137626   5.508   4.617   8.068
11889SOL    HW237627   5.405   4.711   7.985
11890SOL     OW37628   5.365   4.832   7.880
11890SOL    HW137629   5.451   4.834   7.828
11890SOL    HW237630   5.379   4.879   7.968
11891SOL     OW37631   4.337   5.089   8.174
11891SOL    HW137632   4.288   5.002   8.183
11891SOL    HW237633   4.314   5.132   8.087
11892SOL     OW37634   4.533   3.728   7.950
11892SOL    HW137635   4.573   3.819   7.941
11892SOL    HW237636   4.433   3.736   7.956
11893SOL     OW37637   3.921   4.700   8.712
11893SOL    HW137638   4.010   4.655   8.698
11893SOL    HW237639   3.848   4.635   8.693
11894SOL     OW37640   5.249   4.723   7.638
11894SOL    HW137641   5.186   4.647   7.651
11894SOL    HW237642   5.297   4.741   7.724
11895SOL     OW37643   5.190   5.141   8.401
11895SOL    HW137644   5.131   5.147   8.481
11895SOL    HW237645   5.175   5.053   8.355
11896SOL     OW37646   5.391   5.438   8.020
11896SOL    HW137647   5.350   5.415   7.932
11896SOL    HW237648   5.373   5.364   8.085
11897SOL     OW37649   4.322   4.453   7.718
11897SOL    HW137650   4.346   4.522   7.650
11897SOL    HW237651   4.244   4.486   7.772
11898SOL     OW37652   5.005   4.069   8.392
11898SOL    HW137653   4.919   4.019   8.379
11898SOL    HW237654   5.067   4.015   8.448
11899SOL     OW37655   5.300   5.386   7.755
11899SOL    HW137656   5.389   5.432   7.758
11899SOL    HW237657   5.279   5.362   7.660
11900SOL     OW37658   4.531   4.329   8.913
11900SOL    HW137659   4.484   4.326   9.002
11900SOL    HW237660   4.480   4.274   8.847
11901SOL     OW37661   4.715   4.134   8.690
11901SOL    HW137662   4.638   4.168   8.744
11901SOL    HW237663   4.681   4.083   8.611
11902SOL     OW37664   4.765   4.425   7.877
11902SOL    HW137665   4.791   4.421   7.973
11902SOL    HW237666   4.680   4.374   7.863
11903SOL     OW37667   3.800   4.535   8.237
11903SOL    HW137668   3.899   4.523   8.246
11903SOL    HW237669   3.776   4.630   8.258
11904SOL     OW37670   3.854   5.545   0.019
11904SOL    HW137671   3.844   5.530   0.118
11904SOL    HW237672   3.768   5.581  -0.017
11905SOL     OW37673   4.589   4.072   7.643
11905SOL    HW137674   4.648   4.135   7.594
11905SOL    HW237675   4.608   3.978   7.614
11906SOL     OW37676   5.086   4.868   7.993
11906SOL    HW137677   5.169   4.839   7.945
11906SOL    HW237678   5.037   4.935   7.937
11907SOL     OW37679   4.274   3.920   8.333
11907SOL    HW137680   4.269   3.915   8.433
11907SOL    HW237681   4.276   4.016   8.304
11908SOL     OW37682   4.732   5.180   7.925
11908SOL    HW137683   4.686   5.252   7.873
11908SOL    HW237684   4.728   5.200   8.023
11909SOL     OW37685   4.075   5.525   8.301
11909SOL    HW137686   4.125   5.439   8.307
11909SOL    HW237687   4.140   5.602   8.298
11910SOL     OW37688   5.519   4.790   8.321
11910SOL    HW137689   5.457   4.775   8.245
11910SOL    HW237690   5.467   4.801   8.406
11911SOL     OW37691   4.045   4.667   7.690
11911SOL    HW137692   4.127   4.706   7.648
11911SOL    HW237693   4.018   4.585   7.641
11912SOL     OW37694   5.182   4.459   8.176
11912SOL    HW137695   5.177   4.394   8.251
11912SOL    HW237696   5.262   4.518   8.189
11913SOL     OW37697   4.835   5.500   7.685
11913SOL    HW137698   4.775   5.438   7.735
11913SOL    HW237699   4.866   5.456   7.600
11914SOL     OW37700   3.926   4.009   8.946
11914SOL    HW137701   3.846   4.069   8.933
11914SOL    HW237702   3.916   3.960   9.032
11915SOL     OW37703   5.356   5.101   7.529
11915SOL    HW137704   5.324   5.195   7.519
11915SOL    HW237705   5.280   5.038   7.517
11916SOL     OW37706   4.188   5.467   7.771
11916SOL    HW137707   4.221   5.506   7.857
11916SOL    HW237708   4.264   5.460   7.706
11917SOL     OW37709   5.124   3.831   7.874
11917SOL    HW137710   5.100   3.794   7.784
11917SOL    HW237711   5.223   3.847   7.878
11918SOL     OW37712   3.973   5.509   8.689
11918SOL    HW137713   4.030   5.444   8.739
11918SOL    HW237714   3.957   5.476   8.596
11919SOL     OW37715   4.664   5.422   8.352
11919SOL    HW137716   4.744   5.365   8.373
11919SOL    HW237717   4.615   5.382   8.275
11920SOL     OW37718   4.106   4.424   7.928
11920SOL    HW137719   4.151   4.334   7.925
11920SOL    HW237720   4.012   4.413   7.961
11921SOL     OW37721   4.338   3.846   7.565
11921SOL    HW137722   4.436   3.824   7.572
11921SOL    HW237723   4.307   3.829   7.472
11922SOL     OW37724   4.612   5.238   8.643
11922SOL    HW137725   4.589   5.213   8.549
11922SOL    HW237726   4.673   5.169   8.682
11923SOL     OW37727   4.527   5.126   8.372
11923SOL    HW137728   4.617   5.140   8.330
11923SOL    HW237729   4.456   5.128   8.301
11924SOL     OW37730   4.646   4.227   8.347
11924SOL    HW137731   4.621   4.218   8.251
11924SOL    HW237732   4.694   4.145   8.378
11925SOL     OW37733   4.263   3.788   7.960
11925SOL    HW137734   4.182   3.789   8.018
11925SOL    HW237735   4.266   3.871   7.905
11926SOL     OW37736   5.158   4.912   7.489
11926SOL    HW137737   5.190   4.836   7.546
11926SOL    HW237738   5.066   4.939   7.519
11927SOL     OW37739   4.021   3.759   7.619
11927SOL    HW137740   4.070   3.843   7.598
11927SOL    HW237741   4.083   3.694   7.664
11928SOL     OW37742   4.659   3.960   7.928
11928SOL    HW137743   4.611   4.001   7.850
11928SOL    HW237744   4.758   3.958   7.909
11929SOL     OW37745   4.951   5.294   8.241
11929SOL    HW137746   4.972   5.368   8.176
11929SOL    HW237747   5.019   5.294   8.314
11930SOL     OW37748   4.183   4.876   8.189
11930SOL    HW137749   4.112   4.849   8.254
11930SOL    HW237750   4.157   4.848   8.096
11931SOL     OW37751   4.995   5.521   8.039
11931SOL    HW137752   5.039   5.585   7.975
11931SOL    HW237753   4.945   5.573   8.109
11932SOL     OW37754   4.756   4.273   7.464
11932SOL    HW137755   4.715   4.355   7.425
11932SOL    HW237756   4.820   4.299   7.537
11933SOL     OW37757   3.802   4.280   8.834
11933SOL    HW137758   3.894   4.279   8.793
11933SOL    HW237759   3.796   4.354   8.901
11934SOL     OW37760   4.285   3.946   8.595
11934SOL    HW137761   4.323   3.862   8.632
11934SOL    HW237762   4.197   3.965   8.639
11935SOL     OW37763   4.590   4.178   8.090
11935SOL    HW137764   4.558   4.250   8.028
11935SOL    HW237765   4.614   4.097   8.037
11936SOL     OW37766   4.741   3.763   8.201
11936SOL    HW137767   4.669   3.768   8.132
11936SOL    HW237768   4.717   3.694   8.270
11937SOL     OW37769   5.153   4.897   8.315
11937SOL    HW137770   5.098   4.813   8.308
11937SOL    HW237771   5.179   4.926   8.223
11938SOL     OW37772   5.190   4.314   8.440
11938SOL    HW137773   5.160   4.219   8.447
11938SOL    HW237774   5.263   4.330   8.506
11939SOL     OW37775   5.581   4.557   7.825
11939SOL    HW137776   5.623   4.493   7.889
11939SOL    HW237777   5.543   4.506   7.747
11940SOL     OW37778   4.212   5.109   7.622
11940SOL    HW137779   4.125   5.094   7.669
11940SOL    HW237780   4.195   5.135   7.527
11941SOL     OW37781   5.388   5.004   8.105
11941SOL    HW137782   5.487   5.012   8.119
11941SOL    HW237783   5.343   5.088   8.136
11942SOL     OW37784   5.114   4.299   7.526
11942SOL    HW137785   5.060   4.278   7.607
11942SOL    HW237786   5.205   4.258   7.535
11943SOL     OW37787   4.251   3.980   7.776
11943SOL    HW137788   4.278   3.921   7.701
11943SOL    HW237789   4.251   4.075   7.745
11944SOL     OW37790   4.788   5.071   8.788
11944SOL    HW137791   4.708   5.048   8.843
11944SOL    HW237792   4.871   5.045   8.837
11945SOL     OW37793   4.835   4.919   8.548
11945SOL    HW137794   4.795   4.963   8.629
11945SOL    HW237795   4.794   4.956   8.465
11946SOL     OW37796   5.362   4.823   8.527
11946SOL    HW137797   5.367   4.904   8.586
11946SOL    HW237798   5.276   4.825   8.476
11947SOL     OW37799   4.639   3.813   8.850
11947SOL    HW137800   4.664   3.793   8.755
11947SOL    HW237801   4.711   3.869   8.892
11948SOL     OW37802   4.429   4.774   7.816
11948SOL    HW137803   4.415   4.781   7.915
11948SOL    HW237804   4.513   4.723   7.798
11949SOL     OW37805   4.134   4.537   8.699
11949SOL    HW137806   4.220   4.549   8.749
11949SOL    HW237807   4.092   4.450   8.726
11950SOL     OW37808   4.998   4.110   8.710
11950SOL    HW137809   5.019   4.184   8.774
11950SOL    HW237810   4.909   4.127   8.667
11951SOL     OW37811   3.788   5.288   8.779
11951SOL    HW137812   3.742   5.370   8.745
11951SOL    HW237813   3.886   5.307   8.788
11952SOL     OW37814   4.091   4.824   7.949
11952SOL    HW137815   4.084   4.907   7.893
11952SOL    HW237816   4.095   4.744   7.889
11953SOL     OW37817   4.290   4.261   8.313
11953SOL    HW137818   4.302   4.327   8.239
11953SOL    HW237819   4.336   4.295   8.396
11954SOL     OW37820   4.976   5.072   7.836
11954SOL    HW137821   5.026   5.149   7.876
11954SOL    HW237822   4.881   5.074   7.868
11955SOL     OW37823   4.996   5.169   8.590
11955SOL    HW137824   5.043   5.182   8.677
11955SOL    HW237825   4.930   5.095   8.599
11956SOL     OW37826   5.306   4.363   7.920
11956SOL    HW137827   5.275   4.424   7.993
11956SOL    HW237828   5.356   4.415   7.851
11957SOL     OW37829   4.078   5.234   8.777
11957SOL    HW137830   4.057   5.190   8.690
11957SOL    HW237831   4.175   5.260   8.780
11958SOL     OW37832   4.126   4.475   0.046
11958SOL    HW137833   4.194   4.530  -0.001
11958SOL    HW237834   4.166   4.387   0.073
11959SOL     OW37835   5.311   4.503   0.118
11959SOL    HW137836   5.219   4.541   0.113
11959SOL    HW237837   5.371   4.550   0.053
11960SOL     OW37838   4.297   4.594   8.477
11960SOL    HW137839   4.341   4.683   8.468
11960SOL    HW237840   4.234   4.594   8.554
11961SOL     OW37841   5.084   4.586   8.493
11961SOL    HW137842   5.009   4.586   8.427
11961SOL    HW237843   5.121   4.494   8.502
11962SOL     OW37844   4.933   4.249   7.723
11962SOL    HW137845   4.946   4.165   7.777
11962SOL    HW237846   4.904   4.323   7.783
11963SOL     OW37847   4.031   3.937   8.679
11963SOL    HW137848   4.008   3.974   8.769
11963SOL    HW237849   4.001   3.842   8.673
11964SOL     OW37850   3.761   5.034   8.730
11964SOL    HW137851   3.814   4.985   8.798
11964SOL    HW237852   3.783   5.132   8.735
11965SOL     OW37853   4.456   4.358   8.512
11965SOL    HW137854   4.515   4.332   8.436
11965SOL    HW237855   4.428   4.454   8.501
11966SOL     OW37856   4.031   3.787   8.066
11966SOL    HW137857   4.020   3.881   8.099
11966SOL    HW237858   4.026   3.724   8.143
11967SOL     OW37859   5.346   4.091   7.822
11967SOL    HW137860   5.348   4.015   7.886
11967SOL    HW237861   5.298   4.168   7.862
11968SOL     OW37862   4.747   4.490   8.414
11968SOL    HW137863   4.762   4.511   8.510
11968SOL    HW237864   4.717   4.395   8.405
11969SOL     OW37865   4.704   5.297   0.148
11969SOL    HW137866   4.684   5.341   0.060
11969SOL    HW237867   4.743   5.206   0.132
11970SOL     OW37868   5.583   5.242   0.053
11970SOL    HW137869   5.597   5.269  -0.042
11970SOL    HW237870   5.666   5.264   0.106
11971SOL     OW37871   5.264   3.998   7.573
11971SOL    HW137872   5.203   3.923   7.596
11971SOL    HW237873   5.286   4.050   7.656
11972SOL     OW37874   5.027   4.562   7.490
11972SOL    HW137875   5.061   4.469   7.505
11972SOL    HW237876   5.045   4.589   7.395
11973SOL     OW37877   4.792   5.057   8.297
11973SOL    HW137878   4.799   4.973   8.242
11973SOL    HW237879   4.854   5.126   8.261
11974SOL     OW37880   4.043   4.534   8.397
11974SOL    HW137881   4.136   4.570   8.402
11974SOL    HW237882   4.037   4.449   8.449
11975SOL     OW37883   4.063   4.233   8.454
11975SOL    HW137884   4.011   4.150   8.437
11975SOL    HW237885   4.140   4.238   8.390
11976SOL     OW37886   4.862   4.104   0.126
11976SOL    HW137887   4.817   4.167   0.190
11976SOL    HW237888   4.955   4.135   0.109
11977SOL     OW37889   4.884   3.931   8.925
11977SOL    HW137890   4.884   3.995   9.002
11977SOL    HW237891   4.912   3.979   8.842
11978SOL     OW37892   3.732   5.050   7.648
11978SOL    HW137893   3.639   5.071   7.617
11978SOL    HW237894   3.742   4.951   7.661
11979SOL     OW37895   3.812   5.525   8.375
11979SOL    HW137896   3.770   5.439   8.348
11979SOL    HW237897   3.906   5.528   8.341
11980SOL     OW37898   4.228   5.292   8.358
11980SOL    HW137899   4.294   5.366   8.367
11980SOL    HW237900   4.272   5.213   8.316
11981SOL     OW37901   4.726   4.520   8.686
11981SOL    HW137902   4.767   4.488   8.772
11981SOL    HW237903   4.630   4.493   8.683
11982SOL     OW37904   3.764   4.268   8.562
11982SOL    HW137905   3.849   4.235   8.521
11982SOL    HW237906   3.777   4.283   8.660
11983SOL     OW37907   4.539   4.296   7.773
11983SOL    HW137908   4.546   4.207   7.727
11983SOL    HW237909   4.445   4.330   7.765
11984SOL     OW37910   5.381   4.328   8.654
11984SOL    HW137911   5.343   4.259   8.716
11984SOL    HW237912   5.463   4.292   8.610
11985SOL     OW37913   4.395   4.188   8.717
11985SOL    HW137914   4.361   4.099   8.687
11985SOL    HW237915   4.421   4.242   8.637
11986SOL     OW37916   4.654   5.402   8.913
11986SOL    HW137917   4.630   5.384   8.818
11986SOL    HW237918   4.684   5.496   8.923
11987SOL     OW37919   4.197   4.224   7.639
11987SOL    HW137920   4.258   4.304   7.643
11987SOL    HW237921   4.102   4.255   7.646
11988SOL     OW37922   3.883   4.861   8.914
11988SOL    HW137923   3.905   4.800   8.990
11988SOL    HW237924   3.893   4.812   8.828
11989SOL     OW37925   5.071   4.783   8.682
11989SOL    HW137926   5.095   4.720   8.608
11989SOL    HW237927   4.981   4.823   8.664
11990SOL     OW37928   5.026   4.579   7.757
11990SOL    HW137929   4.940   4.548   7.799
11990SOL    HW237930   5.022   4.565   7.658
11991SOL     OW37931   5.483   5.471   8.602
11991SOL    HW137932   5.544   5.501   8.529
11991SOL    HW237933   5.445   5.382   8.580
11992SOL     OW37934   4.976   5.455   8.576
11992SOL    HW137935   5.060   5.460   8.522
11992SOL    HW237936   4.953   5.359   8.594
11993SOL     OW37937   3.807   4.982   8.470
11993SOL    HW137938   3.802   4.981   8.570
11993SOL    HW237939   3.724   4.941   8.432
11994SOL     OW37940   4.627   3.810   7.581
11994SOL    HW137941   4.678   3.811   7.495
11994SOL    HW237942   4.683   3.768   7.652
11995SOL     OW37943   5.450   3.859   7.971
11995SOL    HW137944   5.523   3.842   7.904
11995SOL    HW237945   5.419   3.772   8.009
11996SOL     OW37946   5.112   5.297   7.925
11996SOL    HW137947   5.179   5.309   7.851
11996SOL    HW237948   5.072   5.386   7.948
11997SOL     OW37949   5.004   4.651   8.120
11997SOL    HW137950   5.064   4.570   8.122
11997SOL    HW237951   5.044   4.720   8.060
11998SOL     OW37952   4.396   5.340   7.602
11998SOL    HW137953   4.405   5.350   7.503
11998SOL    HW237954   4.356   5.251   7.623
11999SOL     OW37955   5.374   5.444   8.842
11999SOL    HW137956   5.427   5.454   8.758
11999SOL    HW237957   5.347   5.534   8.876
12000SOL     OW37958   5.565   3.899   8.411
12000SOL    HW137959   5.604   3.814   8.375
12000SOL    HW237960   5.467   3.901   8.392
12001SOL     OW37961   3.987   4.050   8.168
12001SOL    HW137962   3.908   4.101   8.134
12001SOL    HW237963   3.978   4.035   8.266
12002SOL     OW37964   4.918   5.336   7.479
12002SOL    HW137965   4.924   5.243   7.516
12002SOL    HW237966   4.859   5.336   7.399
12003SOL     OW37967   4.546   4.726   8.820
12003SOL    HW137968   4.586   4.725   8.728
12003SOL    HW237969   4.556   4.818   8.860
12004SOL     OW37970   4.640   4.634   7.739
12004SOL    HW137971   4.703   4.672   7.671
12004SOL    HW237972   4.680   4.551   7.778
12005SOL     OW37973   5.228   5.331   7.492
12005SOL    HW137974   5.136   5.368   7.499
12005SOL    HW237975   5.266   5.351   7.402
12006SOL     OW37976   4.096   5.012   8.938
12006SOL    HW137977   4.083   5.105   8.904
12006SOL    HW237978   4.012   4.960   8.925
12007SOL     OW37979   5.338   5.016   8.737
12007SOL    HW137980   5.398   5.019   8.817
12007SOL    HW237981   5.263   5.080   8.750
12008SOL     OW37982   4.763   4.822   8.144
12008SOL    HW137983   4.693   4.775   8.198
12008SOL    HW237984   4.822   4.754   8.101
12009SOL     OW37985   4.738   3.960   8.419
12009SOL    HW137986   4.730   3.924   8.326
12009SOL    HW237987   4.736   3.884   8.484
12010SOL     OW37988   4.314   5.211   7.939
12010SOL    HW137989   4.356   5.153   7.869
12010SOL    HW237990   4.270   5.290   7.895
12011SOL     OW37991   5.433   4.109   8.829
12011SOL    HW137992   5.506   4.178   8.833
12011SOL    HW237993   5.461   4.034   8.770
12012SOL     OW37994   3.979   5.072   7.738
12012SOL    HW137995   3.883   5.073   7.711
12012SOL    HW237996   3.991   5.125   7.822
12013SOL     OW37997   3.799   4.069   7.481
12013SOL    HW137998   3.707   4.041   7.452
12013SOL    HW237999   3.830   4.146   7.425
12014SOL     OW38000   5.164   4.580   8.846
12014SOL    HW138001   5.107   4.632   8.783
12014SOL    HW238002   5.260   4.592   8.822
12015SOL     OW38003   3.796   3.890   7.766
12015SOL    HW138004   3.779   3.973   7.712
12015SOL    HW238005   3.886   3.853   7.744
12016SOL     OW38006   4.907   5.059   7.567
12016SOL    HW138007   4.808   5.048   7.569
12016SOL    HW238008   4.941   5.074   7.660
12017SOL     OW38009   4.337   4.566   8.879
12017SOL    HW138010   4.393   4.647   8.862
12017SOL    HW238011   4.396   4.486   8.882
12018SOL     OW38012   5.217   5.491   8.407
12018SOL    HW138013   5.250   5.555   8.338
12018SOL    HW238014   5.283   5.485   8.482
12019SOL     OW38015   4.114   5.465   0.008
12019SOL    HW138016   4.023   5.506   0.006
12019SOL    HW238017   4.107   5.371   0.040
12020SOL     OW38018   5.398   4.607   8.702
12020SOL    HW138019   5.371   4.518   8.665
12020SOL    HW238020   5.399   4.675   8.629
12021SOL     OW38021   4.949   4.049   7.897
12021SOL    HW138022   5.014   3.975   7.886
12021SOL    HW238023   4.969   4.099   7.981
12022SOL     OW38024   4.318   4.469   8.100
12022SOL    HW138025   4.368   4.554   8.081
12022SOL    HW238026   4.230   4.471   8.052
12023SOL     OW38027   5.501   4.066   0.090
12023SOL    HW138028   5.484   4.097  -0.004
12023SOL    HW238029   5.417   4.029   0.128
12024SOL     OW38030   5.454   4.658   8.965
12024SOL    HW138031   5.492   4.749   8.980
12024SOL    HW238032   5.446   4.641   8.866
12025SOL     OW38033   4.583   5.098   7.464
12025SOL    HW138034   4.537   5.113   7.552
12025SOL    HW238035   4.627   5.183   7.434
12026SOL     OW38036   4.385   5.514   8.401
12026SOL    HW138037   4.339   5.602   8.388
12026SOL    HW238038   4.484   5.526   8.394
12027SOL     OW38039   5.132   5.575   0.168
12027SOL    HW138040   5.036   5.564   0.141
12027SOL    HW238041   5.188   5.508   0.120
12028SOL     OW38042   4.583   4.680   8.309
12028SOL    HW138043   4.637   4.611   8.357
12028SOL    HW238044   4.551   4.749   8.375
12029SOL     OW38045   4.807   4.708   7.535
12029SOL    HW138046   4.784   4.761   7.453
12029SOL    HW238047   4.888   4.652   7.516
12030SOL     OW38048   5.585   5.293   8.299
12030SOL    HW138049   5.514   5.281   8.229
12030SOL    HW238050   5.586   5.214   8.359
12031SOL     OW38051   3.803   4.964   8.101
12031SOL    HW138052   3.802   4.917   8.189
12031SOL    HW238053   3.885   4.936   8.050
12032SOL     OW38054   5.548   3.916   8.675
12032SOL    HW138055   5.544   3.826   8.719
12032SOL    HW238056   5.551   3.905   8.576
12033SOL     OW38057   4.152   4.148   7.968
12033SOL    HW138058   4.182   4.076   7.906
12033SOL    HW238059   4.113   4.108   8.051
12034SOL     OW38060   5.429   5.211   8.552
12034SOL    HW138061   5.336   5.186   8.525
12034SOL    HW238062   5.455   5.161   8.634
12035SOL     OW38063   4.041   4.271   8.728
12035SOL    HW138064   4.079   4.212   8.800
12035SOL    HW238065   4.081   4.245   8.640
12036SOL     OW38066   4.536   5.310   8.135
12036SOL    HW138067   4.568   5.320   8.041
12036SOL    HW238068   4.457   5.248   8.137
12037SOL     OW38069   5.148   3.938   8.560
12037SOL    HW138070   5.200   3.873   8.615
12037SOL    HW238071   5.099   4.001   8.621
12038SOL     OW38072   4.725   3.758   8.602
12038SOL    HW138073   4.662   3.686   8.571
12038SOL    HW238074   4.818   3.722   8.602
12039SOL     OW38075   4.494   5.054   7.749
12039SOL    HW138076   4.448   4.967   7.766
12039SOL    HW238077   4.585   5.051   7.790
12040SOL     OW38078   4.342   5.291   8.732
12040SOL    HW138079   4.337   5.373   8.789
12040SOL    HW238080   4.431   5.288   8.687
12041SOL     OW38081   5.076   3.776   7.616
12041SOL    HW138082   5.111   3.735   7.532
12041SOL    HW238083   4.986   3.738   7.636
12042SOL     OW38084   5.024   4.177   8.139
12042SOL    HW138085   4.965   4.257   8.143
12042SOL    HW238086   5.039   4.142   8.232
12043SOL     OW38087   5.317   3.945   8.330
12043SOL    HW138088   5.233   3.944   8.384
12043SOL    HW238089   5.319   4.028   8.274
12044SOL     OW38090   3.763   4.801   7.748
12044SOL    HW138091   3.862   4.790   7.739
12044SOL    HW238092   3.723   4.715   7.780
12045SOL     OW38093   4.599   5.370   7.785
12045SOL    HW138094   4.522   5.335   7.731
12045SOL    HW238095   4.567   5.441   7.847
12046SOL     OW38096   3.954   6.214   0.113
12046SOL    HW138097   3.861   6.212   0.150
12046SOL    HW238098   3.955   6.175   0.021
12047SOL     OW38099   3.949   5.861   0.996
12047SOL    HW138100   3.984   5.844   1.088
12047SOL    HW238101   3.861   5.816   0.984
12048SOL     OW38102   3.743   5.954   0.647
12048SOL    HW138103   3.661   5.997   0.686
12048SOL    HW238104   3.715   5.881   0.584
12049SOL     OW38105   4.293   6.861   1.165
12049SOL    HW138106   4.200   6.854   1.128
12049SOL    HW238107   4.304   6.950   1.209
12050SOL     OW38108   5.279   7.097   0.703
12050SOL    HW138109   5.222   7.081   0.784
12050SOL    HW238110   5.220   7.107   0.623
12051SOL     OW38111   5.467   6.204   0.856
12051SOL    HW138112   5.500   6.298   0.856
12051SOL    HW238113   5.518   6.150   0.922
12052SOL     OW38114   4.859   6.289   0.717
12052SOL    HW138115   4.916   6.367   0.692
12052SOL    HW238116   4.799   6.315   0.793
12053SOL     OW38117   5.479   6.193   0.231
12053SOL    HW138118   5.467   6.180   0.132
12053SOL    HW238119   5.449   6.112   0.280
12054SOL     OW38120   4.492   6.730   1.023
12054SOL    HW138121   4.414   6.747   1.083
12054SOL    HW238122   4.526   6.817   0.987
12055SOL     OW38123   4.574   6.384   1.823
12055SOL    HW138124   4.570   6.460   1.888
12055SOL    HW238125   4.596   6.420   1.732
12056SOL     OW38126   4.409   6.598   0.665
12056SOL    HW138127   4.478   6.582   0.735
12056SOL    HW238128   4.336   6.655   0.703
12057SOL     OW38129   4.410   6.747   1.803
12057SOL    HW138130   4.470   6.826   1.817
12057SOL    HW238131   4.324   6.778   1.762
12058SOL     OW38132   4.059   7.021   1.061
12058SOL    HW138133   3.981   6.990   1.008
12058SOL    HW238134   4.117   7.079   1.004
12059SOL     OW38135   5.184   7.091   1.339
12059SOL    HW138136   5.208   7.185   1.365
12059SOL    HW238137   5.168   7.037   1.421
12060SOL     OW38138   4.162   5.978   1.499
12060SOL    HW138139   4.244   5.922   1.508
12060SOL    HW238140   4.081   5.920   1.503
12061SOL     OW38141   5.327   6.033   0.737
12061SOL    HW138142   5.253   6.079   0.687
12061SOL    HW238143   5.378   6.101   0.790
12062SOL     OW38144   3.955   7.299   0.483
12062SOL    HW138145   3.989   7.376   0.537
12062SOL    HW238146   3.999   7.299   0.393
12063SOL     OW38147   4.851   6.927   1.690
12063SOL    HW138148   4.898   6.927   1.778
12063SOL    HW238149   4.803   6.840   1.679
12064SOL     OW38150   3.954   7.020   0.538
12064SOL    HW138151   3.928   7.116   0.538
12064SOL    HW238152   3.883   6.966   0.583
12065SOL     OW38153   3.964   6.677   0.886
12065SOL    HW138154   3.978   6.593   0.938
12065SOL    HW238155   3.909   6.741   0.941
12066SOL     OW38156   4.344   7.372   1.439
12066SOL    HW138157   4.252   7.355   1.474
12066SOL    HW238158   4.372   7.464   1.465
12067SOL     OW38159   4.330   6.550   0.123
12067SOL    HW138160   4.337   6.634   0.069
12067SOL    HW238161   4.376   6.563   0.211
12068SOL     OW38162   5.318   5.700   1.480
12068SOL    HW138163   5.300   5.767   1.408
12068SOL    HW238164   5.315   5.746   1.569
12069SOL     OW38165   3.846   6.229   0.563
12069SOL    HW138166   3.801   6.141   0.580
12069SOL    HW238167   3.845   6.283   0.647
12070SOL     OW38168   5.566   7.353   0.359
12070SOL    HW138169   5.620   7.324   0.439
12070SOL    HW238170   5.596   7.443   0.330
12071SOL     OW38171   5.413   6.508   0.612
12071SOL    HW138172   5.508   6.479   0.620
12071SOL    HW238173   5.405   6.573   0.537
12072SOL     OW38174   5.365   6.694   0.432
12072SOL    HW138175   5.451   6.696   0.380
12072SOL    HW238176   5.379   6.741   0.520
12073SOL     OW38177   3.837   6.323   1.597
12073SOL    HW138178   3.925   6.310   1.642
12073SOL    HW238179   3.824   6.420   1.575
12074SOL     OW38180   4.337   6.951   0.726
12074SOL    HW138181   4.288   6.864   0.735
12074SOL    HW238182   4.314   6.994   0.639
12075SOL     OW38183   5.017   6.814   1.423
12075SOL    HW138184   5.054   6.741   1.365
12075SOL    HW238185   5.069   6.819   1.508
12076SOL     OW38186   4.533   5.590   0.502
12076SOL    HW138187   4.573   5.681   0.493
12076SOL    HW238188   4.433   5.598   0.508
12077SOL     OW38189   3.921   6.562   1.264
12077SOL    HW138190   4.010   6.517   1.250
12077SOL    HW238191   3.848   6.497   1.245
12078SOL     OW38192   5.249   6.585   0.190
12078SOL    HW138193   5.186   6.509   0.203
12078SOL    HW238194   5.297   6.603   0.276
12079SOL     OW38195   4.911   7.378   1.616
12079SOL    HW138196   4.935   7.438   1.540
12079SOL    HW238197   4.918   7.283   1.586
12080SOL     OW38198   4.041   5.837   1.801
12080SOL    HW138199   4.112   5.908   1.807
12080SOL    HW238200   3.953   5.876   1.829
12081SOL     OW38201   5.190   7.003   0.953
12081SOL    HW138202   5.131   7.009   1.033
12081SOL    HW238203   5.175   6.915   0.907
12082SOL     OW38204   5.391   7.300   0.572
12082SOL    HW138205   5.350   7.277   0.484
12082SOL    HW238206   5.373   7.226   0.637
12083SOL     OW38207   4.322   6.315   0.270
12083SOL    HW138208   4.346   6.384   0.202
12083SOL    HW238209   4.244   6.348   0.324
12084SOL     OW38210   5.005   5.931   0.944
12084SOL    HW138211   4.919   5.881   0.931
12084SOL    HW238212   5.067   5.877   1.000
12085SOL     OW38213   5.300   7.248   0.307
12085SOL    HW138214   5.389   7.294   0.310
12085SOL    HW238215   5.279   7.224   0.212
12086SOL     OW38216   4.531   6.191   1.465
12086SOL    HW138217   4.484   6.188   1.554
12086SOL    HW238218   4.480   6.136   1.399
12087SOL     OW38219   5.118   6.055   1.674
12087SOL    HW138220   5.098   6.098   1.762
12087SOL    HW238221   5.196   5.993   1.683
12088SOL     OW38222   4.697   6.476   1.572
12088SOL    HW138223   4.743   6.392   1.543
12088SOL    HW238224   4.641   6.510   1.497
12089SOL     OW38225   4.715   5.996   1.242
12089SOL    HW138226   4.638   6.030   1.296
12089SOL    HW238227   4.681   5.945   1.163
12090SOL     OW38228   4.765   6.287   0.429
12090SOL    HW138229   4.791   6.283   0.525
12090SOL    HW238230   4.680   6.236   0.415
12091SOL     OW38231   3.800   6.397   0.789
12091SOL    HW138232   3.899   6.385   0.798
12091SOL    HW238233   3.776   6.492   0.810
12092SOL     OW38234   3.854   7.407   1.571
12092SOL    HW138235   3.844   7.392   1.670
12092SOL    HW238236   3.768   7.443   1.535
12093SOL     OW38237   4.589   5.934   0.195
12093SOL    HW138238   4.648   5.997   0.146
12093SOL    HW238239   4.608   5.840   0.166
12094SOL     OW38240   5.443   6.171   1.831
12094SOL    HW138241   5.417   6.260   1.795
12094SOL    HW238242   5.441   6.103   1.758
12095SOL     OW38243   5.086   6.730   0.545
12095SOL    HW138244   5.169   6.701   0.497
12095SOL    HW238245   5.037   6.797   0.489
12096SOL     OW38246   4.274   5.782   0.885
12096SOL    HW138247   4.269   5.777   0.985
12096SOL    HW238248   4.276   5.878   0.856
12097SOL     OW38249   4.732   7.042   0.477
12097SOL    HW138250   4.686   7.114   0.425
12097SOL    HW238251   4.728   7.062   0.575
12098SOL     OW38252   4.075   7.387   0.853
12098SOL    HW138253   4.125   7.301   0.859
12098SOL    HW238254   4.140   7.464   0.850
12099SOL     OW38255   5.519   6.652   0.873
12099SOL    HW138256   5.457   6.637   0.797
12099SOL    HW238257   5.467   6.663   0.958
12100SOL     OW38258   4.951   7.136   1.506
12100SOL    HW138259   4.957   7.059   1.570
12100SOL    HW238260   4.899   7.110   1.426
12101SOL     OW38261   4.045   6.529   0.242
12101SOL    HW138262   4.127   6.568   0.200
12101SOL    HW238263   4.018   6.447   0.193
12102SOL     OW38264   5.182   6.321   0.728
12102SOL    HW138265   5.177   6.256   0.803
12102SOL    HW238266   5.262   6.380   0.741
12103SOL     OW38267   4.185   6.852   1.727
12103SOL    HW138268   4.135   6.853   1.641
12103SOL    HW238269   4.122   6.834   1.803
12104SOL     OW38270   4.835   7.362   0.237
12104SOL    HW138271   4.775   7.300   0.287
12104SOL    HW238272   4.866   7.318   0.152
12105SOL     OW38273   3.926   5.871   1.498
12105SOL    HW138274   3.846   5.931   1.485
12105SOL    HW238275   3.916   5.822   1.584
12106SOL     OW38276   5.356   6.963   0.081
12106SOL    HW138277   5.324   7.057   0.071
12106SOL    HW238278   5.280   6.900   0.069
12107SOL     OW38279   4.188   7.329   0.323
12107SOL    HW138280   4.221   7.368   0.409
12107SOL    HW238281   4.264   7.322   0.258
12108SOL     OW38282   5.124   5.693   0.426
12108SOL    HW138283   5.100   5.656   0.336
12108SOL    HW238284   5.223   5.709   0.430
12109SOL     OW38285   3.973   7.371   1.241
12109SOL    HW138286   4.030   7.306   1.291
12109SOL    HW238287   3.957   7.338   1.148
12110SOL     OW38288   4.664   7.284   0.904
12110SOL    HW138289   4.744   7.227   0.925
12110SOL    HW238290   4.615   7.244   0.827
12111SOL     OW38291   4.106   6.286   0.480
12111SOL    HW138292   4.151   6.196   0.477
12111SOL    HW238293   4.012   6.275   0.513
12112SOL     OW38294   5.271   5.808   1.729
12112SOL    HW138295   5.266   5.845   1.821
12112SOL    HW238296   5.199   5.739   1.717
12113SOL     OW38297   4.338   5.708   0.117
12113SOL    HW138298   4.436   5.686   0.124
12113SOL    HW238299   4.307   5.691   0.024
12114SOL     OW38300   4.505   5.850   1.749
12114SOL    HW138301   4.572   5.789   1.792
12114SOL    HW238302   4.432   5.869   1.814
12115SOL     OW38303   4.612   7.100   1.195
12115SOL    HW138304   4.589   7.075   1.101
12115SOL    HW238305   4.673   7.031   1.234
12116SOL     OW38306   5.075   6.176   1.433
12116SOL    HW138307   5.103   6.133   1.518
12116SOL    HW238308   5.100   6.272   1.434
12117SOL     OW38309   4.527   6.988   0.924
12117SOL    HW138310   4.617   7.002   0.882
12117SOL    HW238311   4.456   6.990   0.853
12118SOL     OW38312   4.646   6.089   0.899
12118SOL    HW138313   4.621   6.080   0.803
12118SOL    HW238314   4.694   6.007   0.930
12119SOL     OW38315   4.263   5.650   0.512
12119SOL    HW138316   4.182   5.651   0.570
12119SOL    HW238317   4.266   5.733   0.457
12120SOL     OW38318   5.158   6.774   0.041
12120SOL    HW138319   5.190   6.698   0.098
12120SOL    HW238320   5.066   6.801   0.071
12121SOL     OW38321   4.021   5.621   0.171
12121SOL    HW138322   4.070   5.705   0.150
12121SOL    HW238323   4.083   5.556   0.216
12122SOL     OW38324   4.659   5.822   0.480
12122SOL    HW138325   4.611   5.863   0.402
12122SOL    HW238326   4.758   5.820   0.461
12123SOL     OW38327   4.800   6.269   1.464
12123SOL    HW138328   4.720   6.208   1.467
12123SOL    HW238329   4.881   6.216   1.440
12124SOL     OW38330   4.951   7.156   0.793
12124SOL    HW138331   4.972   7.230   0.728
12124SOL    HW238332   5.019   7.156   0.866
12125SOL     OW38333   4.183   6.738   0.741
12125SOL    HW138334   4.112   6.711   0.806
12125SOL    HW238335   4.157   6.710   0.648
12126SOL     OW38336   4.995   7.383   0.591
12126SOL    HW138337   5.039   7.447   0.527
12126SOL    HW238338   4.945   7.435   0.661
12127SOL     OW38339   4.756   6.135   0.016
12127SOL    HW138340   4.715   6.217  -0.023
12127SOL    HW238341   4.820   6.161   0.089
12128SOL     OW38342   3.802   6.142   1.386
12128SOL    HW138343   3.894   6.141   1.345
12128SOL    HW238344   3.796   6.216   1.453
12129SOL     OW38345   4.285   5.808   1.147
12129SOL    HW138346   4.323   5.724   1.184
12129SOL    HW238347   4.197   5.827   1.191
12130SOL     OW38348   4.590   6.040   0.642
12130SOL    HW138349   4.558   6.112   0.580
12130SOL    HW238350   4.614   5.959   0.589
12131SOL     OW38351   4.741   5.625   0.753
12131SOL    HW138352   4.669   5.630   0.684
12131SOL    HW238353   4.717   5.556   0.822
12132SOL     OW38354   5.153   6.759   0.867
12132SOL    HW138355   5.098   6.675   0.860
12132SOL    HW238356   5.179   6.788   0.775
12133SOL     OW38357   5.190   6.176   0.992
12133SOL    HW138358   5.160   6.081   0.999
12133SOL    HW238359   5.263   6.192   1.058
12134SOL     OW38360   5.581   6.419   0.377
12134SOL    HW138361   5.623   6.355   0.441
12134SOL    HW238362   5.543   6.368   0.299
12135SOL     OW38363   4.212   6.971   0.174
12135SOL    HW138364   4.125   6.956   0.221
12135SOL    HW238365   4.195   6.997   0.079
12136SOL     OW38366   5.388   6.866   0.657
12136SOL    HW138367   5.487   6.874   0.671
12136SOL    HW238368   5.343   6.950   0.688
12137SOL     OW38369   5.114   6.161   0.078
12137SOL    HW138370   5.060   6.140   0.159
12137SOL    HW238371   5.205   6.120   0.087
12138SOL     OW38372   4.251   5.842   0.328
12138SOL    HW138373   4.278   5.783   0.253
12138SOL    HW238374   4.251   5.937   0.297
12139SOL     OW38375   5.478   6.809   1.588
12139SOL    HW138376   5.569   6.770   1.575
12139SOL    HW238377   5.486   6.905   1.612
12140SOL     OW38378   4.788   6.933   1.340
12140SOL    HW138379   4.708   6.910   1.395
12140SOL    HW238380   4.871   6.907   1.389
12141SOL     OW38381   5.316   7.215   1.625
12141SOL    HW138382   5.343   7.249   1.535
12141SOL    HW238383   5.395   7.177   1.671
12142SOL     OW38384   4.835   6.781   1.100
12142SOL    HW138385   4.795   6.825   1.181
12142SOL    HW238386   4.794   6.818   1.017
12143SOL     OW38387   5.362   6.685   1.079
12143SOL    HW138388   5.367   6.766   1.138
12143SOL    HW238389   5.276   6.687   1.028
12144SOL     OW38390   4.639   5.675   1.402
12144SOL    HW138391   4.664   5.655   1.307
12144SOL    HW238392   4.711   5.731   1.444
12145SOL     OW38393   4.704   6.702   1.719
12145SOL    HW138394   4.605   6.708   1.729
12145SOL    HW238395   4.727   6.622   1.663
12146SOL     OW38396   4.429   6.636   0.368
12146SOL    HW138397   4.415   6.643   0.467
12146SOL    HW238398   4.513   6.585   0.350
12147SOL     OW38399   4.134   6.399   1.251
12147SOL    HW138400   4.220   6.411   1.301
12147SOL    HW238401   4.092   6.312   1.278
12148SOL     OW38402   4.998   5.972   1.262
12148SOL    HW138403   5.019   6.046   1.326
12148SOL    HW238404   4.909   5.989   1.219
12149SOL     OW38405   3.788   7.150   1.331
12149SOL    HW138406   3.742   7.232   1.297
12149SOL    HW238407   3.886   7.169   1.340
12150SOL     OW38408   4.091   6.686   0.501
12150SOL    HW138409   4.084   6.769   0.445
12150SOL    HW238410   4.095   6.606   0.441
12151SOL     OW38411   4.290   6.123   0.865
12151SOL    HW138412   4.302   6.189   0.791
12151SOL    HW238413   4.336   6.157   0.948
12152SOL     OW38414   4.976   6.934   0.388
12152SOL    HW138415   5.026   7.011   0.428
12152SOL    HW238416   4.881   6.936   0.420
12153SOL     OW38417   4.996   7.031   1.142
12153SOL    HW138418   5.043   7.044   1.229
12153SOL    HW238419   4.930   6.957   1.151
12154SOL     OW38420   5.306   6.225   0.472
12154SOL    HW138421   5.275   6.286   0.545
12154SOL    HW238422   5.356   6.277   0.403
12155SOL     OW38423   4.078   7.096   1.329
12155SOL    HW138424   4.057   7.052   1.242
12155SOL    HW238425   4.175   7.122   1.332
12156SOL     OW38426   4.126   6.337   1.598
12156SOL    HW138427   4.194   6.392   1.551
12156SOL    HW238428   4.166   6.249   1.625
12157SOL     OW38429   5.311   6.365   1.670
12157SOL    HW138430   5.219   6.403   1.665
12157SOL    HW238431   5.371   6.412   1.605
12158SOL     OW38432   4.737   5.691   1.770
12158SOL    HW138433   4.743   5.776   1.718
12158SOL    HW238434   4.769   5.615   1.713
12159SOL     OW38435   4.228   5.636   1.740
12159SOL    HW138436   4.186   5.579   1.670
12159SOL    HW238437   4.162   5.705   1.772
12160SOL     OW38438   4.297   6.456   1.029
12160SOL    HW138439   4.341   6.545   1.020
12160SOL    HW238440   4.234   6.456   1.106
12161SOL     OW38441   5.084   6.448   1.045
12161SOL    HW138442   5.009   6.448   0.979
12161SOL    HW238443   5.121   6.356   1.054
12162SOL     OW38444   4.933   6.111   0.275
12162SOL    HW138445   4.946   6.027   0.329
12162SOL    HW238446   4.904   6.185   0.335
12163SOL     OW38447   4.031   5.799   1.231
12163SOL    HW138448   4.008   5.836   1.321
12163SOL    HW238449   4.001   5.704   1.225
12164SOL     OW38450   3.761   6.896   1.282
12164SOL    HW138451   3.814   6.847   1.350
12164SOL    HW238452   3.783   6.994   1.287
12165SOL     OW38453   4.456   6.220   1.064
12165SOL    HW138454   4.515   6.194   0.988
12165SOL    HW238455   4.428   6.316   1.053
12166SOL     OW38456   5.452   6.521   1.854
12166SOL    HW138457   5.406   6.514   1.765
12166SOL    HW238458   5.390   6.565   1.920
12167SOL     OW38459   4.031   5.649   0.618
12167SOL    HW138460   4.020   5.743   0.651
12167SOL    HW238461   4.026   5.586   0.695
12168SOL     OW38462   5.346   5.953   0.374
12168SOL    HW138463   5.348   5.877   0.438
12168SOL    HW238464   5.298   6.030   0.414
12169SOL     OW38465   4.747   6.352   0.966
12169SOL    HW138466   4.762   6.373   1.062
12169SOL    HW238467   4.717   6.257   0.957
12170SOL     OW38468   4.704   7.159   1.700
12170SOL    HW138469   4.684   7.203   1.612
12170SOL    HW238470   4.743   7.068   1.684
12171SOL     OW38471   5.583   7.104   1.605
12171SOL    HW138472   5.597   7.131   1.510
12171SOL    HW238473   5.666   7.126   1.658
12172SOL     OW38474   4.074   6.484   1.804
12172SOL    HW138475   4.150   6.528   1.852
12172SOL    HW238476   4.109   6.437   1.722
12173SOL     OW38477   5.264   5.860   0.125
12173SOL    HW138478   5.203   5.785   0.148
12173SOL    HW238479   5.286   5.912   0.208
12174SOL     OW38480   5.027   6.424   0.042
12174SOL    HW138481   5.061   6.331   0.057
12174SOL    HW238482   5.045   6.451  -0.053
12175SOL     OW38483   4.792   6.919   0.849
12175SOL    HW138484   4.799   6.835   0.794
12175SOL    HW238485   4.854   6.988   0.813
12176SOL     OW38486   4.043   6.396   0.949
12176SOL    HW138487   4.136   6.432   0.954
12176SOL    HW238488   4.037   6.311   1.001
12177SOL     OW38489   4.063   6.095   1.006
12177SOL    HW138490   4.011   6.012   0.989
12177SOL    HW238491   4.140   6.100   0.942
12178SOL     OW38492   4.235   6.001   1.808
12178SOL    HW138493   4.217   6.046   1.896
12178SOL    HW238494   4.277   6.066   1.745
12179SOL     OW38495   4.862   5.966   1.678
12179SOL    HW138496   4.817   6.029   1.742
12179SOL    HW238497   4.955   5.997   1.661
12180SOL     OW38498   4.884   5.793   1.477
12180SOL    HW138499   4.884   5.857   1.554
12180SOL    HW238500   4.912   5.841   1.394
12181SOL     OW38501   3.732   6.912   0.200
12181SOL    HW138502   3.639   6.933   0.169
12181SOL    HW238503   3.742   6.813   0.213
12182SOL     OW38504   3.812   7.387   0.927
12182SOL    HW138505   3.770   7.301   0.900
12182SOL    HW238506   3.906   7.390   0.893
12183SOL     OW38507   4.228   7.154   0.910
12183SOL    HW138508   4.294   7.228   0.919
12183SOL    HW238509   4.272   7.075   0.868
12184SOL     OW38510   4.726   6.382   1.238
12184SOL    HW138511   4.767   6.350   1.324
12184SOL    HW238512   4.630   6.355   1.235
12185SOL     OW38513   3.764   6.130   1.114
12185SOL    HW138514   3.849   6.097   1.073
12185SOL    HW238515   3.777   6.145   1.212
12186SOL     OW38516   3.913   6.106   1.722
12186SOL    HW138517   3.972   6.066   1.652
12186SOL    HW238518   3.855   6.177   1.681
12187SOL     OW38519   5.093   6.536   1.660
12187SOL    HW138520   5.132   6.625   1.680
12187SOL    HW238521   5.103   6.516   1.563
12188SOL     OW38522   4.539   6.158   0.325
12188SOL    HW138523   4.546   6.069   0.279
12188SOL    HW238524   4.445   6.192   0.317
12189SOL     OW38525   5.381   6.190   1.206
12189SOL    HW138526   5.343   6.121   1.268
12189SOL    HW238527   5.463   6.154   1.162
12190SOL     OW38528   3.976   7.150   1.744
12190SOL    HW138529   3.946   7.207   1.820
12190SOL    HW238530   3.969   7.053   1.770
12191SOL     OW38531   4.395   6.050   1.269
12191SOL    HW138532   4.361   5.961   1.239
12191SOL    HW238533   4.421   6.104   1.189
12192SOL     OW38534   4.654   7.264   1.465
12192SOL    HW138535   4.630   7.246   1.370
12192SOL    HW238536   4.684   7.358   1.475
12193SOL     OW38537   4.197   6.086   0.191
12193SOL    HW138538   4.258   6.166   0.195
12193SOL    HW238539   4.102   6.117   0.198
12194SOL     OW38540   3.883   6.723   1.466
12194SOL    HW138541   3.905   6.662   1.542
12194SOL    HW238542   3.893   6.674   1.380
12195SOL     OW38543   5.071   6.645   1.234
12195SOL    HW138544   5.095   6.582   1.160
12195SOL    HW238545   4.981   6.685   1.216
12196SOL     OW38546   5.026   6.441   0.309
12196SOL    HW138547   4.940   6.410   0.351
12196SOL    HW238548   5.022   6.427   0.210
12197SOL     OW38549   5.483   7.333   1.154
12197SOL    HW138550   5.544   7.363   1.081
12197SOL    HW238551   5.445   7.244   1.132
12198SOL     OW38552   4.976   7.317   1.128
12198SOL    HW138553   5.060   7.322   1.074
12198SOL    HW238554   4.953   7.221   1.146
12199SOL     OW38555   3.807   6.844   1.022
12199SOL    HW138556   3.802   6.843   1.122
12199SOL    HW238557   3.724   6.803   0.984
12200SOL     OW38558   4.412   7.248   1.716
12200SOL    HW138559   4.356   7.329   1.725
12200SOL    HW238560   4.464   7.252   1.630
12201SOL     OW38561   4.627   5.672   0.133
12201SOL    HW138562   4.678   5.673   0.047
12201SOL    HW238563   4.683   5.630   0.204
12202SOL     OW38564   5.450   5.721   0.523
12202SOL    HW138565   5.523   5.704   0.456
12202SOL    HW238566   5.419   5.634   0.561
12203SOL     OW38567   5.112   7.159   0.477
12203SOL    HW138568   5.179   7.171   0.403
12203SOL    HW238569   5.072   7.248   0.500
12204SOL     OW38570   3.854   7.380   1.851
12204SOL    HW138571   3.813   7.306   1.904
12204SOL    HW238572   3.918   7.431   1.909
12205SOL     OW38573   5.004   6.513   0.672
12205SOL    HW138574   5.064   6.432   0.674
12205SOL    HW238575   5.044   6.582   0.612
12206SOL     OW38576   4.554   6.859   1.422
12206SOL    HW138577   4.549   6.892   1.517
12206SOL    HW238578   4.468   6.878   1.376
12207SOL     OW38579   4.396   7.202   0.154
12207SOL    HW138580   4.405   7.212   0.055
12207SOL    HW238581   4.356   7.113   0.175
12208SOL     OW38582   5.374   7.306   1.394
12208SOL    HW138583   5.427   7.316   1.310
12208SOL    HW238584   5.347   7.396   1.428
12209SOL     OW38585   5.565   5.761   0.963
12209SOL    HW138586   5.604   5.676   0.927
12209SOL    HW238587   5.467   5.763   0.944
12210SOL     OW38588   3.987   5.912   0.720
12210SOL    HW138589   3.908   5.963   0.686
12210SOL    HW238590   3.978   5.897   0.818
12211SOL     OW38591   4.918   7.198   0.031
12211SOL    HW138592   4.924   7.105   0.068
12211SOL    HW238593   4.859   7.198  -0.049
12212SOL     OW38594   4.546   6.588   1.372
12212SOL    HW138595   4.586   6.587   1.280
12212SOL    HW238596   4.556   6.680   1.412
12213SOL     OW38597   4.640   6.496   0.291
12213SOL    HW138598   4.703   6.534   0.223
12213SOL    HW238599   4.680   6.413   0.330
12214SOL     OW38600   5.228   7.193   0.044
12214SOL    HW138601   5.136   7.230   0.051
12214SOL    HW238602   5.266   7.213  -0.046
12215SOL     OW38603   4.096   6.874   1.490
12215SOL    HW138604   4.083   6.967   1.456
12215SOL    HW238605   4.012   6.822   1.477
12216SOL     OW38606   5.338   6.878   1.289
12216SOL    HW138607   5.398   6.881   1.369
12216SOL    HW238608   5.263   6.942   1.302
12217SOL     OW38609   4.763   6.684   0.696
12217SOL    HW138610   4.693   6.637   0.750
12217SOL    HW238611   4.822   6.616   0.653
12218SOL     OW38612   4.738   5.822   0.971
12218SOL    HW138613   4.730   5.786   0.878
12218SOL    HW238614   4.736   5.746   1.036
12219SOL     OW38615   4.314   7.073   0.491
12219SOL    HW138616   4.356   7.015   0.421
12219SOL    HW238617   4.270   7.152   0.447
12220SOL     OW38618   5.433   5.971   1.381
12220SOL    HW138619   5.506   6.040   1.385
12220SOL    HW238620   5.461   5.896   1.322
12221SOL     OW38621   3.979   6.934   0.290
12221SOL    HW138622   3.883   6.935   0.263
12221SOL    HW238623   3.991   6.987   0.374
12222SOL     OW38624   3.829   6.599   1.726
12222SOL    HW138625   3.752   6.566   1.780
12222SOL    HW238626   3.914   6.569   1.768
12223SOL     OW38627   4.396   5.789   1.489
12223SOL    HW138628   4.486   5.773   1.449
12223SOL    HW238629   4.404   5.794   1.588
12224SOL     OW38630   5.164   6.442   1.398
12224SOL    HW138631   5.107   6.494   1.335
12224SOL    HW238632   5.260   6.454   1.374
12225SOL     OW38633   3.796   5.752   0.318
12225SOL    HW138634   3.779   5.835   0.264
12225SOL    HW238635   3.886   5.715   0.296
12226SOL     OW38636   4.907   6.921   0.119
12226SOL    HW138637   4.808   6.910   0.121
12226SOL    HW238638   4.941   6.936   0.212
12227SOL     OW38639   4.337   6.428   1.431
12227SOL    HW138640   4.393   6.509   1.414
12227SOL    HW238641   4.396   6.348   1.434
12228SOL     OW38642   5.217   7.353   0.959
12228SOL    HW138643   5.250   7.417   0.890
12228SOL    HW238644   5.283   7.347   1.034
12229SOL     OW38645   4.440   6.151   1.708
12229SOL    HW138646   4.459   6.216   1.782
12229SOL    HW238647   4.500   6.071   1.717
12230SOL     OW38648   5.174   6.806   1.633
12230SOL    HW138649   5.165   6.796   1.732
12230SOL    HW238650   5.270   6.799   1.607
12231SOL     OW38651   4.114   7.327   1.560
12231SOL    HW138652   4.023   7.368   1.558
12231SOL    HW238653   4.107   7.233   1.592
12232SOL     OW38654   5.398   6.469   1.254
12232SOL    HW138655   5.371   6.380   1.217
12232SOL    HW238656   5.399   6.537   1.181
12233SOL     OW38657   4.949   5.911   0.449
12233SOL    HW138658   5.014   5.837   0.438
12233SOL    HW238659   4.969   5.961   0.533
12234SOL     OW38660   4.318   6.331   0.652
12234SOL    HW138661   4.368   6.416   0.633
12234SOL    HW238662   4.230   6.333   0.604
12235SOL     OW38663   5.501   5.928   1.642
12235SOL    HW138664   5.484   5.959   1.548
12235SOL    HW238665   5.417   5.891   1.680
12236SOL     OW38666   5.454   6.520   1.517
12236SOL    HW138667   5.492   6.611   1.532
12236SOL    HW238668   5.446   6.503   1.418
12237SOL     OW38669   4.583   6.960   0.016
12237SOL    HW138670   4.537   6.975   0.104
12237SOL    HW238671   4.627   7.045  -0.014
12238SOL     OW38672   4.385   7.376   0.953
12238SOL    HW138673   4.339   7.464   0.940
12238SOL    HW238674   4.484   7.388   0.946
12239SOL     OW38675   5.132   7.437   1.720
12239SOL    HW138676   5.036   7.426   1.693
12239SOL    HW238677   5.188   7.370   1.672
12240SOL     OW38678   4.583   6.542   0.861
12240SOL    HW138679   4.637   6.473   0.909
12240SOL    HW238680   4.551   6.611   0.927
12241SOL     OW38681   4.807   6.570   0.087
12241SOL    HW138682   4.784   6.623   0.005
12241SOL    HW238683   4.888   6.514   0.068
12242SOL     OW38684   5.585   7.155   0.851
12242SOL    HW138685   5.514   7.143   0.781
12242SOL    HW238686   5.586   7.076   0.911
12243SOL     OW38687   3.945   6.900   1.844
12243SOL    HW138688   3.880   6.827   1.823
12243SOL    HW238689   3.949   6.914   1.942
12244SOL     OW38690   3.803   6.826   0.653
12244SOL    HW138691   3.802   6.779   0.741
12244SOL    HW238692   3.885   6.798   0.602
12245SOL     OW38693   4.396   6.977   1.624
12245SOL    HW138694   4.318   6.927   1.662
12245SOL    HW238695   4.393   7.072   1.655
12246SOL     OW38696   5.548   5.778   1.227
12246SOL    HW138697   5.544   5.688   1.271
12246SOL    HW238698   5.551   5.767   1.128
12247SOL     OW38699   4.152   6.010   0.520
12247SOL    HW138700   4.182   5.938   0.458
12247SOL    HW238701   4.113   5.970   0.603
12248SOL     OW38702   5.429   7.073   1.104
12248SOL    HW138703   5.336   7.048   1.077
12248SOL    HW238704   5.455   7.023   1.186
12249SOL     OW38705   4.041   6.133   1.280
12249SOL    HW138706   4.079   6.074   1.352
12249SOL    HW238707   4.081   6.107   1.192
12250SOL     OW38708   4.536   7.172   0.687
12250SOL    HW138709   4.568   7.182   0.593
12250SOL    HW238710   4.457   7.110   0.689
12251SOL     OW38711   5.148   5.800   1.112
12251SOL    HW138712   5.200   5.735   1.167
12251SOL    HW238713   5.099   5.863   1.173
12252SOL     OW38714   4.725   5.620   1.154
12252SOL    HW138715   4.662   5.548   1.123
12252SOL    HW238716   4.818   5.584   1.154
12253SOL     OW38717   4.494   6.916   0.301
12253SOL    HW138718   4.448   6.829   0.318
12253SOL    HW238719   4.585   6.913   0.342
12254SOL     OW38720   4.342   7.153   1.284
12254SOL    HW138721   4.337   7.235   1.341
12254SOL    HW238722   4.431   7.150   1.239
12255SOL     OW38723   5.024   6.039   0.691
12255SOL    HW138724   4.965   6.119   0.695
12255SOL    HW238725   5.039   6.004   0.784
12256SOL     OW38726   5.317   5.807   0.882
12256SOL    HW138727   5.233   5.806   0.936
12256SOL    HW238728   5.319   5.890   0.826
12257SOL     OW38729   3.763   6.663   0.300
12257SOL    HW138730   3.862   6.652   0.291
12257SOL    HW238731   3.723   6.577   0.332
12258SOL     OW38732   4.599   7.232   0.337
12258SOL    HW138733   4.522   7.197   0.283
12258SOL    HW238734   4.567   7.303   0.399
12259SOL     OW38735   3.954   6.214   1.975
12259SOL    HW138736   3.861   6.212   2.012
12259SOL    HW238737   3.955   6.175   1.883
12260SOL     OW38738   3.949   5.861   2.858
12260SOL    HW138739   3.984   5.844   2.950
12260SOL    HW238740   3.861   5.816   2.846
12261SOL     OW38741   3.743   5.954   2.509
12261SOL    HW138742   3.661   5.997   2.548
12261SOL    HW238743   3.715   5.881   2.446
12262SOL     OW38744   4.293   6.861   3.027
12262SOL    HW138745   4.200   6.854   2.990
12262SOL    HW238746   4.304   6.950   3.071
12263SOL     OW38747   5.279   7.097   2.565
12263SOL    HW138748   5.222   7.081   2.646
12263SOL    HW238749   5.220   7.107   2.485
12264SOL     OW38750   5.467   6.204   2.718
12264SOL    HW138751   5.500   6.298   2.718
12264SOL    HW238752   5.518   6.150   2.784
12265SOL     OW38753   4.859   6.289   2.579
12265SOL    HW138754   4.916   6.367   2.554
12265SOL    HW238755   4.799   6.315   2.655
12266SOL     OW38756   5.479   6.193   2.093
12266SOL    HW138757   5.467   6.180   1.994
12266SOL    HW238758   5.449   6.112   2.142
12267SOL     OW38759   4.492   6.730   2.885
12267SOL    HW138760   4.414   6.747   2.945
12267SOL    HW238761   4.526   6.817   2.849
12268SOL     OW38762   4.574   6.384   3.685
12268SOL    HW138763   4.570   6.460   3.750
12268SOL    HW238764   4.596   6.420   3.594
12269SOL     OW38765   4.409   6.598   2.527
12269SOL    HW138766   4.478   6.582   2.597
12269SOL    HW238767   4.336   6.655   2.565
12270SOL     OW38768   4.410   6.747   3.665
12270SOL    HW138769   4.470   6.826   3.679
12270SOL    HW238770   4.324   6.778   3.624
12271SOL     OW38771   4.059   7.021   2.923
12271SOL    HW138772   3.981   6.990   2.870
12271SOL    HW238773   4.117   7.079   2.866
12272SOL     OW38774   5.184   7.091   3.201
12272SOL    HW138775   5.208   7.185   3.227
12272SOL    HW238776   5.168   7.037   3.283
12273SOL     OW38777   4.162   5.978   3.361
12273SOL    HW138778   4.244   5.922   3.370
12273SOL    HW238779   4.081   5.920   3.365
12274SOL     OW38780   5.327   6.033   2.599
12274SOL    HW138781   5.253   6.079   2.549
12274SOL    HW238782   5.378   6.101   2.652
12275SOL     OW38783   3.955   7.299   2.345
12275SOL    HW138784   3.989   7.376   2.399
12275SOL    HW238785   3.999   7.299   2.255
12276SOL     OW38786   4.851   6.927   3.552
12276SOL    HW138787   4.898   6.927   3.640
12276SOL    HW238788   4.803   6.840   3.541
12277SOL     OW38789   3.954   7.020   2.400
12277SOL    HW138790   3.928   7.116   2.400
12277SOL    HW238791   3.883   6.966   2.445
12278SOL     OW38792   3.964   6.677   2.748
12278SOL    HW138793   3.978   6.593   2.800
12278SOL    HW238794   3.909   6.741   2.803
12279SOL     OW38795   4.344   7.372   3.301
12279SOL    HW138796   4.252   7.355   3.336
12279SOL    HW238797   4.372   7.464   3.327
12280SOL     OW38798   4.330   6.550   1.985
12280SOL    HW138799   4.337   6.634   1.931
12280SOL    HW238800   4.376   6.563   2.073
12281SOL     OW38801   5.318   5.700   3.342
12281SOL    HW138802   5.300   5.767   3.270
12281SOL    HW238803   5.315   5.746   3.431
12282SOL     OW38804   3.846   6.229   2.425
12282SOL    HW138805   3.801   6.141   2.442
12282SOL    HW238806   3.845   6.283   2.509
12283SOL     OW38807   5.566   7.353   2.221
12283SOL    HW138808   5.620   7.324   2.301
12283SOL    HW238809   5.596   7.443   2.192
12284SOL     OW38810   3.751   7.182   1.979
12284SOL    HW138811   3.732   7.086   2.000
12284SOL    HW238812   3.718   7.240   2.054
12285SOL     OW38813   5.413   6.508   2.474
12285SOL    HW138814   5.508   6.479   2.482
12285SOL    HW238815   5.405   6.573   2.399
12286SOL     OW38816   5.365   6.694   2.294
12286SOL    HW138817   5.451   6.696   2.242
12286SOL    HW238818   5.379   6.741   2.382
12287SOL     OW38819   3.837   6.323   3.459
12287SOL    HW138820   3.925   6.310   3.504
12287SOL    HW238821   3.824   6.420   3.437
12288SOL     OW38822   4.337   6.951   2.588
12288SOL    HW138823   4.288   6.864   2.597
12288SOL    HW238824   4.314   6.994   2.501
12289SOL     OW38825   5.017   6.814   3.285
12289SOL    HW138826   5.054   6.741   3.227
12289SOL    HW238827   5.069   6.819   3.370
12290SOL     OW38828   4.533   5.590   2.364
12290SOL    HW138829   4.573   5.681   2.355
12290SOL    HW238830   4.433   5.598   2.370
12291SOL     OW38831   3.921   6.562   3.126
12291SOL    HW138832   4.010   6.517   3.112
12291SOL    HW238833   3.848   6.497   3.107
12292SOL     OW38834   5.249   6.585   2.052
12292SOL    HW138835   5.186   6.509   2.065
12292SOL    HW238836   5.297   6.603   2.138
12293SOL     OW38837   4.911   7.378   3.478
12293SOL    HW138838   4.935   7.438   3.402
12293SOL    HW238839   4.918   7.283   3.448
12294SOL     OW38840   4.041   5.837   3.663
12294SOL    HW138841   4.112   5.908   3.669
12294SOL    HW238842   3.953   5.876   3.691
12295SOL     OW38843   5.190   7.003   2.815
12295SOL    HW138844   5.131   7.009   2.895
12295SOL    HW238845   5.175   6.915   2.769
12296SOL     OW38846   5.391   7.300   2.434
12296SOL    HW138847   5.350   7.277   2.346
12296SOL    HW238848   5.373   7.226   2.499
12297SOL     OW38849   4.322   6.315   2.132
12297SOL    HW138850   4.346   6.384   2.064
12297SOL    HW238851   4.244   6.348   2.186
12298SOL     OW38852   5.005   5.931   2.806
12298SOL    HW138853   4.919   5.881   2.793
12298SOL    HW238854   5.067   5.877   2.862
12299SOL     OW38855   5.300   7.248   2.169
12299SOL    HW138856   5.389   7.294   2.172
12299SOL    HW238857   5.279   7.224   2.074
12300SOL     OW38858   4.531   6.191   3.327
12300SOL    HW138859   4.484   6.188   3.416
12300SOL    HW238860   4.480   6.136   3.261
12301SOL     OW38861   5.118   6.055   3.536
12301SOL    HW138862   5.098   6.098   3.624
12301SOL    HW238863   5.196   5.993   3.545
12302SOL     OW38864   4.697   6.476   3.434
12302SOL    HW138865   4.743   6.392   3.405
12302SOL    HW238866   4.641   6.510   3.359
12303SOL     OW38867   4.715   5.996   3.104
12303SOL    HW138868   4.638   6.030   3.158
12303SOL    HW238869   4.681   5.945   3.025
12304SOL     OW38870   4.765   6.287   2.291
12304SOL    HW138871   4.791   6.283   2.387
12304SOL    HW238872   4.680   6.236   2.277
12305SOL     OW38873   3.800   6.397   2.651
12305SOL    HW138874   3.899   6.385   2.660
12305SOL    HW238875   3.776   6.492   2.672
12306SOL     OW38876   3.854   7.407   3.433
12306SOL    HW138877   3.844   7.392   3.532
12306SOL    HW238878   3.768   7.443   3.397
12307SOL     OW38879   4.589   5.934   2.057
12307SOL    HW138880   4.648   5.997   2.008
12307SOL    HW238881   4.608   5.840   2.028
12308SOL     OW38882   5.443   6.171   3.693
12308SOL    HW138883   5.417   6.260   3.657
12308SOL    HW238884   5.441   6.103   3.620
12309SOL     OW38885   5.086   6.730   2.407
12309SOL    HW138886   5.169   6.701   2.359
12309SOL    HW238887   5.037   6.797   2.351
12310SOL     OW38888   4.274   5.782   2.747
12310SOL    HW138889   4.269   5.777   2.847
12310SOL    HW238890   4.276   5.878   2.718
12311SOL     OW38891   4.732   7.042   2.339
12311SOL    HW138892   4.686   7.114   2.287
12311SOL    HW238893   4.728   7.062   2.437
12312SOL     OW38894   4.075   7.387   2.715
12312SOL    HW138895   4.125   7.301   2.721
12312SOL    HW238896   4.140   7.464   2.712
12313SOL     OW38897   5.519   6.652   2.735
12313SOL    HW138898   5.457   6.637   2.659
12313SOL    HW238899   5.467   6.663   2.820
12314SOL     OW38900   4.951   7.136   3.368
12314SOL    HW138901   4.957   7.059   3.432
12314SOL    HW238902   4.899   7.110   3.288
12315SOL     OW38903   4.045   6.529   2.104
12315SOL    HW138904   4.127   6.568   2.062
12315SOL    HW238905   4.018   6.447   2.055
12316SOL     OW38906   5.182   6.321   2.590
12316SOL    HW138907   5.177   6.256   2.665
12316SOL    HW238908   5.262   6.380   2.603
12317SOL     OW38909   4.185   6.852   3.589
12317SOL    HW138910   4.135   6.853   3.503
12317SOL    HW238911   4.122   6.834   3.665
12318SOL     OW38912   4.835   7.362   2.099
12318SOL    HW138913   4.775   7.300   2.149
12318SOL    HW238914   4.866   7.318   2.014
12319SOL     OW38915   3.926   5.871   3.360
12319SOL    HW138916   3.846   5.931   3.347
12319SOL    HW238917   3.916   5.822   3.446
12320SOL     OW38918   5.356   6.963   1.943
12320SOL    HW138919   5.324   7.057   1.933
12320SOL    HW238920   5.280   6.900   1.931
12321SOL     OW38921   4.188   7.329   2.185
12321SOL    HW138922   4.221   7.368   2.271
12321SOL    HW238923   4.264   7.322   2.120
12322SOL     OW38924   5.124   5.693   2.288
12322SOL    HW138925   5.100   5.656   2.198
12322SOL    HW238926   5.223   5.709   2.292
12323SOL     OW38927   3.973   7.371   3.103
12323SOL    HW138928   4.030   7.306   3.153
12323SOL    HW238929   3.957   7.338   3.010
12324SOL     OW38930   4.664   7.284   2.766
12324SOL    HW138931   4.744   7.227   2.787
12324SOL    HW238932   4.615   7.244   2.689
12325SOL     OW38933   4.106   6.286   2.342
12325SOL    HW138934   4.151   6.196   2.339
12325SOL    HW238935   4.012   6.275   2.375
12326SOL     OW38936   5.271   5.808   3.591
12326SOL    HW138937   5.266   5.845   3.683
12326SOL    HW238938   5.199   5.739   3.579
12327SOL     OW38939   4.338   5.708   1.979
12327SOL    HW138940   4.436   5.686   1.986
12327SOL    HW238941   4.307   5.691   1.886
12328SOL     OW38942   4.505   5.850   3.611
12328SOL    HW138943   4.572   5.789   3.654
12328SOL    HW238944   4.432   5.869   3.676
12329SOL     OW38945   4.612   7.100   3.057
12329SOL    HW138946   4.589   7.075   2.963
12329SOL    HW238947   4.673   7.031   3.096
12330SOL     OW38948   5.075   6.176   3.295
12330SOL    HW138949   5.103   6.133   3.380
12330SOL    HW238950   5.100   6.272   3.296
12331SOL     OW38951   4.527   6.988   2.786
12331SOL    HW138952   4.617   7.002   2.744
12331SOL    HW238953   4.456   6.990   2.715
12332SOL     OW38954   4.646   6.089   2.761
12332SOL    HW138955   4.621   6.080   2.665
12332SOL    HW238956   4.694   6.007   2.792
12333SOL     OW38957   4.263   5.650   2.374
12333SOL    HW138958   4.182   5.651   2.432
12333SOL    HW238959   4.266   5.733   2.319
12334SOL     OW38960   5.158   6.774   1.903
12334SOL    HW138961   5.190   6.698   1.960
12334SOL    HW238962   5.066   6.801   1.933
12335SOL     OW38963   4.021   5.621   2.033
12335SOL    HW138964   4.070   5.705   2.012
12335SOL    HW238965   4.083   5.556   2.078
12336SOL     OW38966   4.659   5.822   2.342
12336SOL    HW138967   4.611   5.863   2.264
12336SOL    HW238968   4.758   5.820   2.323
12337SOL     OW38969   4.800   6.269   3.326
12337SOL    HW138970   4.720   6.208   3.329
12337SOL    HW238971   4.881   6.216   3.302
12338SOL     OW38972   4.951   7.156   2.655
12338SOL    HW138973   4.972   7.230   2.590
12338SOL    HW238974   5.019   7.156   2.728
12339SOL     OW38975   4.183   6.738   2.603
12339SOL    HW138976   4.112   6.711   2.668
12339SOL    HW238977   4.157   6.710   2.510
12340SOL     OW38978   4.995   7.383   2.453
12340SOL    HW138979   5.039   7.447   2.389
12340SOL    HW238980   4.945   7.435   2.523
12341SOL     OW38981   4.756   6.135   1.878
12341SOL    HW138982   4.715   6.217   1.839
12341SOL    HW238983   4.820   6.161   1.951
12342SOL     OW38984   3.802   6.142   3.248
12342SOL    HW138985   3.894   6.141   3.207
12342SOL    HW238986   3.796   6.216   3.315
12343SOL     OW38987   4.285   5.808   3.009
12343SOL    HW138988   4.323   5.724   3.046
12343SOL    HW238989   4.197   5.827   3.053
12344SOL     OW38990   4.590   6.040   2.504
12344SOL    HW138991   4.558   6.112   2.442
12344SOL    HW238992   4.614   5.959   2.451
12345SOL     OW38993   4.741   5.625   2.615
12345SOL    HW138994   4.669   5.630   2.546
12345SOL    HW238995   4.717   5.556   2.684
12346SOL     OW38996   5.153   6.759   2.729
12346SOL    HW138997   5.098   6.675   2.722
12346SOL    HW238998   5.179   6.788   2.637
12347SOL     OW38999   5.190   6.176   2.854
12347SOL    HW139000   5.160   6.081   2.861
12347SOL    HW239001   5.263   6.192   2.920
12348SOL     OW39002   5.581   6.419   2.239
12348SOL    HW139003   5.623   6.355   2.303
12348SOL    HW239004   5.543   6.368   2.161
12349SOL     OW39005   4.212   6.971   2.036
12349SOL    HW139006   4.125   6.956   2.083
12349SOL    HW239007   4.195   6.997   1.941
12350SOL     OW39008   5.388   6.866   2.519
12350SOL    HW139009   5.487   6.874   2.533
12350SOL    HW239010   5.343   6.950   2.550
12351SOL     OW39011   5.114   6.161   1.940
12351SOL    HW139012   5.060   6.140   2.021
12351SOL    HW239013   5.205   6.120   1.949
12352SOL     OW39014   4.251   5.842   2.190
12352SOL    HW139015   4.278   5.783   2.115
12352SOL    HW239016   4.251   5.937   2.159
12353SOL     OW39017   5.478   6.809   3.450
12353SOL    HW139018   5.569   6.770   3.437
12353SOL    HW239019   5.486   6.905   3.474
12354SOL     OW39020   4.788   6.933   3.202
12354SOL    HW139021   4.708   6.910   3.257
12354SOL    HW239022   4.871   6.907   3.251
12355SOL     OW39023   5.316   7.215   3.487
12355SOL    HW139024   5.343   7.249   3.397
12355SOL    HW239025   5.395   7.177   3.533
12356SOL     OW39026   4.835   6.781   2.962
12356SOL    HW139027   4.795   6.825   3.043
12356SOL    HW239028   4.794   6.818   2.879
12357SOL     OW39029   5.362   6.685   2.941
12357SOL    HW139030   5.367   6.766   3.000
12357SOL    HW239031   5.276   6.687   2.890
12358SOL     OW39032   4.639   5.675   3.264
12358SOL    HW139033   4.664   5.655   3.169
12358SOL    HW239034   4.711   5.731   3.306
12359SOL     OW39035   4.704   6.702   3.581
12359SOL    HW139036   4.605   6.708   3.591
12359SOL    HW239037   4.727   6.622   3.525
12360SOL     OW39038   4.429   6.636   2.230
12360SOL    HW139039   4.415   6.643   2.329
12360SOL    HW239040   4.513   6.585   2.212
12361SOL     OW39041   4.134   6.399   3.113
12361SOL    HW139042   4.220   6.411   3.163
12361SOL    HW239043   4.092   6.312   3.140
12362SOL     OW39044   4.998   5.972   3.124
12362SOL    HW139045   5.019   6.046   3.188
12362SOL    HW239046   4.909   5.989   3.081
12363SOL     OW39047   3.788   7.150   3.193
12363SOL    HW139048   3.742   7.232   3.159
12363SOL    HW239049   3.886   7.169   3.202
12364SOL     OW39050   4.091   6.686   2.363
12364SOL    HW139051   4.084   6.769   2.307
12364SOL    HW239052   4.095   6.606   2.303
12365SOL     OW39053   4.290   6.123   2.727
12365SOL    HW139054   4.302   6.189   2.653
12365SOL    HW239055   4.336   6.157   2.810
12366SOL     OW39056   4.976   6.934   2.250
12366SOL    HW139057   5.026   7.011   2.290
12366SOL    HW239058   4.881   6.936   2.282
12367SOL     OW39059   4.996   7.031   3.004
12367SOL    HW139060   5.043   7.044   3.091
12367SOL    HW239061   4.930   6.957   3.013
12368SOL     OW39062   5.306   6.225   2.334
12368SOL    HW139063   5.275   6.286   2.407
12368SOL    HW239064   5.356   6.277   2.265
12369SOL     OW39065   4.078   7.096   3.191
12369SOL    HW139066   4.057   7.052   3.104
12369SOL    HW239067   4.175   7.122   3.194
12370SOL     OW39068   4.126   6.337   3.460
12370SOL    HW139069   4.194   6.392   3.413
12370SOL    HW239070   4.166   6.249   3.487
12371SOL     OW39071   5.311   6.365   3.532
12371SOL    HW139072   5.219   6.403   3.527
12371SOL    HW239073   5.371   6.412   3.467
12372SOL     OW39074   4.737   5.691   3.632
12372SOL    HW139075   4.743   5.776   3.580
12372SOL    HW239076   4.769   5.615   3.575
12373SOL     OW39077   4.228   5.636   3.602
12373SOL    HW139078   4.186   5.579   3.532
12373SOL    HW239079   4.162   5.705   3.634
12374SOL     OW39080   4.297   6.456   2.891
12374SOL    HW139081   4.341   6.545   2.882
12374SOL    HW239082   4.234   6.456   2.968
12375SOL     OW39083   5.084   6.448   2.907
12375SOL    HW139084   5.009   6.448   2.841
12375SOL    HW239085   5.121   6.356   2.916
12376SOL     OW39086   4.933   6.111   2.137
12376SOL    HW139087   4.946   6.027   2.191
12376SOL    HW239088   4.904   6.185   2.197
12377SOL     OW39089   4.031   5.799   3.093
12377SOL    HW139090   4.008   5.836   3.183
12377SOL    HW239091   4.001   5.704   3.087
12378SOL     OW39092   3.761   6.896   3.144
12378SOL    HW139093   3.814   6.847   3.212
12378SOL    HW239094   3.783   6.994   3.149
12379SOL     OW39095   4.456   6.220   2.926
12379SOL    HW139096   4.515   6.194   2.850
12379SOL    HW239097   4.428   6.316   2.915
12380SOL     OW39098   5.452   6.521   3.716
12380SOL    HW139099   5.406   6.514   3.627
12380SOL    HW239100   5.390   6.565   3.782
12381SOL     OW39101   4.031   5.649   2.480
12381SOL    HW139102   4.020   5.743   2.513
12381SOL    HW239103   4.026   5.586   2.557
12382SOL     OW39104   5.346   5.953   2.236
12382SOL    HW139105   5.348   5.877   2.300
12382SOL    HW239106   5.298   6.030   2.276
12383SOL     OW39107   4.747   6.352   2.828
12383SOL    HW139108   4.762   6.373   2.924
12383SOL    HW239109   4.717   6.257   2.819
12384SOL     OW39110   4.704   7.159   3.562
12384SOL    HW139111   4.684   7.203   3.474
12384SOL    HW239112   4.743   7.068   3.546
12385SOL     OW39113   5.583   7.104   3.467
12385SOL    HW139114   5.597   7.131   3.372
12385SOL    HW239115   5.666   7.126   3.520
12386SOL     OW39116   4.074   6.484   3.666
12386SOL    HW139117   4.150   6.528   3.714
12386SOL    HW239118   4.109   6.437   3.584
12387SOL     OW39119   5.264   5.860   1.987
12387SOL    HW139120   5.203   5.785   2.010
12387SOL    HW239121   5.286   5.912   2.070
12388SOL     OW39122   5.027   6.424   1.904
12388SOL    HW139123   5.061   6.331   1.919
12388SOL    HW239124   5.045   6.451   1.809
12389SOL     OW39125   4.792   6.919   2.711
12389SOL    HW139126   4.799   6.835   2.656
12389SOL    HW239127   4.854   6.988   2.675
12390SOL     OW39128   4.043   6.396   2.811
12390SOL    HW139129   4.136   6.432   2.816
12390SOL    HW239130   4.037   6.311   2.863
12391SOL     OW39131   4.063   6.095   2.868
12391SOL    HW139132   4.011   6.012   2.851
12391SOL    HW239133   4.140   6.100   2.804
12392SOL     OW39134   4.235   6.001   3.670
12392SOL    HW139135   4.217   6.046   3.758
12392SOL    HW239136   4.277   6.066   3.607
12393SOL     OW39137   4.862   5.966   3.540
12393SOL    HW139138   4.817   6.029   3.604
12393SOL    HW239139   4.955   5.997   3.523
12394SOL     OW39140   4.884   5.793   3.339
12394SOL    HW139141   4.884   5.857   3.416
12394SOL    HW239142   4.912   5.841   3.256
12395SOL     OW39143   3.732   6.912   2.062
12395SOL    HW139144   3.639   6.933   2.031
12395SOL    HW239145   3.742   6.813   2.075
12396SOL     OW39146   3.812   7.387   2.789
12396SOL    HW139147   3.770   7.301   2.762
12396SOL    HW239148   3.906   7.390   2.755
12397SOL     OW39149   4.228   7.154   2.772
12397SOL    HW139150   4.294   7.228   2.781
12397SOL    HW239151   4.272   7.075   2.730
12398SOL     OW39152   4.726   6.382   3.100
12398SOL    HW139153   4.767   6.350   3.186
12398SOL    HW239154   4.630   6.355   3.097
12399SOL     OW39155   3.764   6.130   2.976
12399SOL    HW139156   3.849   6.097   2.935
12399SOL    HW239157   3.777   6.145   3.074
12400SOL     OW39158   3.913   6.106   3.584
12400SOL    HW139159   3.972   6.066   3.514
12400SOL    HW239160   3.855   6.177   3.543
12401SOL     OW39161   5.093   6.536   3.522
12401SOL    HW139162   5.132   6.625   3.542
12401SOL    HW239163   5.103   6.516   3.425
12402SOL     OW39164   4.539   6.158   2.187
12402SOL    HW139165   4.546   6.069   2.141
12402SOL    HW239166   4.445   6.192   2.179
12403SOL     OW39167   5.381   6.190   3.068
12403SOL    HW139168   5.343   6.121   3.130
12403SOL    HW239169   5.463   6.154   3.024
12404SOL     OW39170   3.976   7.150   3.606
12404SOL    HW139171   3.946   7.207   3.682
12404SOL    HW239172   3.969   7.053   3.632
12405SOL     OW39173   4.395   6.050   3.131
12405SOL    HW139174   4.361   5.961   3.101
12405SOL    HW239175   4.421   6.104   3.051
12406SOL     OW39176   4.654   7.264   3.327
12406SOL    HW139177   4.630   7.246   3.232
12406SOL    HW239178   4.684   7.358   3.337
12407SOL     OW39179   4.197   6.086   2.053
12407SOL    HW139180   4.258   6.166   2.057
12407SOL    HW239181   4.102   6.117   2.060
12408SOL     OW39182   3.883   6.723   3.328
12408SOL    HW139183   3.905   6.662   3.404
12408SOL    HW239184   3.893   6.674   3.242
12409SOL     OW39185   5.071   6.645   3.096
12409SOL    HW139186   5.095   6.582   3.022
12409SOL    HW239187   4.981   6.685   3.078
12410SOL     OW39188   5.026   6.441   2.171
12410SOL    HW139189   4.940   6.410   2.213
12410SOL    HW239190   5.022   6.427   2.072
12411SOL     OW39191   5.483   7.333   3.016
12411SOL    HW139192   5.544   7.363   2.943
12411SOL    HW239193   5.445   7.244   2.994
12412SOL     OW39194   4.976   7.317   2.990
12412SOL    HW139195   5.060   7.322   2.936
12412SOL    HW239196   4.953   7.221   3.008
12413SOL     OW39197   3.807   6.844   2.884
12413SOL    HW139198   3.802   6.843   2.984
12413SOL    HW239199   3.724   6.803   2.846
12414SOL     OW39200   4.412   7.248   3.578
12414SOL    HW139201   4.356   7.329   3.587
12414SOL    HW239202   4.464   7.252   3.492
12415SOL     OW39203   4.627   5.672   1.995
12415SOL    HW139204   4.678   5.673   1.909
12415SOL    HW239205   4.683   5.630   2.066
12416SOL     OW39206   5.450   5.721   2.385
12416SOL    HW139207   5.523   5.704   2.318
12416SOL    HW239208   5.419   5.634   2.423
12417SOL     OW39209   5.112   7.159   2.339
12417SOL    HW139210   5.179   7.171   2.265
12417SOL    HW239211   5.072   7.248   2.362
12418SOL     OW39212   3.854   7.380   3.713
12418SOL    HW139213   3.813   7.306   3.766
12418SOL    HW239214   3.918   7.431   3.771
12419SOL     OW39215   5.004   6.513   2.534
12419SOL    HW139216   5.064   6.432   2.536
12419SOL    HW239217   5.044   6.582   2.474
12420SOL     OW39218   4.554   6.859   3.284
12420SOL    HW139219   4.549   6.892   3.379
12420SOL    HW239220   4.468   6.878   3.238
12421SOL     OW39221   4.396   7.202   2.016
12421SOL    HW139222   4.405   7.212   1.917
12421SOL    HW239223   4.356   7.113   2.037
12422SOL     OW39224   5.374   7.306   3.256
12422SOL    HW139225   5.427   7.316   3.172
12422SOL    HW239226   5.347   7.396   3.290
12423SOL     OW39227   5.565   5.761   2.825
12423SOL    HW139228   5.604   5.676   2.789
12423SOL    HW239229   5.467   5.763   2.806
12424SOL     OW39230   3.987   5.912   2.582
12424SOL    HW139231   3.908   5.963   2.548
12424SOL    HW239232   3.978   5.897   2.680
12425SOL     OW39233   4.918   7.198   1.893
12425SOL    HW139234   4.924   7.105   1.930
12425SOL    HW239235   4.859   7.198   1.813
12426SOL     OW39236   4.546   6.588   3.234
12426SOL    HW139237   4.586   6.587   3.142
12426SOL    HW239238   4.556   6.680   3.274
12427SOL     OW39239   4.640   6.496   2.153
12427SOL    HW139240   4.703   6.534   2.085
12427SOL    HW239241   4.680   6.413   2.192
12428SOL     OW39242   5.228   7.193   1.906
12428SOL    HW139243   5.136   7.230   1.913
12428SOL    HW239244   5.266   7.213   1.816
12429SOL     OW39245   4.096   6.874   3.352
12429SOL    HW139246   4.083   6.967   3.318
12429SOL    HW239247   4.012   6.822   3.339
12430SOL     OW39248   5.338   6.878   3.151
12430SOL    HW139249   5.398   6.881   3.231
12430SOL    HW239250   5.263   6.942   3.164
12431SOL     OW39251   4.763   6.684   2.558
12431SOL    HW139252   4.693   6.637   2.612
12431SOL    HW239253   4.822   6.616   2.515
12432SOL     OW39254   4.738   5.822   2.833
12432SOL    HW139255   4.730   5.786   2.740
12432SOL    HW239256   4.736   5.746   2.898
12433SOL     OW39257   4.314   7.073   2.353
12433SOL    HW139258   4.356   7.015   2.283
12433SOL    HW239259   4.270   7.152   2.309
12434SOL     OW39260   5.433   5.971   3.243
12434SOL    HW139261   5.506   6.040   3.247
12434SOL    HW239262   5.461   5.896   3.184
12435SOL     OW39263   3.979   6.934   2.152
12435SOL    HW139264   3.883   6.935   2.125
12435SOL    HW239265   3.991   6.987   2.236
12436SOL     OW39266   3.829   6.599   3.588
12436SOL    HW139267   3.752   6.566   3.642
12436SOL    HW239268   3.914   6.569   3.630
12437SOL     OW39269   4.396   5.789   3.351
12437SOL    HW139270   4.486   5.773   3.311
12437SOL    HW239271   4.404   5.794   3.450
12438SOL     OW39272   3.799   5.931   1.895
12438SOL    HW139273   3.707   5.903   1.866
12438SOL    HW239274   3.830   6.008   1.839
12439SOL     OW39275   5.164   6.442   3.260
12439SOL    HW139276   5.107   6.494   3.197
12439SOL    HW239277   5.260   6.454   3.236
12440SOL     OW39278   3.796   5.752   2.180
12440SOL    HW139279   3.779   5.835   2.126
12440SOL    HW239280   3.886   5.715   2.158
12441SOL     OW39281   4.907   6.921   1.981
12441SOL    HW139282   4.808   6.910   1.983
12441SOL    HW239283   4.941   6.936   2.074
12442SOL     OW39284   4.337   6.428   3.293
12442SOL    HW139285   4.393   6.509   3.276
12442SOL    HW239286   4.396   6.348   3.296
12443SOL     OW39287   5.217   7.353   2.821
12443SOL    HW139288   5.250   7.417   2.752
12443SOL    HW239289   5.283   7.347   2.896
12444SOL     OW39290   4.440   6.151   3.570
12444SOL    HW139291   4.459   6.216   3.644
12444SOL    HW239292   4.500   6.071   3.579
12445SOL     OW39293   5.174   6.806   3.495
12445SOL    HW139294   5.165   6.796   3.594
12445SOL    HW239295   5.270   6.799   3.469
12446SOL     OW39296   4.114   7.327   3.422
12446SOL    HW139297   4.023   7.368   3.420
12446SOL    HW239298   4.107   7.233   3.454
12447SOL     OW39299   5.398   6.469   3.116
12447SOL    HW139300   5.371   6.380   3.079
12447SOL    HW239301   5.399   6.537   3.043
12448SOL     OW39302   4.949   5.911   2.311
12448SOL    HW139303   5.014   5.837   2.300
12448SOL    HW239304   4.969   5.961   2.395
12449SOL     OW39305   4.318   6.331   2.514
12449SOL    HW139306   4.368   6.416   2.495
12449SOL    HW239307   4.230   6.333   2.466
12450SOL     OW39308   5.501   5.928   3.504
12450SOL    HW139309   5.484   5.959   3.410
12450SOL    HW239310   5.417   5.891   3.542
12451SOL     OW39311   5.454   6.520   3.379
12451SOL    HW139312   5.492   6.611   3.394
12451SOL    HW239313   5.446   6.503   3.280
12452SOL     OW39314   4.583   6.960   1.878
12452SOL    HW139315   4.537   6.975   1.966
12452SOL    HW239316   4.627   7.045   1.848
12453SOL     OW39317   4.385   7.376   2.815
12453SOL    HW139318   4.339   7.464   2.802
12453SOL    HW239319   4.484   7.388   2.808
12454SOL     OW39320   5.132   7.437   3.582
12454SOL    HW139321   5.036   7.426   3.555
12454SOL    HW239322   5.188   7.370   3.534
12455SOL     OW39323   4.583   6.542   2.723
12455SOL    HW139324   4.637   6.473   2.771
12455SOL    HW239325   4.551   6.611   2.789
12456SOL     OW39326   4.807   6.570   1.949
12456SOL    HW139327   4.784   6.623   1.867
12456SOL    HW239328   4.888   6.514   1.930
12457SOL     OW39329   5.585   7.155   2.713
12457SOL    HW139330   5.514   7.143   2.643
12457SOL    HW239331   5.586   7.076   2.773
12458SOL     OW39332   3.945   6.900   3.706
12458SOL    HW139333   3.880   6.827   3.685
12458SOL    HW239334   3.949   6.914   3.804
12459SOL     OW39335   3.803   6.826   2.515
12459SOL    HW139336   3.802   6.779   2.603
12459SOL    HW239337   3.885   6.798   2.464
12460SOL     OW39338   4.396   6.977   3.486
12460SOL    HW139339   4.318   6.927   3.524
12460SOL    HW239340   4.393   7.072   3.517
12461SOL     OW39341   5.548   5.778   3.089
12461SOL    HW139342   5.544   5.688   3.133
12461SOL    HW239343   5.551   5.767   2.990
12462SOL     OW39344   4.152   6.010   2.382
12462SOL    HW139345   4.182   5.938   2.320
12462SOL    HW239346   4.113   5.970   2.465
12463SOL     OW39347   5.429   7.073   2.966
12463SOL    HW139348   5.336   7.048   2.939
12463SOL    HW239349   5.455   7.023   3.048
12464SOL     OW39350   4.041   6.133   3.142
12464SOL    HW139351   4.079   6.074   3.214
12464SOL    HW239352   4.081   6.107   3.054
12465SOL     OW39353   4.536   7.172   2.549
12465SOL    HW139354   4.568   7.182   2.455
12465SOL    HW239355   4.457   7.110   2.551
12466SOL     OW39356   5.148   5.800   2.974
12466SOL    HW139357   5.200   5.735   3.029
12466SOL    HW239358   5.099   5.863   3.035
12467SOL     OW39359   4.725   5.620   3.016
12467SOL    HW139360   4.662   5.548   2.985
12467SOL    HW239361   4.818   5.584   3.016
12468SOL     OW39362   4.494   6.916   2.163
12468SOL    HW139363   4.448   6.829   2.180
12468SOL    HW239364   4.585   6.913   2.204
12469SOL     OW39365   4.342   7.153   3.146
12469SOL    HW139366   4.337   7.235   3.203
12469SOL    HW239367   4.431   7.150   3.101
12470SOL     OW39368   5.076   5.638   2.030
12470SOL    HW139369   5.111   5.597   1.946
12470SOL    HW239370   4.986   5.600   2.050
12471SOL     OW39371   5.024   6.039   2.553
12471SOL    HW139372   4.965   6.119   2.557
12471SOL    HW239373   5.039   6.004   2.646
12472SOL     OW39374   5.317   5.807   2.744
12472SOL    HW139375   5.233   5.806   2.798
12472SOL    HW239376   5.319   5.890   2.688
12473SOL     OW39377   3.763   6.663   2.162
12473SOL    HW139378   3.862   6.652   2.153
12473SOL    HW239379   3.723   6.577   2.194
12474SOL     OW39380   4.599   7.232   2.199
12474SOL    HW139381   4.522   7.197   2.145
12474SOL    HW239382   4.567   7.303   2.261
12475SOL     OW39383   3.954   6.214   3.837
12475SOL    HW139384   3.861   6.212   3.874
12475SOL    HW239385   3.955   6.175   3.745
12476SOL     OW39386   3.949   5.861   4.720
12476SOL    HW139387   3.984   5.844   4.812
12476SOL    HW239388   3.861   5.816   4.708
12477SOL     OW39389   3.743   5.954   4.371
12477SOL    HW139390   3.661   5.997   4.410
12477SOL    HW239391   3.715   5.881   4.308
12478SOL     OW39392   4.293   6.861   4.889
12478SOL    HW139393   4.200   6.854   4.852
12478SOL    HW239394   4.304   6.950   4.933
12479SOL     OW39395   5.279   7.097   4.427
12479SOL    HW139396   5.222   7.081   4.508
12479SOL    HW239397   5.220   7.107   4.347
12480SOL     OW39398   5.467   6.204   4.580
12480SOL    HW139399   5.500   6.298   4.580
12480SOL    HW239400   5.518   6.150   4.646
12481SOL     OW39401   4.859   6.289   4.441
12481SOL    HW139402   4.916   6.367   4.416
12481SOL    HW239403   4.799   6.315   4.517
12482SOL     OW39404   5.479   6.193   3.955
12482SOL    HW139405   5.467   6.180   3.856
12482SOL    HW239406   5.449   6.112   4.004
12483SOL     OW39407   4.492   6.730   4.747
12483SOL    HW139408   4.414   6.747   4.807
12483SOL    HW239409   4.526   6.817   4.711
12484SOL     OW39410   4.574   6.384   5.547
12484SOL    HW139411   4.570   6.460   5.612
12484SOL    HW239412   4.596   6.420   5.456
12485SOL     OW39413   4.409   6.598   4.389
12485SOL    HW139414   4.478   6.582   4.459
12485SOL    HW239415   4.336   6.655   4.427
12486SOL     OW39416   4.410   6.747   5.527
12486SOL    HW139417   4.470   6.826   5.541
12486SOL    HW239418   4.324   6.778   5.486
12487SOL     OW39419   4.059   7.021   4.785
12487SOL    HW139420   3.981   6.990   4.732
12487SOL    HW239421   4.117   7.079   4.728
12488SOL     OW39422   5.184   7.091   5.063
12488SOL    HW139423   5.208   7.185   5.089
12488SOL    HW239424   5.168   7.037   5.145
12489SOL     OW39425   4.162   5.978   5.223
12489SOL    HW139426   4.244   5.922   5.232
12489SOL    HW239427   4.081   5.920   5.227
12490SOL     OW39428   5.327   6.033   4.461
12490SOL    HW139429   5.253   6.079   4.411
12490SOL    HW239430   5.378   6.101   4.514
12491SOL     OW39431   3.955   7.299   4.207
12491SOL    HW139432   3.989   7.376   4.261
12491SOL    HW239433   3.999   7.299   4.117
12492SOL     OW39434   4.851   6.927   5.414
12492SOL    HW139435   4.898   6.927   5.502
12492SOL    HW239436   4.803   6.840   5.403
12493SOL     OW39437   3.954   7.020   4.262
12493SOL    HW139438   3.928   7.116   4.262
12493SOL    HW239439   3.883   6.966   4.307
12494SOL     OW39440   3.964   6.677   4.610
12494SOL    HW139441   3.978   6.593   4.662
12494SOL    HW239442   3.909   6.741   4.665
12495SOL     OW39443   4.344   7.372   5.163
12495SOL    HW139444   4.252   7.355   5.198
12495SOL    HW239445   4.372   7.464   5.189
12496SOL     OW39446   4.330   6.550   3.847
12496SOL    HW139447   4.337   6.634   3.793
12496SOL    HW239448   4.376   6.563   3.935
12497SOL     OW39449   5.318   5.700   5.204
12497SOL    HW139450   5.300   5.767   5.132
12497SOL    HW239451   5.315   5.746   5.293
12498SOL     OW39452   3.846   6.229   4.287
12498SOL    HW139453   3.801   6.141   4.304
12498SOL    HW239454   3.845   6.283   4.371
12499SOL     OW39455   5.566   7.353   4.083
12499SOL    HW139456   5.620   7.324   4.163
12499SOL    HW239457   5.596   7.443   4.054
12500SOL     OW39458   3.751   7.182   3.841
12500SOL    HW139459   3.732   7.086   3.862
12500SOL    HW239460   3.718   7.240   3.916
12501SOL     OW39461   5.413   6.508   4.336
12501SOL    HW139462   5.508   6.479   4.344
12501SOL    HW239463   5.405   6.573   4.261
12502SOL     OW39464   5.365   6.694   4.156
12502SOL    HW139465   5.451   6.696   4.104
12502SOL    HW239466   5.379   6.741   4.244
12503SOL     OW39467   3.837   6.323   5.321
12503SOL    HW139468   3.925   6.310   5.366
12503SOL    HW239469   3.824   6.420   5.299
12504SOL     OW39470   4.337   6.951   4.450
12504SOL    HW139471   4.288   6.864   4.459
12504SOL    HW239472   4.314   6.994   4.363
12505SOL     OW39473   5.017   6.814   5.147
12505SOL    HW139474   5.054   6.741   5.089
12505SOL    HW239475   5.069   6.819   5.232
12506SOL     OW39476   4.533   5.590   4.226
12506SOL    HW139477   4.573   5.681   4.217
12506SOL    HW239478   4.433   5.598   4.232
12507SOL     OW39479   3.921   6.562   4.988
12507SOL    HW139480   4.010   6.517   4.974
12507SOL    HW239481   3.848   6.497   4.969
12508SOL     OW39482   5.249   6.585   3.914
12508SOL    HW139483   5.186   6.509   3.927
12508SOL    HW239484   5.297   6.603   4.000
12509SOL     OW39485   4.911   7.378   5.340
12509SOL    HW139486   4.935   7.438   5.264
12509SOL    HW239487   4.918   7.283   5.310
12510SOL     OW39488   4.041   5.837   5.525
12510SOL    HW139489   4.112   5.908   5.531
12510SOL    HW239490   3.953   5.876   5.553
12511SOL     OW39491   5.190   7.003   4.677
12511SOL    HW139492   5.131   7.009   4.757
12511SOL    HW239493   5.175   6.915   4.631
12512SOL     OW39494   5.391   7.300   4.296
12512SOL    HW139495   5.350   7.277   4.208
12512SOL    HW239496   5.373   7.226   4.361
12513SOL     OW39497   4.322   6.315   3.994
12513SOL    HW139498   4.346   6.384   3.926
12513SOL    HW239499   4.244   6.348   4.048
12514SOL     OW39500   5.005   5.931   4.668
12514SOL    HW139501   4.919   5.881   4.655
12514SOL    HW239502   5.067   5.877   4.724
12515SOL     OW39503   5.300   7.248   4.031
12515SOL    HW139504   5.389   7.294   4.034
12515SOL    HW239505   5.279   7.224   3.936
12516SOL     OW39506   4.531   6.191   5.189
12516SOL    HW139507   4.484   6.188   5.278
12516SOL    HW239508   4.480   6.136   5.123
12517SOL     OW39509   5.118   6.055   5.398
12517SOL    HW139510   5.098   6.098   5.486
12517SOL    HW239511   5.196   5.993   5.407
12518SOL     OW39512   4.697   6.476   5.296
12518SOL    HW139513   4.743   6.392   5.267
12518SOL    HW239514   4.641   6.510   5.221
12519SOL     OW39515   4.715   5.996   4.966
12519SOL    HW139516   4.638   6.030   5.020
12519SOL    HW239517   4.681   5.945   4.887
12520SOL     OW39518   4.765   6.287   4.153
12520SOL    HW139519   4.791   6.283   4.249
12520SOL    HW239520   4.680   6.236   4.139
12521SOL     OW39521   3.800   6.397   4.513
12521SOL    HW139522   3.899   6.385   4.522
12521SOL    HW239523   3.776   6.492   4.534
12522SOL     OW39524   3.854   7.407   5.295
12522SOL    HW139525   3.844   7.392   5.394
12522SOL    HW239526   3.768   7.443   5.259
12523SOL     OW39527   4.589   5.934   3.919
12523SOL    HW139528   4.648   5.997   3.870
12523SOL    HW239529   4.608   5.840   3.890
12524SOL     OW39530   5.443   6.171   5.555
12524SOL    HW139531   5.417   6.260   5.519
12524SOL    HW239532   5.441   6.103   5.482
12525SOL     OW39533   5.086   6.730   4.269
12525SOL    HW139534   5.169   6.701   4.221
12525SOL    HW239535   5.037   6.797   4.213
12526SOL     OW39536   4.274   5.782   4.609
12526SOL    HW139537   4.269   5.777   4.709
12526SOL    HW239538   4.276   5.878   4.580
12527SOL     OW39539   4.732   7.042   4.201
12527SOL    HW139540   4.686   7.114   4.149
12527SOL    HW239541   4.728   7.062   4.299
12528SOL     OW39542   4.075   7.387   4.577
12528SOL    HW139543   4.125   7.301   4.583
12528SOL    HW239544   4.140   7.464   4.574
12529SOL     OW39545   5.519   6.652   4.597
12529SOL    HW139546   5.457   6.637   4.521
12529SOL    HW239547   5.467   6.663   4.682
12530SOL     OW39548   4.951   7.136   5.230
12530SOL    HW139549   4.957   7.059   5.294
12530SOL    HW239550   4.899   7.110   5.150
12531SOL     OW39551   4.045   6.529   3.966
12531SOL    HW139552   4.127   6.568   3.924
12531SOL    HW239553   4.018   6.447   3.917
12532SOL     OW39554   5.182   6.321   4.452
12532SOL    HW139555   5.177   6.256   4.527
12532SOL    HW239556   5.262   6.380   4.465
12533SOL     OW39557   4.185   6.852   5.451
12533SOL    HW139558   4.135   6.853   5.365
12533SOL    HW239559   4.122   6.834   5.527
12534SOL     OW39560   4.835   7.362   3.961
12534SOL    HW139561   4.775   7.300   4.011
12534SOL    HW239562   4.866   7.318   3.876
12535SOL     OW39563   3.926   5.871   5.222
12535SOL    HW139564   3.846   5.931   5.209
12535SOL    HW239565   3.916   5.822   5.308
12536SOL     OW39566   5.356   6.963   3.805
12536SOL    HW139567   5.324   7.057   3.795
12536SOL    HW239568   5.280   6.900   3.793
12537SOL     OW39569   4.188   7.329   4.047
12537SOL    HW139570   4.221   7.368   4.133
12537SOL    HW239571   4.264   7.322   3.982
12538SOL     OW39572   5.124   5.693   4.150
12538SOL    HW139573   5.100   5.656   4.060
12538SOL    HW239574   5.223   5.709   4.154
12539SOL     OW39575   3.973   7.371   4.965
12539SOL    HW139576   4.030   7.306   5.015
12539SOL    HW239577   3.957   7.338   4.872
12540SOL     OW39578   4.664   7.284   4.628
12540SOL    HW139579   4.744   7.227   4.649
12540SOL    HW239580   4.615   7.244   4.551
12541SOL     OW39581   4.106   6.286   4.204
12541SOL    HW139582   4.151   6.196   4.201
12541SOL    HW239583   4.012   6.275   4.237
12542SOL     OW39584   5.271   5.808   5.453
12542SOL    HW139585   5.266   5.845   5.545
12542SOL    HW239586   5.199   5.739   5.441
12543SOL     OW39587   4.338   5.708   3.841
12543SOL    HW139588   4.436   5.686   3.848
12543SOL    HW239589   4.307   5.691   3.748
12544SOL     OW39590   4.505   5.850   5.473
12544SOL    HW139591   4.572   5.789   5.516
12544SOL    HW239592   4.432   5.869   5.538
12545SOL     OW39593   4.612   7.100   4.919
12545SOL    HW139594   4.589   7.075   4.825
12545SOL    HW239595   4.673   7.031   4.958
12546SOL     OW39596   5.075   6.176   5.157
12546SOL    HW139597   5.103   6.133   5.242
12546SOL    HW239598   5.100   6.272   5.158
12547SOL     OW39599   4.527   6.988   4.648
12547SOL    HW139600   4.617   7.002   4.606
12547SOL    HW239601   4.456   6.990   4.577
12548SOL     OW39602   4.646   6.089   4.623
12548SOL    HW139603   4.621   6.080   4.527
12548SOL    HW239604   4.694   6.007   4.654
12549SOL     OW39605   4.263   5.650   4.236
12549SOL    HW139606   4.182   5.651   4.294
12549SOL    HW239607   4.266   5.733   4.181
12550SOL     OW39608   5.158   6.774   3.765
12550SOL    HW139609   5.190   6.698   3.822
12550SOL    HW239610   5.066   6.801   3.795
12551SOL     OW39611   4.021   5.621   3.895
12551SOL    HW139612   4.070   5.705   3.874
12551SOL    HW239613   4.083   5.556   3.940
12552SOL     OW39614   4.659   5.822   4.204
12552SOL    HW139615   4.611   5.863   4.126
12552SOL    HW239616   4.758   5.820   4.185
12553SOL     OW39617   4.800   6.269   5.188
12553SOL    HW139618   4.720   6.208   5.191
12553SOL    HW239619   4.881   6.216   5.164
12554SOL     OW39620   4.951   7.156   4.517
12554SOL    HW139621   4.972   7.230   4.452
12554SOL    HW239622   5.019   7.156   4.590
12555SOL     OW39623   4.183   6.738   4.465
12555SOL    HW139624   4.112   6.711   4.530
12555SOL    HW239625   4.157   6.710   4.372
12556SOL     OW39626   4.995   7.383   4.315
12556SOL    HW139627   5.039   7.447   4.251
12556SOL    HW239628   4.945   7.435   4.385
12557SOL     OW39629   4.756   6.135   3.740
12557SOL    HW139630   4.715   6.217   3.701
12557SOL    HW239631   4.820   6.161   3.813
12558SOL     OW39632   3.802   6.142   5.110
12558SOL    HW139633   3.894   6.141   5.069
12558SOL    HW239634   3.796   6.216   5.177
12559SOL     OW39635   4.285   5.808   4.871
12559SOL    HW139636   4.323   5.724   4.908
12559SOL    HW239637   4.197   5.827   4.915
12560SOL     OW39638   4.590   6.040   4.366
12560SOL    HW139639   4.558   6.112   4.304
12560SOL    HW239640   4.614   5.959   4.313
12561SOL     OW39641   4.741   5.625   4.477
12561SOL    HW139642   4.669   5.630   4.408
12561SOL    HW239643   4.717   5.556   4.546
12562SOL     OW39644   5.153   6.759   4.591
12562SOL    HW139645   5.098   6.675   4.584
12562SOL    HW239646   5.179   6.788   4.499
12563SOL     OW39647   5.190   6.176   4.716
12563SOL    HW139648   5.160   6.081   4.723
12563SOL    HW239649   5.263   6.192   4.782
12564SOL     OW39650   5.581   6.419   4.101
12564SOL    HW139651   5.623   6.355   4.165
12564SOL    HW239652   5.543   6.368   4.023
12565SOL     OW39653   4.212   6.971   3.898
12565SOL    HW139654   4.125   6.956   3.945
12565SOL    HW239655   4.195   6.997   3.803
12566SOL     OW39656   5.388   6.866   4.381
12566SOL    HW139657   5.487   6.874   4.395
12566SOL    HW239658   5.343   6.950   4.412
12567SOL     OW39659   5.114   6.161   3.802
12567SOL    HW139660   5.060   6.140   3.883
12567SOL    HW239661   5.205   6.120   3.811
12568SOL     OW39662   4.251   5.842   4.052
12568SOL    HW139663   4.278   5.783   3.977
12568SOL    HW239664   4.251   5.937   4.021
12569SOL     OW39665   5.478   6.809   5.312
12569SOL    HW139666   5.569   6.770   5.299
12569SOL    HW239667   5.486   6.905   5.336
12570SOL     OW39668   4.788   6.933   5.064
12570SOL    HW139669   4.708   6.910   5.119
12570SOL    HW239670   4.871   6.907   5.113
12571SOL     OW39671   5.316   7.215   5.349
12571SOL    HW139672   5.343   7.249   5.259
12571SOL    HW239673   5.395   7.177   5.395
12572SOL     OW39674   4.835   6.781   4.824
12572SOL    HW139675   4.795   6.825   4.905
12572SOL    HW239676   4.794   6.818   4.741
12573SOL     OW39677   5.362   6.685   4.803
12573SOL    HW139678   5.367   6.766   4.862
12573SOL    HW239679   5.276   6.687   4.752
12574SOL     OW39680   4.639   5.675   5.126
12574SOL    HW139681   4.664   5.655   5.031
12574SOL    HW239682   4.711   5.731   5.168
12575SOL     OW39683   4.704   6.702   5.443
12575SOL    HW139684   4.605   6.708   5.453
12575SOL    HW239685   4.727   6.622   5.387
12576SOL     OW39686   4.429   6.636   4.092
12576SOL    HW139687   4.415   6.643   4.191
12576SOL    HW239688   4.513   6.585   4.074
12577SOL     OW39689   4.134   6.399   4.975
12577SOL    HW139690   4.220   6.411   5.025
12577SOL    HW239691   4.092   6.312   5.002
12578SOL     OW39692   4.998   5.972   4.986
12578SOL    HW139693   5.019   6.046   5.050
12578SOL    HW239694   4.909   5.989   4.943
12579SOL     OW39695   3.788   7.150   5.055
12579SOL    HW139696   3.742   7.232   5.021
12579SOL    HW239697   3.886   7.169   5.064
12580SOL     OW39698   4.091   6.686   4.225
12580SOL    HW139699   4.084   6.769   4.169
12580SOL    HW239700   4.095   6.606   4.165
12581SOL     OW39701   4.290   6.123   4.589
12581SOL    HW139702   4.302   6.189   4.515
12581SOL    HW239703   4.336   6.157   4.672
12582SOL     OW39704   4.976   6.934   4.112
12582SOL    HW139705   5.026   7.011   4.152
12582SOL    HW239706   4.881   6.936   4.144
12583SOL     OW39707   4.996   7.031   4.866
12583SOL    HW139708   5.043   7.044   4.953
12583SOL    HW239709   4.930   6.957   4.875
12584SOL     OW39710   5.306   6.225   4.196
12584SOL    HW139711   5.275   6.286   4.269
12584SOL    HW239712   5.356   6.277   4.127
12585SOL     OW39713   4.078   7.096   5.053
12585SOL    HW139714   4.057   7.052   4.966
12585SOL    HW239715   4.175   7.122   5.056
12586SOL     OW39716   4.126   6.337   5.322
12586SOL    HW139717   4.194   6.392   5.275
12586SOL    HW239718   4.166   6.249   5.349
12587SOL     OW39719   5.311   6.365   5.394
12587SOL    HW139720   5.219   6.403   5.389
12587SOL    HW239721   5.371   6.412   5.329
12588SOL     OW39722   4.737   5.691   5.494
12588SOL    HW139723   4.743   5.776   5.442
12588SOL    HW239724   4.769   5.615   5.437
12589SOL     OW39725   4.228   5.636   5.464
12589SOL    HW139726   4.186   5.579   5.394
12589SOL    HW239727   4.162   5.705   5.496
12590SOL     OW39728   4.297   6.456   4.753
12590SOL    HW139729   4.341   6.545   4.744
12590SOL    HW239730   4.234   6.456   4.830
12591SOL     OW39731   5.084   6.448   4.769
12591SOL    HW139732   5.009   6.448   4.703
12591SOL    HW239733   5.121   6.356   4.778
12592SOL     OW39734   4.933   6.111   3.999
12592SOL    HW139735   4.946   6.027   4.053
12592SOL    HW239736   4.904   6.185   4.059
12593SOL     OW39737   4.031   5.799   4.955
12593SOL    HW139738   4.008   5.836   5.045
12593SOL    HW239739   4.001   5.704   4.949
12594SOL     OW39740   3.761   6.896   5.006
12594SOL    HW139741   3.814   6.847   5.074
12594SOL    HW239742   3.783   6.994   5.011
12595SOL     OW39743   4.456   6.220   4.788
12595SOL    HW139744   4.515   6.194   4.712
12595SOL    HW239745   4.428   6.316   4.777
12596SOL     OW39746   5.452   6.521   5.578
12596SOL    HW139747   5.406   6.514   5.489
12596SOL    HW239748   5.390   6.565   5.644
12597SOL     OW39749   4.031   5.649   4.342
12597SOL    HW139750   4.020   5.743   4.375
12597SOL    HW239751   4.026   5.586   4.419
12598SOL     OW39752   5.346   5.953   4.098
12598SOL    HW139753   5.348   5.877   4.162
12598SOL    HW239754   5.298   6.030   4.138
12599SOL     OW39755   4.747   6.352   4.690
12599SOL    HW139756   4.762   6.373   4.786
12599SOL    HW239757   4.717   6.257   4.681
12600SOL     OW39758   4.704   7.159   5.424
12600SOL    HW139759   4.684   7.203   5.336
12600SOL    HW239760   4.743   7.068   5.408
12601SOL     OW39761   5.583   7.104   5.329
12601SOL    HW139762   5.597   7.131   5.234
12601SOL    HW239763   5.666   7.126   5.382
12602SOL     OW39764   4.074   6.484   5.528
12602SOL    HW139765   4.150   6.528   5.576
12602SOL    HW239766   4.109   6.437   5.446
12603SOL     OW39767   5.264   5.860   3.849
12603SOL    HW139768   5.203   5.785   3.872
12603SOL    HW239769   5.286   5.912   3.932
12604SOL     OW39770   5.027   6.424   3.766
12604SOL    HW139771   5.061   6.331   3.781
12604SOL    HW239772   5.045   6.451   3.671
12605SOL     OW39773   4.792   6.919   4.573
12605SOL    HW139774   4.799   6.835   4.518
12605SOL    HW239775   4.854   6.988   4.537
12606SOL     OW39776   4.043   6.396   4.673
12606SOL    HW139777   4.136   6.432   4.678
12606SOL    HW239778   4.037   6.311   4.725
12607SOL     OW39779   4.063   6.095   4.730
12607SOL    HW139780   4.011   6.012   4.713
12607SOL    HW239781   4.140   6.100   4.666
12608SOL     OW39782   4.235   6.001   5.532
12608SOL    HW139783   4.217   6.046   5.620
12608SOL    HW239784   4.277   6.066   5.469
12609SOL     OW39785   4.862   5.966   5.402
12609SOL    HW139786   4.817   6.029   5.466
12609SOL    HW239787   4.955   5.997   5.385
12610SOL     OW39788   4.884   5.793   5.201
12610SOL    HW139789   4.884   5.857   5.278
12610SOL    HW239790   4.912   5.841   5.118
12611SOL     OW39791   3.732   6.912   3.924
12611SOL    HW139792   3.639   6.933   3.893
12611SOL    HW239793   3.742   6.813   3.937
12612SOL     OW39794   3.812   7.387   4.651
12612SOL    HW139795   3.770   7.301   4.624
12612SOL    HW239796   3.906   7.390   4.617
12613SOL     OW39797   4.228   7.154   4.634
12613SOL    HW139798   4.294   7.228   4.643
12613SOL    HW239799   4.272   7.075   4.592
12614SOL     OW39800   4.726   6.382   4.962
12614SOL    HW139801   4.767   6.350   5.048
12614SOL    HW239802   4.630   6.355   4.959
12615SOL     OW39803   3.764   6.130   4.838
12615SOL    HW139804   3.849   6.097   4.797
12615SOL    HW239805   3.777   6.145   4.936
12616SOL     OW39806   3.913   6.106   5.446
12616SOL    HW139807   3.972   6.066   5.376
12616SOL    HW239808   3.855   6.177   5.405
12617SOL     OW39809   5.093   6.536   5.384
12617SOL    HW139810   5.132   6.625   5.404
12617SOL    HW239811   5.103   6.516   5.287
12618SOL     OW39812   4.539   6.158   4.049
12618SOL    HW139813   4.546   6.069   4.003
12618SOL    HW239814   4.445   6.192   4.041
12619SOL     OW39815   5.381   6.190   4.930
12619SOL    HW139816   5.343   6.121   4.992
12619SOL    HW239817   5.463   6.154   4.886
12620SOL     OW39818   3.976   7.150   5.468
12620SOL    HW139819   3.946   7.207   5.544
12620SOL    HW239820   3.969   7.053   5.494
12621SOL     OW39821   4.395   6.050   4.993
12621SOL    HW139822   4.361   5.961   4.963
12621SOL    HW239823   4.421   6.104   4.913
12622SOL     OW39824   4.654   7.264   5.189
12622SOL    HW139825   4.630   7.246   5.094
12622SOL    HW239826   4.684   7.358   5.199
12623SOL     OW39827   4.197   6.086   3.915
12623SOL    HW139828   4.258   6.166   3.919
12623SOL    HW239829   4.102   6.117   3.922
12624SOL     OW39830   3.883   6.723   5.190
12624SOL    HW139831   3.905   6.662   5.266
12624SOL    HW239832   3.893   6.674   5.104
12625SOL     OW39833   5.071   6.645   4.958
12625SOL    HW139834   5.095   6.582   4.884
12625SOL    HW239835   4.981   6.685   4.940
12626SOL     OW39836   5.026   6.441   4.033
12626SOL    HW139837   4.940   6.410   4.075
12626SOL    HW239838   5.022   6.427   3.934
12627SOL     OW39839   5.483   7.333   4.878
12627SOL    HW139840   5.544   7.363   4.805
12627SOL    HW239841   5.445   7.244   4.856
12628SOL     OW39842   4.976   7.317   4.852
12628SOL    HW139843   5.060   7.322   4.798
12628SOL    HW239844   4.953   7.221   4.870
12629SOL     OW39845   3.807   6.844   4.746
12629SOL    HW139846   3.802   6.843   4.846
12629SOL    HW239847   3.724   6.803   4.708
12630SOL     OW39848   4.412   7.248   5.440
12630SOL    HW139849   4.356   7.329   5.449
12630SOL    HW239850   4.464   7.252   5.354
12631SOL     OW39851   4.627   5.672   3.857
12631SOL    HW139852   4.678   5.673   3.771
12631SOL    HW239853   4.683   5.630   3.928
12632SOL     OW39854   5.450   5.721   4.247
12632SOL    HW139855   5.523   5.704   4.180
12632SOL    HW239856   5.419   5.634   4.285
12633SOL     OW39857   5.112   7.159   4.201
12633SOL    HW139858   5.179   7.171   4.127
12633SOL    HW239859   5.072   7.248   4.224
12634SOL     OW39860   3.854   7.380   5.575
12634SOL    HW139861   3.813   7.306   5.628
12634SOL    HW239862   3.918   7.431   5.633
12635SOL     OW39863   5.004   6.513   4.396
12635SOL    HW139864   5.064   6.432   4.398
12635SOL    HW239865   5.044   6.582   4.336
12636SOL     OW39866   4.554   6.859   5.146
12636SOL    HW139867   4.549   6.892   5.241
12636SOL    HW239868   4.468   6.878   5.100
12637SOL     OW39869   4.396   7.202   3.878
12637SOL    HW139870   4.405   7.212   3.779
12637SOL    HW239871   4.356   7.113   3.899
12638SOL     OW39872   5.374   7.306   5.118
12638SOL    HW139873   5.427   7.316   5.034
12638SOL    HW239874   5.347   7.396   5.152
12639SOL     OW39875   5.565   5.761   4.687
12639SOL    HW139876   5.604   5.676   4.651
12639SOL    HW239877   5.467   5.763   4.668
12640SOL     OW39878   3.987   5.912   4.444
12640SOL    HW139879   3.908   5.963   4.410
12640SOL    HW239880   3.978   5.897   4.542
12641SOL     OW39881   4.918   7.198   3.755
12641SOL    HW139882   4.924   7.105   3.792
12641SOL    HW239883   4.859   7.198   3.675
12642SOL     OW39884   4.546   6.588   5.096
12642SOL    HW139885   4.586   6.587   5.004
12642SOL    HW239886   4.556   6.680   5.136
12643SOL     OW39887   4.640   6.496   4.015
12643SOL    HW139888   4.703   6.534   3.947
12643SOL    HW239889   4.680   6.413   4.054
12644SOL     OW39890   5.228   7.193   3.768
12644SOL    HW139891   5.136   7.230   3.775
12644SOL    HW239892   5.266   7.213   3.678
12645SOL     OW39893   4.096   6.874   5.214
12645SOL    HW139894   4.083   6.967   5.180
12645SOL    HW239895   4.012   6.822   5.201
12646SOL     OW39896   5.338   6.878   5.013
12646SOL    HW139897   5.398   6.881   5.093
12646SOL    HW239898   5.263   6.942   5.026
12647SOL     OW39899   4.763   6.684   4.420
12647SOL    HW139900   4.693   6.637   4.474
12647SOL    HW239901   4.822   6.616   4.377
12648SOL     OW39902   4.738   5.822   4.695
12648SOL    HW139903   4.730   5.786   4.602
12648SOL    HW239904   4.736   5.746   4.760
12649SOL     OW39905   4.314   7.073   4.215
12649SOL    HW139906   4.356   7.015   4.145
12649SOL    HW239907   4.270   7.152   4.171
12650SOL     OW39908   5.433   5.971   5.105
12650SOL    HW139909   5.506   6.040   5.109
12650SOL    HW239910   5.461   5.896   5.046
12651SOL     OW39911   3.979   6.934   4.014
12651SOL    HW139912   3.883   6.935   3.987
12651SOL    HW239913   3.991   6.987   4.098
12652SOL     OW39914   3.829   6.599   5.450
12652SOL    HW139915   3.752   6.566   5.504
12652SOL    HW239916   3.914   6.569   5.492
12653SOL     OW39917   4.396   5.789   5.213
12653SOL    HW139918   4.486   5.773   5.173
12653SOL    HW239919   4.404   5.794   5.312
12654SOL     OW39920   3.799   5.931   3.757
12654SOL    HW139921   3.707   5.903   3.728
12654SOL    HW239922   3.830   6.008   3.701
12655SOL     OW39923   5.164   6.442   5.122
12655SOL    HW139924   5.107   6.494   5.059
12655SOL    HW239925   5.260   6.454   5.098
12656SOL     OW39926   3.796   5.752   4.042
12656SOL    HW139927   3.779   5.835   3.988
12656SOL    HW239928   3.886   5.715   4.020
12657SOL     OW39929   4.907   6.921   3.843
12657SOL    HW139930   4.808   6.910   3.845
12657SOL    HW239931   4.941   6.936   3.936
12658SOL     OW39932   4.337   6.428   5.155
12658SOL    HW139933   4.393   6.509   5.138
12658SOL    HW239934   4.396   6.348   5.158
12659SOL     OW39935   5.217   7.353   4.683
12659SOL    HW139936   5.250   7.417   4.614
12659SOL    HW239937   5.283   7.347   4.758
12660SOL     OW39938   4.440   6.151   5.432
12660SOL    HW139939   4.459   6.216   5.506
12660SOL    HW239940   4.500   6.071   5.441
12661SOL     OW39941   5.174   6.806   5.357
12661SOL    HW139942   5.165   6.796   5.456
12661SOL    HW239943   5.270   6.799   5.331
12662SOL     OW39944   4.114   7.327   5.284
12662SOL    HW139945   4.023   7.368   5.282
12662SOL    HW239946   4.107   7.233   5.316
12663SOL     OW39947   5.398   6.469   4.978
12663SOL    HW139948   5.371   6.380   4.941
12663SOL    HW239949   5.399   6.537   4.905
12664SOL     OW39950   4.949   5.911   4.173
12664SOL    HW139951   5.014   5.837   4.162
12664SOL    HW239952   4.969   5.961   4.257
12665SOL     OW39953   4.318   6.331   4.376
12665SOL    HW139954   4.368   6.416   4.357
12665SOL    HW239955   4.230   6.333   4.328
12666SOL     OW39956   5.501   5.928   5.366
12666SOL    HW139957   5.484   5.959   5.272
12666SOL    HW239958   5.417   5.891   5.404
12667SOL     OW39959   5.454   6.520   5.241
12667SOL    HW139960   5.492   6.611   5.256
12667SOL    HW239961   5.446   6.503   5.142
12668SOL     OW39962   4.583   6.960   3.740
12668SOL    HW139963   4.537   6.975   3.828
12668SOL    HW239964   4.627   7.045   3.710
12669SOL     OW39965   4.385   7.376   4.677
12669SOL    HW139966   4.339   7.464   4.664
12669SOL    HW239967   4.484   7.388   4.670
12670SOL     OW39968   5.132   7.437   5.444
12670SOL    HW139969   5.036   7.426   5.417
12670SOL    HW239970   5.188   7.370   5.396
12671SOL     OW39971   4.583   6.542   4.585
12671SOL    HW139972   4.637   6.473   4.633
12671SOL    HW239973   4.551   6.611   4.651
12672SOL     OW39974   4.807   6.570   3.811
12672SOL    HW139975   4.784   6.623   3.729
12672SOL    HW239976   4.888   6.514   3.792
12673SOL     OW39977   5.585   7.155   4.575
12673SOL    HW139978   5.514   7.143   4.505
12673SOL    HW239979   5.586   7.076   4.635
12674SOL     OW39980   3.945   6.900   5.568
12674SOL    HW139981   3.880   6.827   5.547
12674SOL    HW239982   3.949   6.914   5.666
12675SOL     OW39983   3.803   6.826   4.377
12675SOL    HW139984   3.802   6.779   4.465
12675SOL    HW239985   3.885   6.798   4.326
12676SOL     OW39986   4.396   6.977   5.348
12676SOL    HW139987   4.318   6.927   5.386
12676SOL    HW239988   4.393   7.072   5.379
12677SOL     OW39989   5.548   5.778   4.951
12677SOL    HW139990   5.544   5.688   4.995
12677SOL    HW239991   5.551   5.767   4.852
12678SOL     OW39992   4.152   6.010   4.244
12678SOL    HW139993   4.182   5.938   4.182
12678SOL    HW239994   4.113   5.970   4.327
12679SOL     OW39995   5.429   7.073   4.828
12679SOL    HW139996   5.336   7.048   4.801
12679SOL    HW239997   5.455   7.023   4.910
12680SOL     OW39998   4.041   6.133   5.004
12680SOL    HW139999   4.079   6.074   5.076
12680SOL    HW240000   4.081   6.107   4.916
12681SOL     OW40001   4.536   7.172   4.411
12681SOL    HW140002   4.568   7.182   4.317
12681SOL    HW240003   4.457   7.110   4.413
12682SOL     OW40004   5.148   5.800   4.836
12682SOL    HW140005   5.200   5.735   4.891
12682SOL    HW240006   5.099   5.863   4.897
12683SOL     OW40007   4.725   5.620   4.878
12683SOL    HW140008   4.662   5.548   4.847
12683SOL    HW240009   4.818   5.584   4.878
12684SOL     OW40010   4.494   6.916   4.025
12684SOL    HW140011   4.448   6.829   4.042
12684SOL    HW240012   4.585   6.913   4.066
12685SOL     OW40013   4.342   7.153   5.008
12685SOL    HW140014   4.337   7.235   5.065
12685SOL    HW240015   4.431   7.150   4.963
12686SOL     OW40016   5.076   5.638   3.892
12686SOL    HW140017   5.111   5.597   3.808
12686SOL    HW240018   4.986   5.600   3.912
12687SOL     OW40019   5.024   6.039   4.415
12687SOL    HW140020   4.965   6.119   4.419
12687SOL    HW240021   5.039   6.004   4.508
12688SOL     OW40022   5.317   5.807   4.606
12688SOL    HW140023   5.233   5.806   4.660
12688SOL    HW240024   5.319   5.890   4.550
12689SOL     OW40025   3.763   6.663   4.024
12689SOL    HW140026   3.862   6.652   4.015
12689SOL    HW240027   3.723   6.577   4.056
12690SOL     OW40028   4.599   7.232   4.061
12690SOL    HW140029   4.522   7.197   4.007
12690SOL    HW240030   4.567   7.303   4.123
12691SOL     OW40031   3.954   6.214   5.699
12691SOL    HW140032   3.861   6.212   5.736
12691SOL    HW240033   3.955   6.175   5.607
12692SOL     OW40034   3.949   5.861   6.582
12692SOL    HW140035   3.984   5.844   6.674
12692SOL    HW240036   3.861   5.816   6.570
12693SOL     OW40037   3.743   5.954   6.233
12693SOL    HW140038   3.661   5.997   6.272
12693SOL    HW240039   3.715   5.881   6.170
12694SOL     OW40040   4.293   6.861   6.751
12694SOL    HW140041   4.200   6.854   6.714
12694SOL    HW240042   4.304   6.950   6.795
12695SOL     OW40043   5.279   7.097   6.289
12695SOL    HW140044   5.222   7.081   6.370
12695SOL    HW240045   5.220   7.107   6.209
12696SOL     OW40046   5.467   6.204   6.442
12696SOL    HW140047   5.500   6.298   6.442
12696SOL    HW240048   5.518   6.150   6.508
12697SOL     OW40049   4.859   6.289   6.303
12697SOL    HW140050   4.916   6.367   6.278
12697SOL    HW240051   4.799   6.315   6.379
12698SOL     OW40052   5.479   6.193   5.817
12698SOL    HW140053   5.467   6.180   5.718
12698SOL    HW240054   5.449   6.112   5.866
12699SOL     OW40055   4.492   6.730   6.609
12699SOL    HW140056   4.414   6.747   6.669
12699SOL    HW240057   4.526   6.817   6.573
12700SOL     OW40058   4.574   6.384   7.409
12700SOL    HW140059   4.570   6.460   7.474
12700SOL    HW240060   4.596   6.420   7.318
12701SOL     OW40061   4.409   6.598   6.251
12701SOL    HW140062   4.478   6.582   6.321
12701SOL    HW240063   4.336   6.655   6.289
12702SOL     OW40064   4.410   6.747   7.389
12702SOL    HW140065   4.470   6.826   7.403
12702SOL    HW240066   4.324   6.778   7.348
12703SOL     OW40067   4.059   7.021   6.647
12703SOL    HW140068   3.981   6.990   6.594
12703SOL    HW240069   4.117   7.079   6.590
12704SOL     OW40070   5.184   7.091   6.925
12704SOL    HW140071   5.208   7.185   6.951
12704SOL    HW240072   5.168   7.037   7.007
12705SOL     OW40073   4.162   5.978   7.085
12705SOL    HW140074   4.244   5.922   7.094
12705SOL    HW240075   4.081   5.920   7.089
12706SOL     OW40076   3.955   7.299   6.069
12706SOL    HW140077   3.989   7.376   6.123
12706SOL    HW240078   3.999   7.299   5.979
12707SOL     OW40079   4.851   6.927   7.276
12707SOL    HW140080   4.898   6.927   7.364
12707SOL    HW240081   4.803   6.840   7.265
12708SOL     OW40082   3.954   7.020   6.124
12708SOL    HW140083   3.928   7.116   6.124
12708SOL    HW240084   3.883   6.966   6.169
12709SOL     OW40085   3.964   6.677   6.472
12709SOL    HW140086   3.978   6.593   6.524
12709SOL    HW240087   3.909   6.741   6.527
12710SOL     OW40088   4.344   7.372   7.025
12710SOL    HW140089   4.252   7.355   7.060
12710SOL    HW240090   4.372   7.464   7.051
12711SOL     OW40091   4.330   6.550   5.709
12711SOL    HW140092   4.337   6.634   5.655
12711SOL    HW240093   4.376   6.563   5.797
12712SOL     OW40094   5.318   5.700   7.066
12712SOL    HW140095   5.300   5.767   6.994
12712SOL    HW240096   5.315   5.746   7.155
12713SOL     OW40097   3.846   6.229   6.149
12713SOL    HW140098   3.801   6.141   6.166
12713SOL    HW240099   3.845   6.283   6.233
12714SOL     OW40100   5.566   7.353   5.945
12714SOL    HW140101   5.620   7.324   6.025
12714SOL    HW240102   5.596   7.443   5.916
12715SOL     OW40103   3.751   7.182   5.703
12715SOL    HW140104   3.732   7.086   5.724
12715SOL    HW240105   3.718   7.240   5.778
12716SOL     OW40106   5.413   6.508   6.198
12716SOL    HW140107   5.508   6.479   6.206
12716SOL    HW240108   5.405   6.573   6.123
12717SOL     OW40109   5.365   6.694   6.018
12717SOL    HW140110   5.451   6.696   5.966
12717SOL    HW240111   5.379   6.741   6.106
12718SOL     OW40112   3.837   6.323   7.183
12718SOL    HW140113   3.925   6.310   7.228
12718SOL    HW240114   3.824   6.420   7.161
12719SOL     OW40115   4.337   6.951   6.312
12719SOL    HW140116   4.288   6.864   6.321
12719SOL    HW240117   4.314   6.994   6.225
12720SOL     OW40118   5.017   6.814   7.009
12720SOL    HW140119   5.054   6.741   6.951
12720SOL    HW240120   5.069   6.819   7.094
12721SOL     OW40121   4.533   5.590   6.088
12721SOL    HW140122   4.573   5.681   6.079
12721SOL    HW240123   4.433   5.598   6.094
12722SOL     OW40124   3.921   6.562   6.850
12722SOL    HW140125   4.010   6.517   6.836
12722SOL    HW240126   3.848   6.497   6.831
12723SOL     OW40127   5.249   6.585   5.776
12723SOL    HW140128   5.186   6.509   5.789
12723SOL    HW240129   5.297   6.603   5.862
12724SOL     OW40130   4.911   7.378   7.202
12724SOL    HW140131   4.935   7.438   7.126
12724SOL    HW240132   4.918   7.283   7.172
12725SOL     OW40133   4.041   5.837   7.387
12725SOL    HW140134   4.112   5.908   7.393
12725SOL    HW240135   3.953   5.876   7.415
12726SOL     OW40136   5.190   7.003   6.539
12726SOL    HW140137   5.131   7.009   6.619
12726SOL    HW240138   5.175   6.915   6.493
12727SOL     OW40139   5.391   7.300   6.158
12727SOL    HW140140   5.350   7.277   6.070
12727SOL    HW240141   5.373   7.226   6.223
12728SOL     OW40142   4.322   6.315   5.856
12728SOL    HW140143   4.346   6.384   5.788
12728SOL    HW240144   4.244   6.348   5.910
12729SOL     OW40145   5.005   5.931   6.530
12729SOL    HW140146   4.919   5.881   6.517
12729SOL    HW240147   5.067   5.877   6.586
12730SOL     OW40148   5.300   7.248   5.893
12730SOL    HW140149   5.389   7.294   5.896
12730SOL    HW240150   5.279   7.224   5.798
12731SOL     OW40151   4.531   6.191   7.051
12731SOL    HW140152   4.484   6.188   7.140
12731SOL    HW240153   4.480   6.136   6.985
12732SOL     OW40154   5.118   6.055   7.260
12732SOL    HW140155   5.098   6.098   7.348
12732SOL    HW240156   5.196   5.993   7.269
12733SOL     OW40157   4.697   6.476   7.158
12733SOL    HW140158   4.743   6.392   7.129
12733SOL    HW240159   4.641   6.510   7.083
12734SOL     OW40160   4.715   5.996   6.828
12734SOL    HW140161   4.638   6.030   6.882
12734SOL    HW240162   4.681   5.945   6.749
12735SOL     OW40163   4.765   6.287   6.015
12735SOL    HW140164   4.791   6.283   6.111
12735SOL    HW240165   4.680   6.236   6.001
12736SOL     OW40166   3.800   6.397   6.375
12736SOL    HW140167   3.899   6.385   6.384
12736SOL    HW240168   3.776   6.492   6.396
12737SOL     OW40169   3.854   7.407   7.157
12737SOL    HW140170   3.844   7.392   7.256
12737SOL    HW240171   3.768   7.443   7.121
12738SOL     OW40172   4.589   5.934   5.781
12738SOL    HW140173   4.648   5.997   5.732
12738SOL    HW240174   4.608   5.840   5.752
12739SOL     OW40175   5.443   6.171   7.417
12739SOL    HW140176   5.417   6.260   7.381
12739SOL    HW240177   5.441   6.103   7.344
12740SOL     OW40178   5.086   6.730   6.131
12740SOL    HW140179   5.169   6.701   6.083
12740SOL    HW240180   5.037   6.797   6.075
12741SOL     OW40181   4.274   5.782   6.471
12741SOL    HW140182   4.269   5.777   6.571
12741SOL    HW240183   4.276   5.878   6.442
12742SOL     OW40184   4.732   7.042   6.063
12742SOL    HW140185   4.686   7.114   6.011
12742SOL    HW240186   4.728   7.062   6.161
12743SOL     OW40187   4.075   7.387   6.439
12743SOL    HW140188   4.125   7.301   6.445
12743SOL    HW240189   4.140   7.464   6.436
12744SOL     OW40190   5.519   6.652   6.459
12744SOL    HW140191   5.457   6.637   6.383
12744SOL    HW240192   5.467   6.663   6.544
12745SOL     OW40193   4.951   7.136   7.092
12745SOL    HW140194   4.957   7.059   7.156
12745SOL    HW240195   4.899   7.110   7.012
12746SOL     OW40196   4.045   6.529   5.828
12746SOL    HW140197   4.127   6.568   5.786
12746SOL    HW240198   4.018   6.447   5.779
12747SOL     OW40199   5.182   6.321   6.314
12747SOL    HW140200   5.177   6.256   6.389
12747SOL    HW240201   5.262   6.380   6.327
12748SOL     OW40202   4.185   6.852   7.313
12748SOL    HW140203   4.135   6.853   7.227
12748SOL    HW240204   4.122   6.834   7.389
12749SOL     OW40205   4.835   7.362   5.823
12749SOL    HW140206   4.775   7.300   5.873
12749SOL    HW240207   4.866   7.318   5.738
12750SOL     OW40208   3.926   5.871   7.084
12750SOL    HW140209   3.846   5.931   7.071
12750SOL    HW240210   3.916   5.822   7.170
12751SOL     OW40211   5.356   6.963   5.667
12751SOL    HW140212   5.324   7.057   5.657
12751SOL    HW240213   5.280   6.900   5.655
12752SOL     OW40214   4.188   7.329   5.909
12752SOL    HW140215   4.221   7.368   5.995
12752SOL    HW240216   4.264   7.322   5.844
12753SOL     OW40217   5.124   5.693   6.012
12753SOL    HW140218   5.100   5.656   5.922
12753SOL    HW240219   5.223   5.709   6.016
12754SOL     OW40220   3.973   7.371   6.827
12754SOL    HW140221   4.030   7.306   6.877
12754SOL    HW240222   3.957   7.338   6.734
12755SOL     OW40223   4.664   7.284   6.490
12755SOL    HW140224   4.744   7.227   6.511
12755SOL    HW240225   4.615   7.244   6.413
12756SOL     OW40226   4.106   6.286   6.066
12756SOL    HW140227   4.151   6.196   6.063
12756SOL    HW240228   4.012   6.275   6.099
12757SOL     OW40229   5.271   5.808   7.315
12757SOL    HW140230   5.266   5.845   7.407
12757SOL    HW240231   5.199   5.739   7.303
12758SOL     OW40232   4.338   5.708   5.703
12758SOL    HW140233   4.436   5.686   5.710
12758SOL    HW240234   4.307   5.691   5.610
12759SOL     OW40235   4.505   5.850   7.335
12759SOL    HW140236   4.572   5.789   7.378
12759SOL    HW240237   4.432   5.869   7.400
12760SOL     OW40238   4.612   7.100   6.781
12760SOL    HW140239   4.589   7.075   6.687
12760SOL    HW240240   4.673   7.031   6.820
12761SOL     OW40241   5.075   6.176   7.019
12761SOL    HW140242   5.103   6.133   7.104
12761SOL    HW240243   5.100   6.272   7.020
12762SOL     OW40244   4.527   6.988   6.510
12762SOL    HW140245   4.617   7.002   6.468
12762SOL    HW240246   4.456   6.990   6.439
12763SOL     OW40247   4.646   6.089   6.485
12763SOL    HW140248   4.621   6.080   6.389
12763SOL    HW240249   4.694   6.007   6.516
12764SOL     OW40250   4.263   5.650   6.098
12764SOL    HW140251   4.182   5.651   6.156
12764SOL    HW240252   4.266   5.733   6.043
12765SOL     OW40253   5.158   6.774   5.627
12765SOL    HW140254   5.190   6.698   5.684
12765SOL    HW240255   5.066   6.801   5.657
12766SOL     OW40256   4.021   5.621   5.757
12766SOL    HW140257   4.070   5.705   5.736
12766SOL    HW240258   4.083   5.556   5.802
12767SOL     OW40259   4.659   5.822   6.066
12767SOL    HW140260   4.611   5.863   5.988
12767SOL    HW240261   4.758   5.820   6.047
12768SOL     OW40262   4.800   6.269   7.050
12768SOL    HW140263   4.720   6.208   7.053
12768SOL    HW240264   4.881   6.216   7.026
12769SOL     OW40265   4.951   7.156   6.379
12769SOL    HW140266   4.972   7.230   6.314
12769SOL    HW240267   5.019   7.156   6.452
12770SOL     OW40268   4.183   6.738   6.327
12770SOL    HW140269   4.112   6.711   6.392
12770SOL    HW240270   4.157   6.710   6.234
12771SOL     OW40271   4.995   7.383   6.177
12771SOL    HW140272   5.039   7.447   6.113
12771SOL    HW240273   4.945   7.435   6.247
12772SOL     OW40274   4.756   6.135   5.602
12772SOL    HW140275   4.715   6.217   5.563
12772SOL    HW240276   4.820   6.161   5.675
12773SOL     OW40277   3.802   6.142   6.972
12773SOL    HW140278   3.894   6.141   6.931
12773SOL    HW240279   3.796   6.216   7.039
12774SOL     OW40280   4.285   5.808   6.733
12774SOL    HW140281   4.323   5.724   6.770
12774SOL    HW240282   4.197   5.827   6.777
12775SOL     OW40283   4.590   6.040   6.228
12775SOL    HW140284   4.558   6.112   6.166
12775SOL    HW240285   4.614   5.959   6.175
12776SOL     OW40286   4.741   5.625   6.339
12776SOL    HW140287   4.669   5.630   6.270
12776SOL    HW240288   4.717   5.556   6.408
12777SOL     OW40289   5.153   6.759   6.453
12777SOL    HW140290   5.098   6.675   6.446
12777SOL    HW240291   5.179   6.788   6.361
12778SOL     OW40292   5.190   6.176   6.578
12778SOL    HW140293   5.160   6.081   6.585
12778SOL    HW240294   5.263   6.192   6.644
12779SOL     OW40295   5.581   6.419   5.963
12779SOL    HW140296   5.623   6.355   6.027
12779SOL    HW240297   5.543   6.368   5.885
12780SOL     OW40298   4.212   6.971   5.760
12780SOL    HW140299   4.125   6.956   5.807
12780SOL    HW240300   4.195   6.997   5.665
12781SOL     OW40301   5.388   6.866   6.243
12781SOL    HW140302   5.487   6.874   6.257
12781SOL    HW240303   5.343   6.950   6.274
12782SOL     OW40304   4.251   5.842   5.914
12782SOL    HW140305   4.278   5.783   5.839
12782SOL    HW240306   4.251   5.937   5.883
12783SOL     OW40307   5.478   6.809   7.174
12783SOL    HW140308   5.569   6.770   7.161
12783SOL    HW240309   5.486   6.905   7.198
12784SOL     OW40310   4.788   6.933   6.926
12784SOL    HW140311   4.708   6.910   6.981
12784SOL    HW240312   4.871   6.907   6.975
12785SOL     OW40313   5.316   7.215   7.211
12785SOL    HW140314   5.343   7.249   7.121
12785SOL    HW240315   5.395   7.177   7.257
12786SOL     OW40316   4.835   6.781   6.686
12786SOL    HW140317   4.795   6.825   6.767
12786SOL    HW240318   4.794   6.818   6.603
12787SOL     OW40319   5.362   6.685   6.665
12787SOL    HW140320   5.367   6.766   6.724
12787SOL    HW240321   5.276   6.687   6.614
12788SOL     OW40322   4.639   5.675   6.988
12788SOL    HW140323   4.664   5.655   6.893
12788SOL    HW240324   4.711   5.731   7.030
12789SOL     OW40325   4.704   6.702   7.305
12789SOL    HW140326   4.605   6.708   7.315
12789SOL    HW240327   4.727   6.622   7.249
12790SOL     OW40328   4.429   6.636   5.954
12790SOL    HW140329   4.415   6.643   6.053
12790SOL    HW240330   4.513   6.585   5.936
12791SOL     OW40331   4.134   6.399   6.837
12791SOL    HW140332   4.220   6.411   6.887
12791SOL    HW240333   4.092   6.312   6.864
12792SOL     OW40334   4.998   5.972   6.848
12792SOL    HW140335   5.019   6.046   6.912
12792SOL    HW240336   4.909   5.989   6.805
12793SOL     OW40337   3.788   7.150   6.917
12793SOL    HW140338   3.742   7.232   6.883
12793SOL    HW240339   3.886   7.169   6.926
12794SOL     OW40340   4.091   6.686   6.087
12794SOL    HW140341   4.084   6.769   6.031
12794SOL    HW240342   4.095   6.606   6.027
12795SOL     OW40343   4.290   6.123   6.451
12795SOL    HW140344   4.302   6.189   6.377
12795SOL    HW240345   4.336   6.157   6.534
12796SOL     OW40346   4.976   6.934   5.974
12796SOL    HW140347   5.026   7.011   6.014
12796SOL    HW240348   4.881   6.936   6.006
12797SOL     OW40349   4.996   7.031   6.728
12797SOL    HW140350   5.043   7.044   6.815
12797SOL    HW240351   4.930   6.957   6.737
12798SOL     OW40352   4.078   7.096   6.915
12798SOL    HW140353   4.057   7.052   6.828
12798SOL    HW240354   4.175   7.122   6.918
12799SOL     OW40355   4.126   6.337   7.184
12799SOL    HW140356   4.194   6.392   7.137
12799SOL    HW240357   4.166   6.249   7.211
12800SOL     OW40358   5.311   6.365   7.256
12800SOL    HW140359   5.219   6.403   7.251
12800SOL    HW240360   5.371   6.412   7.191
12801SOL     OW40361   4.737   5.691   7.356
12801SOL    HW140362   4.743   5.776   7.304
12801SOL    HW240363   4.769   5.615   7.299
12802SOL     OW40364   4.228   5.636   7.326
12802SOL    HW140365   4.186   5.579   7.256
12802SOL    HW240366   4.162   5.705   7.358
12803SOL     OW40367   4.297   6.456   6.615
12803SOL    HW140368   4.341   6.545   6.606
12803SOL    HW240369   4.234   6.456   6.692
12804SOL     OW40370   5.084   6.448   6.631
12804SOL    HW140371   5.009   6.448   6.565
12804SOL    HW240372   5.121   6.356   6.640
12805SOL     OW40373   4.933   6.111   5.861
12805SOL    HW140374   4.946   6.027   5.915
12805SOL    HW240375   4.904   6.185   5.921
12806SOL     OW40376   4.031   5.799   6.817
12806SOL    HW140377   4.008   5.836   6.907
12806SOL    HW240378   4.001   5.704   6.811
12807SOL     OW40379   3.761   6.896   6.868
12807SOL    HW140380   3.814   6.847   6.936
12807SOL    HW240381   3.783   6.994   6.873
12808SOL     OW40382   4.456   6.220   6.650
12808SOL    HW140383   4.515   6.194   6.574
12808SOL    HW240384   4.428   6.316   6.639
12809SOL     OW40385   5.452   6.521   7.440
12809SOL    HW140386   5.406   6.514   7.351
12809SOL    HW240387   5.390   6.565   7.506
12810SOL     OW40388   4.031   5.649   6.204
12810SOL    HW140389   4.020   5.743   6.237
12810SOL    HW240390   4.026   5.586   6.281
12811SOL     OW40391   4.747   6.352   6.552
12811SOL    HW140392   4.762   6.373   6.648
12811SOL    HW240393   4.717   6.257   6.543
12812SOL     OW40394   4.704   7.159   7.286
12812SOL    HW140395   4.684   7.203   7.198
12812SOL    HW240396   4.743   7.068   7.270
12813SOL     OW40397   5.583   7.104   7.191
12813SOL    HW140398   5.597   7.131   7.096
12813SOL    HW240399   5.666   7.126   7.244
12814SOL     OW40400   4.074   6.484   7.390
12814SOL    HW140401   4.150   6.528   7.438
12814SOL    HW240402   4.109   6.437   7.308
12815SOL     OW40403   5.264   5.860   5.711
12815SOL    HW140404   5.203   5.785   5.734
12815SOL    HW240405   5.286   5.912   5.794
12816SOL     OW40406   4.792   6.919   6.435
12816SOL    HW140407   4.799   6.835   6.380
12816SOL    HW240408   4.854   6.988   6.399
12817SOL     OW40409   4.043   6.396   6.535
12817SOL    HW140410   4.136   6.432   6.540
12817SOL    HW240411   4.037   6.311   6.587
12818SOL     OW40412   4.063   6.095   6.592
12818SOL    HW140413   4.011   6.012   6.575
12818SOL    HW240414   4.140   6.100   6.528
12819SOL     OW40415   4.235   6.001   7.394
12819SOL    HW140416   4.217   6.046   7.482
12819SOL    HW240417   4.277   6.066   7.331
12820SOL     OW40418   4.862   5.966   7.264
12820SOL    HW140419   4.817   6.029   7.328
12820SOL    HW240420   4.955   5.997   7.247
12821SOL     OW40421   4.884   5.793   7.063
12821SOL    HW140422   4.884   5.857   7.140
12821SOL    HW240423   4.912   5.841   6.980
12822SOL     OW40424   3.732   6.912   5.786
12822SOL    HW140425   3.639   6.933   5.755
12822SOL    HW240426   3.742   6.813   5.799
12823SOL     OW40427   3.812   7.387   6.513
12823SOL    HW140428   3.770   7.301   6.486
12823SOL    HW240429   3.906   7.390   6.479
12824SOL     OW40430   4.228   7.154   6.496
12824SOL    HW140431   4.294   7.228   6.505
12824SOL    HW240432   4.272   7.075   6.454
12825SOL     OW40433   4.726   6.382   6.824
12825SOL    HW140434   4.767   6.350   6.910
12825SOL    HW240435   4.630   6.355   6.821
12826SOL     OW40436   3.764   6.130   6.700
12826SOL    HW140437   3.849   6.097   6.659
12826SOL    HW240438   3.777   6.145   6.798
12827SOL     OW40439   3.913   6.106   7.308
12827SOL    HW140440   3.972   6.066   7.238
12827SOL    HW240441   3.855   6.177   7.267
12828SOL     OW40442   5.093   6.536   7.246
12828SOL    HW140443   5.132   6.625   7.266
12828SOL    HW240444   5.103   6.516   7.149
12829SOL     OW40445   4.539   6.158   5.911
12829SOL    HW140446   4.546   6.069   5.865
12829SOL    HW240447   4.445   6.192   5.903
12830SOL     OW40448   5.381   6.190   6.792
12830SOL    HW140449   5.343   6.121   6.854
12830SOL    HW240450   5.463   6.154   6.748
12831SOL     OW40451   3.976   7.150   7.330
12831SOL    HW140452   3.946   7.207   7.406
12831SOL    HW240453   3.969   7.053   7.356
12832SOL     OW40454   4.395   6.050   6.855
12832SOL    HW140455   4.361   5.961   6.825
12832SOL    HW240456   4.421   6.104   6.775
12833SOL     OW40457   4.654   7.264   7.051
12833SOL    HW140458   4.630   7.246   6.956
12833SOL    HW240459   4.684   7.358   7.061
12834SOL     OW40460   4.197   6.086   5.777
12834SOL    HW140461   4.258   6.166   5.781
12834SOL    HW240462   4.102   6.117   5.784
12835SOL     OW40463   3.883   6.723   7.052
12835SOL    HW140464   3.905   6.662   7.128
12835SOL    HW240465   3.893   6.674   6.966
12836SOL     OW40466   5.071   6.645   6.820
12836SOL    HW140467   5.095   6.582   6.746
12836SOL    HW240468   4.981   6.685   6.802
12837SOL     OW40469   5.483   7.333   6.740
12837SOL    HW140470   5.544   7.363   6.667
12837SOL    HW240471   5.445   7.244   6.718
12838SOL     OW40472   4.976   7.317   6.714
12838SOL    HW140473   5.060   7.322   6.660
12838SOL    HW240474   4.953   7.221   6.732
12839SOL     OW40475   3.807   6.844   6.608
12839SOL    HW140476   3.802   6.843   6.708
12839SOL    HW240477   3.724   6.803   6.570
12840SOL     OW40478   4.412   7.248   7.302
12840SOL    HW140479   4.356   7.329   7.311
12840SOL    HW240480   4.464   7.252   7.216
12841SOL     OW40481   4.627   5.672   5.719
12841SOL    HW140482   4.678   5.673   5.633
12841SOL    HW240483   4.683   5.630   5.790
12842SOL     OW40484   5.450   5.721   6.109
12842SOL    HW140485   5.523   5.704   6.042
12842SOL    HW240486   5.419   5.634   6.147
12843SOL     OW40487   5.112   7.159   6.063
12843SOL    HW140488   5.179   7.171   5.989
12843SOL    HW240489   5.072   7.248   6.086
12844SOL     OW40490   3.854   7.380   7.437
12844SOL    HW140491   3.813   7.306   7.490
12844SOL    HW240492   3.918   7.431   7.495
12845SOL     OW40493   5.004   6.513   6.258
12845SOL    HW140494   5.064   6.432   6.260
12845SOL    HW240495   5.044   6.582   6.198
12846SOL     OW40496   4.554   6.859   7.008
12846SOL    HW140497   4.549   6.892   7.103
12846SOL    HW240498   4.468   6.878   6.962
12847SOL     OW40499   4.396   7.202   5.740
12847SOL    HW140500   4.405   7.212   5.641
12847SOL    HW240501   4.356   7.113   5.761
12848SOL     OW40502   5.374   7.306   6.980
12848SOL    HW140503   5.427   7.316   6.896
12848SOL    HW240504   5.347   7.396   7.014
12849SOL     OW40505   5.565   5.761   6.549
12849SOL    HW140506   5.604   5.676   6.513
12849SOL    HW240507   5.467   5.763   6.530
12850SOL     OW40508   3.987   5.912   6.306
12850SOL    HW140509   3.908   5.963   6.272
12850SOL    HW240510   3.978   5.897   6.404
12851SOL     OW40511   4.918   7.198   5.617
12851SOL    HW140512   4.924   7.105   5.654
12851SOL    HW240513   4.859   7.198   5.537
12852SOL     OW40514   4.546   6.588   6.958
12852SOL    HW140515   4.586   6.587   6.866
12852SOL    HW240516   4.556   6.680   6.998
12853SOL     OW40517   4.640   6.496   5.877
12853SOL    HW140518   4.703   6.534   5.809
12853SOL    HW240519   4.680   6.413   5.916
12854SOL     OW40520   5.228   7.193   5.630
12854SOL    HW140521   5.136   7.230   5.637
12854SOL    HW240522   5.266   7.213   5.540
12855SOL     OW40523   4.096   6.874   7.076
12855SOL    HW140524   4.083   6.967   7.042
12855SOL    HW240525   4.012   6.822   7.063
12856SOL     OW40526   5.338   6.878   6.875
12856SOL    HW140527   5.398   6.881   6.955
12856SOL    HW240528   5.263   6.942   6.888
12857SOL     OW40529   4.763   6.684   6.282
12857SOL    HW140530   4.693   6.637   6.336
12857SOL    HW240531   4.822   6.616   6.239
12858SOL     OW40532   4.738   5.822   6.557
12858SOL    HW140533   4.730   5.786   6.464
12858SOL    HW240534   4.736   5.746   6.622
12859SOL     OW40535   4.314   7.073   6.077
12859SOL    HW140536   4.356   7.015   6.007
12859SOL    HW240537   4.270   7.152   6.033
12860SOL     OW40538   5.433   5.971   6.967
12860SOL    HW140539   5.506   6.040   6.971
12860SOL    HW240540   5.461   5.896   6.908
12861SOL     OW40541   3.979   6.934   5.876
12861SOL    HW140542   3.883   6.935   5.849
12861SOL    HW240543   3.991   6.987   5.960
12862SOL     OW40544   3.829   6.599   7.312
12862SOL    HW140545   3.752   6.566   7.366
12862SOL    HW240546   3.914   6.569   7.354
12863SOL     OW40547   4.396   5.789   7.075
12863SOL    HW140548   4.486   5.773   7.035
12863SOL    HW240549   4.404   5.794   7.174
12864SOL     OW40550   3.799   5.931   5.619
12864SOL    HW140551   3.707   5.903   5.590
12864SOL    HW240552   3.830   6.008   5.563
12865SOL     OW40553   5.164   6.442   6.984
12865SOL    HW140554   5.107   6.494   6.921
12865SOL    HW240555   5.260   6.454   6.960
12866SOL     OW40556   3.796   5.752   5.904
12866SOL    HW140557   3.779   5.835   5.850
12866SOL    HW240558   3.886   5.715   5.882
12867SOL     OW40559   4.907   6.921   5.705
12867SOL    HW140560   4.808   6.910   5.707
12867SOL    HW240561   4.941   6.936   5.798
12868SOL     OW40562   4.337   6.428   7.017
12868SOL    HW140563   4.393   6.509   7.000
12868SOL    HW240564   4.396   6.348   7.020
12869SOL     OW40565   5.217   7.353   6.545
12869SOL    HW140566   5.250   7.417   6.476
12869SOL    HW240567   5.283   7.347   6.620
12870SOL     OW40568   4.440   6.151   7.294
12870SOL    HW140569   4.459   6.216   7.368
12870SOL    HW240570   4.500   6.071   7.303
12871SOL     OW40571   5.174   6.806   7.219
12871SOL    HW140572   5.165   6.796   7.318
12871SOL    HW240573   5.270   6.799   7.193
12872SOL     OW40574   4.114   7.327   7.146
12872SOL    HW140575   4.023   7.368   7.144
12872SOL    HW240576   4.107   7.233   7.178
12873SOL     OW40577   5.398   6.469   6.840
12873SOL    HW140578   5.371   6.380   6.803
12873SOL    HW240579   5.399   6.537   6.767
12874SOL     OW40580   4.949   5.911   6.035
12874SOL    HW140581   5.014   5.837   6.024
12874SOL    HW240582   4.969   5.961   6.119
12875SOL     OW40583   4.318   6.331   6.238
12875SOL    HW140584   4.368   6.416   6.219
12875SOL    HW240585   4.230   6.333   6.190
12876SOL     OW40586   5.501   5.928   7.228
12876SOL    HW140587   5.484   5.959   7.134
12876SOL    HW240588   5.417   5.891   7.266
12877SOL     OW40589   5.454   6.520   7.103
12877SOL    HW140590   5.492   6.611   7.118
12877SOL    HW240591   5.446   6.503   7.004
12878SOL     OW40592   4.583   6.960   5.602
12878SOL    HW140593   4.537   6.975   5.690
12878SOL    HW240594   4.627   7.045   5.572
12879SOL     OW40595   4.385   7.376   6.539
12879SOL    HW140596   4.339   7.464   6.526
12879SOL    HW240597   4.484   7.388   6.532
12880SOL     OW40598   5.132   7.437   7.306
12880SOL    HW140599   5.036   7.426   7.279
12880SOL    HW240600   5.188   7.370   7.258
12881SOL     OW40601   4.583   6.542   6.447
12881SOL    HW140602   4.637   6.473   6.495
12881SOL    HW240603   4.551   6.611   6.513
12882SOL     OW40604   4.807   6.570   5.673
12882SOL    HW140605   4.784   6.623   5.591
12882SOL    HW240606   4.888   6.514   5.654
12883SOL     OW40607   5.585   7.155   6.437
12883SOL    HW140608   5.514   7.143   6.367
12883SOL    HW240609   5.586   7.076   6.497
12884SOL     OW40610   3.945   6.900   7.430
12884SOL    HW140611   3.880   6.827   7.409
12884SOL    HW240612   3.949   6.914   7.528
12885SOL     OW40613   3.803   6.826   6.239
12885SOL    HW140614   3.802   6.779   6.327
12885SOL    HW240615   3.885   6.798   6.188
12886SOL     OW40616   4.396   6.977   7.210
12886SOL    HW140617   4.318   6.927   7.248
12886SOL    HW240618   4.393   7.072   7.241
12887SOL     OW40619   5.548   5.778   6.813
12887SOL    HW140620   5.544   5.688   6.857
12887SOL    HW240621   5.551   5.767   6.714
12888SOL     OW40622   4.152   6.010   6.106
12888SOL    HW140623   4.182   5.938   6.044
12888SOL    HW240624   4.113   5.970   6.189
12889SOL     OW40625   5.429   7.073   6.690
12889SOL    HW140626   5.336   7.048   6.663
12889SOL    HW240627   5.455   7.023   6.772
12890SOL     OW40628   4.041   6.133   6.866
12890SOL    HW140629   4.079   6.074   6.938
12890SOL    HW240630   4.081   6.107   6.778
12891SOL     OW40631   4.536   7.172   6.273
12891SOL    HW140632   4.568   7.182   6.179
12891SOL    HW240633   4.457   7.110   6.275
12892SOL     OW40634   5.148   5.800   6.698
12892SOL    HW140635   5.200   5.735   6.753
12892SOL    HW240636   5.099   5.863   6.759
12893SOL     OW40637   4.725   5.620   6.740
12893SOL    HW140638   4.662   5.548   6.709
12893SOL    HW240639   4.818   5.584   6.740
12894SOL     OW40640   4.494   6.916   5.887
12894SOL    HW140641   4.448   6.829   5.904
12894SOL    HW240642   4.585   6.913   5.928
12895SOL     OW40643   4.342   7.153   6.870
12895SOL    HW140644   4.337   7.235   6.927
12895SOL    HW240645   4.431   7.150   6.825
12896SOL     OW40646   5.076   5.638   5.754
12896SOL    HW140647   5.111   5.597   5.670
12896SOL    HW240648   4.986   5.600   5.774
12897SOL     OW40649   5.024   6.039   6.277
12897SOL    HW140650   4.965   6.119   6.281
12897SOL    HW240651   5.039   6.004   6.370
12898SOL     OW40652   5.317   5.807   6.468
12898SOL    HW140653   5.233   5.806   6.522
12898SOL    HW240654   5.319   5.890   6.412
12899SOL     OW40655   3.763   6.663   5.886
12899SOL    HW140656   3.862   6.652   5.877
12899SOL    HW240657   3.723   6.577   5.918
12900SOL     OW40658   4.599   7.232   5.923
12900SOL    HW140659   4.522   7.197   5.869
12900SOL    HW240660   4.567   7.303   5.985
12901SOL     OW40661   3.954   6.214   7.561
12901SOL    HW140662   3.861   6.212   7.598
12901SOL    HW240663   3.955   6.175   7.469
12902SOL     OW40664   3.949   5.861   8.444
12902SOL    HW140665   3.984   5.844   8.536
12902SOL    HW240666   3.861   5.816   8.432
12903SOL     OW40667   3.743   5.954   8.095
12903SOL    HW140668   3.661   5.997   8.134
12903SOL    HW240669   3.715   5.881   8.032
12904SOL     OW40670   4.293   6.861   8.613
12904SOL    HW140671   4.200   6.854   8.576
12904SOL    HW240672   4.304   6.950   8.657
12905SOL     OW40673   5.279   7.097   8.151
12905SOL    HW140674   5.222   7.081   8.232
12905SOL    HW240675   5.220   7.107   8.071
12906SOL     OW40676   5.467   6.204   8.304
12906SOL    HW140677   5.500   6.298   8.304
12906SOL    HW240678   5.518   6.150   8.370
12907SOL     OW40679   4.859   6.289   8.165
12907SOL    HW140680   4.916   6.367   8.140
12907SOL    HW240681   4.799   6.315   8.241
12908SOL     OW40682   5.479   6.193   7.679
12908SOL    HW140683   5.467   6.180   7.580
12908SOL    HW240684   5.449   6.112   7.728
12909SOL     OW40685   4.492   6.730   8.471
12909SOL    HW140686   4.414   6.747   8.531
12909SOL    HW240687   4.526   6.817   8.435
12910SOL     OW40688   4.409   6.598   8.113
12910SOL    HW140689   4.478   6.582   8.183
12910SOL    HW240690   4.336   6.655   8.151
12911SOL     OW40691   4.059   7.021   8.509
12911SOL    HW140692   3.981   6.990   8.456
12911SOL    HW240693   4.117   7.079   8.452
12912SOL     OW40694   5.184   7.091   8.787
12912SOL    HW140695   5.208   7.185   8.813
12912SOL    HW240696   5.168   7.037   8.869
12913SOL     OW40697   4.162   5.978   8.947
12913SOL    HW140698   4.244   5.922   8.956
12913SOL    HW240699   4.081   5.920   8.951
12914SOL     OW40700   5.327   6.033   8.185
12914SOL    HW140701   5.253   6.079   8.135
12914SOL    HW240702   5.378   6.101   8.238
12915SOL     OW40703   3.955   7.299   7.931
12915SOL    HW140704   3.989   7.376   7.985
12915SOL    HW240705   3.999   7.299   7.841
12916SOL     OW40706   3.954   7.020   7.986
12916SOL    HW140707   3.928   7.116   7.986
12916SOL    HW240708   3.883   6.966   8.031
12917SOL     OW40709   3.964   6.677   8.334
12917SOL    HW140710   3.978   6.593   8.386
12917SOL    HW240711   3.909   6.741   8.389
12918SOL     OW40712   4.344   7.372   8.887
12918SOL    HW140713   4.252   7.355   8.922
12918SOL    HW240714   4.372   7.464   8.913
12919SOL     OW40715   4.330   6.550   7.571
12919SOL    HW140716   4.337   6.634   7.517
12919SOL    HW240717   4.376   6.563   7.659
12920SOL     OW40718   5.318   5.700   8.928
12920SOL    HW140719   5.300   5.767   8.856
12920SOL    HW240720   5.315   5.746   9.017
12921SOL     OW40721   3.846   6.229   8.011
12921SOL    HW140722   3.801   6.141   8.028
12921SOL    HW240723   3.845   6.283   8.095
12922SOL     OW40724   5.566   7.353   7.807
12922SOL    HW140725   5.620   7.324   7.887
12922SOL    HW240726   5.596   7.443   7.778
12923SOL     OW40727   3.751   7.182   7.565
12923SOL    HW140728   3.732   7.086   7.586
12923SOL    HW240729   3.718   7.240   7.640
12924SOL     OW40730   5.413   6.508   8.060
12924SOL    HW140731   5.508   6.479   8.068
12924SOL    HW240732   5.405   6.573   7.985
12925SOL     OW40733   5.365   6.694   7.880
12925SOL    HW140734   5.451   6.696   7.828
12925SOL    HW240735   5.379   6.741   7.968
12926SOL     OW40736   4.337   6.951   8.174
12926SOL    HW140737   4.288   6.864   8.183
12926SOL    HW240738   4.314   6.994   8.087
12927SOL     OW40739   4.533   5.590   7.950
12927SOL    HW140740   4.573   5.681   7.941
12927SOL    HW240741   4.433   5.598   7.956
12928SOL     OW40742   3.921   6.562   8.712
12928SOL    HW140743   4.010   6.517   8.698
12928SOL    HW240744   3.848   6.497   8.693
12929SOL     OW40745   5.249   6.585   7.638
12929SOL    HW140746   5.186   6.509   7.651
12929SOL    HW240747   5.297   6.603   7.724
12930SOL     OW40748   5.190   7.003   8.401
12930SOL    HW140749   5.131   7.009   8.481
12930SOL    HW240750   5.175   6.915   8.355
12931SOL     OW40751   5.391   7.300   8.020
12931SOL    HW140752   5.350   7.277   7.932
12931SOL    HW240753   5.373   7.226   8.085
12932SOL     OW40754   4.322   6.315   7.718
12932SOL    HW140755   4.346   6.384   7.650
12932SOL    HW240756   4.244   6.348   7.772
12933SOL     OW40757   5.005   5.931   8.392
12933SOL    HW140758   4.919   5.881   8.379
12933SOL    HW240759   5.067   5.877   8.448
12934SOL     OW40760   5.300   7.248   7.755
12934SOL    HW140761   5.389   7.294   7.758
12934SOL    HW240762   5.279   7.224   7.660
12935SOL     OW40763   4.531   6.191   8.913
12935SOL    HW140764   4.484   6.188   9.002
12935SOL    HW240765   4.480   6.136   8.847
12936SOL     OW40766   4.715   5.996   8.690
12936SOL    HW140767   4.638   6.030   8.744
12936SOL    HW240768   4.681   5.945   8.611
12937SOL     OW40769   4.765   6.287   7.877
12937SOL    HW140770   4.791   6.283   7.973
12937SOL    HW240771   4.680   6.236   7.863
12938SOL     OW40772   3.800   6.397   8.237
12938SOL    HW140773   3.899   6.385   8.246
12938SOL    HW240774   3.776   6.492   8.258
12939SOL     OW40775   3.854   7.407   0.019
12939SOL    HW140776   3.844   7.392   0.118
12939SOL    HW240777   3.768   7.443  -0.017
12940SOL     OW40778   4.589   5.934   7.643
12940SOL    HW140779   4.648   5.997   7.594
12940SOL    HW240780   4.608   5.840   7.614
12941SOL     OW40781   5.086   6.730   7.993
12941SOL    HW140782   5.169   6.701   7.945
12941SOL    HW240783   5.037   6.797   7.937
12942SOL     OW40784   4.274   5.782   8.333
12942SOL    HW140785   4.269   5.777   8.433
12942SOL    HW240786   4.276   5.878   8.304
12943SOL     OW40787   4.732   7.042   7.925
12943SOL    HW140788   4.686   7.114   7.873
12943SOL    HW240789   4.728   7.062   8.023
12944SOL     OW40790   4.075   7.387   8.301
12944SOL    HW140791   4.125   7.301   8.307
12944SOL    HW240792   4.140   7.464   8.298
12945SOL     OW40793   5.519   6.652   8.321
12945SOL    HW140794   5.457   6.637   8.245
12945SOL    HW240795   5.467   6.663   8.406
12946SOL     OW40796   4.045   6.529   7.690
12946SOL    HW140797   4.127   6.568   7.648
12946SOL    HW240798   4.018   6.447   7.641
12947SOL     OW40799   5.182   6.321   8.176
12947SOL    HW140800   5.177   6.256   8.251
12947SOL    HW240801   5.262   6.380   8.189
12948SOL     OW40802   4.835   7.362   7.685
12948SOL    HW140803   4.775   7.300   7.735
12948SOL    HW240804   4.866   7.318   7.600
12949SOL     OW40805   3.926   5.871   8.946
12949SOL    HW140806   3.846   5.931   8.933
12949SOL    HW240807   3.916   5.822   9.032
12950SOL     OW40808   5.356   6.963   7.529
12950SOL    HW140809   5.324   7.057   7.519
12950SOL    HW240810   5.280   6.900   7.517
12951SOL     OW40811   4.188   7.329   7.771
12951SOL    HW140812   4.221   7.368   7.857
12951SOL    HW240813   4.264   7.322   7.706
12952SOL     OW40814   5.124   5.693   7.874
12952SOL    HW140815   5.100   5.656   7.784
12952SOL    HW240816   5.223   5.709   7.878
12953SOL     OW40817   3.973   7.371   8.689
12953SOL    HW140818   4.030   7.306   8.739
12953SOL    HW240819   3.957   7.338   8.596
12954SOL     OW40820   4.664   7.284   8.352
12954SOL    HW140821   4.744   7.227   8.373
12954SOL    HW240822   4.615   7.244   8.275
12955SOL     OW40823   4.106   6.286   7.928
12955SOL    HW140824   4.151   6.196   7.925
12955SOL    HW240825   4.012   6.275   7.961
12956SOL     OW40826   4.338   5.708   7.565
12956SOL    HW140827   4.436   5.686   7.572
12956SOL    HW240828   4.307   5.691   7.472
12957SOL     OW40829   4.612   7.100   8.643
12957SOL    HW140830   4.589   7.075   8.549
12957SOL    HW240831   4.673   7.031   8.682
12958SOL     OW40832   4.527   6.988   8.372
12958SOL    HW140833   4.617   7.002   8.330
12958SOL    HW240834   4.456   6.990   8.301
12959SOL     OW40835   4.646   6.089   8.347
12959SOL    HW140836   4.621   6.080   8.251
12959SOL    HW240837   4.694   6.007   8.378
12960SOL     OW40838   4.263   5.650   7.960
12960SOL    HW140839   4.182   5.651   8.018
12960SOL    HW240840   4.266   5.733   7.905
12961SOL     OW40841   5.158   6.774   7.489
12961SOL    HW140842   5.190   6.698   7.546
12961SOL    HW240843   5.066   6.801   7.519
12962SOL     OW40844   4.021   5.621   7.619
12962SOL    HW140845   4.070   5.705   7.598
12962SOL    HW240846   4.083   5.556   7.664
12963SOL     OW40847   4.659   5.822   7.928
12963SOL    HW140848   4.611   5.863   7.850
12963SOL    HW240849   4.758   5.820   7.909
12964SOL     OW40850   4.951   7.156   8.241
12964SOL    HW140851   4.972   7.230   8.176
12964SOL    HW240852   5.019   7.156   8.314
12965SOL     OW40853   4.183   6.738   8.189
12965SOL    HW140854   4.112   6.711   8.254
12965SOL    HW240855   4.157   6.710   8.096
12966SOL     OW40856   4.995   7.383   8.039
12966SOL    HW140857   5.039   7.447   7.975
12966SOL    HW240858   4.945   7.435   8.109
12967SOL     OW40859   4.756   6.135   7.464
12967SOL    HW140860   4.715   6.217   7.425
12967SOL    HW240861   4.820   6.161   7.537
12968SOL     OW40862   3.802   6.142   8.834
12968SOL    HW140863   3.894   6.141   8.793
12968SOL    HW240864   3.796   6.216   8.901
12969SOL     OW40865   4.285   5.808   8.595
12969SOL    HW140866   4.323   5.724   8.632
12969SOL    HW240867   4.197   5.827   8.639
12970SOL     OW40868   4.590   6.040   8.090
12970SOL    HW140869   4.558   6.112   8.028
12970SOL    HW240870   4.614   5.959   8.037
12971SOL     OW40871   4.741   5.625   8.201
12971SOL    HW140872   4.669   5.630   8.132
12971SOL    HW240873   4.717   5.556   8.270
12972SOL     OW40874   5.153   6.759   8.315
12972SOL    HW140875   5.098   6.675   8.308
12972SOL    HW240876   5.179   6.788   8.223
12973SOL     OW40877   5.190   6.176   8.440
12973SOL    HW140878   5.160   6.081   8.447
12973SOL    HW240879   5.263   6.192   8.506
12974SOL     OW40880   5.581   6.419   7.825
12974SOL    HW140881   5.623   6.355   7.889
12974SOL    HW240882   5.543   6.368   7.747
12975SOL     OW40883   4.212   6.971   7.622
12975SOL    HW140884   4.125   6.956   7.669
12975SOL    HW240885   4.195   6.997   7.527
12976SOL     OW40886   5.388   6.866   8.105
12976SOL    HW140887   5.487   6.874   8.119
12976SOL    HW240888   5.343   6.950   8.136
12977SOL     OW40889   5.114   6.161   7.526
12977SOL    HW140890   5.060   6.140   7.607
12977SOL    HW240891   5.205   6.120   7.535
12978SOL     OW40892   4.251   5.842   7.776
12978SOL    HW140893   4.278   5.783   7.701
12978SOL    HW240894   4.251   5.937   7.745
12979SOL     OW40895   4.788   6.933   8.788
12979SOL    HW140896   4.708   6.910   8.843
12979SOL    HW240897   4.871   6.907   8.837
12980SOL     OW40898   4.835   6.781   8.548
12980SOL    HW140899   4.795   6.825   8.629
12980SOL    HW240900   4.794   6.818   8.465
12981SOL     OW40901   5.362   6.685   8.527
12981SOL    HW140902   5.367   6.766   8.586
12981SOL    HW240903   5.276   6.687   8.476
12982SOL     OW40904   4.639   5.675   8.850
12982SOL    HW140905   4.664   5.655   8.755
12982SOL    HW240906   4.711   5.731   8.892
12983SOL     OW40907   4.429   6.636   7.816
12983SOL    HW140908   4.415   6.643   7.915
12983SOL    HW240909   4.513   6.585   7.798
12984SOL     OW40910   4.134   6.399   8.699
12984SOL    HW140911   4.220   6.411   8.749
12984SOL    HW240912   4.092   6.312   8.726
12985SOL     OW40913   4.998   5.972   8.710
12985SOL    HW140914   5.019   6.046   8.774
12985SOL    HW240915   4.909   5.989   8.667
12986SOL     OW40916   3.788   7.150   8.779
12986SOL    HW140917   3.742   7.232   8.745
12986SOL    HW240918   3.886   7.169   8.788
12987SOL     OW40919   4.091   6.686   7.949
12987SOL    HW140920   4.084   6.769   7.893
12987SOL    HW240921   4.095   6.606   7.889
12988SOL     OW40922   4.290   6.123   8.313
12988SOL    HW140923   4.302   6.189   8.239
12988SOL    HW240924   4.336   6.157   8.396
12989SOL     OW40925   4.976   6.934   7.836
12989SOL    HW140926   5.026   7.011   7.876
12989SOL    HW240927   4.881   6.936   7.868
12990SOL     OW40928   4.996   7.031   8.590
12990SOL    HW140929   5.043   7.044   8.677
12990SOL    HW240930   4.930   6.957   8.599
12991SOL     OW40931   5.306   6.225   7.920
12991SOL    HW140932   5.275   6.286   7.993
12991SOL    HW240933   5.356   6.277   7.851
12992SOL     OW40934   4.078   7.096   8.777
12992SOL    HW140935   4.057   7.052   8.690
12992SOL    HW240936   4.175   7.122   8.780
12993SOL     OW40937   4.126   6.337   0.046
12993SOL    HW140938   4.194   6.392  -0.001
12993SOL    HW240939   4.166   6.249   0.073
12994SOL     OW40940   5.311   6.365   0.118
12994SOL    HW140941   5.219   6.403   0.113
12994SOL    HW240942   5.371   6.412   0.053
12995SOL     OW40943   4.297   6.456   8.477
12995SOL    HW140944   4.341   6.545   8.468
12995SOL    HW240945   4.234   6.456   8.554
12996SOL     OW40946   5.084   6.448   8.493
12996SOL    HW140947   5.009   6.448   8.427
12996SOL    HW240948   5.121   6.356   8.502
12997SOL     OW40949   4.933   6.111   7.723
12997SOL    HW140950   4.946   6.027   7.777
12997SOL    HW240951   4.904   6.185   7.783
12998SOL     OW40952   4.031   5.799   8.679
12998SOL    HW140953   4.008   5.836   8.769
12998SOL    HW240954   4.001   5.704   8.673
12999SOL     OW40955   3.761   6.896   8.730
12999SOL    HW140956   3.814   6.847   8.798
12999SOL    HW240957   3.783   6.994   8.735
13000SOL     OW40958   4.456   6.220   8.512
13000SOL    HW140959   4.515   6.194   8.436
13000SOL    HW240960   4.428   6.316   8.501
13001SOL     OW40961   4.031   5.649   8.066
13001SOL    HW140962   4.020   5.743   8.099
13001SOL    HW240963   4.026   5.586   8.143
13002SOL     OW40964   5.346   5.953   7.822
13002SOL    HW140965   5.348   5.877   7.886
13002SOL    HW240966   5.298   6.030   7.862
13003SOL     OW40967   4.747   6.352   8.414
13003SOL    HW140968   4.762   6.373   8.510
13003SOL    HW240969   4.717   6.257   8.405
13004SOL     OW40970   4.704   7.159   0.148
13004SOL    HW140971   4.684   7.203   0.060
13004SOL    HW240972   4.743   7.068   0.132
13005SOL     OW40973   5.583   7.104   0.053
13005SOL    HW140974   5.597   7.131  -0.042
13005SOL    HW240975   5.666   7.126   0.106
13006SOL     OW40976   5.264   5.860   7.573
13006SOL    HW140977   5.203   5.785   7.596
13006SOL    HW240978   5.286   5.912   7.656
13007SOL     OW40979   5.027   6.424   7.490
13007SOL    HW140980   5.061   6.331   7.505
13007SOL    HW240981   5.045   6.451   7.395
13008SOL     OW40982   4.792   6.919   8.297
13008SOL    HW140983   4.799   6.835   8.242
13008SOL    HW240984   4.854   6.988   8.261
13009SOL     OW40985   4.043   6.396   8.397
13009SOL    HW140986   4.136   6.432   8.402
13009SOL    HW240987   4.037   6.311   8.449
13010SOL     OW40988   4.063   6.095   8.454
13010SOL    HW140989   4.011   6.012   8.437
13010SOL    HW240990   4.140   6.100   8.390
13011SOL     OW40991   4.862   5.966   0.126
13011SOL    HW140992   4.817   6.029   0.190
13011SOL    HW240993   4.955   5.997   0.109
13012SOL     OW40994   4.884   5.793   8.925
13012SOL    HW140995   4.884   5.857   9.002
13012SOL    HW240996   4.912   5.841   8.842
13013SOL     OW40997   3.732   6.912   7.648
13013SOL    HW140998   3.639   6.933   7.617
13013SOL    HW240999   3.742   6.813   7.661
13014SOL     OW41000   3.812   7.387   8.375
13014SOL    HW141001   3.770   7.301   8.348
13014SOL    HW241002   3.906   7.390   8.341
13015SOL     OW41003   4.228   7.154   8.358
13015SOL    HW141004   4.294   7.228   8.367
13015SOL    HW241005   4.272   7.075   8.316
13016SOL     OW41006   4.726   6.382   8.686
13016SOL    HW141007   4.767   6.350   8.772
13016SOL    HW241008   4.630   6.355   8.683
13017SOL     OW41009   3.764   6.130   8.562
13017SOL    HW141010   3.849   6.097   8.521
13017SOL    HW241011   3.777   6.145   8.660
13018SOL     OW41012   4.539   6.158   7.773
13018SOL    HW141013   4.546   6.069   7.727
13018SOL    HW241014   4.445   6.192   7.765
13019SOL     OW41015   5.381   6.190   8.654
13019SOL    HW141016   5.343   6.121   8.716
13019SOL    HW241017   5.463   6.154   8.610
13020SOL     OW41018   4.395   6.050   8.717
13020SOL    HW141019   4.361   5.961   8.687
13020SOL    HW241020   4.421   6.104   8.637
13021SOL     OW41021   4.654   7.264   8.913
13021SOL    HW141022   4.630   7.246   8.818
13021SOL    HW241023   4.684   7.358   8.923
13022SOL     OW41024   4.197   6.086   7.639
13022SOL    HW141025   4.258   6.166   7.643
13022SOL    HW241026   4.102   6.117   7.646
13023SOL     OW41027   3.883   6.723   8.914
13023SOL    HW141028   3.905   6.662   8.990
13023SOL    HW241029   3.893   6.674   8.828
13024SOL     OW41030   5.071   6.645   8.682
13024SOL    HW141031   5.095   6.582   8.608
13024SOL    HW241032   4.981   6.685   8.664
13025SOL     OW41033   5.026   6.441   7.757
13025SOL    HW141034   4.940   6.410   7.799
13025SOL    HW241035   5.022   6.427   7.658
13026SOL     OW41036   5.483   7.333   8.602
13026SOL    HW141037   5.544   7.363   8.529
13026SOL    HW241038   5.445   7.244   8.580
13027SOL     OW41039   4.976   7.317   8.576
13027SOL    HW141040   5.060   7.322   8.522
13027SOL    HW241041   4.953   7.221   8.594
13028SOL     OW41042   3.807   6.844   8.470
13028SOL    HW141043   3.802   6.843   8.570
13028SOL    HW241044   3.724   6.803   8.432
13029SOL     OW41045   4.627   5.672   7.581
13029SOL    HW141046   4.678   5.673   7.495
13029SOL    HW241047   4.683   5.630   7.652
13030SOL     OW41048   5.450   5.721   7.971
13030SOL    HW141049   5.523   5.704   7.904
13030SOL    HW241050   5.419   5.634   8.009
13031SOL     OW41051   5.112   7.159   7.925
13031SOL    HW141052   5.179   7.171   7.851
13031SOL    HW241053   5.072   7.248   7.948
13032SOL     OW41054   5.004   6.513   8.120
13032SOL    HW141055   5.064   6.432   8.122
13032SOL    HW241056   5.044   6.582   8.060
13033SOL     OW41057   4.396   7.202   7.602
13033SOL    HW141058   4.405   7.212   7.503
13033SOL    HW241059   4.356   7.113   7.623
13034SOL     OW41060   5.374   7.306   8.842
13034SOL    HW141061   5.427   7.316   8.758
13034SOL    HW241062   5.347   7.396   8.876
13035SOL     OW41063   5.565   5.761   8.411
13035SOL    HW141064   5.604   5.676   8.375
13035SOL    HW241065   5.467   5.763   8.392
13036SOL     OW41066   3.987   5.912   8.168
13036SOL    HW141067   3.908   5.963   8.134
13036SOL    HW241068   3.978   5.897   8.266
13037SOL     OW41069   4.918   7.198   7.479
13037SOL    HW141070   4.924   7.105   7.516
13037SOL    HW241071   4.859   7.198   7.399
13038SOL     OW41072   4.546   6.588   8.820
13038SOL    HW141073   4.586   6.587   8.728
13038SOL    HW241074   4.556   6.680   8.860
13039SOL     OW41075   4.640   6.496   7.739
13039SOL    HW141076   4.703   6.534   7.671
13039SOL    HW241077   4.680   6.413   7.778
13040SOL     OW41078   5.228   7.193   7.492
13040SOL    HW141079   5.136   7.230   7.499
13040SOL    HW241080   5.266   7.213   7.402
13041SOL     OW41081   4.096   6.874   8.938
13041SOL    HW141082   4.083   6.967   8.904
13041SOL    HW241083   4.012   6.822   8.925
13042SOL     OW41084   5.338   6.878   8.737
13042SOL    HW141085   5.398   6.881   8.817
13042SOL    HW241086   5.263   6.942   8.750
13043SOL     OW41087   4.763   6.684   8.144
13043SOL    HW141088   4.693   6.637   8.198
13043SOL    HW241089   4.822   6.616   8.101
13044SOL     OW41090   4.738   5.822   8.419
13044SOL    HW141091   4.730   5.786   8.326
13044SOL    HW241092   4.736   5.746   8.484
13045SOL     OW41093   4.314   7.073   7.939
13045SOL    HW141094   4.356   7.015   7.869
13045SOL    HW241095   4.270   7.152   7.895
13046SOL     OW41096   5.433   5.971   8.829
13046SOL    HW141097   5.506   6.040   8.833
13046SOL    HW241098   5.461   5.896   8.770
13047SOL     OW41099   3.979   6.934   7.738
13047SOL    HW141100   3.883   6.935   7.711
13047SOL    HW241101   3.991   6.987   7.822
13048SOL     OW41102   3.799   5.931   7.481
13048SOL    HW141103   3.707   5.903   7.452
13048SOL    HW241104   3.830   6.008   7.425
13049SOL     OW41105   5.164   6.442   8.846
13049SOL    HW141106   5.107   6.494   8.783
13049SOL    HW241107   5.260   6.454   8.822
13050SOL     OW41108   3.796   5.752   7.766
13050SOL    HW141109   3.779   5.835   7.712
13050SOL    HW241110   3.886   5.715   7.744
13051SOL     OW41111   4.907   6.921   7.567
13051SOL    HW141112   4.808   6.910   7.569
13051SOL    HW241113   4.941   6.936   7.660
13052SOL     OW41114   4.337   6.428   8.879
13052SOL    HW141115   4.393   6.509   8.862
13052SOL    HW241116   4.396   6.348   8.882
13053SOL     OW41117   5.217   7.353   8.407
13053SOL    HW141118   5.250   7.417   8.338
13053SOL    HW241119   5.283   7.347   8.482
13054SOL     OW41120   4.114   7.327   0.008
13054SOL    HW141121   4.023   7.368   0.006
13054SOL    HW241122   4.107   7.233   0.040
13055SOL     OW41123   5.398   6.469   8.702
13055SOL    HW141124   5.371   6.380   8.665
13055SOL    HW241125   5.399   6.537   8.629
13056SOL     OW41126   4.949   5.911   7.897
13056SOL    HW141127   5.014   5.837   7.886
13056SOL    HW241128   4.969   5.961   7.981
13057SOL     OW41129   4.318   6.331   8.100
13057SOL    HW141130   4.368   6.416   8.081
13057SOL    HW241131   4.230   6.333   8.052
13058SOL     OW41132   5.501   5.928   0.090
13058SOL    HW141133   5.484   5.959  -0.004
13058SOL    HW241134   5.417   5.891   0.128
13059SOL     OW41135   5.454   6.520   8.965
13059SOL    HW141136   5.492   6.611   8.980
13059SOL    HW241137   5.446   6.503   8.866
13060SOL     OW41138   4.583   6.960   7.464
13060SOL    HW141139   4.537   6.975   7.552
13060SOL    HW241140   4.627   7.045   7.434
13061SOL     OW41141   4.385   7.376   8.401
13061SOL    HW141142   4.339   7.464   8.388
13061SOL    HW241143   4.484   7.388   8.394
13062SOL     OW41144   5.132   7.437   0.168
13062SOL    HW141145   5.036   7.426   0.141
13062SOL    HW241146   5.188   7.370   0.120
13063SOL     OW41147   4.583   6.542   8.309
13063SOL    HW141148   4.637   6.473   8.357
13063SOL    HW241149   4.551   6.611   8.375
13064SOL     OW41150   4.807   6.570   7.535
13064SOL    HW141151   4.784   6.623   7.453
13064SOL    HW241152   4.888   6.514   7.516
13065SOL     OW41153   5.585   7.155   8.299
13065SOL    HW141154   5.514   7.143   8.229
13065SOL    HW241155   5.586   7.076   8.359
13066SOL     OW41156   3.803   6.826   8.101
13066SOL    HW141157   3.802   6.779   8.189
13066SOL    HW241158   3.885   6.798   8.050
13067SOL     OW41159   5.548   5.778   8.675
13067SOL    HW141160   5.544   5.688   8.719
13067SOL    HW241161   5.551   5.767   8.576
13068SOL     OW41162   4.152   6.010   7.968
13068SOL    HW141163   4.182   5.938   7.906
13068SOL    HW241164   4.113   5.970   8.051
13069SOL     OW41165   5.429   7.073   8.552
13069SOL    HW141166   5.336   7.048   8.525
13069SOL    HW241167   5.455   7.023   8.634
13070SOL     OW41168   4.041   6.133   8.728
13070SOL    HW141169   4.079   6.074   8.800
13070SOL    HW241170   4.081   6.107   8.640
13071SOL     OW41171   4.536   7.172   8.135
13071SOL    HW141172   4.568   7.182   8.041
13071SOL    HW241173   4.457   7.110   8.137
13072SOL     OW41174   5.148   5.800   8.560
13072SOL    HW141175   5.200   5.735   8.615
13072SOL    HW241176   5.099   5.863   8.621
13073SOL     OW41177   4.725   5.620   8.602
13073SOL    HW141178   4.662   5.548   8.571
13073SOL    HW241179   4.818   5.584   8.602
13074SOL     OW41180   4.494   6.916   7.749
13074SOL    HW141181   4.448   6.829   7.766
13074SOL    HW241182   4.585   6.913   7.790
13075SOL     OW41183   4.342   7.153   8.732
13075SOL    HW141184   4.337   7.235   8.789
13075SOL    HW241185   4.431   7.150   8.687
13076SOL     OW41186   5.076   5.638   7.616
13076SOL    HW141187   5.111   5.597   7.532
13076SOL    HW241188   4.986   5.600   7.636
13077SOL     OW41189   5.024   6.039   8.139
13077SOL    HW141190   4.965   6.119   8.143
13077SOL    HW241191   5.039   6.004   8.232
13078SOL     OW41192   5.317   5.807   8.330
13078SOL    HW141193   5.233   5.806   8.384
13078SOL    HW241194   5.319   5.890   8.274
13079SOL     OW41195   3.763   6.663   7.748
13079SOL    HW141196   3.862   6.652   7.739
13079SOL    HW241197   3.723   6.577   7.780
13080SOL     OW41198   4.599   7.232   7.785
13080SOL    HW141199   4.522   7.197   7.731
13080SOL    HW241200   4.567   7.303   7.847
13081SOL     OW41201   3.954   8.076   0.113
13081SOL    HW141202   3.861   8.074   0.150
13081SOL    HW241203   3.955   8.037   0.021
13082SOL     OW41204   3.949   7.723   0.996
13082SOL    HW141205   3.984   7.706   1.088
13082SOL    HW241206   3.861   7.678   0.984
13083SOL     OW41207   3.743   7.816   0.647
13083SOL    HW141208   3.661   7.859   0.686
13083SOL    HW241209   3.715   7.743   0.584
13084SOL     OW41210   4.293   8.723   1.165
13084SOL    HW141211   4.200   8.716   1.128
13084SOL    HW241212   4.304   8.812   1.209
13085SOL     OW41213   5.279   8.959   0.703
13085SOL    HW141214   5.222   8.943   0.784
13085SOL    HW241215   5.220   8.969   0.623
13086SOL     OW41216   5.467   8.066   0.856
13086SOL    HW141217   5.500   8.160   0.856
13086SOL    HW241218   5.518   8.012   0.922
13087SOL     OW41219   4.859   8.151   0.717
13087SOL    HW141220   4.916   8.229   0.692
13087SOL    HW241221   4.799   8.177   0.793
13088SOL     OW41222   5.479   8.055   0.231
13088SOL    HW141223   5.467   8.042   0.132
13088SOL    HW241224   5.449   7.974   0.280
13089SOL     OW41225   4.492   8.592   1.023
13089SOL    HW141226   4.414   8.609   1.083
13089SOL    HW241227   4.526   8.679   0.987
13090SOL     OW41228   4.574   8.246   1.823
13090SOL    HW141229   4.570   8.322   1.888
13090SOL    HW241230   4.596   8.282   1.732
13091SOL     OW41231   4.409   8.460   0.665
13091SOL    HW141232   4.478   8.444   0.735
13091SOL    HW241233   4.336   8.517   0.703
13092SOL     OW41234   4.410   8.609   1.803
13092SOL    HW141235   4.470   8.688   1.817
13092SOL    HW241236   4.324   8.640   1.762
13093SOL     OW41237   4.059   8.883   1.061
13093SOL    HW141238   3.981   8.852   1.008
13093SOL    HW241239   4.117   8.941   1.004
13094SOL     OW41240   5.184   8.953   1.339
13094SOL    HW141241   5.208   9.047   1.365
13094SOL    HW241242   5.168   8.899   1.421
13095SOL     OW41243   4.162   7.840   1.499
13095SOL    HW141244   4.244   7.784   1.508
13095SOL    HW241245   4.081   7.782   1.503
13096SOL     OW41246   5.327   7.895   0.737
13096SOL    HW141247   5.253   7.941   0.687
13096SOL    HW241248   5.378   7.963   0.790
13097SOL     OW41249   3.955   0.161   0.483
13097SOL    HW141250   3.989   0.238   0.537
13097SOL    HW241251   3.999   0.161   0.393
13098SOL     OW41252   4.851   8.789   1.690
13098SOL    HW141253   4.898   8.789   1.778
13098SOL    HW241254   4.803   8.702   1.679
13099SOL     OW41255   3.954   8.882   0.538
13099SOL    HW141256   3.928   8.978   0.538
13099SOL    HW241257   3.883   8.828   0.583
13100SOL     OW41258   3.964   8.539   0.886
13100SOL    HW141259   3.978   8.455   0.938
13100SOL    HW241260   3.909   8.603   0.941
13101SOL     OW41261   4.330   8.412   0.123
13101SOL    HW141262   4.337   8.496   0.069
13101SOL    HW241263   4.376   8.425   0.211
13102SOL     OW41264   5.318   7.562   1.480
13102SOL    HW141265   5.300   7.629   1.408
13102SOL    HW241266   5.315   7.608   1.569
13103SOL     OW41267   3.846   8.091   0.563
13103SOL    HW141268   3.801   8.003   0.580
13103SOL    HW241269   3.845   8.145   0.647
13104SOL     OW41270   5.413   8.370   0.612
13104SOL    HW141271   5.508   8.341   0.620
13104SOL    HW241272   5.405   8.435   0.537
13105SOL     OW41273   5.365   8.556   0.432
13105SOL    HW141274   5.451   8.558   0.380
13105SOL    HW241275   5.379   8.603   0.520
13106SOL     OW41276   3.837   8.185   1.597
13106SOL    HW141277   3.925   8.172   1.642
13106SOL    HW241278   3.824   8.282   1.575
13107SOL     OW41279   4.337   8.813   0.726
13107SOL    HW141280   4.288   8.726   0.735
13107SOL    HW241281   4.314   8.856   0.639
13108SOL     OW41282   5.017   8.676   1.423
13108SOL    HW141283   5.054   8.603   1.365
13108SOL    HW241284   5.069   8.681   1.508
13109SOL     OW41285   4.533   7.452   0.502
13109SOL    HW141286   4.573   7.543   0.493
13109SOL    HW241287   4.433   7.460   0.508
13110SOL     OW41288   3.921   8.424   1.264
13110SOL    HW141289   4.010   8.379   1.250
13110SOL    HW241290   3.848   8.359   1.245
13111SOL     OW41291   5.249   8.447   0.190
13111SOL    HW141292   5.186   8.371   0.203
13111SOL    HW241293   5.297   8.465   0.276
13112SOL     OW41294   4.041   7.699   1.801
13112SOL    HW141295   4.112   7.770   1.807
13112SOL    HW241296   3.953   7.738   1.829
13113SOL     OW41297   5.190   8.865   0.953
13113SOL    HW141298   5.131   8.871   1.033
13113SOL    HW241299   5.175   8.777   0.907
13114SOL     OW41300   4.322   8.177   0.270
13114SOL    HW141301   4.346   8.246   0.202
13114SOL    HW241302   4.244   8.210   0.324
13115SOL     OW41303   5.005   7.793   0.944
13115SOL    HW141304   4.919   7.743   0.931
13115SOL    HW241305   5.067   7.739   1.000
13116SOL     OW41306   4.531   8.053   1.465
13116SOL    HW141307   4.484   8.050   1.554
13116SOL    HW241308   4.480   7.998   1.399
13117SOL     OW41309   5.118   7.917   1.674
13117SOL    HW141310   5.098   7.960   1.762
13117SOL    HW241311   5.196   7.855   1.683
13118SOL     OW41312   4.697   8.338   1.572
13118SOL    HW141313   4.743   8.254   1.543
13118SOL    HW241314   4.641   8.372   1.497
13119SOL     OW41315   4.715   7.858   1.242
13119SOL    HW141316   4.638   7.892   1.296
13119SOL    HW241317   4.681   7.807   1.163
13120SOL     OW41318   4.765   8.149   0.429
13120SOL    HW141319   4.791   8.145   0.525
13120SOL    HW241320   4.680   8.098   0.415
13121SOL     OW41321   3.800   8.259   0.789
13121SOL    HW141322   3.899   8.247   0.798
13121SOL    HW241323   3.776   8.354   0.810
13122SOL     OW41324   4.589   7.796   0.195
13122SOL    HW141325   4.648   7.859   0.146
13122SOL    HW241326   4.608   7.702   0.166
13123SOL     OW41327   5.443   8.033   1.831
13123SOL    HW141328   5.417   8.122   1.795
13123SOL    HW241329   5.441   7.965   1.758
13124SOL     OW41330   5.086   8.592   0.545
13124SOL    HW141331   5.169   8.563   0.497
13124SOL    HW241332   5.037   8.659   0.489
13125SOL     OW41333   4.274   7.644   0.885
13125SOL    HW141334   4.269   7.639   0.985
13125SOL    HW241335   4.276   7.740   0.856
13126SOL     OW41336   4.732   8.904   0.477
13126SOL    HW141337   4.686   8.976   0.425
13126SOL    HW241338   4.728   8.924   0.575
13127SOL     OW41339   5.519   8.514   0.873
13127SOL    HW141340   5.457   8.499   0.797
13127SOL    HW241341   5.467   8.525   0.958
13128SOL     OW41342   4.951   8.998   1.506
13128SOL    HW141343   4.957   8.921   1.570
13128SOL    HW241344   4.899   8.972   1.426
13129SOL     OW41345   4.045   8.391   0.242
13129SOL    HW141346   4.127   8.430   0.200
13129SOL    HW241347   4.018   8.309   0.193
13130SOL     OW41348   5.182   8.183   0.728
13130SOL    HW141349   5.177   8.118   0.803
13130SOL    HW241350   5.262   8.242   0.741
13131SOL     OW41351   4.185   8.714   1.727
13131SOL    HW141352   4.135   8.715   1.641
13131SOL    HW241353   4.122   8.696   1.803
13132SOL     OW41354   4.835   0.224   0.237
13132SOL    HW141355   4.775   0.162   0.287
13132SOL    HW241356   4.866   0.180   0.152
13133SOL     OW41357   3.926   7.733   1.498
13133SOL    HW141358   3.846   7.793   1.485
13133SOL    HW241359   3.916   7.684   1.584
13134SOL     OW41360   5.356   8.825   0.081
13134SOL    HW141361   5.324   8.919   0.071
13134SOL    HW241362   5.280   8.762   0.069
13135SOL     OW41363   5.124   7.555   0.426
13135SOL    HW141364   5.100   7.518   0.336
13135SOL    HW241365   5.223   7.571   0.430
13136SOL     OW41366   4.106   8.148   0.480
13136SOL    HW141367   4.151   8.058   0.477
13136SOL    HW241368   4.012   8.137   0.513
13137SOL     OW41369   5.271   7.670   1.729
13137SOL    HW141370   5.266   7.707   1.821
13137SOL    HW241371   5.199   7.601   1.717
13138SOL     OW41372   4.338   7.570   0.117
13138SOL    HW141373   4.436   7.548   0.124
13138SOL    HW241374   4.307   7.553   0.024
13139SOL     OW41375   4.505   7.712   1.749
13139SOL    HW141376   4.572   7.651   1.792
13139SOL    HW241377   4.432   7.731   1.814
13140SOL     OW41378   5.075   8.038   1.433
13140SOL    HW141379   5.103   7.995   1.518
13140SOL    HW241380   5.100   8.134   1.434
13141SOL     OW41381   4.527   8.850   0.924
13141SOL    HW141382   4.617   8.864   0.882
13141SOL    HW241383   4.456   8.852   0.853
13142SOL     OW41384   4.646   7.951   0.899
13142SOL    HW141385   4.621   7.942   0.803
13142SOL    HW241386   4.694   7.869   0.930
13143SOL     OW41387   4.263   7.512   0.512
13143SOL    HW141388   4.182   7.513   0.570
13143SOL    HW241389   4.266   7.595   0.457
13144SOL     OW41390   5.158   8.636   0.041
13144SOL    HW141391   5.190   8.560   0.098
13144SOL    HW241392   5.066   8.663   0.071
13145SOL     OW41393   4.021   7.483   0.171
13145SOL    HW141394   4.070   7.567   0.150
13145SOL    HW241395   4.083   7.418   0.216
13146SOL     OW41396   4.659   7.684   0.480
13146SOL    HW141397   4.611   7.725   0.402
13146SOL    HW241398   4.758   7.682   0.461
13147SOL     OW41399   4.800   8.131   1.464
13147SOL    HW141400   4.720   8.070   1.467
13147SOL    HW241401   4.881   8.078   1.440
13148SOL     OW41402   4.951   0.018   0.793
13148SOL    HW141403   4.972   0.092   0.728
13148SOL    HW241404   5.019   0.018   0.866
13149SOL     OW41405   4.183   8.600   0.741
13149SOL    HW141406   4.112   8.573   0.806
13149SOL    HW241407   4.157   8.572   0.648
13150SOL     OW41408   4.756   7.997   0.016
13150SOL    HW141409   4.715   8.079  -0.023
13150SOL    HW241410   4.820   8.023   0.089
13151SOL     OW41411   3.802   8.004   1.386
13151SOL    HW141412   3.894   8.003   1.345
13151SOL    HW241413   3.796   8.078   1.453
13152SOL     OW41414   4.285   7.670   1.147
13152SOL    HW141415   4.323   7.586   1.184
13152SOL    HW241416   4.197   7.689   1.191
13153SOL     OW41417   4.590   7.902   0.642
13153SOL    HW141418   4.558   7.974   0.580
13153SOL    HW241419   4.614   7.821   0.589
13154SOL     OW41420   4.741   7.487   0.753
13154SOL    HW141421   4.669   7.492   0.684
13154SOL    HW241422   4.717   7.418   0.822
13155SOL     OW41423   5.153   8.621   0.867
13155SOL    HW141424   5.098   8.537   0.860
13155SOL    HW241425   5.179   8.650   0.775
13156SOL     OW41426   5.190   8.038   0.992
13156SOL    HW141427   5.160   7.943   0.999
13156SOL    HW241428   5.263   8.054   1.058
13157SOL     OW41429   5.581   8.281   0.377
13157SOL    HW141430   5.623   8.217   0.441
13157SOL    HW241431   5.543   8.230   0.299
13158SOL     OW41432   4.212   8.833   0.174
13158SOL    HW141433   4.125   8.818   0.221
13158SOL    HW241434   4.195   8.859   0.079
13159SOL     OW41435   5.388   8.728   0.657
13159SOL    HW141436   5.487   8.736   0.671
13159SOL    HW241437   5.343   8.812   0.688
13160SOL     OW41438   5.114   8.023   0.078
13160SOL    HW141439   5.060   8.002   0.159
13160SOL    HW241440   5.205   7.982   0.087
13161SOL     OW41441   4.251   7.704   0.328
13161SOL    HW141442   4.278   7.645   0.253
13161SOL    HW241443   4.251   7.799   0.297
13162SOL     OW41444   5.478   8.671   1.588
13162SOL    HW141445   5.569   8.632   1.575
13162SOL    HW241446   5.486   8.767   1.612
13163SOL     OW41447   4.788   8.795   1.340
13163SOL    HW141448   4.708   8.772   1.395
13163SOL    HW241449   4.871   8.769   1.389
13164SOL     OW41450   4.835   8.643   1.100
13164SOL    HW141451   4.795   8.687   1.181
13164SOL    HW241452   4.794   8.680   1.017
13165SOL     OW41453   5.362   8.547   1.079
13165SOL    HW141454   5.367   8.628   1.138
13165SOL    HW241455   5.276   8.549   1.028
13166SOL     OW41456   4.639   7.537   1.402
13166SOL    HW141457   4.664   7.517   1.307
13166SOL    HW241458   4.711   7.593   1.444
13167SOL     OW41459   4.704   8.564   1.719
13167SOL    HW141460   4.605   8.570   1.729
13167SOL    HW241461   4.727   8.484   1.663
13168SOL     OW41462   4.429   8.498   0.368
13168SOL    HW141463   4.415   8.505   0.467
13168SOL    HW241464   4.513   8.447   0.350
13169SOL     OW41465   4.134   8.261   1.251
13169SOL    HW141466   4.220   8.273   1.301
13169SOL    HW241467   4.092   8.174   1.278
13170SOL     OW41468   4.998   7.834   1.262
13170SOL    HW141469   5.019   7.908   1.326
13170SOL    HW241470   4.909   7.851   1.219
13171SOL     OW41471   4.091   8.548   0.501
13171SOL    HW141472   4.084   8.631   0.445
13171SOL    HW241473   4.095   8.468   0.441
13172SOL     OW41474   4.290   7.985   0.865
13172SOL    HW141475   4.302   8.051   0.791
13172SOL    HW241476   4.336   8.019   0.948
13173SOL     OW41477   4.976   8.796   0.388
13173SOL    HW141478   5.026   8.873   0.428
13173SOL    HW241479   4.881   8.798   0.420
13174SOL     OW41480   4.996   8.893   1.142
13174SOL    HW141481   5.043   8.906   1.229
13174SOL    HW241482   4.930   8.819   1.151
13175SOL     OW41483   5.306   8.087   0.472
13175SOL    HW141484   5.275   8.148   0.545
13175SOL    HW241485   5.356   8.139   0.403
13176SOL     OW41486   4.078   8.958   1.329
13176SOL    HW141487   4.057   8.914   1.242
13176SOL    HW241488   4.175   8.984   1.332
13177SOL     OW41489   4.126   8.199   1.598
13177SOL    HW141490   4.194   8.254   1.551
13177SOL    HW241491   4.166   8.111   1.625
13178SOL     OW41492   5.311   8.227   1.670
13178SOL    HW141493   5.219   8.265   1.665
13178SOL    HW241494   5.371   8.274   1.605
13179SOL     OW41495   4.737   7.553   1.770
13179SOL    HW141496   4.743   7.638   1.718
13179SOL    HW241497   4.769   7.477   1.713
13180SOL     OW41498   4.228   7.498   1.740
13180SOL    HW141499   4.186   7.441   1.670
13180SOL    HW241500   4.162   7.567   1.772
13181SOL     OW41501   4.297   8.318   1.029
13181SOL    HW141502   4.341   8.407   1.020
13181SOL    HW241503   4.234   8.318   1.106
13182SOL     OW41504   5.084   8.310   1.045
13182SOL    HW141505   5.009   8.310   0.979
13182SOL    HW241506   5.121   8.218   1.054
13183SOL     OW41507   4.933   7.973   0.275
13183SOL    HW141508   4.946   7.889   0.329
13183SOL    HW241509   4.904   8.047   0.335
13184SOL     OW41510   4.031   7.661   1.231
13184SOL    HW141511   4.008   7.698   1.321
13184SOL    HW241512   4.001   7.566   1.225
13185SOL     OW41513   3.761   8.758   1.282
13185SOL    HW141514   3.814   8.709   1.350
13185SOL    HW241515   3.783   8.856   1.287
13186SOL     OW41516   4.456   8.082   1.064
13186SOL    HW141517   4.515   8.056   0.988
13186SOL    HW241518   4.428   8.178   1.053
13187SOL     OW41519   5.452   8.383   1.854
13187SOL    HW141520   5.406   8.376   1.765
13187SOL    HW241521   5.390   8.427   1.920
13188SOL     OW41522   4.031   7.511   0.618
13188SOL    HW141523   4.020   7.605   0.651
13188SOL    HW241524   4.026   7.448   0.695
13189SOL     OW41525   5.346   7.815   0.374
13189SOL    HW141526   5.348   7.739   0.438
13189SOL    HW241527   5.298   7.892   0.414
13190SOL     OW41528   4.747   8.214   0.966
13190SOL    HW141529   4.762   8.235   1.062
13190SOL    HW241530   4.717   8.119   0.957
13191SOL     OW41531   5.583   8.966   1.605
13191SOL    HW141532   5.597   8.993   1.510
13191SOL    HW241533   5.666   8.988   1.658
13192SOL     OW41534   4.074   8.346   1.804
13192SOL    HW141535   4.150   8.390   1.852
13192SOL    HW241536   4.109   8.299   1.722
13193SOL     OW41537   5.264   7.722   0.125
13193SOL    HW141538   5.203   7.647   0.148
13193SOL    HW241539   5.286   7.774   0.208
13194SOL     OW41540   5.027   8.286   0.042
13194SOL    HW141541   5.061   8.193   0.057
13194SOL    HW241542   5.045   8.313  -0.053
13195SOL     OW41543   4.792   8.781   0.849
13195SOL    HW141544   4.799   8.697   0.794
13195SOL    HW241545   4.854   8.850   0.813
13196SOL     OW41546   4.043   8.258   0.949
13196SOL    HW141547   4.136   8.294   0.954
13196SOL    HW241548   4.037   8.173   1.001
13197SOL     OW41549   4.063   7.957   1.006
13197SOL    HW141550   4.011   7.874   0.989
13197SOL    HW241551   4.140   7.962   0.942
13198SOL     OW41552   4.235   7.863   1.808
13198SOL    HW141553   4.217   7.908   1.896
13198SOL    HW241554   4.277   7.928   1.745
13199SOL     OW41555   4.862   7.828   1.678
13199SOL    HW141556   4.817   7.891   1.742
13199SOL    HW241557   4.955   7.859   1.661
13200SOL     OW41558   4.884   7.655   1.477
13200SOL    HW141559   4.884   7.719   1.554
13200SOL    HW241560   4.912   7.703   1.394
13201SOL     OW41561   3.732   8.774   0.200
13201SOL    HW141562   3.639   8.795   0.169
13201SOL    HW241563   3.742   8.675   0.213
13202SOL     OW41564   4.726   8.244   1.238
13202SOL    HW141565   4.767   8.212   1.324
13202SOL    HW241566   4.630   8.217   1.235
13203SOL     OW41567   3.764   7.992   1.114
13203SOL    HW141568   3.849   7.959   1.073
13203SOL    HW241569   3.777   8.007   1.212
13204SOL     OW41570   3.913   7.968   1.722
13204SOL    HW141571   3.972   7.928   1.652
13204SOL    HW241572   3.855   8.039   1.681
13205SOL     OW41573   5.093   8.398   1.660
13205SOL    HW141574   5.132   8.487   1.680
13205SOL    HW241575   5.103   8.378   1.563
13206SOL     OW41576   4.539   8.020   0.325
13206SOL    HW141577   4.546   7.931   0.279
13206SOL    HW241578   4.445   8.054   0.317
13207SOL     OW41579   5.381   8.052   1.206
13207SOL    HW141580   5.343   7.983   1.268
13207SOL    HW241581   5.463   8.016   1.162
13208SOL     OW41582   3.976   0.012   1.744
13208SOL    HW141583   3.946   0.069   1.820
13208SOL    HW241584   3.969  -0.085   1.770
13209SOL     OW41585   4.395   7.912   1.269
13209SOL    HW141586   4.361   7.823   1.239
13209SOL    HW241587   4.421   7.966   1.189
13210SOL     OW41588   4.197   7.948   0.191
13210SOL    HW141589   4.258   8.028   0.195
13210SOL    HW241590   4.102   7.979   0.198
13211SOL     OW41591   3.883   8.585   1.466
13211SOL    HW141592   3.905   8.524   1.542
13211SOL    HW241593   3.893   8.536   1.380
13212SOL     OW41594   5.071   8.507   1.234
13212SOL    HW141595   5.095   8.444   1.160
13212SOL    HW241596   4.981   8.547   1.216
13213SOL     OW41597   5.026   8.303   0.309
13213SOL    HW141598   4.940   8.272   0.351
13213SOL    HW241599   5.022   8.289   0.210
13214SOL     OW41600   3.807   8.706   1.022
13214SOL    HW141601   3.802   8.705   1.122
13214SOL    HW241602   3.724   8.665   0.984
13215SOL     OW41603   4.627   7.534   0.133
13215SOL    HW141604   4.678   7.535   0.047
13215SOL    HW241605   4.683   7.492   0.204
13216SOL     OW41606   5.450   7.583   0.523
13216SOL    HW141607   5.523   7.566   0.456
13216SOL    HW241608   5.419   7.496   0.561
13217SOL     OW41609   5.004   8.375   0.672
13217SOL    HW141610   5.064   8.294   0.674
13217SOL    HW241611   5.044   8.444   0.612
13218SOL     OW41612   4.554   8.721   1.422
13218SOL    HW141613   4.549   8.754   1.517
13218SOL    HW241614   4.468   8.740   1.376
13219SOL     OW41615   5.565   7.623   0.963
13219SOL    HW141616   5.604   7.538   0.927
13219SOL    HW241617   5.467   7.625   0.944
13220SOL     OW41618   3.987   7.774   0.720
13220SOL    HW141619   3.908   7.825   0.686
13220SOL    HW241620   3.978   7.759   0.818
13221SOL     OW41621   4.546   8.450   1.372
13221SOL    HW141622   4.586   8.449   1.280
13221SOL    HW241623   4.556   8.542   1.412
13222SOL     OW41624   4.640   8.358   0.291
13222SOL    HW141625   4.703   8.396   0.223
13222SOL    HW241626   4.680   8.275   0.330
13223SOL     OW41627   4.096   8.736   1.490
13223SOL    HW141628   4.083   8.829   1.456
13223SOL    HW241629   4.012   8.684   1.477
13224SOL     OW41630   5.338   8.740   1.289
13224SOL    HW141631   5.398   8.743   1.369
13224SOL    HW241632   5.263   8.804   1.302
13225SOL     OW41633   4.763   8.546   0.696
13225SOL    HW141634   4.693   8.499   0.750
13225SOL    HW241635   4.822   8.478   0.653
13226SOL     OW41636   4.738   7.684   0.971
13226SOL    HW141637   4.730   7.648   0.878
13226SOL    HW241638   4.736   7.608   1.036
13227SOL     OW41639   5.433   7.833   1.381
13227SOL    HW141640   5.506   7.902   1.385
13227SOL    HW241641   5.461   7.758   1.322
13228SOL     OW41642   3.979   8.796   0.290
13228SOL    HW141643   3.883   8.797   0.263
13228SOL    HW241644   3.991   8.849   0.374
13229SOL     OW41645   3.829   8.461   1.726
13229SOL    HW141646   3.752   8.428   1.780
13229SOL    HW241647   3.914   8.431   1.768
13230SOL     OW41648   4.396   7.651   1.489
13230SOL    HW141649   4.486   7.635   1.449
13230SOL    HW241650   4.404   7.656   1.588
13231SOL     OW41651   5.164   8.304   1.398
13231SOL    HW141652   5.107   8.356   1.335
13231SOL    HW241653   5.260   8.316   1.374
13232SOL     OW41654   3.796   7.614   0.318
13232SOL    HW141655   3.779   7.697   0.264
13232SOL    HW241656   3.886   7.577   0.296
13233SOL     OW41657   4.907   8.783   0.119
13233SOL    HW141658   4.808   8.772   0.121
13233SOL    HW241659   4.941   8.798   0.212
13234SOL     OW41660   4.337   8.290   1.431
13234SOL    HW141661   4.393   8.371   1.414
13234SOL    HW241662   4.396   8.210   1.434
13235SOL     OW41663   4.440   8.013   1.708
13235SOL    HW141664   4.459   8.078   1.782
13235SOL    HW241665   4.500   7.933   1.717
13236SOL     OW41666   5.174   8.668   1.633
13236SOL    HW141667   5.165   8.658   1.732
13236SOL    HW241668   5.270   8.661   1.607
13237SOL     OW41669   5.398   8.331   1.254
13237SOL    HW141670   5.371   8.242   1.217
13237SOL    HW241671   5.399   8.399   1.181
13238SOL     OW41672   4.949   7.773   0.449
13238SOL    HW141673   5.014   7.699   0.438
13238SOL    HW241674   4.969   7.823   0.533
13239SOL     OW41675   4.318   8.193   0.652
13239SOL    HW141676   4.368   8.278   0.633
13239SOL    HW241677   4.230   8.195   0.604
13240SOL     OW41678   5.501   7.790   1.642
13240SOL    HW141679   5.484   7.821   1.548
13240SOL    HW241680   5.417   7.753   1.680
13241SOL     OW41681   5.454   8.382   1.517
13241SOL    HW141682   5.492   8.473   1.532
13241SOL    HW241683   5.446   8.365   1.418
13242SOL     OW41684   4.583   8.822   0.016
13242SOL    HW141685   4.537   8.837   0.104
13242SOL    HW241686   4.627   8.907  -0.014
13243SOL     OW41687   4.583   8.404   0.861
13243SOL    HW141688   4.637   8.335   0.909
13243SOL    HW241689   4.551   8.473   0.927
13244SOL     OW41690   4.807   8.432   0.087
13244SOL    HW141691   4.784   8.485   0.005
13244SOL    HW241692   4.888   8.376   0.068
13245SOL     OW41693   3.945   8.762   1.844
13245SOL    HW141694   3.880   8.689   1.823
13245SOL    HW241695   3.949   8.776   1.942
13246SOL     OW41696   3.803   8.688   0.653
13246SOL    HW141697   3.802   8.641   0.741
13246SOL    HW241698   3.885   8.660   0.602
13247SOL     OW41699   4.396   8.839   1.624
13247SOL    HW141700   4.318   8.789   1.662
13247SOL    HW241701   4.393   8.934   1.655
13248SOL     OW41702   5.548   7.640   1.227
13248SOL    HW141703   5.544   7.550   1.271
13248SOL    HW241704   5.551   7.629   1.128
13249SOL     OW41705   4.152   7.872   0.520
13249SOL    HW141706   4.182   7.800   0.458
13249SOL    HW241707   4.113   7.832   0.603
13250SOL     OW41708   5.429   8.935   1.104
13250SOL    HW141709   5.336   8.910   1.077
13250SOL    HW241710   5.455   8.885   1.186
13251SOL     OW41711   4.041   7.995   1.280
13251SOL    HW141712   4.079   7.936   1.352
13251SOL    HW241713   4.081   7.969   1.192
13252SOL     OW41714   5.148   7.662   1.112
13252SOL    HW141715   5.200   7.597   1.167
13252SOL    HW241716   5.099   7.725   1.173
13253SOL     OW41717   4.725   7.482   1.154
13253SOL    HW141718   4.662   7.410   1.123
13253SOL    HW241719   4.818   7.446   1.154
13254SOL     OW41720   4.494   8.778   0.301
13254SOL    HW141721   4.448   8.691   0.318
13254SOL    HW241722   4.585   8.775   0.342
13255SOL     OW41723   4.342   0.015   1.284
13255SOL    HW141724   4.337   0.097   1.341
13255SOL    HW241725   4.431   0.012   1.239
13256SOL     OW41726   5.024   7.901   0.691
13256SOL    HW141727   4.965   7.981   0.695
13256SOL    HW241728   5.039   7.866   0.784
13257SOL     OW41729   5.317   7.669   0.882
13257SOL    HW141730   5.233   7.668   0.936
13257SOL    HW241731   5.319   7.752   0.826
13258SOL     OW41732   3.763   8.525   0.300
13258SOL    HW141733   3.862   8.514   0.291
13258SOL    HW241734   3.723   8.439   0.332
13259SOL     OW41735   3.954   8.076   1.975
13259SOL    HW141736   3.861   8.074   2.012
13259SOL    HW241737   3.955   8.037   1.883
13260SOL     OW41738   3.949   7.723   2.858
13260SOL    HW141739   3.984   7.706   2.950
13260SOL    HW241740   3.861   7.678   2.846
13261SOL     OW41741   3.743   7.816   2.509
13261SOL    HW141742   3.661   7.859   2.548
13261SOL    HW241743   3.715   7.743   2.446
13262SOL     OW41744   4.293   8.723   3.027
13262SOL    HW141745   4.200   8.716   2.990
13262SOL    HW241746   4.304   8.812   3.071
13263SOL     OW41747   5.279   8.959   2.565
13263SOL    HW141748   5.222   8.943   2.646
13263SOL    HW241749   5.220   8.969   2.485
13264SOL     OW41750   5.467   8.066   2.718
13264SOL    HW141751   5.500   8.160   2.718
13264SOL    HW241752   5.518   8.012   2.784
13265SOL     OW41753   4.859   8.151   2.579
13265SOL    HW141754   4.916   8.229   2.554
13265SOL    HW241755   4.799   8.177   2.655
13266SOL     OW41756   5.479   8.055   2.093
13266SOL    HW141757   5.467   8.042   1.994
13266SOL    HW241758   5.449   7.974   2.142
13267SOL     OW41759   4.492   8.592   2.885
13267SOL    HW141760   4.414   8.609   2.945
13267SOL    HW241761   4.526   8.679   2.849
13268SOL     OW41762   4.574   8.246   3.685
13268SOL    HW141763   4.570   8.322   3.750
13268SOL    HW241764   4.596   8.282   3.594
13269SOL     OW41765   4.409   8.460   2.527
13269SOL    HW141766   4.478   8.444   2.597
13269SOL    HW241767   4.336   8.517   2.565
13270SOL     OW41768   4.410   8.609   3.665
13270SOL    HW141769   4.470   8.688   3.679
13270SOL    HW241770   4.324   8.640   3.624
13271SOL     OW41771   4.059   8.883   2.923
13271SOL    HW141772   3.981   8.852   2.870
13271SOL    HW241773   4.117   8.941   2.866
13272SOL     OW41774   5.184   8.953   3.201
13272SOL    HW141775   5.208   9.047   3.227
13272SOL    HW241776   5.168   8.899   3.283
13273SOL     OW41777   4.162   7.840   3.361
13273SOL    HW141778   4.244   7.784   3.370
13273SOL    HW241779   4.081   7.782   3.365
13274SOL     OW41780   5.327   7.895   2.599
13274SOL    HW141781   5.253   7.941   2.549
13274SOL    HW241782   5.378   7.963   2.652
13275SOL     OW41783   3.955   0.161   2.345
13275SOL    HW141784   3.989   0.238   2.399
13275SOL    HW241785   3.999   0.161   2.255
13276SOL     OW41786   4.851   8.789   3.552
13276SOL    HW141787   4.898   8.789   3.640
13276SOL    HW241788   4.803   8.702   3.541
13277SOL     OW41789   3.954   8.882   2.400
13277SOL    HW141790   3.928   8.978   2.400
13277SOL    HW241791   3.883   8.828   2.445
13278SOL     OW41792   3.964   8.539   2.748
13278SOL    HW141793   3.978   8.455   2.800
13278SOL    HW241794   3.909   8.603   2.803
13279SOL     OW41795   4.330   8.412   1.985
13279SOL    HW141796   4.337   8.496   1.931
13279SOL    HW241797   4.376   8.425   2.073
13280SOL     OW41798   5.318   7.562   3.342
13280SOL    HW141799   5.300   7.629   3.270
13280SOL    HW241800   5.315   7.608   3.431
13281SOL     OW41801   3.846   8.091   2.425
13281SOL    HW141802   3.801   8.003   2.442
13281SOL    HW241803   3.845   8.145   2.509
13282SOL     OW41804   3.751   0.044   1.979
13282SOL    HW141805   3.732  -0.052   2.000
13282SOL    HW241806   3.718   0.102   2.054
13283SOL     OW41807   5.413   8.370   2.474
13283SOL    HW141808   5.508   8.341   2.482
13283SOL    HW241809   5.405   8.435   2.399
13284SOL     OW41810   5.365   8.556   2.294
13284SOL    HW141811   5.451   8.558   2.242
13284SOL    HW241812   5.379   8.603   2.382
13285SOL     OW41813   3.837   8.185   3.459
13285SOL    HW141814   3.925   8.172   3.504
13285SOL    HW241815   3.824   8.282   3.437
13286SOL     OW41816   4.337   8.813   2.588
13286SOL    HW141817   4.288   8.726   2.597
13286SOL    HW241818   4.314   8.856   2.501
13287SOL     OW41819   5.017   8.676   3.285
13287SOL    HW141820   5.054   8.603   3.227
13287SOL    HW241821   5.069   8.681   3.370
13288SOL     OW41822   4.533   7.452   2.364
13288SOL    HW141823   4.573   7.543   2.355
13288SOL    HW241824   4.433   7.460   2.370
13289SOL     OW41825   3.921   8.424   3.126
13289SOL    HW141826   4.010   8.379   3.112
13289SOL    HW241827   3.848   8.359   3.107
13290SOL     OW41828   5.249   8.447   2.052
13290SOL    HW141829   5.186   8.371   2.065
13290SOL    HW241830   5.297   8.465   2.138
13291SOL     OW41831   4.041   7.699   3.663
13291SOL    HW141832   4.112   7.770   3.669
13291SOL    HW241833   3.953   7.738   3.691
13292SOL     OW41834   5.190   8.865   2.815
13292SOL    HW141835   5.131   8.871   2.895
13292SOL    HW241836   5.175   8.777   2.769
13293SOL     OW41837   4.322   8.177   2.132
13293SOL    HW141838   4.346   8.246   2.064
13293SOL    HW241839   4.244   8.210   2.186
13294SOL     OW41840   5.005   7.793   2.806
13294SOL    HW141841   4.919   7.743   2.793
13294SOL    HW241842   5.067   7.739   2.862
13295SOL     OW41843   4.531   8.053   3.327
13295SOL    HW141844   4.484   8.050   3.416
13295SOL    HW241845   4.480   7.998   3.261
13296SOL     OW41846   5.118   7.917   3.536
13296SOL    HW141847   5.098   7.960   3.624
13296SOL    HW241848   5.196   7.855   3.545
13297SOL     OW41849   4.697   8.338   3.434
13297SOL    HW141850   4.743   8.254   3.405
13297SOL    HW241851   4.641   8.372   3.359
13298SOL     OW41852   4.715   7.858   3.104
13298SOL    HW141853   4.638   7.892   3.158
13298SOL    HW241854   4.681   7.807   3.025
13299SOL     OW41855   4.765   8.149   2.291
13299SOL    HW141856   4.791   8.145   2.387
13299SOL    HW241857   4.680   8.098   2.277
13300SOL     OW41858   3.800   8.259   2.651
13300SOL    HW141859   3.899   8.247   2.660
13300SOL    HW241860   3.776   8.354   2.672
13301SOL     OW41861   4.589   7.796   2.057
13301SOL    HW141862   4.648   7.859   2.008
13301SOL    HW241863   4.608   7.702   2.028
13302SOL     OW41864   5.443   8.033   3.693
13302SOL    HW141865   5.417   8.122   3.657
13302SOL    HW241866   5.441   7.965   3.620
13303SOL     OW41867   5.086   8.592   2.407
13303SOL    HW141868   5.169   8.563   2.359
13303SOL    HW241869   5.037   8.659   2.351
13304SOL     OW41870   4.274   7.644   2.747
13304SOL    HW141871   4.269   7.639   2.847
13304SOL    HW241872   4.276   7.740   2.718
13305SOL     OW41873   4.732   8.904   2.339
13305SOL    HW141874   4.686   8.976   2.287
13305SOL    HW241875   4.728   8.924   2.437
13306SOL     OW41876   5.519   8.514   2.735
13306SOL    HW141877   5.457   8.499   2.659
13306SOL    HW241878   5.467   8.525   2.820
13307SOL     OW41879   4.951   8.998   3.368
13307SOL    HW141880   4.957   8.921   3.432
13307SOL    HW241881   4.899   8.972   3.288
13308SOL     OW41882   4.045   8.391   2.104
13308SOL    HW141883   4.127   8.430   2.062
13308SOL    HW241884   4.018   8.309   2.055
13309SOL     OW41885   5.182   8.183   2.590
13309SOL    HW141886   5.177   8.118   2.665
13309SOL    HW241887   5.262   8.242   2.603
13310SOL     OW41888   4.185   8.714   3.589
13310SOL    HW141889   4.135   8.715   3.503
13310SOL    HW241890   4.122   8.696   3.665
13311SOL     OW41891   4.835   0.224   2.099
13311SOL    HW141892   4.775   0.162   2.149
13311SOL    HW241893   4.866   0.180   2.014
13312SOL     OW41894   3.926   7.733   3.360
13312SOL    HW141895   3.846   7.793   3.347
13312SOL    HW241896   3.916   7.684   3.446
13313SOL     OW41897   5.356   8.825   1.943
13313SOL    HW141898   5.324   8.919   1.933
13313SOL    HW241899   5.280   8.762   1.931
13314SOL     OW41900   5.124   7.555   2.288
13314SOL    HW141901   5.100   7.518   2.198
13314SOL    HW241902   5.223   7.571   2.292
13315SOL     OW41903   4.106   8.148   2.342
13315SOL    HW141904   4.151   8.058   2.339
13315SOL    HW241905   4.012   8.137   2.375
13316SOL     OW41906   5.271   7.670   3.591
13316SOL    HW141907   5.266   7.707   3.683
13316SOL    HW241908   5.199   7.601   3.579
13317SOL     OW41909   4.338   7.570   1.979
13317SOL    HW141910   4.436   7.548   1.986
13317SOL    HW241911   4.307   7.553   1.886
13318SOL     OW41912   4.505   7.712   3.611
13318SOL    HW141913   4.572   7.651   3.654
13318SOL    HW241914   4.432   7.731   3.676
13319SOL     OW41915   5.075   8.038   3.295
13319SOL    HW141916   5.103   7.995   3.380
13319SOL    HW241917   5.100   8.134   3.296
13320SOL     OW41918   4.527   8.850   2.786
13320SOL    HW141919   4.617   8.864   2.744
13320SOL    HW241920   4.456   8.852   2.715
13321SOL     OW41921   4.646   7.951   2.761
13321SOL    HW141922   4.621   7.942   2.665
13321SOL    HW241923   4.694   7.869   2.792
13322SOL     OW41924   4.263   7.512   2.374
13322SOL    HW141925   4.182   7.513   2.432
13322SOL    HW241926   4.266   7.595   2.319
13323SOL     OW41927   5.158   8.636   1.903
13323SOL    HW141928   5.190   8.560   1.960
13323SOL    HW241929   5.066   8.663   1.933
13324SOL     OW41930   4.021   7.483   2.033
13324SOL    HW141931   4.070   7.567   2.012
13324SOL    HW241932   4.083   7.418   2.078
13325SOL     OW41933   4.659   7.684   2.342
13325SOL    HW141934   4.611   7.725   2.264
13325SOL    HW241935   4.758   7.682   2.323
13326SOL     OW41936   4.800   8.131   3.326
13326SOL    HW141937   4.720   8.070   3.329
13326SOL    HW241938   4.881   8.078   3.302
13327SOL     OW41939   4.951   0.018   2.655
13327SOL    HW141940   4.972   0.092   2.590
13327SOL    HW241941   5.019   0.018   2.728
13328SOL     OW41942   4.183   8.600   2.603
13328SOL    HW141943   4.112   8.573   2.668
13328SOL    HW241944   4.157   8.572   2.510
13329SOL     OW41945   4.756   7.997   1.878
13329SOL    HW141946   4.715   8.079   1.839
13329SOL    HW241947   4.820   8.023   1.951
13330SOL     OW41948   3.802   8.004   3.248
13330SOL    HW141949   3.894   8.003   3.207
13330SOL    HW241950   3.796   8.078   3.315
13331SOL     OW41951   4.285   7.670   3.009
13331SOL    HW141952   4.323   7.586   3.046
13331SOL    HW241953   4.197   7.689   3.053
13332SOL     OW41954   4.590   7.902   2.504
13332SOL    HW141955   4.558   7.974   2.442
13332SOL    HW241956   4.614   7.821   2.451
13333SOL     OW41957   4.741   7.487   2.615
13333SOL    HW141958   4.669   7.492   2.546
13333SOL    HW241959   4.717   7.418   2.684
13334SOL     OW41960   5.153   8.621   2.729
13334SOL    HW141961   5.098   8.537   2.722
13334SOL    HW241962   5.179   8.650   2.637
13335SOL     OW41963   5.190   8.038   2.854
13335SOL    HW141964   5.160   7.943   2.861
13335SOL    HW241965   5.263   8.054   2.920
13336SOL     OW41966   5.581   8.281   2.239
13336SOL    HW141967   5.623   8.217   2.303
13336SOL    HW241968   5.543   8.230   2.161
13337SOL     OW41969   4.212   8.833   2.036
13337SOL    HW141970   4.125   8.818   2.083
13337SOL    HW241971   4.195   8.859   1.941
13338SOL     OW41972   5.388   8.728   2.519
13338SOL    HW141973   5.487   8.736   2.533
13338SOL    HW241974   5.343   8.812   2.550
13339SOL     OW41975   5.114   8.023   1.940
13339SOL    HW141976   5.060   8.002   2.021
13339SOL    HW241977   5.205   7.982   1.949
13340SOL     OW41978   4.251   7.704   2.190
13340SOL    HW141979   4.278   7.645   2.115
13340SOL    HW241980   4.251   7.799   2.159
13341SOL     OW41981   5.478   8.671   3.450
13341SOL    HW141982   5.569   8.632   3.437
13341SOL    HW241983   5.486   8.767   3.474
13342SOL     OW41984   4.788   8.795   3.202
13342SOL    HW141985   4.708   8.772   3.257
13342SOL    HW241986   4.871   8.769   3.251
13343SOL     OW41987   4.835   8.643   2.962
13343SOL    HW141988   4.795   8.687   3.043
13343SOL    HW241989   4.794   8.680   2.879
13344SOL     OW41990   5.362   8.547   2.941
13344SOL    HW141991   5.367   8.628   3.000
13344SOL    HW241992   5.276   8.549   2.890
13345SOL     OW41993   4.639   7.537   3.264
13345SOL    HW141994   4.664   7.517   3.169
13345SOL    HW241995   4.711   7.593   3.306
13346SOL     OW41996   4.704   8.564   3.581
13346SOL    HW141997   4.605   8.570   3.591
13346SOL    HW241998   4.727   8.484   3.525
13347SOL     OW41999   4.429   8.498   2.230
13347SOL    HW142000   4.415   8.505   2.329
13347SOL    HW242001   4.513   8.447   2.212
13348SOL     OW42002   4.134   8.261   3.113
13348SOL    HW142003   4.220   8.273   3.163
13348SOL    HW242004   4.092   8.174   3.140
13349SOL     OW42005   4.998   7.834   3.124
13349SOL    HW142006   5.019   7.908   3.188
13349SOL    HW242007   4.909   7.851   3.081
13350SOL     OW42008   4.091   8.548   2.363
13350SOL    HW142009   4.084   8.631   2.307
13350SOL    HW242010   4.095   8.468   2.303
13351SOL     OW42011   4.290   7.985   2.727
13351SOL    HW142012   4.302   8.051   2.653
13351SOL    HW242013   4.336   8.019   2.810
13352SOL     OW42014   4.976   8.796   2.250
13352SOL    HW142015   5.026   8.873   2.290
13352SOL    HW242016   4.881   8.798   2.282
13353SOL     OW42017   4.996   8.893   3.004
13353SOL    HW142018   5.043   8.906   3.091
13353SOL    HW242019   4.930   8.819   3.013
13354SOL     OW42020   5.306   8.087   2.334
13354SOL    HW142021   5.275   8.148   2.407
13354SOL    HW242022   5.356   8.139   2.265
13355SOL     OW42023   4.078   8.958   3.191
13355SOL    HW142024   4.057   8.914   3.104
13355SOL    HW242025   4.175   8.984   3.194
13356SOL     OW42026   4.126   8.199   3.460
13356SOL    HW142027   4.194   8.254   3.413
13356SOL    HW242028   4.166   8.111   3.487
13357SOL     OW42029   5.311   8.227   3.532
13357SOL    HW142030   5.219   8.265   3.527
13357SOL    HW242031   5.371   8.274   3.467
13358SOL     OW42032   4.737   7.553   3.632
13358SOL    HW142033   4.743   7.638   3.580
13358SOL    HW242034   4.769   7.477   3.575
13359SOL     OW42035   4.228   7.498   3.602
13359SOL    HW142036   4.186   7.441   3.532
13359SOL    HW242037   4.162   7.567   3.634
13360SOL     OW42038   4.297   8.318   2.891
13360SOL    HW142039   4.341   8.407   2.882
13360SOL    HW242040   4.234   8.318   2.968
13361SOL     OW42041   5.084   8.310   2.907
13361SOL    HW142042   5.009   8.310   2.841
13361SOL    HW242043   5.121   8.218   2.916
13362SOL     OW42044   4.933   7.973   2.137
13362SOL    HW142045   4.946   7.889   2.191
13362SOL    HW242046   4.904   8.047   2.197
13363SOL     OW42047   4.031   7.661   3.093
13363SOL    HW142048   4.008   7.698   3.183
13363SOL    HW242049   4.001   7.566   3.087
13364SOL     OW42050   3.761   8.758   3.144
13364SOL    HW142051   3.814   8.709   3.212
13364SOL    HW242052   3.783   8.856   3.149
13365SOL     OW42053   4.456   8.082   2.926
13365SOL    HW142054   4.515   8.056   2.850
13365SOL    HW242055   4.428   8.178   2.915
13366SOL     OW42056   5.452   8.383   3.716
13366SOL    HW142057   5.406   8.376   3.627
13366SOL    HW242058   5.390   8.427   3.782
13367SOL     OW42059   4.031   7.511   2.480
13367SOL    HW142060   4.020   7.605   2.513
13367SOL    HW242061   4.026   7.448   2.557
13368SOL     OW42062   5.346   7.815   2.236
13368SOL    HW142063   5.348   7.739   2.300
13368SOL    HW242064   5.298   7.892   2.276
13369SOL     OW42065   4.747   8.214   2.828
13369SOL    HW142066   4.762   8.235   2.924
13369SOL    HW242067   4.717   8.119   2.819
13370SOL     OW42068   5.583   8.966   3.467
13370SOL    HW142069   5.597   8.993   3.372
13370SOL    HW242070   5.666   8.988   3.520
13371SOL     OW42071   4.074   8.346   3.666
13371SOL    HW142072   4.150   8.390   3.714
13371SOL    HW242073   4.109   8.299   3.584
13372SOL     OW42074   5.264   7.722   1.987
13372SOL    HW142075   5.203   7.647   2.010
13372SOL    HW242076   5.286   7.774   2.070
13373SOL     OW42077   5.027   8.286   1.904
13373SOL    HW142078   5.061   8.193   1.919
13373SOL    HW242079   5.045   8.313   1.809
13374SOL     OW42080   4.792   8.781   2.711
13374SOL    HW142081   4.799   8.697   2.656
13374SOL    HW242082   4.854   8.850   2.675
13375SOL     OW42083   4.043   8.258   2.811
13375SOL    HW142084   4.136   8.294   2.816
13375SOL    HW242085   4.037   8.173   2.863
13376SOL     OW42086   4.063   7.957   2.868
13376SOL    HW142087   4.011   7.874   2.851
13376SOL    HW242088   4.140   7.962   2.804
13377SOL     OW42089   4.235   7.863   3.670
13377SOL    HW142090   4.217   7.908   3.758
13377SOL    HW242091   4.277   7.928   3.607
13378SOL     OW42092   4.862   7.828   3.540
13378SOL    HW142093   4.817   7.891   3.604
13378SOL    HW242094   4.955   7.859   3.523
13379SOL     OW42095   4.884   7.655   3.339
13379SOL    HW142096   4.884   7.719   3.416
13379SOL    HW242097   4.912   7.703   3.256
13380SOL     OW42098   3.732   8.774   2.062
13380SOL    HW142099   3.639   8.795   2.031
13380SOL    HW242100   3.742   8.675   2.075
13381SOL     OW42101   4.726   8.244   3.100
13381SOL    HW142102   4.767   8.212   3.186
13381SOL    HW242103   4.630   8.217   3.097
13382SOL     OW42104   3.764   7.992   2.976
13382SOL    HW142105   3.849   7.959   2.935
13382SOL    HW242106   3.777   8.007   3.074
13383SOL     OW42107   3.913   7.968   3.584
13383SOL    HW142108   3.972   7.928   3.514
13383SOL    HW242109   3.855   8.039   3.543
13384SOL     OW42110   5.093   8.398   3.522
13384SOL    HW142111   5.132   8.487   3.542
13384SOL    HW242112   5.103   8.378   3.425
13385SOL     OW42113   4.539   8.020   2.187
13385SOL    HW142114   4.546   7.931   2.141
13385SOL    HW242115   4.445   8.054   2.179
13386SOL     OW42116   5.381   8.052   3.068
13386SOL    HW142117   5.343   7.983   3.130
13386SOL    HW242118   5.463   8.016   3.024
13387SOL     OW42119   3.976   0.012   3.606
13387SOL    HW142120   3.946   0.069   3.682
13387SOL    HW242121   3.969  -0.085   3.632
13388SOL     OW42122   4.395   7.912   3.131
13388SOL    HW142123   4.361   7.823   3.101
13388SOL    HW242124   4.421   7.966   3.051
13389SOL     OW42125   4.197   7.948   2.053
13389SOL    HW142126   4.258   8.028   2.057
13389SOL    HW242127   4.102   7.979   2.060
13390SOL     OW42128   3.883   8.585   3.328
13390SOL    HW142129   3.905   8.524   3.404
13390SOL    HW242130   3.893   8.536   3.242
13391SOL     OW42131   5.071   8.507   3.096
13391SOL    HW142132   5.095   8.444   3.022
13391SOL    HW242133   4.981   8.547   3.078
13392SOL     OW42134   5.026   8.303   2.171
13392SOL    HW142135   4.940   8.272   2.213
13392SOL    HW242136   5.022   8.289   2.072
13393SOL     OW42137   3.807   8.706   2.884
13393SOL    HW142138   3.802   8.705   2.984
13393SOL    HW242139   3.724   8.665   2.846
13394SOL     OW42140   4.627   7.534   1.995
13394SOL    HW142141   4.678   7.535   1.909
13394SOL    HW242142   4.683   7.492   2.066
13395SOL     OW42143   5.450   7.583   2.385
13395SOL    HW142144   5.523   7.566   2.318
13395SOL    HW242145   5.419   7.496   2.423
13396SOL     OW42146   5.004   8.375   2.534
13396SOL    HW142147   5.064   8.294   2.536
13396SOL    HW242148   5.044   8.444   2.474
13397SOL     OW42149   4.554   8.721   3.284
13397SOL    HW142150   4.549   8.754   3.379
13397SOL    HW242151   4.468   8.740   3.238
13398SOL     OW42152   5.565   7.623   2.825
13398SOL    HW142153   5.604   7.538   2.789
13398SOL    HW242154   5.467   7.625   2.806
13399SOL     OW42155   3.987   7.774   2.582
13399SOL    HW142156   3.908   7.825   2.548
13399SOL    HW242157   3.978   7.759   2.680
13400SOL     OW42158   4.546   8.450   3.234
13400SOL    HW142159   4.586   8.449   3.142
13400SOL    HW242160   4.556   8.542   3.274
13401SOL     OW42161   4.640   8.358   2.153
13401SOL    HW142162   4.703   8.396   2.085
13401SOL    HW242163   4.680   8.275   2.192
13402SOL     OW42164   4.096   8.736   3.352
13402SOL    HW142165   4.083   8.829   3.318
13402SOL    HW242166   4.012   8.684   3.339
13403SOL     OW42167   5.338   8.740   3.151
13403SOL    HW142168   5.398   8.743   3.231
13403SOL    HW242169   5.263   8.804   3.164
13404SOL     OW42170   4.763   8.546   2.558
13404SOL    HW142171   4.693   8.499   2.612
13404SOL    HW242172   4.822   8.478   2.515
13405SOL     OW42173   4.738   7.684   2.833
13405SOL    HW142174   4.730   7.648   2.740
13405SOL    HW242175   4.736   7.608   2.898
13406SOL     OW42176   5.433   7.833   3.243
13406SOL    HW142177   5.506   7.902   3.247
13406SOL    HW242178   5.461   7.758   3.184
13407SOL     OW42179   3.979   8.796   2.152
13407SOL    HW142180   3.883   8.797   2.125
13407SOL    HW242181   3.991   8.849   2.236
13408SOL     OW42182   3.829   8.461   3.588
13408SOL    HW142183   3.752   8.428   3.642
13408SOL    HW242184   3.914   8.431   3.630
13409SOL     OW42185   4.396   7.651   3.351
13409SOL    HW142186   4.486   7.635   3.311
13409SOL    HW242187   4.404   7.656   3.450
13410SOL     OW42188   3.799   7.793   1.895
13410SOL    HW142189   3.707   7.765   1.866
13410SOL    HW242190   3.830   7.870   1.839
13411SOL     OW42191   5.164   8.304   3.260
13411SOL    HW142192   5.107   8.356   3.197
13411SOL    HW242193   5.260   8.316   3.236
13412SOL     OW42194   3.796   7.614   2.180
13412SOL    HW142195   3.779   7.697   2.126
13412SOL    HW242196   3.886   7.577   2.158
13413SOL     OW42197   4.907   8.783   1.981
13413SOL    HW142198   4.808   8.772   1.983
13413SOL    HW242199   4.941   8.798   2.074
13414SOL     OW42200   4.337   8.290   3.293
13414SOL    HW142201   4.393   8.371   3.276
13414SOL    HW242202   4.396   8.210   3.296
13415SOL     OW42203   4.440   8.013   3.570
13415SOL    HW142204   4.459   8.078   3.644
13415SOL    HW242205   4.500   7.933   3.579
13416SOL     OW42206   5.174   8.668   3.495
13416SOL    HW142207   5.165   8.658   3.594
13416SOL    HW242208   5.270   8.661   3.469
13417SOL     OW42209   5.398   8.331   3.116
13417SOL    HW142210   5.371   8.242   3.079
13417SOL    HW242211   5.399   8.399   3.043
13418SOL     OW42212   4.949   7.773   2.311
13418SOL    HW142213   5.014   7.699   2.300
13418SOL    HW242214   4.969   7.823   2.395
13419SOL     OW42215   4.318   8.193   2.514
13419SOL    HW142216   4.368   8.278   2.495
13419SOL    HW242217   4.230   8.195   2.466
13420SOL     OW42218   5.501   7.790   3.504
13420SOL    HW142219   5.484   7.821   3.410
13420SOL    HW242220   5.417   7.753   3.542
13421SOL     OW42221   5.454   8.382   3.379
13421SOL    HW142222   5.492   8.473   3.394
13421SOL    HW242223   5.446   8.365   3.280
13422SOL     OW42224   4.583   8.822   1.878
13422SOL    HW142225   4.537   8.837   1.966
13422SOL    HW242226   4.627   8.907   1.848
13423SOL     OW42227   4.583   8.404   2.723
13423SOL    HW142228   4.637   8.335   2.771
13423SOL    HW242229   4.551   8.473   2.789
13424SOL     OW42230   4.807   8.432   1.949
13424SOL    HW142231   4.784   8.485   1.867
13424SOL    HW242232   4.888   8.376   1.930
13425SOL     OW42233   3.945   8.762   3.706
13425SOL    HW142234   3.880   8.689   3.685
13425SOL    HW242235   3.949   8.776   3.804
13426SOL     OW42236   3.803   8.688   2.515
13426SOL    HW142237   3.802   8.641   2.603
13426SOL    HW242238   3.885   8.660   2.464
13427SOL     OW42239   4.396   8.839   3.486
13427SOL    HW142240   4.318   8.789   3.524
13427SOL    HW242241   4.393   8.934   3.517
13428SOL     OW42242   5.548   7.640   3.089
13428SOL    HW142243   5.544   7.550   3.133
13428SOL    HW242244   5.551   7.629   2.990
13429SOL     OW42245   4.152   7.872   2.382
13429SOL    HW142246   4.182   7.800   2.320
13429SOL    HW242247   4.113   7.832   2.465
13430SOL     OW42248   5.429   8.935   2.966
13430SOL    HW142249   5.336   8.910   2.939
13430SOL    HW242250   5.455   8.885   3.048
13431SOL     OW42251   4.041   7.995   3.142
13431SOL    HW142252   4.079   7.936   3.214
13431SOL    HW242253   4.081   7.969   3.054
13432SOL     OW42254   5.148   7.662   2.974
13432SOL    HW142255   5.200   7.597   3.029
13432SOL    HW242256   5.099   7.725   3.035
13433SOL     OW42257   4.725   7.482   3.016
13433SOL    HW142258   4.662   7.410   2.985
13433SOL    HW242259   4.818   7.446   3.016
13434SOL     OW42260   4.494   8.778   2.163
13434SOL    HW142261   4.448   8.691   2.180
13434SOL    HW242262   4.585   8.775   2.204
13435SOL     OW42263   4.342   0.015   3.146
13435SOL    HW142264   4.337   0.097   3.203
13435SOL    HW242265   4.431   0.012   3.101
13436SOL     OW42266   5.076   7.500   2.030
13436SOL    HW142267   5.111   7.459   1.946
13436SOL    HW242268   4.986   7.462   2.050
13437SOL     OW42269   5.024   7.901   2.553
13437SOL    HW142270   4.965   7.981   2.557
13437SOL    HW242271   5.039   7.866   2.646
13438SOL     OW42272   5.317   7.669   2.744
13438SOL    HW142273   5.233   7.668   2.798
13438SOL    HW242274   5.319   7.752   2.688
13439SOL     OW42275   3.763   8.525   2.162
13439SOL    HW142276   3.862   8.514   2.153
13439SOL    HW242277   3.723   8.439   2.194
13440SOL     OW42278   3.954   8.076   3.837
13440SOL    HW142279   3.861   8.074   3.874
13440SOL    HW242280   3.955   8.037   3.745
13441SOL     OW42281   3.949   7.723   4.720
13441SOL    HW142282   3.984   7.706   4.812
13441SOL    HW242283   3.861   7.678   4.708
13442SOL     OW42284   3.743   7.816   4.371
13442SOL    HW142285   3.661   7.859   4.410
13442SOL    HW242286   3.715   7.743   4.308
13443SOL     OW42287   4.293   8.723   4.889
13443SOL    HW142288   4.200   8.716   4.852
13443SOL    HW242289   4.304   8.812   4.933
13444SOL     OW42290   5.279   8.959   4.427
13444SOL    HW142291   5.222   8.943   4.508
13444SOL    HW242292   5.220   8.969   4.347
13445SOL     OW42293   5.467   8.066   4.580
13445SOL    HW142294   5.500   8.160   4.580
13445SOL    HW242295   5.518   8.012   4.646
13446SOL     OW42296   4.859   8.151   4.441
13446SOL    HW142297   4.916   8.229   4.416
13446SOL    HW242298   4.799   8.177   4.517
13447SOL     OW42299   5.479   8.055   3.955
13447SOL    HW142300   5.467   8.042   3.856
13447SOL    HW242301   5.449   7.974   4.004
13448SOL     OW42302   4.492   8.592   4.747
13448SOL    HW142303   4.414   8.609   4.807
13448SOL    HW242304   4.526   8.679   4.711
13449SOL     OW42305   4.574   8.246   5.547
13449SOL    HW142306   4.570   8.322   5.612
13449SOL    HW242307   4.596   8.282   5.456
13450SOL     OW42308   4.409   8.460   4.389
13450SOL    HW142309   4.478   8.444   4.459
13450SOL    HW242310   4.336   8.517   4.427
13451SOL     OW42311   4.410   8.609   5.527
13451SOL    HW142312   4.470   8.688   5.541
13451SOL    HW242313   4.324   8.640   5.486
13452SOL     OW42314   4.059   8.883   4.785
13452SOL    HW142315   3.981   8.852   4.732
13452SOL    HW242316   4.117   8.941   4.728
13453SOL     OW42317   5.184   8.953   5.063
13453SOL    HW142318   5.208   9.047   5.089
13453SOL    HW242319   5.168   8.899   5.145
13454SOL     OW42320   4.162   7.840   5.223
13454SOL    HW142321   4.244   7.784   5.232
13454SOL    HW242322   4.081   7.782   5.227
13455SOL     OW42323   5.327   7.895   4.461
13455SOL    HW142324   5.253   7.941   4.411
13455SOL    HW242325   5.378   7.963   4.514
13456SOL     OW42326   3.955   0.161   4.207
13456SOL    HW142327   3.989   0.238   4.261
13456SOL    HW242328   3.999   0.161   4.117
13457SOL     OW42329   4.851   8.789   5.414
13457SOL    HW142330   4.898   8.789   5.502
13457SOL    HW242331   4.803   8.702   5.403
13458SOL     OW42332   3.954   8.882   4.262
13458SOL    HW142333   3.928   8.978   4.262
13458SOL    HW242334   3.883   8.828   4.307
13459SOL     OW42335   3.964   8.539   4.610
13459SOL    HW142336   3.978   8.455   4.662
13459SOL    HW242337   3.909   8.603   4.665
13460SOL     OW42338   4.330   8.412   3.847
13460SOL    HW142339   4.337   8.496   3.793
13460SOL    HW242340   4.376   8.425   3.935
13461SOL     OW42341   5.318   7.562   5.204
13461SOL    HW142342   5.300   7.629   5.132
13461SOL    HW242343   5.315   7.608   5.293
13462SOL     OW42344   3.846   8.091   4.287
13462SOL    HW142345   3.801   8.003   4.304
13462SOL    HW242346   3.845   8.145   4.371
13463SOL     OW42347   3.751   0.044   3.841
13463SOL    HW142348   3.732  -0.052   3.862
13463SOL    HW242349   3.718   0.102   3.916
13464SOL     OW42350   5.413   8.370   4.336
13464SOL    HW142351   5.508   8.341   4.344
13464SOL    HW242352   5.405   8.435   4.261
13465SOL     OW42353   5.365   8.556   4.156
13465SOL    HW142354   5.451   8.558   4.104
13465SOL    HW242355   5.379   8.603   4.244
13466SOL     OW42356   3.837   8.185   5.321
13466SOL    HW142357   3.925   8.172   5.366
13466SOL    HW242358   3.824   8.282   5.299
13467SOL     OW42359   4.337   8.813   4.450
13467SOL    HW142360   4.288   8.726   4.459
13467SOL    HW242361   4.314   8.856   4.363
13468SOL     OW42362   5.017   8.676   5.147
13468SOL    HW142363   5.054   8.603   5.089
13468SOL    HW242364   5.069   8.681   5.232
13469SOL     OW42365   4.533   7.452   4.226
13469SOL    HW142366   4.573   7.543   4.217
13469SOL    HW242367   4.433   7.460   4.232
13470SOL     OW42368   3.921   8.424   4.988
13470SOL    HW142369   4.010   8.379   4.974
13470SOL    HW242370   3.848   8.359   4.969
13471SOL     OW42371   5.249   8.447   3.914
13471SOL    HW142372   5.186   8.371   3.927
13471SOL    HW242373   5.297   8.465   4.000
13472SOL     OW42374   4.041   7.699   5.525
13472SOL    HW142375   4.112   7.770   5.531
13472SOL    HW242376   3.953   7.738   5.553
13473SOL     OW42377   5.190   8.865   4.677
13473SOL    HW142378   5.131   8.871   4.757
13473SOL    HW242379   5.175   8.777   4.631
13474SOL     OW42380   4.322   8.177   3.994
13474SOL    HW142381   4.346   8.246   3.926
13474SOL    HW242382   4.244   8.210   4.048
13475SOL     OW42383   5.005   7.793   4.668
13475SOL    HW142384   4.919   7.743   4.655
13475SOL    HW242385   5.067   7.739   4.724
13476SOL     OW42386   4.531   8.053   5.189
13476SOL    HW142387   4.484   8.050   5.278
13476SOL    HW242388   4.480   7.998   5.123
13477SOL     OW42389   5.118   7.917   5.398
13477SOL    HW142390   5.098   7.960   5.486
13477SOL    HW242391   5.196   7.855   5.407
13478SOL     OW42392   4.697   8.338   5.296
13478SOL    HW142393   4.743   8.254   5.267
13478SOL    HW242394   4.641   8.372   5.221
13479SOL     OW42395   4.715   7.858   4.966
13479SOL    HW142396   4.638   7.892   5.020
13479SOL    HW242397   4.681   7.807   4.887
13480SOL     OW42398   4.765   8.149   4.153
13480SOL    HW142399   4.791   8.145   4.249
13480SOL    HW242400   4.680   8.098   4.139
13481SOL     OW42401   3.800   8.259   4.513
13481SOL    HW142402   3.899   8.247   4.522
13481SOL    HW242403   3.776   8.354   4.534
13482SOL     OW42404   4.589   7.796   3.919
13482SOL    HW142405   4.648   7.859   3.870
13482SOL    HW242406   4.608   7.702   3.890
13483SOL     OW42407   5.443   8.033   5.555
13483SOL    HW142408   5.417   8.122   5.519
13483SOL    HW242409   5.441   7.965   5.482
13484SOL     OW42410   5.086   8.592   4.269
13484SOL    HW142411   5.169   8.563   4.221
13484SOL    HW242412   5.037   8.659   4.213
13485SOL     OW42413   4.274   7.644   4.609
13485SOL    HW142414   4.269   7.639   4.709
13485SOL    HW242415   4.276   7.740   4.580
13486SOL     OW42416   4.732   8.904   4.201
13486SOL    HW142417   4.686   8.976   4.149
13486SOL    HW242418   4.728   8.924   4.299
13487SOL     OW42419   5.519   8.514   4.597
13487SOL    HW142420   5.457   8.499   4.521
13487SOL    HW242421   5.467   8.525   4.682
13488SOL     OW42422   4.951   8.998   5.230
13488SOL    HW142423   4.957   8.921   5.294
13488SOL    HW242424   4.899   8.972   5.150
13489SOL     OW42425   4.045   8.391   3.966
13489SOL    HW142426   4.127   8.430   3.924
13489SOL    HW242427   4.018   8.309   3.917
13490SOL     OW42428   5.182   8.183   4.452
13490SOL    HW142429   5.177   8.118   4.527
13490SOL    HW242430   5.262   8.242   4.465
13491SOL     OW42431   4.185   8.714   5.451
13491SOL    HW142432   4.135   8.715   5.365
13491SOL    HW242433   4.122   8.696   5.527
13492SOL     OW42434   4.835   0.224   3.961
13492SOL    HW142435   4.775   0.162   4.011
13492SOL    HW242436   4.866   0.180   3.876
13493SOL     OW42437   3.926   7.733   5.222
13493SOL    HW142438   3.846   7.793   5.209
13493SOL    HW242439   3.916   7.684   5.308
13494SOL     OW42440   5.356   8.825   3.805
13494SOL    HW142441   5.324   8.919   3.795
13494SOL    HW242442   5.280   8.762   3.793
13495SOL     OW42443   5.124   7.555   4.150
13495SOL    HW142444   5.100   7.518   4.060
13495SOL    HW242445   5.223   7.571   4.154
13496SOL     OW42446   4.106   8.148   4.204
13496SOL    HW142447   4.151   8.058   4.201
13496SOL    HW242448   4.012   8.137   4.237
13497SOL     OW42449   5.271   7.670   5.453
13497SOL    HW142450   5.266   7.707   5.545
13497SOL    HW242451   5.199   7.601   5.441
13498SOL     OW42452   4.338   7.570   3.841
13498SOL    HW142453   4.436   7.548   3.848
13498SOL    HW242454   4.307   7.553   3.748
13499SOL     OW42455   4.505   7.712   5.473
13499SOL    HW142456   4.572   7.651   5.516
13499SOL    HW242457   4.432   7.731   5.538
13500SOL     OW42458   5.075   8.038   5.157
13500SOL    HW142459   5.103   7.995   5.242
13500SOL    HW242460   5.100   8.134   5.158
13501SOL     OW42461   4.527   8.850   4.648
13501SOL    HW142462   4.617   8.864   4.606
13501SOL    HW242463   4.456   8.852   4.577
13502SOL     OW42464   4.646   7.951   4.623
13502SOL    HW142465   4.621   7.942   4.527
13502SOL    HW242466   4.694   7.869   4.654
13503SOL     OW42467   4.263   7.512   4.236
13503SOL    HW142468   4.182   7.513   4.294
13503SOL    HW242469   4.266   7.595   4.181
13504SOL     OW42470   5.158   8.636   3.765
13504SOL    HW142471   5.190   8.560   3.822
13504SOL    HW242472   5.066   8.663   3.795
13505SOL     OW42473   4.021   7.483   3.895
13505SOL    HW142474   4.070   7.567   3.874
13505SOL    HW242475   4.083   7.418   3.940
13506SOL     OW42476   4.659   7.684   4.204
13506SOL    HW142477   4.611   7.725   4.126
13506SOL    HW242478   4.758   7.682   4.185
13507SOL     OW42479   4.800   8.131   5.188
13507SOL    HW142480   4.720   8.070   5.191
13507SOL    HW242481   4.881   8.078   5.164
13508SOL     OW42482   4.951   0.018   4.517
13508SOL    HW142483   4.972   0.092   4.452
13508SOL    HW242484   5.019   0.018   4.590
13509SOL     OW42485   4.183   8.600   4.465
13509SOL    HW142486   4.112   8.573   4.530
13509SOL    HW242487   4.157   8.572   4.372
13510SOL     OW42488   4.756   7.997   3.740
13510SOL    HW142489   4.715   8.079   3.701
13510SOL    HW242490   4.820   8.023   3.813
13511SOL     OW42491   3.802   8.004   5.110
13511SOL    HW142492   3.894   8.003   5.069
13511SOL    HW242493   3.796   8.078   5.177
13512SOL     OW42494   4.285   7.670   4.871
13512SOL    HW142495   4.323   7.586   4.908
13512SOL    HW242496   4.197   7.689   4.915
13513SOL     OW42497   4.590   7.902   4.366
13513SOL    HW142498   4.558   7.974   4.304
13513SOL    HW242499   4.614   7.821   4.313
13514SOL     OW42500   4.741   7.487   4.477
13514SOL    HW142501   4.669   7.492   4.408
13514SOL    HW242502   4.717   7.418   4.546
13515SOL     OW42503   5.153   8.621   4.591
13515SOL    HW142504   5.098   8.537   4.584
13515SOL    HW242505   5.179   8.650   4.499
13516SOL     OW42506   5.190   8.038   4.716
13516SOL    HW142507   5.160   7.943   4.723
13516SOL    HW242508   5.263   8.054   4.782
13517SOL     OW42509   5.581   8.281   4.101
13517SOL    HW142510   5.623   8.217   4.165
13517SOL    HW242511   5.543   8.230   4.023
13518SOL     OW42512   4.212   8.833   3.898
13518SOL    HW142513   4.125   8.818   3.945
13518SOL    HW242514   4.195   8.859   3.803
13519SOL     OW42515   5.388   8.728   4.381
13519SOL    HW142516   5.487   8.736   4.395
13519SOL    HW242517   5.343   8.812   4.412
13520SOL     OW42518   5.114   8.023   3.802
13520SOL    HW142519   5.060   8.002   3.883
13520SOL    HW242520   5.205   7.982   3.811
13521SOL     OW42521   4.251   7.704   4.052
13521SOL    HW142522   4.278   7.645   3.977
13521SOL    HW242523   4.251   7.799   4.021
13522SOL     OW42524   5.478   8.671   5.312
13522SOL    HW142525   5.569   8.632   5.299
13522SOL    HW242526   5.486   8.767   5.336
13523SOL     OW42527   4.788   8.795   5.064
13523SOL    HW142528   4.708   8.772   5.119
13523SOL    HW242529   4.871   8.769   5.113
13524SOL     OW42530   4.835   8.643   4.824
13524SOL    HW142531   4.795   8.687   4.905
13524SOL    HW242532   4.794   8.680   4.741
13525SOL     OW42533   5.362   8.547   4.803
13525SOL    HW142534   5.367   8.628   4.862
13525SOL    HW242535   5.276   8.549   4.752
13526SOL     OW42536   4.639   7.537   5.126
13526SOL    HW142537   4.664   7.517   5.031
13526SOL    HW242538   4.711   7.593   5.168
13527SOL     OW42539   4.704   8.564   5.443
13527SOL    HW142540   4.605   8.570   5.453
13527SOL    HW242541   4.727   8.484   5.387
13528SOL     OW42542   4.429   8.498   4.092
13528SOL    HW142543   4.415   8.505   4.191
13528SOL    HW242544   4.513   8.447   4.074
13529SOL     OW42545   4.134   8.261   4.975
13529SOL    HW142546   4.220   8.273   5.025
13529SOL    HW242547   4.092   8.174   5.002
13530SOL     OW42548   4.998   7.834   4.986
13530SOL    HW142549   5.019   7.908   5.050
13530SOL    HW242550   4.909   7.851   4.943
13531SOL     OW42551   4.091   8.548   4.225
13531SOL    HW142552   4.084   8.631   4.169
13531SOL    HW242553   4.095   8.468   4.165
13532SOL     OW42554   4.290   7.985   4.589
13532SOL    HW142555   4.302   8.051   4.515
13532SOL    HW242556   4.336   8.019   4.672
13533SOL     OW42557   4.976   8.796   4.112
13533SOL    HW142558   5.026   8.873   4.152
13533SOL    HW242559   4.881   8.798   4.144
13534SOL     OW42560   4.996   8.893   4.866
13534SOL    HW142561   5.043   8.906   4.953
13534SOL    HW242562   4.930   8.819   4.875
13535SOL     OW42563   5.306   8.087   4.196
13535SOL    HW142564   5.275   8.148   4.269
13535SOL    HW242565   5.356   8.139   4.127
13536SOL     OW42566   4.078   8.958   5.053
13536SOL    HW142567   4.057   8.914   4.966
13536SOL    HW242568   4.175   8.984   5.056
13537SOL     OW42569   4.126   8.199   5.322
13537SOL    HW142570   4.194   8.254   5.275
13537SOL    HW242571   4.166   8.111   5.349
13538SOL     OW42572   5.311   8.227   5.394
13538SOL    HW142573   5.219   8.265   5.389
13538SOL    HW242574   5.371   8.274   5.329
13539SOL     OW42575   4.737   7.553   5.494
13539SOL    HW142576   4.743   7.638   5.442
13539SOL    HW242577   4.769   7.477   5.437
13540SOL     OW42578   4.228   7.498   5.464
13540SOL    HW142579   4.186   7.441   5.394
13540SOL    HW242580   4.162   7.567   5.496
13541SOL     OW42581   4.297   8.318   4.753
13541SOL    HW142582   4.341   8.407   4.744
13541SOL    HW242583   4.234   8.318   4.830
13542SOL     OW42584   5.084   8.310   4.769
13542SOL    HW142585   5.009   8.310   4.703
13542SOL    HW242586   5.121   8.218   4.778
13543SOL     OW42587   4.933   7.973   3.999
13543SOL    HW142588   4.946   7.889   4.053
13543SOL    HW242589   4.904   8.047   4.059
13544SOL     OW42590   4.031   7.661   4.955
13544SOL    HW142591   4.008   7.698   5.045
13544SOL    HW242592   4.001   7.566   4.949
13545SOL     OW42593   3.761   8.758   5.006
13545SOL    HW142594   3.814   8.709   5.074
13545SOL    HW242595   3.783   8.856   5.011
13546SOL     OW42596   4.456   8.082   4.788
13546SOL    HW142597   4.515   8.056   4.712
13546SOL    HW242598   4.428   8.178   4.777
13547SOL     OW42599   5.452   8.383   5.578
13547SOL    HW142600   5.406   8.376   5.489
13547SOL    HW242601   5.390   8.427   5.644
13548SOL     OW42602   4.031   7.511   4.342
13548SOL    HW142603   4.020   7.605   4.375
13548SOL    HW242604   4.026   7.448   4.419
13549SOL     OW42605   5.346   7.815   4.098
13549SOL    HW142606   5.348   7.739   4.162
13549SOL    HW242607   5.298   7.892   4.138
13550SOL     OW42608   4.747   8.214   4.690
13550SOL    HW142609   4.762   8.235   4.786
13550SOL    HW242610   4.717   8.119   4.681
13551SOL     OW42611   5.583   8.966   5.329
13551SOL    HW142612   5.597   8.993   5.234
13551SOL    HW242613   5.666   8.988   5.382
13552SOL     OW42614   4.074   8.346   5.528
13552SOL    HW142615   4.150   8.390   5.576
13552SOL    HW242616   4.109   8.299   5.446
13553SOL     OW42617   5.264   7.722   3.849
13553SOL    HW142618   5.203   7.647   3.872
13553SOL    HW242619   5.286   7.774   3.932
13554SOL     OW42620   5.027   8.286   3.766
13554SOL    HW142621   5.061   8.193   3.781
13554SOL    HW242622   5.045   8.313   3.671
13555SOL     OW42623   4.792   8.781   4.573
13555SOL    HW142624   4.799   8.697   4.518
13555SOL    HW242625   4.854   8.850   4.537
13556SOL     OW42626   4.043   8.258   4.673
13556SOL    HW142627   4.136   8.294   4.678
13556SOL    HW242628   4.037   8.173   4.725
13557SOL     OW42629   4.063   7.957   4.730
13557SOL    HW142630   4.011   7.874   4.713
13557SOL    HW242631   4.140   7.962   4.666
13558SOL     OW42632   4.235   7.863   5.532
13558SOL    HW142633   4.217   7.908   5.620
13558SOL    HW242634   4.277   7.928   5.469
13559SOL     OW42635   4.862   7.828   5.402
13559SOL    HW142636   4.817   7.891   5.466
13559SOL    HW242637   4.955   7.859   5.385
13560SOL     OW42638   4.884   7.655   5.201
13560SOL    HW142639   4.884   7.719   5.278
13560SOL    HW242640   4.912   7.703   5.118
13561SOL     OW42641   3.732   8.774   3.924
13561SOL    HW142642   3.639   8.795   3.893
13561SOL    HW242643   3.742   8.675   3.937
13562SOL     OW42644   4.726   8.244   4.962
13562SOL    HW142645   4.767   8.212   5.048
13562SOL    HW242646   4.630   8.217   4.959
13563SOL     OW42647   3.764   7.992   4.838
13563SOL    HW142648   3.849   7.959   4.797
13563SOL    HW242649   3.777   8.007   4.936
13564SOL     OW42650   3.913   7.968   5.446
13564SOL    HW142651   3.972   7.928   5.376
13564SOL    HW242652   3.855   8.039   5.405
13565SOL     OW42653   5.093   8.398   5.384
13565SOL    HW142654   5.132   8.487   5.404
13565SOL    HW242655   5.103   8.378   5.287
13566SOL     OW42656   4.539   8.020   4.049
13566SOL    HW142657   4.546   7.931   4.003
13566SOL    HW242658   4.445   8.054   4.041
13567SOL     OW42659   5.381   8.052   4.930
13567SOL    HW142660   5.343   7.983   4.992
13567SOL    HW242661   5.463   8.016   4.886
13568SOL     OW42662   3.976   0.012   5.468
13568SOL    HW142663   3.946   0.069   5.544
13568SOL    HW242664   3.969  -0.085   5.494
13569SOL     OW42665   4.395   7.912   4.993
13569SOL    HW142666   4.361   7.823   4.963
13569SOL    HW242667   4.421   7.966   4.913
13570SOL     OW42668   4.197   7.948   3.915
13570SOL    HW142669   4.258   8.028   3.919
13570SOL    HW242670   4.102   7.979   3.922
13571SOL     OW42671   3.883   8.585   5.190
13571SOL    HW142672   3.905   8.524   5.266
13571SOL    HW242673   3.893   8.536   5.104
13572SOL     OW42674   5.071   8.507   4.958
13572SOL    HW142675   5.095   8.444   4.884
13572SOL    HW242676   4.981   8.547   4.940
13573SOL     OW42677   5.026   8.303   4.033
13573SOL    HW142678   4.940   8.272   4.075
13573SOL    HW242679   5.022   8.289   3.934
13574SOL     OW42680   3.807   8.706   4.746
13574SOL    HW142681   3.802   8.705   4.846
13574SOL    HW242682   3.724   8.665   4.708
13575SOL     OW42683   4.627   7.534   3.857
13575SOL    HW142684   4.678   7.535   3.771
13575SOL    HW242685   4.683   7.492   3.928
13576SOL     OW42686   5.450   7.583   4.247
13576SOL    HW142687   5.523   7.566   4.180
13576SOL    HW242688   5.419   7.496   4.285
13577SOL     OW42689   5.004   8.375   4.396
13577SOL    HW142690   5.064   8.294   4.398
13577SOL    HW242691   5.044   8.444   4.336
13578SOL     OW42692   4.554   8.721   5.146
13578SOL    HW142693   4.549   8.754   5.241
13578SOL    HW242694   4.468   8.740   5.100
13579SOL     OW42695   5.565   7.623   4.687
13579SOL    HW142696   5.604   7.538   4.651
13579SOL    HW242697   5.467   7.625   4.668
13580SOL     OW42698   3.987   7.774   4.444
13580SOL    HW142699   3.908   7.825   4.410
13580SOL    HW242700   3.978   7.759   4.542
13581SOL     OW42701   4.546   8.450   5.096
13581SOL    HW142702   4.586   8.449   5.004
13581SOL    HW242703   4.556   8.542   5.136
13582SOL     OW42704   4.640   8.358   4.015
13582SOL    HW142705   4.703   8.396   3.947
13582SOL    HW242706   4.680   8.275   4.054
13583SOL     OW42707   4.096   8.736   5.214
13583SOL    HW142708   4.083   8.829   5.180
13583SOL    HW242709   4.012   8.684   5.201
13584SOL     OW42710   5.338   8.740   5.013
13584SOL    HW142711   5.398   8.743   5.093
13584SOL    HW242712   5.263   8.804   5.026
13585SOL     OW42713   4.763   8.546   4.420
13585SOL    HW142714   4.693   8.499   4.474
13585SOL    HW242715   4.822   8.478   4.377
13586SOL     OW42716   4.738   7.684   4.695
13586SOL    HW142717   4.730   7.648   4.602
13586SOL    HW242718   4.736   7.608   4.760
13587SOL     OW42719   5.433   7.833   5.105
13587SOL    HW142720   5.506   7.902   5.109
13587SOL    HW242721   5.461   7.758   5.046
13588SOL     OW42722   3.979   8.796   4.014
13588SOL    HW142723   3.883   8.797   3.987
13588SOL    HW242724   3.991   8.849   4.098
13589SOL     OW42725   3.829   8.461   5.450
13589SOL    HW142726   3.752   8.428   5.504
13589SOL    HW242727   3.914   8.431   5.492
13590SOL     OW42728   4.396   7.651   5.213
13590SOL    HW142729   4.486   7.635   5.173
13590SOL    HW242730   4.404   7.656   5.312
13591SOL     OW42731   3.799   7.793   3.757
13591SOL    HW142732   3.707   7.765   3.728
13591SOL    HW242733   3.830   7.870   3.701
13592SOL     OW42734   5.164   8.304   5.122
13592SOL    HW142735   5.107   8.356   5.059
13592SOL    HW242736   5.260   8.316   5.098
13593SOL     OW42737   3.796   7.614   4.042
13593SOL    HW142738   3.779   7.697   3.988
13593SOL    HW242739   3.886   7.577   4.020
13594SOL     OW42740   4.907   8.783   3.843
13594SOL    HW142741   4.808   8.772   3.845
13594SOL    HW242742   4.941   8.798   3.936
13595SOL     OW42743   4.337   8.290   5.155
13595SOL    HW142744   4.393   8.371   5.138
13595SOL    HW242745   4.396   8.210   5.158
13596SOL     OW42746   4.440   8.013   5.432
13596SOL    HW142747   4.459   8.078   5.506
13596SOL    HW242748   4.500   7.933   5.441
13597SOL     OW42749   5.174   8.668   5.357
13597SOL    HW142750   5.165   8.658   5.456
13597SOL    HW242751   5.270   8.661   5.331
13598SOL     OW42752   5.398   8.331   4.978
13598SOL    HW142753   5.371   8.242   4.941
13598SOL    HW242754   5.399   8.399   4.905
13599SOL     OW42755   4.949   7.773   4.173
13599SOL    HW142756   5.014   7.699   4.162
13599SOL    HW242757   4.969   7.823   4.257
13600SOL     OW42758   4.318   8.193   4.376
13600SOL    HW142759   4.368   8.278   4.357
13600SOL    HW242760   4.230   8.195   4.328
13601SOL     OW42761   5.501   7.790   5.366
13601SOL    HW142762   5.484   7.821   5.272
13601SOL    HW242763   5.417   7.753   5.404
13602SOL     OW42764   5.454   8.382   5.241
13602SOL    HW142765   5.492   8.473   5.256
13602SOL    HW242766   5.446   8.365   5.142
13603SOL     OW42767   4.583   8.822   3.740
13603SOL    HW142768   4.537   8.837   3.828
13603SOL    HW242769   4.627   8.907   3.710
13604SOL     OW42770   4.583   8.404   4.585
13604SOL    HW142771   4.637   8.335   4.633
13604SOL    HW242772   4.551   8.473   4.651
13605SOL     OW42773   4.807   8.432   3.811
13605SOL    HW142774   4.784   8.485   3.729
13605SOL    HW242775   4.888   8.376   3.792
13606SOL     OW42776   3.945   8.762   5.568
13606SOL    HW142777   3.880   8.689   5.547
13606SOL    HW242778   3.949   8.776   5.666
13607SOL     OW42779   3.803   8.688   4.377
13607SOL    HW142780   3.802   8.641   4.465
13607SOL    HW242781   3.885   8.660   4.326
13608SOL     OW42782   4.396   8.839   5.348
13608SOL    HW142783   4.318   8.789   5.386
13608SOL    HW242784   4.393   8.934   5.379
13609SOL     OW42785   5.548   7.640   4.951
13609SOL    HW142786   5.544   7.550   4.995
13609SOL    HW242787   5.551   7.629   4.852
13610SOL     OW42788   4.152   7.872   4.244
13610SOL    HW142789   4.182   7.800   4.182
13610SOL    HW242790   4.113   7.832   4.327
13611SOL     OW42791   5.429   8.935   4.828
13611SOL    HW142792   5.336   8.910   4.801
13611SOL    HW242793   5.455   8.885   4.910
13612SOL     OW42794   4.041   7.995   5.004
13612SOL    HW142795   4.079   7.936   5.076
13612SOL    HW242796   4.081   7.969   4.916
13613SOL     OW42797   5.148   7.662   4.836
13613SOL    HW142798   5.200   7.597   4.891
13613SOL    HW242799   5.099   7.725   4.897
13614SOL     OW42800   4.725   7.482   4.878
13614SOL    HW142801   4.662   7.410   4.847
13614SOL    HW242802   4.818   7.446   4.878
13615SOL     OW42803   4.494   8.778   4.025
13615SOL    HW142804   4.448   8.691   4.042
13615SOL    HW242805   4.585   8.775   4.066
13616SOL     OW42806   4.342   0.015   5.008
13616SOL    HW142807   4.337   0.097   5.065
13616SOL    HW242808   4.431   0.012   4.963
13617SOL     OW42809   5.076   7.500   3.892
13617SOL    HW142810   5.111   7.459   3.808
13617SOL    HW242811   4.986   7.462   3.912
13618SOL     OW42812   5.024   7.901   4.415
13618SOL    HW142813   4.965   7.981   4.419
13618SOL    HW242814   5.039   7.866   4.508
13619SOL     OW42815   5.317   7.669   4.606
13619SOL    HW142816   5.233   7.668   4.660
13619SOL    HW242817   5.319   7.752   4.550
13620SOL     OW42818   3.763   8.525   4.024
13620SOL    HW142819   3.862   8.514   4.015
13620SOL    HW242820   3.723   8.439   4.056
13621SOL     OW42821   3.954   8.076   5.699
13621SOL    HW142822   3.861   8.074   5.736
13621SOL    HW242823   3.955   8.037   5.607
13622SOL     OW42824   3.949   7.723   6.582
13622SOL    HW142825   3.984   7.706   6.674
13622SOL    HW242826   3.861   7.678   6.570
13623SOL     OW42827   3.743   7.816   6.233
13623SOL    HW142828   3.661   7.859   6.272
13623SOL    HW242829   3.715   7.743   6.170
13624SOL     OW42830   4.293   8.723   6.751
13624SOL    HW142831   4.200   8.716   6.714
13624SOL    HW242832   4.304   8.812   6.795
13625SOL     OW42833   5.279   8.959   6.289
13625SOL    HW142834   5.222   8.943   6.370
13625SOL    HW242835   5.220   8.969   6.209
13626SOL     OW42836   5.467   8.066   6.442
13626SOL    HW142837   5.500   8.160   6.442
13626SOL    HW242838   5.518   8.012   6.508
13627SOL     OW42839   4.859   8.151   6.303
13627SOL    HW142840   4.916   8.229   6.278
13627SOL    HW242841   4.799   8.177   6.379
13628SOL     OW42842   5.479   8.055   5.817
13628SOL    HW142843   5.467   8.042   5.718
13628SOL    HW242844   5.449   7.974   5.866
13629SOL     OW42845   4.492   8.592   6.609
13629SOL    HW142846   4.414   8.609   6.669
13629SOL    HW242847   4.526   8.679   6.573
13630SOL     OW42848   4.574   8.246   7.409
13630SOL    HW142849   4.570   8.322   7.474
13630SOL    HW242850   4.596   8.282   7.318
13631SOL     OW42851   4.409   8.460   6.251
13631SOL    HW142852   4.478   8.444   6.321
13631SOL    HW242853   4.336   8.517   6.289
13632SOL     OW42854   4.410   8.609   7.389
13632SOL    HW142855   4.470   8.688   7.403
13632SOL    HW242856   4.324   8.640   7.348
13633SOL     OW42857   4.059   8.883   6.647
13633SOL    HW142858   3.981   8.852   6.594
13633SOL    HW242859   4.117   8.941   6.590
13634SOL     OW42860   5.184   8.953   6.925
13634SOL    HW142861   5.208   9.047   6.951
13634SOL    HW242862   5.168   8.899   7.007
13635SOL     OW42863   4.162   7.840   7.085
13635SOL    HW142864   4.244   7.784   7.094
13635SOL    HW242865   4.081   7.782   7.089
13636SOL     OW42866   5.327   7.895   6.323
13636SOL    HW142867   5.253   7.941   6.273
13636SOL    HW242868   5.378   7.963   6.376
13637SOL     OW42869   3.955   0.161   6.069
13637SOL    HW142870   3.989   0.238   6.123
13637SOL    HW242871   3.999   0.161   5.979
13638SOL     OW42872   4.851   8.789   7.276
13638SOL    HW142873   4.898   8.789   7.364
13638SOL    HW242874   4.803   8.702   7.265
13639SOL     OW42875   3.954   8.882   6.124
13639SOL    HW142876   3.928   8.978   6.124
13639SOL    HW242877   3.883   8.828   6.169
13640SOL     OW42878   3.964   8.539   6.472
13640SOL    HW142879   3.978   8.455   6.524
13640SOL    HW242880   3.909   8.603   6.527
13641SOL     OW42881   4.330   8.412   5.709
13641SOL    HW142882   4.337   8.496   5.655
13641SOL    HW242883   4.376   8.425   5.797
13642SOL     OW42884   5.318   7.562   7.066
13642SOL    HW142885   5.300   7.629   6.994
13642SOL    HW242886   5.315   7.608   7.155
13643SOL     OW42887   3.846   8.091   6.149
13643SOL    HW142888   3.801   8.003   6.166
13643SOL    HW242889   3.845   8.145   6.233
13644SOL     OW42890   3.751   0.044   5.703
13644SOL    HW142891   3.732  -0.052   5.724
13644SOL    HW242892   3.718   0.102   5.778
13645SOL     OW42893   5.413   8.370   6.198
13645SOL    HW142894   5.508   8.341   6.206
13645SOL    HW242895   5.405   8.435   6.123
13646SOL     OW42896   5.365   8.556   6.018
13646SOL    HW142897   5.451   8.558   5.966
13646SOL    HW242898   5.379   8.603   6.106
13647SOL     OW42899   3.837   8.185   7.183
13647SOL    HW142900   3.925   8.172   7.228
13647SOL    HW242901   3.824   8.282   7.161
13648SOL     OW42902   4.337   8.813   6.312
13648SOL    HW142903   4.288   8.726   6.321
13648SOL    HW242904   4.314   8.856   6.225
13649SOL     OW42905   5.017   8.676   7.009
13649SOL    HW142906   5.054   8.603   6.951
13649SOL    HW242907   5.069   8.681   7.094
13650SOL     OW42908   4.533   7.452   6.088
13650SOL    HW142909   4.573   7.543   6.079
13650SOL    HW242910   4.433   7.460   6.094
13651SOL     OW42911   3.921   8.424   6.850
13651SOL    HW142912   4.010   8.379   6.836
13651SOL    HW242913   3.848   8.359   6.831
13652SOL     OW42914   5.249   8.447   5.776
13652SOL    HW142915   5.186   8.371   5.789
13652SOL    HW242916   5.297   8.465   5.862
13653SOL     OW42917   4.041   7.699   7.387
13653SOL    HW142918   4.112   7.770   7.393
13653SOL    HW242919   3.953   7.738   7.415
13654SOL     OW42920   5.190   8.865   6.539
13654SOL    HW142921   5.131   8.871   6.619
13654SOL    HW242922   5.175   8.777   6.493
13655SOL     OW42923   4.322   8.177   5.856
13655SOL    HW142924   4.346   8.246   5.788
13655SOL    HW242925   4.244   8.210   5.910
13656SOL     OW42926   5.005   7.793   6.530
13656SOL    HW142927   4.919   7.743   6.517
13656SOL    HW242928   5.067   7.739   6.586
13657SOL     OW42929   4.531   8.053   7.051
13657SOL    HW142930   4.484   8.050   7.140
13657SOL    HW242931   4.480   7.998   6.985
13658SOL     OW42932   5.118   7.917   7.260
13658SOL    HW142933   5.098   7.960   7.348
13658SOL    HW242934   5.196   7.855   7.269
13659SOL     OW42935   4.697   8.338   7.158
13659SOL    HW142936   4.743   8.254   7.129
13659SOL    HW242937   4.641   8.372   7.083
13660SOL     OW42938   4.715   7.858   6.828
13660SOL    HW142939   4.638   7.892   6.882
13660SOL    HW242940   4.681   7.807   6.749
13661SOL     OW42941   4.765   8.149   6.015
13661SOL    HW142942   4.791   8.145   6.111
13661SOL    HW242943   4.680   8.098   6.001
13662SOL     OW42944   3.800   8.259   6.375
13662SOL    HW142945   3.899   8.247   6.384
13662SOL    HW242946   3.776   8.354   6.396
13663SOL     OW42947   4.589   7.796   5.781
13663SOL    HW142948   4.648   7.859   5.732
13663SOL    HW242949   4.608   7.702   5.752
13664SOL     OW42950   5.443   8.033   7.417
13664SOL    HW142951   5.417   8.122   7.381
13664SOL    HW242952   5.441   7.965   7.344
13665SOL     OW42953   5.086   8.592   6.131
13665SOL    HW142954   5.169   8.563   6.083
13665SOL    HW242955   5.037   8.659   6.075
13666SOL     OW42956   4.274   7.644   6.471
13666SOL    HW142957   4.269   7.639   6.571
13666SOL    HW242958   4.276   7.740   6.442
13667SOL     OW42959   4.732   8.904   6.063
13667SOL    HW142960   4.686   8.976   6.011
13667SOL    HW242961   4.728   8.924   6.161
13668SOL     OW42962   5.519   8.514   6.459
13668SOL    HW142963   5.457   8.499   6.383
13668SOL    HW242964   5.467   8.525   6.544
13669SOL     OW42965   4.951   8.998   7.092
13669SOL    HW142966   4.957   8.921   7.156
13669SOL    HW242967   4.899   8.972   7.012
13670SOL     OW42968   4.045   8.391   5.828
13670SOL    HW142969   4.127   8.430   5.786
13670SOL    HW242970   4.018   8.309   5.779
13671SOL     OW42971   5.182   8.183   6.314
13671SOL    HW142972   5.177   8.118   6.389
13671SOL    HW242973   5.262   8.242   6.327
13672SOL     OW42974   4.185   8.714   7.313
13672SOL    HW142975   4.135   8.715   7.227
13672SOL    HW242976   4.122   8.696   7.389
13673SOL     OW42977   4.835   0.224   5.823
13673SOL    HW142978   4.775   0.162   5.873
13673SOL    HW242979   4.866   0.180   5.738
13674SOL     OW42980   3.926   7.733   7.084
13674SOL    HW142981   3.846   7.793   7.071
13674SOL    HW242982   3.916   7.684   7.170
13675SOL     OW42983   5.356   8.825   5.667
13675SOL    HW142984   5.324   8.919   5.657
13675SOL    HW242985   5.280   8.762   5.655
13676SOL     OW42986   5.124   7.555   6.012
13676SOL    HW142987   5.100   7.518   5.922
13676SOL    HW242988   5.223   7.571   6.016
13677SOL     OW42989   4.106   8.148   6.066
13677SOL    HW142990   4.151   8.058   6.063
13677SOL    HW242991   4.012   8.137   6.099
13678SOL     OW42992   5.271   7.670   7.315
13678SOL    HW142993   5.266   7.707   7.407
13678SOL    HW242994   5.199   7.601   7.303
13679SOL     OW42995   4.338   7.570   5.703
13679SOL    HW142996   4.436   7.548   5.710
13679SOL    HW242997   4.307   7.553   5.610
13680SOL     OW42998   4.505   7.712   7.335
13680SOL    HW142999   4.572   7.651   7.378
13680SOL    HW243000   4.432   7.731   7.400
13681SOL     OW43001   5.075   8.038   7.019
13681SOL    HW143002   5.103   7.995   7.104
13681SOL    HW243003   5.100   8.134   7.020
13682SOL     OW43004   4.527   8.850   6.510
13682SOL    HW143005   4.617   8.864   6.468
13682SOL    HW243006   4.456   8.852   6.439
13683SOL     OW43007   4.646   7.951   6.485
13683SOL    HW143008   4.621   7.942   6.389
13683SOL    HW243009   4.694   7.869   6.516
13684SOL     OW43010   4.263   7.512   6.098
13684SOL    HW143011   4.182   7.513   6.156
13684SOL    HW243012   4.266   7.595   6.043
13685SOL     OW43013   5.158   8.636   5.627
13685SOL    HW143014   5.190   8.560   5.684
13685SOL    HW243015   5.066   8.663   5.657
13686SOL     OW43016   4.021   7.483   5.757
13686SOL    HW143017   4.070   7.567   5.736
13686SOL    HW243018   4.083   7.418   5.802
13687SOL     OW43019   4.659   7.684   6.066
13687SOL    HW143020   4.611   7.725   5.988
13687SOL    HW243021   4.758   7.682   6.047
13688SOL     OW43022   4.800   8.131   7.050
13688SOL    HW143023   4.720   8.070   7.053
13688SOL    HW243024   4.881   8.078   7.026
13689SOL     OW43025   4.951   0.018   6.379
13689SOL    HW143026   4.972   0.092   6.314
13689SOL    HW243027   5.019   0.018   6.452
13690SOL     OW43028   4.183   8.600   6.327
13690SOL    HW143029   4.112   8.573   6.392
13690SOL    HW243030   4.157   8.572   6.234
13691SOL     OW43031   4.756   7.997   5.602
13691SOL    HW143032   4.715   8.079   5.563
13691SOL    HW243033   4.820   8.023   5.675
13692SOL     OW43034   3.802   8.004   6.972
13692SOL    HW143035   3.894   8.003   6.931
13692SOL    HW243036   3.796   8.078   7.039
13693SOL     OW43037   4.285   7.670   6.733
13693SOL    HW143038   4.323   7.586   6.770
13693SOL    HW243039   4.197   7.689   6.777
13694SOL     OW43040   4.590   7.902   6.228
13694SOL    HW143041   4.558   7.974   6.166
13694SOL    HW243042   4.614   7.821   6.175
13695SOL     OW43043   4.741   7.487   6.339
13695SOL    HW143044   4.669   7.492   6.270
13695SOL    HW243045   4.717   7.418   6.408
13696SOL     OW43046   5.153   8.621   6.453
13696SOL    HW143047   5.098   8.537   6.446
13696SOL    HW243048   5.179   8.650   6.361
13697SOL     OW43049   5.190   8.038   6.578
13697SOL    HW143050   5.160   7.943   6.585
13697SOL    HW243051   5.263   8.054   6.644
13698SOL     OW43052   5.581   8.281   5.963
13698SOL    HW143053   5.623   8.217   6.027
13698SOL    HW243054   5.543   8.230   5.885
13699SOL     OW43055   4.212   8.833   5.760
13699SOL    HW143056   4.125   8.818   5.807
13699SOL    HW243057   4.195   8.859   5.665
13700SOL     OW43058   5.388   8.728   6.243
13700SOL    HW143059   5.487   8.736   6.257
13700SOL    HW243060   5.343   8.812   6.274
13701SOL     OW43061   5.114   8.023   5.664
13701SOL    HW143062   5.060   8.002   5.745
13701SOL    HW243063   5.205   7.982   5.673
13702SOL     OW43064   4.251   7.704   5.914
13702SOL    HW143065   4.278   7.645   5.839
13702SOL    HW243066   4.251   7.799   5.883
13703SOL     OW43067   5.478   8.671   7.174
13703SOL    HW143068   5.569   8.632   7.161
13703SOL    HW243069   5.486   8.767   7.198
13704SOL     OW43070   4.788   8.795   6.926
13704SOL    HW143071   4.708   8.772   6.981
13704SOL    HW243072   4.871   8.769   6.975
13705SOL     OW43073   4.835   8.643   6.686
13705SOL    HW143074   4.795   8.687   6.767
13705SOL    HW243075   4.794   8.680   6.603
13706SOL     OW43076   5.362   8.547   6.665
13706SOL    HW143077   5.367   8.628   6.724
13706SOL    HW243078   5.276   8.549   6.614
13707SOL     OW43079   4.639   7.537   6.988
13707SOL    HW143080   4.664   7.517   6.893
13707SOL    HW243081   4.711   7.593   7.030
13708SOL     OW43082   4.704   8.564   7.305
13708SOL    HW143083   4.605   8.570   7.315
13708SOL    HW243084   4.727   8.484   7.249
13709SOL     OW43085   4.429   8.498   5.954
13709SOL    HW143086   4.415   8.505   6.053
13709SOL    HW243087   4.513   8.447   5.936
13710SOL     OW43088   4.134   8.261   6.837
13710SOL    HW143089   4.220   8.273   6.887
13710SOL    HW243090   4.092   8.174   6.864
13711SOL     OW43091   4.998   7.834   6.848
13711SOL    HW143092   5.019   7.908   6.912
13711SOL    HW243093   4.909   7.851   6.805
13712SOL     OW43094   4.091   8.548   6.087
13712SOL    HW143095   4.084   8.631   6.031
13712SOL    HW243096   4.095   8.468   6.027
13713SOL     OW43097   4.290   7.985   6.451
13713SOL    HW143098   4.302   8.051   6.377
13713SOL    HW243099   4.336   8.019   6.534
13714SOL     OW43100   4.976   8.796   5.974
13714SOL    HW143101   5.026   8.873   6.014
13714SOL    HW243102   4.881   8.798   6.006
13715SOL     OW43103   4.996   8.893   6.728
13715SOL    HW143104   5.043   8.906   6.815
13715SOL    HW243105   4.930   8.819   6.737
13716SOL     OW43106   5.306   8.087   6.058
13716SOL    HW143107   5.275   8.148   6.131
13716SOL    HW243108   5.356   8.139   5.989
13717SOL     OW43109   4.078   8.958   6.915
13717SOL    HW143110   4.057   8.914   6.828
13717SOL    HW243111   4.175   8.984   6.918
13718SOL     OW43112   4.126   8.199   7.184
13718SOL    HW143113   4.194   8.254   7.137
13718SOL    HW243114   4.166   8.111   7.211
13719SOL     OW43115   5.311   8.227   7.256
13719SOL    HW143116   5.219   8.265   7.251
13719SOL    HW243117   5.371   8.274   7.191
13720SOL     OW43118   4.737   7.553   7.356
13720SOL    HW143119   4.743   7.638   7.304
13720SOL    HW243120   4.769   7.477   7.299
13721SOL     OW43121   4.228   7.498   7.326
13721SOL    HW143122   4.186   7.441   7.256
13721SOL    HW243123   4.162   7.567   7.358
13722SOL     OW43124   4.297   8.318   6.615
13722SOL    HW143125   4.341   8.407   6.606
13722SOL    HW243126   4.234   8.318   6.692
13723SOL     OW43127   5.084   8.310   6.631
13723SOL    HW143128   5.009   8.310   6.565
13723SOL    HW243129   5.121   8.218   6.640
13724SOL     OW43130   4.933   7.973   5.861
13724SOL    HW143131   4.946   7.889   5.915
13724SOL    HW243132   4.904   8.047   5.921
13725SOL     OW43133   4.031   7.661   6.817
13725SOL    HW143134   4.008   7.698   6.907
13725SOL    HW243135   4.001   7.566   6.811
13726SOL     OW43136   3.761   8.758   6.868
13726SOL    HW143137   3.814   8.709   6.936
13726SOL    HW243138   3.783   8.856   6.873
13727SOL     OW43139   4.456   8.082   6.650
13727SOL    HW143140   4.515   8.056   6.574
13727SOL    HW243141   4.428   8.178   6.639
13728SOL     OW43142   5.452   8.383   7.440
13728SOL    HW143143   5.406   8.376   7.351
13728SOL    HW243144   5.390   8.427   7.506
13729SOL     OW43145   4.031   7.511   6.204
13729SOL    HW143146   4.020   7.605   6.237
13729SOL    HW243147   4.026   7.448   6.281
13730SOL     OW43148   5.346   7.815   5.960
13730SOL    HW143149   5.348   7.739   6.024
13730SOL    HW243150   5.298   7.892   6.000
13731SOL     OW43151   4.747   8.214   6.552
13731SOL    HW143152   4.762   8.235   6.648
13731SOL    HW243153   4.717   8.119   6.543
13732SOL     OW43154   5.583   8.966   7.191
13732SOL    HW143155   5.597   8.993   7.096
13732SOL    HW243156   5.666   8.988   7.244
13733SOL     OW43157   4.074   8.346   7.390
13733SOL    HW143158   4.150   8.390   7.438
13733SOL    HW243159   4.109   8.299   7.308
13734SOL     OW43160   5.264   7.722   5.711
13734SOL    HW143161   5.203   7.647   5.734
13734SOL    HW243162   5.286   7.774   5.794
13735SOL     OW43163   5.027   8.286   5.628
13735SOL    HW143164   5.061   8.193   5.643
13735SOL    HW243165   5.045   8.313   5.533
13736SOL     OW43166   4.792   8.781   6.435
13736SOL    HW143167   4.799   8.697   6.380
13736SOL    HW243168   4.854   8.850   6.399
13737SOL     OW43169   4.043   8.258   6.535
13737SOL    HW143170   4.136   8.294   6.540
13737SOL    HW243171   4.037   8.173   6.587
13738SOL     OW43172   4.063   7.957   6.592
13738SOL    HW143173   4.011   7.874   6.575
13738SOL    HW243174   4.140   7.962   6.528
13739SOL     OW43175   4.235   7.863   7.394
13739SOL    HW143176   4.217   7.908   7.482
13739SOL    HW243177   4.277   7.928   7.331
13740SOL     OW43178   4.862   7.828   7.264
13740SOL    HW143179   4.817   7.891   7.328
13740SOL    HW243180   4.955   7.859   7.247
13741SOL     OW43181   4.884   7.655   7.063
13741SOL    HW143182   4.884   7.719   7.140
13741SOL    HW243183   4.912   7.703   6.980
13742SOL     OW43184   3.732   8.774   5.786
13742SOL    HW143185   3.639   8.795   5.755
13742SOL    HW243186   3.742   8.675   5.799
13743SOL     OW43187   4.726   8.244   6.824
13743SOL    HW143188   4.767   8.212   6.910
13743SOL    HW243189   4.630   8.217   6.821
13744SOL     OW43190   3.764   7.992   6.700
13744SOL    HW143191   3.849   7.959   6.659
13744SOL    HW243192   3.777   8.007   6.798
13745SOL     OW43193   3.913   7.968   7.308
13745SOL    HW143194   3.972   7.928   7.238
13745SOL    HW243195   3.855   8.039   7.267
13746SOL     OW43196   5.093   8.398   7.246
13746SOL    HW143197   5.132   8.487   7.266
13746SOL    HW243198   5.103   8.378   7.149
13747SOL     OW43199   4.539   8.020   5.911
13747SOL    HW143200   4.546   7.931   5.865
13747SOL    HW243201   4.445   8.054   5.903
13748SOL     OW43202   5.381   8.052   6.792
13748SOL    HW143203   5.343   7.983   6.854
13748SOL    HW243204   5.463   8.016   6.748
13749SOL     OW43205   3.976   0.012   7.330
13749SOL    HW143206   3.946   0.069   7.406
13749SOL    HW243207   3.969  -0.085   7.356
13750SOL     OW43208   4.395   7.912   6.855
13750SOL    HW143209   4.361   7.823   6.825
13750SOL    HW243210   4.421   7.966   6.775
13751SOL     OW43211   4.197   7.948   5.777
13751SOL    HW143212   4.258   8.028   5.781
13751SOL    HW243213   4.102   7.979   5.784
13752SOL     OW43214   3.883   8.585   7.052
13752SOL    HW143215   3.905   8.524   7.128
13752SOL    HW243216   3.893   8.536   6.966
13753SOL     OW43217   5.071   8.507   6.820
13753SOL    HW143218   5.095   8.444   6.746
13753SOL    HW243219   4.981   8.547   6.802
13754SOL     OW43220   5.026   8.303   5.895
13754SOL    HW143221   4.940   8.272   5.937
13754SOL    HW243222   5.022   8.289   5.796
13755SOL     OW43223   3.807   8.706   6.608
13755SOL    HW143224   3.802   8.705   6.708
13755SOL    HW243225   3.724   8.665   6.570
13756SOL     OW43226   4.627   7.534   5.719
13756SOL    HW143227   4.678   7.535   5.633
13756SOL    HW243228   4.683   7.492   5.790
13757SOL     OW43229   5.450   7.583   6.109
13757SOL    HW143230   5.523   7.566   6.042
13757SOL    HW243231   5.419   7.496   6.147
13758SOL     OW43232   5.004   8.375   6.258
13758SOL    HW143233   5.064   8.294   6.260
13758SOL    HW243234   5.044   8.444   6.198
13759SOL     OW43235   4.554   8.721   7.008
13759SOL    HW143236   4.549   8.754   7.103
13759SOL    HW243237   4.468   8.740   6.962
13760SOL     OW43238   5.565   7.623   6.549
13760SOL    HW143239   5.604   7.538   6.513
13760SOL    HW243240   5.467   7.625   6.530
13761SOL     OW43241   3.987   7.774   6.306
13761SOL    HW143242   3.908   7.825   6.272
13761SOL    HW243243   3.978   7.759   6.404
13762SOL     OW43244   4.546   8.450   6.958
13762SOL    HW143245   4.586   8.449   6.866
13762SOL    HW243246   4.556   8.542   6.998
13763SOL     OW43247   4.640   8.358   5.877
13763SOL    HW143248   4.703   8.396   5.809
13763SOL    HW243249   4.680   8.275   5.916
13764SOL     OW43250   4.096   8.736   7.076
13764SOL    HW143251   4.083   8.829   7.042
13764SOL    HW243252   4.012   8.684   7.063
13765SOL     OW43253   5.338   8.740   6.875
13765SOL    HW143254   5.398   8.743   6.955
13765SOL    HW243255   5.263   8.804   6.888
13766SOL     OW43256   4.763   8.546   6.282
13766SOL    HW143257   4.693   8.499   6.336
13766SOL    HW243258   4.822   8.478   6.239
13767SOL     OW43259   4.738   7.684   6.557
13767SOL    HW143260   4.730   7.648   6.464
13767SOL    HW243261   4.736   7.608   6.622
13768SOL     OW43262   5.433   7.833   6.967
13768SOL    HW143263   5.506   7.902   6.971
13768SOL    HW243264   5.461   7.758   6.908
13769SOL     OW43265   3.979   8.796   5.876
13769SOL    HW143266   3.883   8.797   5.849
13769SOL    HW243267   3.991   8.849   5.960
13770SOL     OW43268   3.829   8.461   7.312
13770SOL    HW143269   3.752   8.428   7.366
13770SOL    HW243270   3.914   8.431   7.354
13771SOL     OW43271   4.396   7.651   7.075
13771SOL    HW143272   4.486   7.635   7.035
13771SOL    HW243273   4.404   7.656   7.174
13772SOL     OW43274   3.799   7.793   5.619
13772SOL    HW143275   3.707   7.765   5.590
13772SOL    HW243276   3.830   7.870   5.563
13773SOL     OW43277   5.164   8.304   6.984
13773SOL    HW143278   5.107   8.356   6.921
13773SOL    HW243279   5.260   8.316   6.960
13774SOL     OW43280   3.796   7.614   5.904
13774SOL    HW143281   3.779   7.697   5.850
13774SOL    HW243282   3.886   7.577   5.882
13775SOL     OW43283   4.907   8.783   5.705
13775SOL    HW143284   4.808   8.772   5.707
13775SOL    HW243285   4.941   8.798   5.798
13776SOL     OW43286   4.337   8.290   7.017
13776SOL    HW143287   4.393   8.371   7.000
13776SOL    HW243288   4.396   8.210   7.020
13777SOL     OW43289   4.440   8.013   7.294
13777SOL    HW143290   4.459   8.078   7.368
13777SOL    HW243291   4.500   7.933   7.303
13778SOL     OW43292   5.174   8.668   7.219
13778SOL    HW143293   5.165   8.658   7.318
13778SOL    HW243294   5.270   8.661   7.193
13779SOL     OW43295   5.398   8.331   6.840
13779SOL    HW143296   5.371   8.242   6.803
13779SOL    HW243297   5.399   8.399   6.767
13780SOL     OW43298   4.949   7.773   6.035
13780SOL    HW143299   5.014   7.699   6.024
13780SOL    HW243300   4.969   7.823   6.119
13781SOL     OW43301   4.318   8.193   6.238
13781SOL    HW143302   4.368   8.278   6.219
13781SOL    HW243303   4.230   8.195   6.190
13782SOL     OW43304   5.501   7.790   7.228
13782SOL    HW143305   5.484   7.821   7.134
13782SOL    HW243306   5.417   7.753   7.266
13783SOL     OW43307   5.454   8.382   7.103
13783SOL    HW143308   5.492   8.473   7.118
13783SOL    HW243309   5.446   8.365   7.004
13784SOL     OW43310   4.583   8.822   5.602
13784SOL    HW143311   4.537   8.837   5.690
13784SOL    HW243312   4.627   8.907   5.572
13785SOL     OW43313   4.583   8.404   6.447
13785SOL    HW143314   4.637   8.335   6.495
13785SOL    HW243315   4.551   8.473   6.513
13786SOL     OW43316   4.807   8.432   5.673
13786SOL    HW143317   4.784   8.485   5.591
13786SOL    HW243318   4.888   8.376   5.654
13787SOL     OW43319   3.945   8.762   7.430
13787SOL    HW143320   3.880   8.689   7.409
13787SOL    HW243321   3.949   8.776   7.528
13788SOL     OW43322   3.803   8.688   6.239
13788SOL    HW143323   3.802   8.641   6.327
13788SOL    HW243324   3.885   8.660   6.188
13789SOL     OW43325   4.396   8.839   7.210
13789SOL    HW143326   4.318   8.789   7.248
13789SOL    HW243327   4.393   8.934   7.241
13790SOL     OW43328   5.548   7.640   6.813
13790SOL    HW143329   5.544   7.550   6.857
13790SOL    HW243330   5.551   7.629   6.714
13791SOL     OW43331   4.152   7.872   6.106
13791SOL    HW143332   4.182   7.800   6.044
13791SOL    HW243333   4.113   7.832   6.189
13792SOL     OW43334   5.429   8.935   6.690
13792SOL    HW143335   5.336   8.910   6.663
13792SOL    HW243336   5.455   8.885   6.772
13793SOL     OW43337   4.041   7.995   6.866
13793SOL    HW143338   4.079   7.936   6.938
13793SOL    HW243339   4.081   7.969   6.778
13794SOL     OW43340   5.148   7.662   6.698
13794SOL    HW143341   5.200   7.597   6.753
13794SOL    HW243342   5.099   7.725   6.759
13795SOL     OW43343   4.725   7.482   6.740
13795SOL    HW143344   4.662   7.410   6.709
13795SOL    HW243345   4.818   7.446   6.740
13796SOL     OW43346   4.494   8.778   5.887
13796SOL    HW143347   4.448   8.691   5.904
13796SOL    HW243348   4.585   8.775   5.928
13797SOL     OW43349   4.342   0.015   6.870
13797SOL    HW143350   4.337   0.097   6.927
13797SOL    HW243351   4.431   0.012   6.825
13798SOL     OW43352   5.076   7.500   5.754
13798SOL    HW143353   5.111   7.459   5.670
13798SOL    HW243354   4.986   7.462   5.774
13799SOL     OW43355   5.024   7.901   6.277
13799SOL    HW143356   4.965   7.981   6.281
13799SOL    HW243357   5.039   7.866   6.370
13800SOL     OW43358   5.317   7.669   6.468
13800SOL    HW143359   5.233   7.668   6.522
13800SOL    HW243360   5.319   7.752   6.412
13801SOL     OW43361   3.763   8.525   5.886
13801SOL    HW143362   3.862   8.514   5.877
13801SOL    HW243363   3.723   8.439   5.918
13802SOL     OW43364   3.954   8.076   7.561
13802SOL    HW143365   3.861   8.074   7.598
13802SOL    HW243366   3.955   8.037   7.469
13803SOL     OW43367   3.949   7.723   8.444
13803SOL    HW143368   3.984   7.706   8.536
13803SOL    HW243369   3.861   7.678   8.432
13804SOL     OW43370   3.743   7.816   8.095
13804SOL    HW143371   3.661   7.859   8.134
13804SOL    HW243372   3.715   7.743   8.032
13805SOL     OW43373   4.293   8.723   8.613
13805SOL    HW143374   4.200   8.716   8.576
13805SOL    HW243375   4.304   8.812   8.657
13806SOL     OW43376   5.279   8.959   8.151
13806SOL    HW143377   5.222   8.943   8.232
13806SOL    HW243378   5.220   8.969   8.071
13807SOL     OW43379   5.467   8.066   8.304
13807SOL    HW143380   5.500   8.160   8.304
13807SOL    HW243381   5.518   8.012   8.370
13808SOL     OW43382   4.859   8.151   8.165
13808SOL    HW143383   4.916   8.229   8.140
13808SOL    HW243384   4.799   8.177   8.241
13809SOL     OW43385   5.479   8.055   7.679
13809SOL    HW143386   5.467   8.042   7.580
13809SOL    HW243387   5.449   7.974   7.728
13810SOL     OW43388   4.492   8.592   8.471
13810SOL    HW143389   4.414   8.609   8.531
13810SOL    HW243390   4.526   8.679   8.435
13811SOL     OW43391   4.409   8.460   8.113
13811SOL    HW143392   4.478   8.444   8.183
13811SOL    HW243393   4.336   8.517   8.151
13812SOL     OW43394   4.059   8.883   8.509
13812SOL    HW143395   3.981   8.852   8.456
13812SOL    HW243396   4.117   8.941   8.452
13813SOL     OW43397   5.184   8.953   8.787
13813SOL    HW143398   5.208   9.047   8.813
13813SOL    HW243399   5.168   8.899   8.869
13814SOL     OW43400   4.162   7.840   8.947
13814SOL    HW143401   4.244   7.784   8.956
13814SOL    HW243402   4.081   7.782   8.951
13815SOL     OW43403   5.327   7.895   8.185
13815SOL    HW143404   5.253   7.941   8.135
13815SOL    HW243405   5.378   7.963   8.238
13816SOL     OW43406   3.955   0.161   7.931
13816SOL    HW143407   3.989   0.238   7.985
13816SOL    HW243408   3.999   0.161   7.841
13817SOL     OW43409   3.954   8.882   7.986
13817SOL    HW143410   3.928   8.978   7.986
13817SOL    HW243411   3.883   8.828   8.031
13818SOL     OW43412   3.964   8.539   8.334
13818SOL    HW143413   3.978   8.455   8.386
13818SOL    HW243414   3.909   8.603   8.389
13819SOL     OW43415   4.330   8.412   7.571
13819SOL    HW143416   4.337   8.496   7.517
13819SOL    HW243417   4.376   8.425   7.659
13820SOL     OW43418   5.318   7.562   8.928
13820SOL    HW143419   5.300   7.629   8.856
13820SOL    HW243420   5.315   7.608   9.017
13821SOL     OW43421   3.846   8.091   8.011
13821SOL    HW143422   3.801   8.003   8.028
13821SOL    HW243423   3.845   8.145   8.095
13822SOL     OW43424   3.751   0.044   7.565
13822SOL    HW143425   3.732  -0.052   7.586
13822SOL    HW243426   3.718   0.102   7.640
13823SOL     OW43427   5.413   8.370   8.060
13823SOL    HW143428   5.508   8.341   8.068
13823SOL    HW243429   5.405   8.435   7.985
13824SOL     OW43430   5.365   8.556   7.880
13824SOL    HW143431   5.451   8.558   7.828
13824SOL    HW243432   5.379   8.603   7.968
13825SOL     OW43433   4.337   8.813   8.174
13825SOL    HW143434   4.288   8.726   8.183
13825SOL    HW243435   4.314   8.856   8.087
13826SOL     OW43436   4.533   7.452   7.950
13826SOL    HW143437   4.573   7.543   7.941
13826SOL    HW243438   4.433   7.460   7.956
13827SOL     OW43439   3.921   8.424   8.712
13827SOL    HW143440   4.010   8.379   8.698
13827SOL    HW243441   3.848   8.359   8.693
13828SOL     OW43442   5.249   8.447   7.638
13828SOL    HW143443   5.186   8.371   7.651
13828SOL    HW243444   5.297   8.465   7.724
13829SOL     OW43445   5.190   8.865   8.401
13829SOL    HW143446   5.131   8.871   8.481
13829SOL    HW243447   5.175   8.777   8.355
13830SOL     OW43448   4.322   8.177   7.718
13830SOL    HW143449   4.346   8.246   7.650
13830SOL    HW243450   4.244   8.210   7.772
13831SOL     OW43451   5.005   7.793   8.392
13831SOL    HW143452   4.919   7.743   8.379
13831SOL    HW243453   5.067   7.739   8.448
13832SOL     OW43454   4.531   8.053   8.913
13832SOL    HW143455   4.484   8.050   9.002
13832SOL    HW243456   4.480   7.998   8.847
13833SOL     OW43457   4.715   7.858   8.690
13833SOL    HW143458   4.638   7.892   8.744
13833SOL    HW243459   4.681   7.807   8.611
13834SOL     OW43460   4.765   8.149   7.877
13834SOL    HW143461   4.791   8.145   7.973
13834SOL    HW243462   4.680   8.098   7.863
13835SOL     OW43463   3.800   8.259   8.237
13835SOL    HW143464   3.899   8.247   8.246
13835SOL    HW243465   3.776   8.354   8.258
13836SOL     OW43466   4.589   7.796   7.643
13836SOL    HW143467   4.648   7.859   7.594
13836SOL    HW243468   4.608   7.702   7.614
13837SOL     OW43469   5.086   8.592   7.993
13837SOL    HW143470   5.169   8.563   7.945
13837SOL    HW243471   5.037   8.659   7.937
13838SOL     OW43472   4.274   7.644   8.333
13838SOL    HW143473   4.269   7.639   8.433
13838SOL    HW243474   4.276   7.740   8.304
13839SOL     OW43475   4.732   8.904   7.925
13839SOL    HW143476   4.686   8.976   7.873
13839SOL    HW243477   4.728   8.924   8.023
13840SOL     OW43478   5.519   8.514   8.321
13840SOL    HW143479   5.457   8.499   8.245
13840SOL    HW243480   5.467   8.525   8.406
13841SOL     OW43481   4.951   8.998   8.954
13841SOL    HW143482   4.957   8.921   9.018
13841SOL    HW243483   4.899   8.972   8.874
13842SOL     OW43484   4.045   8.391   7.690
13842SOL    HW143485   4.127   8.430   7.648
13842SOL    HW243486   4.018   8.309   7.641
13843SOL     OW43487   5.182   8.183   8.176
13843SOL    HW143488   5.177   8.118   8.251
13843SOL    HW243489   5.262   8.242   8.189
13844SOL     OW43490   4.835   0.224   7.685
13844SOL    HW143491   4.775   0.162   7.735
13844SOL    HW243492   4.866   0.180   7.600
13845SOL     OW43493   3.926   7.733   8.946
13845SOL    HW143494   3.846   7.793   8.933
13845SOL    HW243495   3.916   7.684   9.032
13846SOL     OW43496   5.356   8.825   7.529
13846SOL    HW143497   5.324   8.919   7.519
13846SOL    HW243498   5.280   8.762   7.517
13847SOL     OW43499   5.124   7.555   7.874
13847SOL    HW143500   5.100   7.518   7.784
13847SOL    HW243501   5.223   7.571   7.878
13848SOL     OW43502   4.106   8.148   7.928
13848SOL    HW143503   4.151   8.058   7.925
13848SOL    HW243504   4.012   8.137   7.961
13849SOL     OW43505   4.338   7.570   7.565
13849SOL    HW143506   4.436   7.548   7.572
13849SOL    HW243507   4.307   7.553   7.472
13850SOL     OW43508   4.527   8.850   8.372
13850SOL    HW143509   4.617   8.864   8.330
13850SOL    HW243510   4.456   8.852   8.301
13851SOL     OW43511   4.646   7.951   8.347
13851SOL    HW143512   4.621   7.942   8.251
13851SOL    HW243513   4.694   7.869   8.378
13852SOL     OW43514   4.263   7.512   7.960
13852SOL    HW143515   4.182   7.513   8.018
13852SOL    HW243516   4.266   7.595   7.905
13853SOL     OW43517   5.158   8.636   7.489
13853SOL    HW143518   5.190   8.560   7.546
13853SOL    HW243519   5.066   8.663   7.519
13854SOL     OW43520   4.021   7.483   7.619
13854SOL    HW143521   4.070   7.567   7.598
13854SOL    HW243522   4.083   7.418   7.664
13855SOL     OW43523   4.659   7.684   7.928
13855SOL    HW143524   4.611   7.725   7.850
13855SOL    HW243525   4.758   7.682   7.909
13856SOL     OW43526   4.951   0.018   8.241
13856SOL    HW143527   4.972   0.092   8.176
13856SOL    HW243528   5.019   0.018   8.314
13857SOL     OW43529   4.183   8.600   8.189
13857SOL    HW143530   4.112   8.573   8.254
13857SOL    HW243531   4.157   8.572   8.096
13858SOL     OW43532   4.756   7.997   7.464
13858SOL    HW143533   4.715   8.079   7.425
13858SOL    HW243534   4.820   8.023   7.537
13859SOL     OW43535   3.802   8.004   8.834
13859SOL    HW143536   3.894   8.003   8.793
13859SOL    HW243537   3.796   8.078   8.901
13860SOL     OW43538   4.285   7.670   8.595
13860SOL    HW143539   4.323   7.586   8.632
13860SOL    HW243540   4.197   7.689   8.639
13861SOL     OW43541   4.590   7.902   8.090
13861SOL    HW143542   4.558   7.974   8.028
13861SOL    HW243543   4.614   7.821   8.037
13862SOL     OW43544   4.741   7.487   8.201
13862SOL    HW143545   4.669   7.492   8.132
13862SOL    HW243546   4.717   7.418   8.270
13863SOL     OW43547   5.153   8.621   8.315
13863SOL    HW143548   5.098   8.537   8.308
13863SOL    HW243549   5.179   8.650   8.223
13864SOL     OW43550   5.190   8.038   8.440
13864SOL    HW143551   5.160   7.943   8.447
13864SOL    HW243552   5.263   8.054   8.506
13865SOL     OW43553   5.581   8.281   7.825
13865SOL    HW143554   5.623   8.217   7.889
13865SOL    HW243555   5.543   8.230   7.747
13866SOL     OW43556   4.212   8.833   7.622
13866SOL    HW143557   4.125   8.818   7.669
13866SOL    HW243558   4.195   8.859   7.527
13867SOL     OW43559   5.388   8.728   8.105
13867SOL    HW143560   5.487   8.736   8.119
13867SOL    HW243561   5.343   8.812   8.136
13868SOL     OW43562   5.114   8.023   7.526
13868SOL    HW143563   5.060   8.002   7.607
13868SOL    HW243564   5.205   7.982   7.535
13869SOL     OW43565   4.251   7.704   7.776
13869SOL    HW143566   4.278   7.645   7.701
13869SOL    HW243567   4.251   7.799   7.745
13870SOL     OW43568   4.788   8.795   8.788
13870SOL    HW143569   4.708   8.772   8.843
13870SOL    HW243570   4.871   8.769   8.837
13871SOL     OW43571   4.835   8.643   8.548
13871SOL    HW143572   4.795   8.687   8.629
13871SOL    HW243573   4.794   8.680   8.465
13872SOL     OW43574   5.362   8.547   8.527
13872SOL    HW143575   5.367   8.628   8.586
13872SOL    HW243576   5.276   8.549   8.476
13873SOL     OW43577   4.639   7.537   8.850
13873SOL    HW143578   4.664   7.517   8.755
13873SOL    HW243579   4.711   7.593   8.892
13874SOL     OW43580   4.429   8.498   7.816
13874SOL    HW143581   4.415   8.505   7.915
13874SOL    HW243582   4.513   8.447   7.798
13875SOL     OW43583   4.134   8.261   8.699
13875SOL    HW143584   4.220   8.273   8.749
13875SOL    HW243585   4.092   8.174   8.726
13876SOL     OW43586   4.998   7.834   8.710
13876SOL    HW143587   5.019   7.908   8.774
13876SOL    HW243588   4.909   7.851   8.667
13877SOL     OW43589   4.091   8.548   7.949
13877SOL    HW143590   4.084   8.631   7.893
13877SOL    HW243591   4.095   8.468   7.889
13878SOL     OW43592   4.290   7.985   8.313
13878SOL    HW143593   4.302   8.051   8.239
13878SOL    HW243594   4.336   8.019   8.396
13879SOL     OW43595   4.976   8.796   7.836
13879SOL    HW143596   5.026   8.873   7.876
13879SOL    HW243597   4.881   8.798   7.868
13880SOL     OW43598   4.996   8.893   8.590
13880SOL    HW143599   5.043   8.906   8.677
13880SOL    HW243600   4.930   8.819   8.599
13881SOL     OW43601   5.306   8.087   7.920
13881SOL    HW143602   5.275   8.148   7.993
13881SOL    HW243603   5.356   8.139   7.851
13882SOL     OW43604   4.078   8.958   8.777
13882SOL    HW143605   4.057   8.914   8.690
13882SOL    HW243606   4.175   8.984   8.780
13883SOL     OW43607   4.126   8.199   0.046
13883SOL    HW143608   4.194   8.254  -0.001
13883SOL    HW243609   4.166   8.111   0.073
13884SOL     OW43610   5.311   8.227   0.118
13884SOL    HW143611   5.219   8.265   0.113
13884SOL    HW243612   5.371   8.274   0.053
13885SOL     OW43613   4.297   8.318   8.477
13885SOL    HW143614   4.341   8.407   8.468
13885SOL    HW243615   4.234   8.318   8.554
13886SOL     OW43616   5.084   8.310   8.493
13886SOL    HW143617   5.009   8.310   8.427
13886SOL    HW243618   5.121   8.218   8.502
13887SOL     OW43619   4.933   7.973   7.723
13887SOL    HW143620   4.946   7.889   7.777
13887SOL    HW243621   4.904   8.047   7.783
13888SOL     OW43622   4.031   7.661   8.679
13888SOL    HW143623   4.008   7.698   8.769
13888SOL    HW243624   4.001   7.566   8.673
13889SOL     OW43625   3.761   8.758   8.730
13889SOL    HW143626   3.814   8.709   8.798
13889SOL    HW243627   3.783   8.856   8.735
13890SOL     OW43628   4.456   8.082   8.512
13890SOL    HW143629   4.515   8.056   8.436
13890SOL    HW243630   4.428   8.178   8.501
13891SOL     OW43631   4.031   7.511   8.066
13891SOL    HW143632   4.020   7.605   8.099
13891SOL    HW243633   4.026   7.448   8.143
13892SOL     OW43634   5.346   7.815   7.822
13892SOL    HW143635   5.348   7.739   7.886
13892SOL    HW243636   5.298   7.892   7.862
13893SOL     OW43637   4.747   8.214   8.414
13893SOL    HW143638   4.762   8.235   8.510
13893SOL    HW243639   4.717   8.119   8.405
13894SOL     OW43640   5.583   8.966   0.053
13894SOL    HW143641   5.597   8.993  -0.042
13894SOL    HW243642   5.666   8.988   0.106
13895SOL     OW43643   5.264   7.722   7.573
13895SOL    HW143644   5.203   7.647   7.596
13895SOL    HW243645   5.286   7.774   7.656
13896SOL     OW43646   5.027   8.286   7.490
13896SOL    HW143647   5.061   8.193   7.505
13896SOL    HW243648   5.045   8.313   7.395
13897SOL     OW43649   4.792   8.781   8.297
13897SOL    HW143650   4.799   8.697   8.242
13897SOL    HW243651   4.854   8.850   8.261
13898SOL     OW43652   4.043   8.258   8.397
13898SOL    HW143653   4.136   8.294   8.402
13898SOL    HW243654   4.037   8.173   8.449
13899SOL     OW43655   4.063   7.957   8.454
13899SOL    HW143656   4.011   7.874   8.437
13899SOL    HW243657   4.140   7.962   8.390
13900SOL     OW43658   4.862   7.828   0.126
13900SOL    HW143659   4.817   7.891   0.190
13900SOL    HW243660   4.955   7.859   0.109
13901SOL     OW43661   4.884   7.655   8.925
13901SOL    HW143662   4.884   7.719   9.002
13901SOL    HW243663   4.912   7.703   8.842
13902SOL     OW43664   3.732   8.774   7.648
13902SOL    HW143665   3.639   8.795   7.617
13902SOL    HW243666   3.742   8.675   7.661
13903SOL     OW43667   4.726   8.244   8.686
13903SOL    HW143668   4.767   8.212   8.772
13903SOL    HW243669   4.630   8.217   8.683
13904SOL     OW43670   3.764   7.992   8.562
13904SOL    HW143671   3.849   7.959   8.521
13904SOL    HW243672   3.777   8.007   8.660
13905SOL     OW43673   4.539   8.020   7.773
13905SOL    HW143674   4.546   7.931   7.727
13905SOL    HW243675   4.445   8.054   7.765
13906SOL     OW43676   5.381   8.052   8.654
13906SOL    HW143677   5.343   7.983   8.716
13906SOL    HW243678   5.463   8.016   8.610
13907SOL     OW43679   4.395   7.912   8.717
13907SOL    HW143680   4.361   7.823   8.687
13907SOL    HW243681   4.421   7.966   8.637
13908SOL     OW43682   4.197   7.948   7.639
13908SOL    HW143683   4.258   8.028   7.643
13908SOL    HW243684   4.102   7.979   7.646
13909SOL     OW43685   3.883   8.585   8.914
13909SOL    HW143686   3.905   8.524   8.990
13909SOL    HW243687   3.893   8.536   8.828
13910SOL     OW43688   5.071   8.507   8.682
13910SOL    HW143689   5.095   8.444   8.608
13910SOL    HW243690   4.981   8.547   8.664
13911SOL     OW43691   5.026   8.303   7.757
13911SOL    HW143692   4.940   8.272   7.799
13911SOL    HW243693   5.022   8.289   7.658
13912SOL     OW43694   3.807   8.706   8.470
13912SOL    HW143695   3.802   8.705   8.570
13912SOL    HW243696   3.724   8.665   8.432
13913SOL     OW43697   4.627   7.534   7.581
13913SOL    HW143698   4.678   7.535   7.495
13913SOL    HW243699   4.683   7.492   7.652
13914SOL     OW43700   5.450   7.583   7.971
13914SOL    HW143701   5.523   7.566   7.904
13914SOL    HW243702   5.419   7.496   8.009
13915SOL     OW43703   5.004   8.375   8.120
13915SOL    HW143704   5.064   8.294   8.122
13915SOL    HW243705   5.044   8.444   8.060
13916SOL     OW43706   5.565   7.623   8.411
13916SOL    HW143707   5.604   7.538   8.375
13916SOL    HW243708   5.467   7.625   8.392
13917SOL     OW43709   3.987   7.774   8.168
13917SOL    HW143710   3.908   7.825   8.134
13917SOL    HW243711   3.978   7.759   8.266
13918SOL     OW43712   4.546   8.450   8.820
13918SOL    HW143713   4.586   8.449   8.728
13918SOL    HW243714   4.556   8.542   8.860
13919SOL     OW43715   4.640   8.358   7.739
13919SOL    HW143716   4.703   8.396   7.671
13919SOL    HW243717   4.680   8.275   7.778
13920SOL     OW43718   4.096   8.736   8.938
13920SOL    HW143719   4.083   8.829   8.904
13920SOL    HW243720   4.012   8.684   8.925
13921SOL     OW43721   5.338   8.740   8.737
13921SOL    HW143722   5.398   8.743   8.817
13921SOL    HW243723   5.263   8.804   8.750
13922SOL     OW43724   4.763   8.546   8.144
13922SOL    HW143725   4.693   8.499   8.198
13922SOL    HW243726   4.822   8.478   8.101
13923SOL     OW43727   4.738   7.684   8.419
13923SOL    HW143728   4.730   7.648   8.326
13923SOL    HW243729   4.736   7.608   8.484
13924SOL     OW43730   5.433   7.833   8.829
13924SOL    HW143731   5.506   7.902   8.833
13924SOL    HW243732   5.461   7.758   8.770
13925SOL     OW43733   3.979   8.796   7.738
13925SOL    HW143734   3.883   8.797   7.711
13925SOL    HW243735   3.991   8.849   7.822
13926SOL     OW43736   3.799   7.793   7.481
13926SOL    HW143737   3.707   7.765   7.452
13926SOL    HW243738   3.830   7.870   7.425
13927SOL     OW43739   5.164   8.304   8.846
13927SOL    HW143740   5.107   8.356   8.783
13927SOL    HW243741   5.260   8.316   8.822
13928SOL     OW43742   3.796   7.614   7.766
13928SOL    HW143743   3.779   7.697   7.712
13928SOL    HW243744   3.886   7.577   7.744
13929SOL     OW43745   4.907   8.783   7.567
13929SOL    HW143746   4.808   8.772   7.569
13929SOL    HW243747   4.941   8.798   7.660
13930SOL     OW43748   4.337   8.290   8.879
13930SOL    HW143749   4.393   8.371   8.862
13930SOL    HW243750   4.396   8.210   8.882
13931SOL     OW43751   5.398   8.331   8.702
13931SOL    HW143752   5.371   8.242   8.665
13931SOL    HW243753   5.399   8.399   8.629
13932SOL     OW43754   4.949   7.773   7.897
13932SOL    HW143755   5.014   7.699   7.886
13932SOL    HW243756   4.969   7.823   7.981
13933SOL     OW43757   4.318   8.193   8.100
13933SOL    HW143758   4.368   8.278   8.081
13933SOL    HW243759   4.230   8.195   8.052
13934SOL     OW43760   5.501   7.790   0.090
13934SOL    HW143761   5.484   7.821  -0.004
13934SOL    HW243762   5.417   7.753   0.128
13935SOL     OW43763   5.454   8.382   8.965
13935SOL    HW143764   5.492   8.473   8.980
13935SOL    HW243765   5.446   8.365   8.866
13936SOL     OW43766   4.583   8.822   7.464
13936SOL    HW143767   4.537   8.837   7.552
13936SOL    HW243768   4.627   8.907   7.434
13937SOL     OW43769   4.583   8.404   8.309
13937SOL    HW143770   4.637   8.335   8.357
13937SOL    HW243771   4.551   8.473   8.375
13938SOL     OW43772   4.807   8.432   7.535
13938SOL    HW143773   4.784   8.485   7.453
13938SOL    HW243774   4.888   8.376   7.516
13939SOL     OW43775   3.803   8.688   8.101
13939SOL    HW143776   3.802   8.641   8.189
13939SOL    HW243777   3.885   8.660   8.050
13940SOL     OW43778   5.548   7.640   8.675
13940SOL    HW143779   5.544   7.550   8.719
13940SOL    HW243780   5.551   7.629   8.576
13941SOL     OW43781   4.152   7.872   7.968
13941SOL    HW143782   4.182   7.800   7.906
13941SOL    HW243783   4.113   7.832   8.051
13942SOL     OW43784   5.429   8.935   8.552
13942SOL    HW143785   5.336   8.910   8.525
13942SOL    HW243786   5.455   8.885   8.634
13943SOL     OW43787   4.041   7.995   8.728
13943SOL    HW143788   4.079   7.936   8.800
13943SOL    HW243789   4.081   7.969   8.640
13944SOL     OW43790   5.148   7.662   8.560
13944SOL    HW143791   5.200   7.597   8.615
13944SOL    HW243792   5.099   7.725   8.621
13945SOL     OW43793   4.725   7.482   8.602
13945SOL    HW143794   4.662   7.410   8.571
13945SOL    HW243795   4.818   7.446   8.602
13946SOL     OW43796   4.494   8.778   7.749
13946SOL    HW143797   4.448   8.691   7.766
13946SOL    HW243798   4.585   8.775   7.790
13947SOL     OW43799   4.342   0.015   8.732
13947SOL    HW143800   4.337   0.097   8.789
13947SOL    HW243801   4.431   0.012   8.687
13948SOL     OW43802   5.076   7.500   7.616
13948SOL    HW143803   5.111   7.459   7.532
13948SOL    HW243804   4.986   7.462   7.636
13949SOL     OW43805   5.024   7.901   8.139
13949SOL    HW143806   4.965   7.981   8.143
13949SOL    HW243807   5.039   7.866   8.232
13950SOL     OW43808   5.317   7.669   8.330
13950SOL    HW143809   5.233   7.668   8.384
13950SOL    HW243810   5.319   7.752   8.274
13951SOL     OW43811   3.763   8.525   7.748
13951SOL    HW143812   3.862   8.514   7.739
13951SOL    HW243813   3.723   8.439   7.780
13952SOL     OW43814   5.816   0.628   0.113
13952SOL    HW143815   5.723   0.626   0.150
13952SOL    HW243816   5.817   0.589   0.021
13953SOL     OW43817   5.811   0.275   0.996
13953SOL    HW143818   5.846   0.258   1.088
13953SOL    HW243819   5.723   0.230   0.984
13954SOL     OW43820   5.605   0.368   0.647
13954SOL    HW143821   5.523   0.411   0.686
13954SOL    HW243822   5.577   0.295   0.584
13955SOL     OW43823   6.155   1.275   1.165
13955SOL    HW143824   6.062   1.268   1.128
13955SOL    HW243825   6.166   1.364   1.209
13956SOL     OW43826   7.141   1.511   0.703
13956SOL    HW143827   7.084   1.495   0.784
13956SOL    HW243828   7.082   1.521   0.623
13957SOL     OW43829   7.329   0.618   0.856
13957SOL    HW143830   7.362   0.712   0.856
13957SOL    HW243831   7.380   0.564   0.922
13958SOL     OW43832   6.721   0.703   0.717
13958SOL    HW143833   6.778   0.781   0.692
13958SOL    HW243834   6.661   0.729   0.793
13959SOL     OW43835   7.341   0.607   0.231
13959SOL    HW143836   7.329   0.594   0.132
13959SOL    HW243837   7.311   0.526   0.280
13960SOL     OW43838   6.354   1.144   1.023
13960SOL    HW143839   6.276   1.161   1.083
13960SOL    HW243840   6.388   1.231   0.987
13961SOL     OW43841   6.436   0.798   1.823
13961SOL    HW143842   6.432   0.874   1.888
13961SOL    HW243843   6.458   0.834   1.732
13962SOL     OW43844   6.271   1.012   0.665
13962SOL    HW143845   6.340   0.996   0.735
13962SOL    HW243846   6.198   1.069   0.703
13963SOL     OW43847   7.046   1.505   1.339
13963SOL    HW143848   7.070   1.599   1.365
13963SOL    HW243849   7.030   1.451   1.421
13964SOL     OW43850   6.024   0.392   1.499
13964SOL    HW143851   6.106   0.336   1.508
13964SOL    HW243852   5.943   0.334   1.503
13965SOL     OW43853   7.189   0.447   0.737
13965SOL    HW143854   7.115   0.493   0.687
13965SOL    HW243855   7.240   0.515   0.790
13966SOL     OW43856   5.817   1.713   0.483
13966SOL    HW143857   5.851   1.790   0.537
13966SOL    HW243858   5.861   1.713   0.393
13967SOL     OW43859   6.713   1.341   1.690
13967SOL    HW143860   6.760   1.341   1.778
13967SOL    HW243861   6.665   1.254   1.679
13968SOL     OW43862   5.816   1.434   0.538
13968SOL    HW143863   5.790   1.530   0.538
13968SOL    HW243864   5.745   1.380   0.583
13969SOL     OW43865   5.826   1.091   0.886
13969SOL    HW143866   5.840   1.007   0.938
13969SOL    HW243867   5.771   1.155   0.941
13970SOL     OW43868   6.192   0.964   0.123
13970SOL    HW143869   6.199   1.048   0.069
13970SOL    HW243870   6.238   0.977   0.211
13971SOL     OW43871   7.180   0.114   1.480
13971SOL    HW143872   7.162   0.181   1.408
13971SOL    HW243873   7.177   0.160   1.569
13972SOL     OW43874   5.708   0.643   0.563
13972SOL    HW143875   5.663   0.555   0.580
13972SOL    HW243876   5.707   0.697   0.647
13973SOL     OW43877   7.428   1.767   0.359
13973SOL    HW143878   7.482   1.738   0.439
13973SOL    HW243879   7.458   1.857   0.330
13974SOL     OW43880   7.275   0.922   0.612
13974SOL    HW143881   7.370   0.893   0.620
13974SOL    HW243882   7.267   0.987   0.537
13975SOL     OW43883   7.227   1.108   0.432
13975SOL    HW143884   7.313   1.110   0.380
13975SOL    HW243885   7.241   1.155   0.520
13976SOL     OW43886   5.699   0.737   1.597
13976SOL    HW143887   5.787   0.724   1.642
13976SOL    HW243888   5.686   0.834   1.575
13977SOL     OW43889   6.199   1.365   0.726
13977SOL    HW143890   6.150   1.278   0.735
13977SOL    HW243891   6.176   1.408   0.639
13978SOL     OW43892   6.879   1.228   1.423
13978SOL    HW143893   6.916   1.155   1.365
13978SOL    HW243894   6.931   1.233   1.508
13979SOL     OW43895   6.395   0.004   0.502
13979SOL    HW143896   6.435   0.095   0.493
13979SOL    HW243897   6.295   0.012   0.508
13980SOL     OW43898   5.783   0.976   1.264
13980SOL    HW143899   5.872   0.931   1.250
13980SOL    HW243900   5.710   0.911   1.245
13981SOL     OW43901   7.111   0.999   0.190
13981SOL    HW143902   7.048   0.923   0.203
13981SOL    HW243903   7.159   1.017   0.276
13982SOL     OW43904   6.773   1.792   1.616
13982SOL    HW143905   6.797   1.852   1.540
13982SOL    HW243906   6.780   1.697   1.586
13983SOL     OW43907   5.903   0.251   1.801
13983SOL    HW143908   5.974   0.322   1.807
13983SOL    HW243909   5.815   0.290   1.829
13984SOL     OW43910   7.052   1.417   0.953
13984SOL    HW143911   6.993   1.423   1.033
13984SOL    HW243912   7.037   1.329   0.907
13985SOL     OW43913   7.253   1.714   0.572
13985SOL    HW143914   7.212   1.691   0.484
13985SOL    HW243915   7.235   1.640   0.637
13986SOL     OW43916   6.184   0.729   0.270
13986SOL    HW143917   6.208   0.798   0.202
13986SOL    HW243918   6.106   0.762   0.324
13987SOL     OW43919   6.867   0.345   0.944
13987SOL    HW143920   6.781   0.295   0.931
13987SOL    HW243921   6.929   0.291   1.000
13988SOL     OW43922   7.162   1.662   0.307
13988SOL    HW143923   7.251   1.708   0.310
13988SOL    HW243924   7.141   1.638   0.212
13989SOL     OW43925   6.393   0.605   1.465
13989SOL    HW143926   6.346   0.602   1.554
13989SOL    HW243927   6.342   0.550   1.399
13990SOL     OW43928   6.980   0.469   1.674
13990SOL    HW143929   6.960   0.512   1.762
13990SOL    HW243930   7.058   0.407   1.683
13991SOL     OW43931   6.559   0.890   1.572
13991SOL    HW143932   6.605   0.806   1.543
13991SOL    HW243933   6.503   0.924   1.497
13992SOL     OW43934   6.577   0.410   1.242
13992SOL    HW143935   6.500   0.444   1.296
13992SOL    HW243936   6.543   0.359   1.163
13993SOL     OW43937   6.627   0.701   0.429
13993SOL    HW143938   6.653   0.697   0.525
13993SOL    HW243939   6.542   0.650   0.415
13994SOL     OW43940   5.662   0.811   0.789
13994SOL    HW143941   5.761   0.799   0.798
13994SOL    HW243942   5.638   0.906   0.810
13995SOL     OW43943   5.716   1.821   1.571
13995SOL    HW143944   5.706   1.806   1.670
13995SOL    HW243945   5.630   1.857   1.535
13996SOL     OW43946   6.451   0.348   0.195
13996SOL    HW143947   6.510   0.411   0.146
13996SOL    HW243948   6.470   0.254   0.166
13997SOL     OW43949   7.305   0.585   1.831
13997SOL    HW143950   7.279   0.674   1.795
13997SOL    HW243951   7.303   0.517   1.758
13998SOL     OW43952   6.948   1.144   0.545
13998SOL    HW143953   7.031   1.115   0.497
13998SOL    HW243954   6.899   1.211   0.489
13999SOL     OW43955   6.136   0.196   0.885
13999SOL    HW143956   6.131   0.191   0.985
13999SOL    HW243957   6.138   0.292   0.856
14000SOL     OW43958   6.594   1.456   0.477
14000SOL    HW143959   6.548   1.528   0.425
14000SOL    HW243960   6.590   1.476   0.575
14001SOL     OW43961   5.937   1.801   0.853
14001SOL    HW143962   5.987   1.715   0.859
14001SOL    HW243963   6.002   1.878   0.850
14002SOL     OW43964   7.381   1.066   0.873
14002SOL    HW143965   7.319   1.051   0.797
14002SOL    HW243966   7.329   1.077   0.958
14003SOL     OW43967   6.813   1.550   1.506
14003SOL    HW143968   6.819   1.473   1.570
14003SOL    HW243969   6.761   1.524   1.426
14004SOL     OW43970   5.907   0.943   0.242
14004SOL    HW143971   5.989   0.982   0.200
14004SOL    HW243972   5.880   0.861   0.193
14005SOL     OW43973   7.044   0.735   0.728
14005SOL    HW143974   7.039   0.670   0.803
14005SOL    HW243975   7.124   0.794   0.741
14006SOL     OW43976   6.047   1.266   1.727
14006SOL    HW143977   5.997   1.267   1.641
14006SOL    HW243978   5.984   1.248   1.803
14007SOL     OW43979   6.697   1.776   0.237
14007SOL    HW143980   6.637   1.714   0.287
14007SOL    HW243981   6.728   1.732   0.152
14008SOL     OW43982   5.788   0.285   1.498
14008SOL    HW143983   5.708   0.345   1.485
14008SOL    HW243984   5.778   0.236   1.584
14009SOL     OW43985   7.218   1.377   0.081
14009SOL    HW143986   7.186   1.471   0.071
14009SOL    HW243987   7.142   1.314   0.069
14010SOL     OW43988   6.050   1.743   0.323
14010SOL    HW143989   6.083   1.782   0.409
14010SOL    HW243990   6.126   1.736   0.258
14011SOL     OW43991   6.986   0.107   0.426
14011SOL    HW143992   6.962   0.070   0.336
14011SOL    HW243993   7.085   0.123   0.430
14012SOL     OW43994   5.968   0.700   0.480
14012SOL    HW143995   6.013   0.610   0.477
14012SOL    HW243996   5.874   0.689   0.513
14013SOL     OW43997   7.133   0.222   1.729
14013SOL    HW143998   7.128   0.259   1.821
14013SOL    HW243999   7.061   0.153   1.717
14014SOL     OW44000   6.200   0.122   0.117
14014SOL    HW144001   6.298   0.100   0.124
14014SOL    HW244002   6.169   0.105   0.024
14015SOL     OW44003   6.367   0.264   1.749
14015SOL    HW144004   6.434   0.203   1.792
14015SOL    HW244005   6.294   0.283   1.814
14016SOL     OW44006   6.937   0.590   1.433
14016SOL    HW144007   6.965   0.547   1.518
14016SOL    HW244008   6.962   0.686   1.434
14017SOL     OW44009   6.508   0.503   0.899
14017SOL    HW144010   6.483   0.494   0.803
14017SOL    HW244011   6.556   0.421   0.930
14018SOL     OW44012   6.125   0.064   0.512
14018SOL    HW144013   6.044   0.065   0.570
14018SOL    HW244014   6.128   0.147   0.457
14019SOL     OW44015   7.020   1.188   0.041
14019SOL    HW144016   7.052   1.112   0.098
14019SOL    HW244017   6.928   1.215   0.071
14020SOL     OW44018   5.883   0.035   0.171
14020SOL    HW144019   5.932   0.119   0.150
14020SOL    HW244020   5.945  -0.030   0.216
14021SOL     OW44021   6.521   0.236   0.480
14021SOL    HW144022   6.473   0.277   0.402
14021SOL    HW244023   6.620   0.234   0.461
14022SOL     OW44024   6.662   0.683   1.464
14022SOL    HW144025   6.582   0.622   1.467
14022SOL    HW244026   6.743   0.630   1.440
14023SOL     OW44027   6.045   1.152   0.741
14023SOL    HW144028   5.974   1.125   0.806
14023SOL    HW244029   6.019   1.124   0.648
14024SOL     OW44030   6.857   1.797   0.591
14024SOL    HW144031   6.901   1.861   0.527
14024SOL    HW244032   6.807   1.849   0.661
14025SOL     OW44033   6.618   0.549   0.016
14025SOL    HW144034   6.577   0.631  -0.023
14025SOL    HW244035   6.682   0.575   0.089
14026SOL     OW44036   5.664   0.556   1.386
14026SOL    HW144037   5.756   0.555   1.345
14026SOL    HW244038   5.658   0.630   1.453
14027SOL     OW44039   6.147   0.222   1.147
14027SOL    HW144040   6.185   0.138   1.184
14027SOL    HW244041   6.059   0.241   1.191
14028SOL     OW44042   6.452   0.454   0.642
14028SOL    HW144043   6.420   0.526   0.580
14028SOL    HW244044   6.476   0.373   0.589
14029SOL     OW44045   6.603   0.039   0.753
14029SOL    HW144046   6.531   0.044   0.684
14029SOL    HW244047   6.579  -0.030   0.822
14030SOL     OW44048   7.015   1.173   0.867
14030SOL    HW144049   6.960   1.089   0.860
14030SOL    HW244050   7.041   1.202   0.775
14031SOL     OW44051   7.052   0.590   0.992
14031SOL    HW144052   7.022   0.495   0.999
14031SOL    HW244053   7.125   0.606   1.058
14032SOL     OW44054   7.443   0.833   0.377
14032SOL    HW144055   7.485   0.769   0.441
14032SOL    HW244056   7.405   0.782   0.299
14033SOL     OW44057   6.074   1.385   0.174
14033SOL    HW144058   5.987   1.370   0.221
14033SOL    HW244059   6.057   1.411   0.079
14034SOL     OW44060   7.250   1.280   0.657
14034SOL    HW144061   7.349   1.288   0.671
14034SOL    HW244062   7.205   1.364   0.688
14035SOL     OW44063   6.976   0.575   0.078
14035SOL    HW144064   6.922   0.554   0.159
14035SOL    HW244065   7.067   0.534   0.087
14036SOL     OW44066   6.113   0.256   0.328
14036SOL    HW144067   6.140   0.197   0.253
14036SOL    HW244068   6.113   0.351   0.297
14037SOL     OW44069   7.340   1.223   1.588
14037SOL    HW144070   7.431   1.184   1.575
14037SOL    HW244071   7.348   1.319   1.612
14038SOL     OW44072   7.178   1.629   1.625
14038SOL    HW144073   7.205   1.663   1.535
14038SOL    HW244074   7.257   1.591   1.671
14039SOL     OW44075   6.697   1.195   1.100
14039SOL    HW144076   6.657   1.239   1.181
14039SOL    HW244077   6.656   1.232   1.017
14040SOL     OW44078   7.224   1.099   1.079
14040SOL    HW144079   7.229   1.180   1.138
14040SOL    HW244080   7.138   1.101   1.028
14041SOL     OW44081   6.501   0.089   1.402
14041SOL    HW144082   6.526   0.069   1.307
14041SOL    HW244083   6.573   0.145   1.444
14042SOL     OW44084   6.291   1.050   0.368
14042SOL    HW144085   6.277   1.057   0.467
14042SOL    HW244086   6.375   0.999   0.350
14043SOL     OW44087   5.996   0.813   1.251
14043SOL    HW144088   6.082   0.825   1.301
14043SOL    HW244089   5.954   0.726   1.278
14044SOL     OW44090   6.860   0.386   1.262
14044SOL    HW144091   6.881   0.460   1.326
14044SOL    HW244092   6.771   0.403   1.219
14045SOL     OW44093   5.953   1.100   0.501
14045SOL    HW144094   5.946   1.183   0.445
14045SOL    HW244095   5.957   1.020   0.441
14046SOL     OW44096   6.152   0.537   0.865
14046SOL    HW144097   6.164   0.603   0.791
14046SOL    HW244098   6.198   0.571   0.948
14047SOL     OW44099   6.838   1.348   0.388
14047SOL    HW144100   6.888   1.425   0.428
14047SOL    HW244101   6.743   1.350   0.420
14048SOL     OW44102   6.858   1.445   1.142
14048SOL    HW144103   6.905   1.458   1.229
14048SOL    HW244104   6.792   1.371   1.151
14049SOL     OW44105   7.168   0.639   0.472
14049SOL    HW144106   7.137   0.700   0.545
14049SOL    HW244107   7.218   0.691   0.403
14050SOL     OW44108   5.988   0.751   1.598
14050SOL    HW144109   6.056   0.806   1.551
14050SOL    HW244110   6.028   0.663   1.625
14051SOL     OW44111   7.173   0.779   1.670
14051SOL    HW144112   7.081   0.817   1.665
14051SOL    HW244113   7.233   0.826   1.605
14052SOL     OW44114   6.599   0.105   1.770
14052SOL    HW144115   6.605   0.190   1.718
14052SOL    HW244116   6.631   0.029   1.713
14053SOL     OW44117   6.090   0.050   1.740
14053SOL    HW144118   6.048  -0.007   1.670
14053SOL    HW244119   6.024   0.119   1.772
14054SOL     OW44120   6.159   0.870   1.029
14054SOL    HW144121   6.203   0.959   1.020
14054SOL    HW244122   6.096   0.870   1.106
14055SOL     OW44123   6.946   0.862   1.045
14055SOL    HW144124   6.871   0.862   0.979
14055SOL    HW244125   6.983   0.770   1.054
14056SOL     OW44126   6.795   0.525   0.275
14056SOL    HW144127   6.808   0.441   0.329
14056SOL    HW244128   6.766   0.599   0.335
14057SOL     OW44129   5.893   0.213   1.231
14057SOL    HW144130   5.870   0.250   1.321
14057SOL    HW244131   5.863   0.118   1.225
14058SOL     OW44132   5.623   1.310   1.282
14058SOL    HW144133   5.676   1.261   1.350
14058SOL    HW244134   5.645   1.408   1.287
14059SOL     OW44135   6.318   0.634   1.064
14059SOL    HW144136   6.377   0.608   0.988
14059SOL    HW244137   6.290   0.730   1.053
14060SOL     OW44138   7.314   0.935   1.854
14060SOL    HW144139   7.268   0.928   1.765
14060SOL    HW244140   7.252   0.979   1.920
14061SOL     OW44141   5.893   0.063   0.618
14061SOL    HW144142   5.882   0.157   0.651
14061SOL    HW244143   5.888   0.000   0.695
14062SOL     OW44144   7.208   0.367   0.374
14062SOL    HW144145   7.210   0.291   0.438
14062SOL    HW244146   7.160   0.444   0.414
14063SOL     OW44147   6.609   0.766   0.966
14063SOL    HW144148   6.624   0.787   1.062
14063SOL    HW244149   6.579   0.671   0.957
14064SOL     OW44150   6.566   1.573   1.700
14064SOL    HW144151   6.546   1.617   1.612
14064SOL    HW244152   6.605   1.482   1.684
14065SOL     OW44153   7.445   1.518   1.605
14065SOL    HW144154   7.459   1.545   1.510
14065SOL    HW244155   7.528   1.540   1.658
14066SOL     OW44156   5.936   0.898   1.804
14066SOL    HW144157   6.012   0.942   1.852
14066SOL    HW244158   5.971   0.851   1.722
14067SOL     OW44159   7.126   0.274   0.125
14067SOL    HW144160   7.065   0.199   0.148
14067SOL    HW244161   7.148   0.326   0.208
14068SOL     OW44162   6.889   0.838   0.042
14068SOL    HW144163   6.923   0.745   0.057
14068SOL    HW244164   6.907   0.865  -0.053
14069SOL     OW44165   5.905   0.810   0.949
14069SOL    HW144166   5.998   0.846   0.954
14069SOL    HW244167   5.899   0.725   1.001
14070SOL     OW44168   5.925   0.509   1.006
14070SOL    HW144169   5.873   0.426   0.989
14070SOL    HW244170   6.002   0.514   0.942
14071SOL     OW44171   6.724   0.380   1.678
14071SOL    HW144172   6.679   0.443   1.742
14071SOL    HW244173   6.817   0.411   1.661
14072SOL     OW44174   6.746   0.207   1.477
14072SOL    HW144175   6.746   0.271   1.554
14072SOL    HW244176   6.774   0.255   1.394
14073SOL     OW44177   5.594   1.326   0.200
14073SOL    HW144178   5.501   1.347   0.169
14073SOL    HW244179   5.604   1.227   0.213
14074SOL     OW44180   5.674   1.801   0.927
14074SOL    HW144181   5.632   1.715   0.900
14074SOL    HW244182   5.768   1.804   0.893
14075SOL     OW44183   6.090   1.568   0.910
14075SOL    HW144184   6.156   1.642   0.919
14075SOL    HW244185   6.134   1.489   0.868
14076SOL     OW44186   6.588   0.796   1.238
14076SOL    HW144187   6.629   0.764   1.324
14076SOL    HW244188   6.492   0.769   1.235
14077SOL     OW44189   5.626   0.544   1.114
14077SOL    HW144190   5.711   0.511   1.073
14077SOL    HW244191   5.639   0.559   1.212
14078SOL     OW44192   5.775   0.520   1.722
14078SOL    HW144193   5.834   0.480   1.652
14078SOL    HW244194   5.717   0.591   1.681
14079SOL     OW44195   6.955   0.950   1.660
14079SOL    HW144196   6.994   1.039   1.680
14079SOL    HW244197   6.965   0.930   1.563
14080SOL     OW44198   6.401   0.572   0.325
14080SOL    HW144199   6.408   0.483   0.279
14080SOL    HW244200   6.307   0.606   0.317
14081SOL     OW44201   7.243   0.604   1.206
14081SOL    HW144202   7.205   0.535   1.268
14081SOL    HW244203   7.325   0.568   1.162
14082SOL     OW44204   5.838   1.564   1.744
14082SOL    HW144205   5.808   1.621   1.820
14082SOL    HW244206   5.831   1.467   1.770
14083SOL     OW44207   6.257   0.464   1.269
14083SOL    HW144208   6.223   0.375   1.239
14083SOL    HW244209   6.283   0.518   1.189
14084SOL     OW44210   6.059   0.500   0.191
14084SOL    HW144211   6.120   0.580   0.195
14084SOL    HW244212   5.964   0.531   0.198
14085SOL     OW44213   5.745   1.137   1.466
14085SOL    HW144214   5.767   1.076   1.542
14085SOL    HW244215   5.755   1.088   1.380
14086SOL     OW44216   6.933   1.059   1.234
14086SOL    HW144217   6.957   0.996   1.160
14086SOL    HW244218   6.843   1.099   1.216
14087SOL     OW44219   6.888   0.855   0.309
14087SOL    HW144220   6.802   0.824   0.351
14087SOL    HW244221   6.884   0.841   0.210
14088SOL     OW44222   7.345   1.747   1.154
14088SOL    HW144223   7.406   1.777   1.081
14088SOL    HW244224   7.307   1.658   1.132
14089SOL     OW44225   6.838   1.731   1.128
14089SOL    HW144226   6.922   1.736   1.074
14089SOL    HW244227   6.815   1.635   1.146
14090SOL     OW44228   5.669   1.258   1.022
14090SOL    HW144229   5.664   1.257   1.122
14090SOL    HW244230   5.586   1.217   0.984
14091SOL     OW44231   6.489   0.086   0.133
14091SOL    HW144232   6.540   0.087   0.047
14091SOL    HW244233   6.545   0.044   0.204
14092SOL     OW44234   7.312   0.135   0.523
14092SOL    HW144235   7.385   0.118   0.456
14092SOL    HW244236   7.281   0.048   0.561
14093SOL     OW44237   6.974   1.573   0.477
14093SOL    HW144238   7.041   1.585   0.403
14093SOL    HW244239   6.934   1.662   0.500
14094SOL     OW44240   6.866   0.927   0.672
14094SOL    HW144241   6.926   0.846   0.674
14094SOL    HW244242   6.906   0.996   0.612
14095SOL     OW44243   6.258   1.616   0.154
14095SOL    HW144244   6.267   1.626   0.055
14095SOL    HW244245   6.218   1.527   0.175
14096SOL     OW44246   7.236   1.720   1.394
14096SOL    HW144247   7.289   1.730   1.310
14096SOL    HW244248   7.209   1.810   1.428
14097SOL     OW44249   7.427   0.175   0.963
14097SOL    HW144250   7.466   0.090   0.927
14097SOL    HW244251   7.329   0.177   0.944
14098SOL     OW44252   5.849   0.326   0.720
14098SOL    HW144253   5.770   0.377   0.686
14098SOL    HW244254   5.840   0.311   0.818
14099SOL     OW44255   6.780   1.612   0.031
14099SOL    HW144256   6.786   1.519   0.068
14099SOL    HW244257   6.721   1.612  -0.049
14100SOL     OW44258   6.408   1.002   1.372
14100SOL    HW144259   6.448   1.001   1.280
14100SOL    HW244260   6.418   1.094   1.412
14101SOL     OW44261   6.502   0.910   0.291
14101SOL    HW144262   6.565   0.948   0.223
14101SOL    HW244263   6.542   0.827   0.330
14102SOL     OW44264   7.090   1.607   0.044
14102SOL    HW144265   6.998   1.644   0.051
14102SOL    HW244266   7.128   1.627  -0.046
14103SOL     OW44267   5.958   1.288   1.490
14103SOL    HW144268   5.945   1.381   1.456
14103SOL    HW244269   5.874   1.236   1.477
14104SOL     OW44270   7.200   1.292   1.289
14104SOL    HW144271   7.260   1.295   1.369
14104SOL    HW244272   7.125   1.356   1.302
14105SOL     OW44273   6.625   1.098   0.696
14105SOL    HW144274   6.555   1.051   0.750
14105SOL    HW244275   6.684   1.030   0.653
14106SOL     OW44276   6.600   0.236   0.971
14106SOL    HW144277   6.592   0.200   0.878
14106SOL    HW244278   6.598   0.160   1.036
14107SOL     OW44279   6.176   1.487   0.491
14107SOL    HW144280   6.218   1.429   0.421
14107SOL    HW244281   6.132   1.566   0.447
14108SOL     OW44282   7.295   0.385   1.381
14108SOL    HW144283   7.368   0.454   1.385
14108SOL    HW244284   7.323   0.310   1.322
14109SOL     OW44285   5.841   1.348   0.290
14109SOL    HW144286   5.745   1.349   0.263
14109SOL    HW244287   5.853   1.401   0.374
14110SOL     OW44288   5.691   1.013   1.726
14110SOL    HW144289   5.614   0.980   1.780
14110SOL    HW244290   5.776   0.983   1.768
14111SOL     OW44291   6.258   0.203   1.489
14111SOL    HW144292   6.348   0.187   1.449
14111SOL    HW244293   6.266   0.208   1.588
14112SOL     OW44294   7.026   0.856   1.398
14112SOL    HW144295   6.969   0.908   1.335
14112SOL    HW244296   7.122   0.868   1.374
14113SOL     OW44297   5.658   0.166   0.318
14113SOL    HW144298   5.641   0.249   0.264
14113SOL    HW244299   5.748   0.129   0.296
14114SOL     OW44300   6.769   1.335   0.119
14114SOL    HW144301   6.670   1.324   0.121
14114SOL    HW244302   6.803   1.350   0.212
14115SOL     OW44303   6.199   0.842   1.431
14115SOL    HW144304   6.255   0.923   1.414
14115SOL    HW244305   6.258   0.762   1.434
14116SOL     OW44306   7.079   1.767   0.959
14116SOL    HW144307   7.112   1.831   0.890
14116SOL    HW244308   7.145   1.761   1.034
14117SOL     OW44309   6.302   0.565   1.708
14117SOL    HW144310   6.321   0.630   1.782
14117SOL    HW244311   6.362   0.485   1.717
14118SOL     OW44312   7.036   1.220   1.633
14118SOL    HW144313   7.027   1.210   1.732
14118SOL    HW244314   7.132   1.213   1.607
14119SOL     OW44315   7.260   0.883   1.254
14119SOL    HW144316   7.233   0.794   1.217
14119SOL    HW244317   7.261   0.951   1.181
14120SOL     OW44318   6.811   0.325   0.449
14120SOL    HW144319   6.876   0.251   0.438
14120SOL    HW244320   6.831   0.375   0.533
14121SOL     OW44321   6.180   0.745   0.652
14121SOL    HW144322   6.230   0.830   0.633
14121SOL    HW244323   6.092   0.747   0.604
14122SOL     OW44324   7.363   0.342   1.642
14122SOL    HW144325   7.346   0.373   1.548
14122SOL    HW244326   7.279   0.305   1.680
14123SOL     OW44327   7.316   0.934   1.517
14123SOL    HW144328   7.354   1.025   1.532
14123SOL    HW244329   7.308   0.917   1.418
14124SOL     OW44330   6.445   1.374   0.016
14124SOL    HW144331   6.399   1.389   0.104
14124SOL    HW244332   6.489   1.459  -0.014
14125SOL     OW44333   6.994   1.851   1.720
14125SOL    HW144334   6.898   1.840   1.693
14125SOL    HW244335   7.050   1.784   1.672
14126SOL     OW44336   6.445   0.956   0.861
14126SOL    HW144337   6.499   0.887   0.909
14126SOL    HW244338   6.413   1.025   0.927
14127SOL     OW44339   6.669   0.984   0.087
14127SOL    HW144340   6.646   1.037   0.005
14127SOL    HW244341   6.750   0.928   0.068
14128SOL     OW44342   7.447   1.569   0.851
14128SOL    HW144343   7.376   1.557   0.781
14128SOL    HW244344   7.448   1.490   0.911
14129SOL     OW44345   5.807   1.314   1.844
14129SOL    HW144346   5.742   1.241   1.823
14129SOL    HW244347   5.811   1.328   1.942
14130SOL     OW44348   5.665   1.240   0.653
14130SOL    HW144349   5.664   1.193   0.741
14130SOL    HW244350   5.747   1.212   0.602
14131SOL     OW44351   7.410   0.192   1.227
14131SOL    HW144352   7.406   0.102   1.271
14131SOL    HW244353   7.413   0.181   1.128
14132SOL     OW44354   6.014   0.424   0.520
14132SOL    HW144355   6.044   0.352   0.458
14132SOL    HW244356   5.975   0.384   0.603
14133SOL     OW44357   7.291   1.487   1.104
14133SOL    HW144358   7.198   1.462   1.077
14133SOL    HW244359   7.317   1.437   1.186
14134SOL     OW44360   5.903   0.547   1.280
14134SOL    HW144361   5.941   0.488   1.352
14134SOL    HW244362   5.943   0.521   1.192
14135SOL     OW44363   7.010   0.214   1.112
14135SOL    HW144364   7.062   0.149   1.167
14135SOL    HW244365   6.961   0.277   1.173
14136SOL     OW44366   6.587   0.034   1.154
14136SOL    HW144367   6.524  -0.038   1.123
14136SOL    HW244368   6.680  -0.002   1.154
14137SOL     OW44369   6.356   1.330   0.301
14137SOL    HW144370   6.310   1.243   0.318
14137SOL    HW244371   6.447   1.327   0.342
14138SOL     OW44372   6.938   0.052   0.168
14138SOL    HW144373   6.973   0.011   0.084
14138SOL    HW244374   6.848   0.014   0.188
14139SOL     OW44375   6.886   0.453   0.691
14139SOL    HW144376   6.827   0.533   0.695
14139SOL    HW244377   6.901   0.418   0.784
14140SOL     OW44378   7.179   0.221   0.882
14140SOL    HW144379   7.095   0.220   0.936
14140SOL    HW244380   7.181   0.304   0.826
14141SOL     OW44381   5.625   1.077   0.300
14141SOL    HW144382   5.724   1.066   0.291
14141SOL    HW244383   5.585   0.991   0.332
14142SOL     OW44384   6.461   1.646   0.337
14142SOL    HW144385   6.384   1.611   0.283
14142SOL    HW244386   6.429   1.717   0.399
14143SOL     OW44387   5.816   0.628   1.975
14143SOL    HW144388   5.723   0.626   2.012
14143SOL    HW244389   5.817   0.589   1.883
14144SOL     OW44390   5.811   0.275   2.858
14144SOL    HW144391   5.846   0.258   2.950
14144SOL    HW244392   5.723   0.230   2.846
14145SOL     OW44393   5.605   0.368   2.509
14145SOL    HW144394   5.523   0.411   2.548
14145SOL    HW244395   5.577   0.295   2.446
14146SOL     OW44396   6.155   1.275   3.027
14146SOL    HW144397   6.062   1.268   2.990
14146SOL    HW244398   6.166   1.364   3.071
14147SOL     OW44399   7.141   1.511   2.565
14147SOL    HW144400   7.084   1.495   2.646
14147SOL    HW244401   7.082   1.521   2.485
14148SOL     OW44402   7.329   0.618   2.718
14148SOL    HW144403   7.362   0.712   2.718
14148SOL    HW244404   7.380   0.564   2.784
14149SOL     OW44405   6.721   0.703   2.579
14149SOL    HW144406   6.778   0.781   2.554
14149SOL    HW244407   6.661   0.729   2.655
14150SOL     OW44408   7.341   0.607   2.093
14150SOL    HW144409   7.329   0.594   1.994
14150SOL    HW244410   7.311   0.526   2.142
14151SOL     OW44411   6.354   1.144   2.885
14151SOL    HW144412   6.276   1.161   2.945
14151SOL    HW244413   6.388   1.231   2.849
14152SOL     OW44414   6.436   0.798   3.685
14152SOL    HW144415   6.432   0.874   3.750
14152SOL    HW244416   6.458   0.834   3.594
14153SOL     OW44417   6.272   1.161   3.665
14153SOL    HW144418   6.332   1.240   3.679
14153SOL    HW244419   6.186   1.192   3.624
14154SOL     OW44420   5.921   1.435   2.923
14154SOL    HW144421   5.843   1.404   2.870
14154SOL    HW244422   5.979   1.493   2.866
14155SOL     OW44423   7.046   1.505   3.201
14155SOL    HW144424   7.070   1.599   3.227
14155SOL    HW244425   7.030   1.451   3.283
14156SOL     OW44426   6.024   0.392   3.361
14156SOL    HW144427   6.106   0.336   3.370
14156SOL    HW244428   5.943   0.334   3.365
14157SOL     OW44429   7.189   0.447   2.599
14157SOL    HW144430   7.115   0.493   2.549
14157SOL    HW244431   7.240   0.515   2.652
14158SOL     OW44432   5.817   1.713   2.345
14158SOL    HW144433   5.851   1.790   2.399
14158SOL    HW244434   5.861   1.713   2.255
14159SOL     OW44435   6.713   1.341   3.552
14159SOL    HW144436   6.760   1.341   3.640
14159SOL    HW244437   6.665   1.254   3.541
14160SOL     OW44438   5.816   1.434   2.400
14160SOL    HW144439   5.790   1.530   2.400
14160SOL    HW244440   5.745   1.380   2.445
14161SOL     OW44441   5.826   1.091   2.748
14161SOL    HW144442   5.840   1.007   2.800
14161SOL    HW244443   5.771   1.155   2.803
14162SOL     OW44444   6.192   0.964   1.985
14162SOL    HW144445   6.199   1.048   1.931
14162SOL    HW244446   6.238   0.977   2.073
14163SOL     OW44447   7.180   0.114   3.342
14163SOL    HW144448   7.162   0.181   3.270
14163SOL    HW244449   7.177   0.160   3.431
14164SOL     OW44450   5.708   0.643   2.425
14164SOL    HW144451   5.663   0.555   2.442
14164SOL    HW244452   5.707   0.697   2.509
14165SOL     OW44453   7.428   1.767   2.221
14165SOL    HW144454   7.482   1.738   2.301
14165SOL    HW244455   7.458   1.857   2.192
14166SOL     OW44456   5.613   1.596   1.979
14166SOL    HW144457   5.594   1.500   2.000
14166SOL    HW244458   5.580   1.654   2.054
14167SOL     OW44459   7.275   0.922   2.474
14167SOL    HW144460   7.370   0.893   2.482
14167SOL    HW244461   7.267   0.987   2.399
14168SOL     OW44462   7.227   1.108   2.294
14168SOL    HW144463   7.313   1.110   2.242
14168SOL    HW244464   7.241   1.155   2.382
14169SOL     OW44465   5.699   0.737   3.459
14169SOL    HW144466   5.787   0.724   3.504
14169SOL    HW244467   5.686   0.834   3.437
14170SOL     OW44468   6.879   1.228   3.285
14170SOL    HW144469   6.916   1.155   3.227
14170SOL    HW244470   6.931   1.233   3.370
14171SOL     OW44471   6.395   0.004   2.364
14171SOL    HW144472   6.435   0.095   2.355
14171SOL    HW244473   6.295   0.012   2.370
14172SOL     OW44474   5.783   0.976   3.126
14172SOL    HW144475   5.872   0.931   3.112
14172SOL    HW244476   5.710   0.911   3.107
14173SOL     OW44477   7.111   0.999   2.052
14173SOL    HW144478   7.048   0.923   2.065
14173SOL    HW244479   7.159   1.017   2.138
14174SOL     OW44480   6.773   1.792   3.478
14174SOL    HW144481   6.797   1.852   3.402
14174SOL    HW244482   6.780   1.697   3.448
14175SOL     OW44483   5.903   0.251   3.663
14175SOL    HW144484   5.974   0.322   3.669
14175SOL    HW244485   5.815   0.290   3.691
14176SOL     OW44486   7.052   1.417   2.815
14176SOL    HW144487   6.993   1.423   2.895
14176SOL    HW244488   7.037   1.329   2.769
14177SOL     OW44489   7.253   1.714   2.434
14177SOL    HW144490   7.212   1.691   2.346
14177SOL    HW244491   7.235   1.640   2.499
14178SOL     OW44492   6.184   0.729   2.132
14178SOL    HW144493   6.208   0.798   2.064
14178SOL    HW244494   6.106   0.762   2.186
14179SOL     OW44495   6.867   0.345   2.806
14179SOL    HW144496   6.781   0.295   2.793
14179SOL    HW244497   6.929   0.291   2.862
14180SOL     OW44498   7.162   1.662   2.169
14180SOL    HW144499   7.251   1.708   2.172
14180SOL    HW244500   7.141   1.638   2.074
14181SOL     OW44501   6.393   0.605   3.327
14181SOL    HW144502   6.346   0.602   3.416
14181SOL    HW244503   6.342   0.550   3.261
14182SOL     OW44504   6.980   0.469   3.536
14182SOL    HW144505   6.960   0.512   3.624
14182SOL    HW244506   7.058   0.407   3.545
14183SOL     OW44507   6.559   0.890   3.434
14183SOL    HW144508   6.605   0.806   3.405
14183SOL    HW244509   6.503   0.924   3.359
14184SOL     OW44510   6.577   0.410   3.104
14184SOL    HW144511   6.500   0.444   3.158
14184SOL    HW244512   6.543   0.359   3.025
14185SOL     OW44513   6.627   0.701   2.291
14185SOL    HW144514   6.653   0.697   2.387
14185SOL    HW244515   6.542   0.650   2.277
14186SOL     OW44516   5.662   0.811   2.651
14186SOL    HW144517   5.761   0.799   2.660
14186SOL    HW244518   5.638   0.906   2.672
14187SOL     OW44519   5.716   1.821   3.433
14187SOL    HW144520   5.706   1.806   3.532
14187SOL    HW244521   5.630   1.857   3.397
14188SOL     OW44522   6.451   0.348   2.057
14188SOL    HW144523   6.510   0.411   2.008
14188SOL    HW244524   6.470   0.254   2.028
14189SOL     OW44525   7.305   0.585   3.693
14189SOL    HW144526   7.279   0.674   3.657
14189SOL    HW244527   7.303   0.517   3.620
14190SOL     OW44528   6.948   1.144   2.407
14190SOL    HW144529   7.031   1.115   2.359
14190SOL    HW244530   6.899   1.211   2.351
14191SOL     OW44531   6.136   0.196   2.747
14191SOL    HW144532   6.131   0.191   2.847
14191SOL    HW244533   6.138   0.292   2.718
14192SOL     OW44534   6.594   1.456   2.339
14192SOL    HW144535   6.548   1.528   2.287
14192SOL    HW244536   6.590   1.476   2.437
14193SOL     OW44537   5.937   1.801   2.715
14193SOL    HW144538   5.987   1.715   2.721
14193SOL    HW244539   6.002   1.878   2.712
14194SOL     OW44540   7.381   1.066   2.735
14194SOL    HW144541   7.319   1.051   2.659
14194SOL    HW244542   7.329   1.077   2.820
14195SOL     OW44543   6.813   1.550   3.368
14195SOL    HW144544   6.819   1.473   3.432
14195SOL    HW244545   6.761   1.524   3.288
14196SOL     OW44546   5.907   0.943   2.104
14196SOL    HW144547   5.989   0.982   2.062
14196SOL    HW244548   5.880   0.861   2.055
14197SOL     OW44549   7.044   0.735   2.590
14197SOL    HW144550   7.039   0.670   2.665
14197SOL    HW244551   7.124   0.794   2.603
14198SOL     OW44552   6.047   1.266   3.589
14198SOL    HW144553   5.997   1.267   3.503
14198SOL    HW244554   5.984   1.248   3.665
14199SOL     OW44555   5.788   0.285   3.360
14199SOL    HW144556   5.708   0.345   3.347
14199SOL    HW244557   5.778   0.236   3.446
14200SOL     OW44558   7.218   1.377   1.943
14200SOL    HW144559   7.186   1.471   1.933
14200SOL    HW244560   7.142   1.314   1.931
14201SOL     OW44561   6.986   0.107   2.288
14201SOL    HW144562   6.962   0.070   2.198
14201SOL    HW244563   7.085   0.123   2.292
14202SOL     OW44564   5.968   0.700   2.342
14202SOL    HW144565   6.013   0.610   2.339
14202SOL    HW244566   5.874   0.689   2.375
14203SOL     OW44567   7.133   0.222   3.591
14203SOL    HW144568   7.128   0.259   3.683
14203SOL    HW244569   7.061   0.153   3.579
14204SOL     OW44570   6.200   0.122   1.979
14204SOL    HW144571   6.298   0.100   1.986
14204SOL    HW244572   6.169   0.105   1.886
14205SOL     OW44573   6.367   0.264   3.611
14205SOL    HW144574   6.434   0.203   3.654
14205SOL    HW244575   6.294   0.283   3.676
14206SOL     OW44576   6.937   0.590   3.295
14206SOL    HW144577   6.965   0.547   3.380
14206SOL    HW244578   6.962   0.686   3.296
14207SOL     OW44579   6.508   0.503   2.761
14207SOL    HW144580   6.483   0.494   2.665
14207SOL    HW244581   6.556   0.421   2.792
14208SOL     OW44582   6.125   0.064   2.374
14208SOL    HW144583   6.044   0.065   2.432
14208SOL    HW244584   6.128   0.147   2.319
14209SOL     OW44585   7.020   1.188   1.903
14209SOL    HW144586   7.052   1.112   1.960
14209SOL    HW244587   6.928   1.215   1.933
14210SOL     OW44588   5.883   0.035   2.033
14210SOL    HW144589   5.932   0.119   2.012
14210SOL    HW244590   5.945  -0.030   2.078
14211SOL     OW44591   6.521   0.236   2.342
14211SOL    HW144592   6.473   0.277   2.264
14211SOL    HW244593   6.620   0.234   2.323
14212SOL     OW44594   6.662   0.683   3.326
14212SOL    HW144595   6.582   0.622   3.329
14212SOL    HW244596   6.743   0.630   3.302
14213SOL     OW44597   6.813   1.570   2.655
14213SOL    HW144598   6.834   1.644   2.590
14213SOL    HW244599   6.881   1.570   2.728
14214SOL     OW44600   6.857   1.797   2.453
14214SOL    HW144601   6.901   1.861   2.389
14214SOL    HW244602   6.807   1.849   2.523
14215SOL     OW44603   6.618   0.549   1.878
14215SOL    HW144604   6.577   0.631   1.839
14215SOL    HW244605   6.682   0.575   1.951
14216SOL     OW44606   5.664   0.556   3.248
14216SOL    HW144607   5.756   0.555   3.207
14216SOL    HW244608   5.658   0.630   3.315
14217SOL     OW44609   6.147   0.222   3.009
14217SOL    HW144610   6.185   0.138   3.046
14217SOL    HW244611   6.059   0.241   3.053
14218SOL     OW44612   6.452   0.454   2.504
14218SOL    HW144613   6.420   0.526   2.442
14218SOL    HW244614   6.476   0.373   2.451
14219SOL     OW44615   6.603   0.039   2.615
14219SOL    HW144616   6.531   0.044   2.546
14219SOL    HW244617   6.579  -0.030   2.684
14220SOL     OW44618   7.015   1.173   2.729
14220SOL    HW144619   6.960   1.089   2.722
14220SOL    HW244620   7.041   1.202   2.637
14221SOL     OW44621   7.052   0.590   2.854
14221SOL    HW144622   7.022   0.495   2.861
14221SOL    HW244623   7.125   0.606   2.920
14222SOL     OW44624   7.443   0.833   2.239
14222SOL    HW144625   7.485   0.769   2.303
14222SOL    HW244626   7.405   0.782   2.161
14223SOL     OW44627   7.250   1.280   2.519
14223SOL    HW144628   7.349   1.288   2.533
14223SOL    HW244629   7.205   1.364   2.550
14224SOL     OW44630   6.976   0.575   1.940
14224SOL    HW144631   6.922   0.554   2.021
14224SOL    HW244632   7.067   0.534   1.949
14225SOL     OW44633   6.113   0.256   2.190
14225SOL    HW144634   6.140   0.197   2.115
14225SOL    HW244635   6.113   0.351   2.159
14226SOL     OW44636   7.340   1.223   3.450
14226SOL    HW144637   7.431   1.184   3.437
14226SOL    HW244638   7.348   1.319   3.474
14227SOL     OW44639   6.650   1.347   3.202
14227SOL    HW144640   6.570   1.324   3.257
14227SOL    HW244641   6.733   1.321   3.251
14228SOL     OW44642   7.178   1.629   3.487
14228SOL    HW144643   7.205   1.663   3.397
14228SOL    HW244644   7.257   1.591   3.533
14229SOL     OW44645   6.697   1.195   2.962
14229SOL    HW144646   6.657   1.239   3.043
14229SOL    HW244647   6.656   1.232   2.879
14230SOL     OW44648   7.224   1.099   2.941
14230SOL    HW144649   7.229   1.180   3.000
14230SOL    HW244650   7.138   1.101   2.890
14231SOL     OW44651   6.501   0.089   3.264
14231SOL    HW144652   6.526   0.069   3.169
14231SOL    HW244653   6.573   0.145   3.306
14232SOL     OW44654   6.566   1.116   3.581
14232SOL    HW144655   6.467   1.122   3.591
14232SOL    HW244656   6.589   1.036   3.525
14233SOL     OW44657   6.291   1.050   2.230
14233SOL    HW144658   6.277   1.057   2.329
14233SOL    HW244659   6.375   0.999   2.212
14234SOL     OW44660   5.996   0.813   3.113
14234SOL    HW144661   6.082   0.825   3.163
14234SOL    HW244662   5.954   0.726   3.140
14235SOL     OW44663   6.860   0.386   3.124
14235SOL    HW144664   6.881   0.460   3.188
14235SOL    HW244665   6.771   0.403   3.081
14236SOL     OW44666   5.953   1.100   2.363
14236SOL    HW144667   5.946   1.183   2.307
14236SOL    HW244668   5.957   1.020   2.303
14237SOL     OW44669   6.152   0.537   2.727
14237SOL    HW144670   6.164   0.603   2.653
14237SOL    HW244671   6.198   0.571   2.810
14238SOL     OW44672   6.838   1.348   2.250
14238SOL    HW144673   6.888   1.425   2.290
14238SOL    HW244674   6.743   1.350   2.282
14239SOL     OW44675   6.858   1.445   3.004
14239SOL    HW144676   6.905   1.458   3.091
14239SOL    HW244677   6.792   1.371   3.013
14240SOL     OW44678   7.168   0.639   2.334
14240SOL    HW144679   7.137   0.700   2.407
14240SOL    HW244680   7.218   0.691   2.265
14241SOL     OW44681   5.940   1.510   3.191
14241SOL    HW144682   5.919   1.466   3.104
14241SOL    HW244683   6.037   1.536   3.194
14242SOL     OW44684   5.988   0.751   3.460
14242SOL    HW144685   6.056   0.806   3.413
14242SOL    HW244686   6.028   0.663   3.487
14243SOL     OW44687   7.173   0.779   3.532
14243SOL    HW144688   7.081   0.817   3.527
14243SOL    HW244689   7.233   0.826   3.467
14244SOL     OW44690   6.599   0.105   3.632
14244SOL    HW144691   6.605   0.190   3.580
14244SOL    HW244692   6.631   0.029   3.575
14245SOL     OW44693   6.090   0.050   3.602
14245SOL    HW144694   6.048  -0.007   3.532
14245SOL    HW244695   6.024   0.119   3.634
14246SOL     OW44696   6.159   0.870   2.891
14246SOL    HW144697   6.203   0.959   2.882
14246SOL    HW244698   6.096   0.870   2.968
14247SOL     OW44699   6.946   0.862   2.907
14247SOL    HW144700   6.871   0.862   2.841
14247SOL    HW244701   6.983   0.770   2.916
14248SOL     OW44702   6.795   0.525   2.137
14248SOL    HW144703   6.808   0.441   2.191
14248SOL    HW244704   6.766   0.599   2.197
14249SOL     OW44705   5.893   0.213   3.093
14249SOL    HW144706   5.870   0.250   3.183
14249SOL    HW244707   5.863   0.118   3.087
14250SOL     OW44708   5.623   1.310   3.144
14250SOL    HW144709   5.676   1.261   3.212
14250SOL    HW244710   5.645   1.408   3.149
14251SOL     OW44711   6.318   0.634   2.926
14251SOL    HW144712   6.377   0.608   2.850
14251SOL    HW244713   6.290   0.730   2.915
14252SOL     OW44714   7.314   0.935   3.716
14252SOL    HW144715   7.268   0.928   3.627
14252SOL    HW244716   7.252   0.979   3.782
14253SOL     OW44717   5.893   0.063   2.480
14253SOL    HW144718   5.882   0.157   2.513
14253SOL    HW244719   5.888   0.000   2.557
14254SOL     OW44720   7.208   0.367   2.236
14254SOL    HW144721   7.210   0.291   2.300
14254SOL    HW244722   7.160   0.444   2.276
14255SOL     OW44723   6.609   0.766   2.828
14255SOL    HW144724   6.624   0.787   2.924
14255SOL    HW244725   6.579   0.671   2.819
14256SOL     OW44726   6.566   1.573   3.562
14256SOL    HW144727   6.546   1.617   3.474
14256SOL    HW244728   6.605   1.482   3.546
14257SOL     OW44729   7.445   1.518   3.467
14257SOL    HW144730   7.459   1.545   3.372
14257SOL    HW244731   7.528   1.540   3.520
14258SOL     OW44732   5.936   0.898   3.666
14258SOL    HW144733   6.012   0.942   3.714
14258SOL    HW244734   5.971   0.851   3.584
14259SOL     OW44735   7.126   0.274   1.987
14259SOL    HW144736   7.065   0.199   2.010
14259SOL    HW244737   7.148   0.326   2.070
14260SOL     OW44738   6.889   0.838   1.904
14260SOL    HW144739   6.923   0.745   1.919
14260SOL    HW244740   6.907   0.865   1.809
14261SOL     OW44741   6.654   1.333   2.711
14261SOL    HW144742   6.661   1.249   2.656
14261SOL    HW244743   6.716   1.402   2.675
14262SOL     OW44744   5.905   0.810   2.811
14262SOL    HW144745   5.998   0.846   2.816
14262SOL    HW244746   5.899   0.725   2.863
14263SOL     OW44747   5.925   0.509   2.868
14263SOL    HW144748   5.873   0.426   2.851
14263SOL    HW244749   6.002   0.514   2.804
14264SOL     OW44750   6.724   0.380   3.540
14264SOL    HW144751   6.679   0.443   3.604
14264SOL    HW244752   6.817   0.411   3.523
14265SOL     OW44753   6.746   0.207   3.339
14265SOL    HW144754   6.746   0.271   3.416
14265SOL    HW244755   6.774   0.255   3.256
14266SOL     OW44756   5.594   1.326   2.062
14266SOL    HW144757   5.501   1.347   2.031
14266SOL    HW244758   5.604   1.227   2.075
14267SOL     OW44759   5.674   1.801   2.789
14267SOL    HW144760   5.632   1.715   2.762
14267SOL    HW244761   5.768   1.804   2.755
14268SOL     OW44762   6.090   1.568   2.772
14268SOL    HW144763   6.156   1.642   2.781
14268SOL    HW244764   6.134   1.489   2.730
14269SOL     OW44765   6.588   0.796   3.100
14269SOL    HW144766   6.629   0.764   3.186
14269SOL    HW244767   6.492   0.769   3.097
14270SOL     OW44768   5.626   0.544   2.976
14270SOL    HW144769   5.711   0.511   2.935
14270SOL    HW244770   5.639   0.559   3.074
14271SOL     OW44771   5.775   0.520   3.584
14271SOL    HW144772   5.834   0.480   3.514
14271SOL    HW244773   5.717   0.591   3.543
14272SOL     OW44774   6.955   0.950   3.522
14272SOL    HW144775   6.994   1.039   3.542
14272SOL    HW244776   6.965   0.930   3.425
14273SOL     OW44777   6.401   0.572   2.187
14273SOL    HW144778   6.408   0.483   2.141
14273SOL    HW244779   6.307   0.606   2.179
14274SOL     OW44780   7.243   0.604   3.068
14274SOL    HW144781   7.205   0.535   3.130
14274SOL    HW244782   7.325   0.568   3.024
14275SOL     OW44783   5.838   1.564   3.606
14275SOL    HW144784   5.808   1.621   3.682
14275SOL    HW244785   5.831   1.467   3.632
14276SOL     OW44786   6.257   0.464   3.131
14276SOL    HW144787   6.223   0.375   3.101
14276SOL    HW244788   6.283   0.518   3.051
14277SOL     OW44789   6.516   1.678   3.327
14277SOL    HW144790   6.492   1.660   3.232
14277SOL    HW244791   6.546   1.772   3.337
14278SOL     OW44792   6.059   0.500   2.053
14278SOL    HW144793   6.120   0.580   2.057
14278SOL    HW244794   5.964   0.531   2.060
14279SOL     OW44795   5.745   1.137   3.328
14279SOL    HW144796   5.767   1.076   3.404
14279SOL    HW244797   5.755   1.088   3.242
14280SOL     OW44798   6.933   1.059   3.096
14280SOL    HW144799   6.957   0.996   3.022
14280SOL    HW244800   6.843   1.099   3.078
14281SOL     OW44801   6.888   0.855   2.171
14281SOL    HW144802   6.802   0.824   2.213
14281SOL    HW244803   6.884   0.841   2.072
14282SOL     OW44804   7.345   1.747   3.016
14282SOL    HW144805   7.406   1.777   2.943
14282SOL    HW244806   7.307   1.658   2.994
14283SOL     OW44807   5.669   1.258   2.884
14283SOL    HW144808   5.664   1.257   2.984
14283SOL    HW244809   5.586   1.217   2.846
14284SOL     OW44810   7.312   0.135   2.385
14284SOL    HW144811   7.385   0.118   2.318
14284SOL    HW244812   7.281   0.048   2.423
14285SOL     OW44813   6.974   1.573   2.339
14285SOL    HW144814   7.041   1.585   2.265
14285SOL    HW244815   6.934   1.662   2.362
14286SOL     OW44816   6.866   0.927   2.534
14286SOL    HW144817   6.926   0.846   2.536
14286SOL    HW244818   6.906   0.996   2.474
14287SOL     OW44819   7.236   1.720   3.256
14287SOL    HW144820   7.289   1.730   3.172
14287SOL    HW244821   7.209   1.810   3.290
14288SOL     OW44822   7.427   0.175   2.825
14288SOL    HW144823   7.466   0.090   2.789
14288SOL    HW244824   7.329   0.177   2.806
14289SOL     OW44825   5.849   0.326   2.582
14289SOL    HW144826   5.770   0.377   2.548
14289SOL    HW244827   5.840   0.311   2.680
14290SOL     OW44828   6.780   1.612   1.893
14290SOL    HW144829   6.786   1.519   1.930
14290SOL    HW244830   6.721   1.612   1.813
14291SOL     OW44831   6.408   1.002   3.234
14291SOL    HW144832   6.448   1.001   3.142
14291SOL    HW244833   6.418   1.094   3.274
14292SOL     OW44834   6.502   0.910   2.153
14292SOL    HW144835   6.565   0.948   2.085
14292SOL    HW244836   6.542   0.827   2.192
14293SOL     OW44837   7.090   1.607   1.906
14293SOL    HW144838   6.998   1.644   1.913
14293SOL    HW244839   7.128   1.627   1.816
14294SOL     OW44840   5.958   1.288   3.352
14294SOL    HW144841   5.945   1.381   3.318
14294SOL    HW244842   5.874   1.236   3.339
14295SOL     OW44843   7.200   1.292   3.151
14295SOL    HW144844   7.260   1.295   3.231
14295SOL    HW244845   7.125   1.356   3.164
14296SOL     OW44846   6.625   1.098   2.558
14296SOL    HW144847   6.555   1.051   2.612
14296SOL    HW244848   6.684   1.030   2.515
14297SOL     OW44849   6.600   0.236   2.833
14297SOL    HW144850   6.592   0.200   2.740
14297SOL    HW244851   6.598   0.160   2.898
14298SOL     OW44852   7.295   0.385   3.243
14298SOL    HW144853   7.368   0.454   3.247
14298SOL    HW244854   7.323   0.310   3.184
14299SOL     OW44855   5.691   1.013   3.588
14299SOL    HW144856   5.614   0.980   3.642
14299SOL    HW244857   5.776   0.983   3.630
14300SOL     OW44858   6.258   0.203   3.351
14300SOL    HW144859   6.348   0.187   3.311
14300SOL    HW244860   6.266   0.208   3.450
14301SOL     OW44861   5.661   0.345   1.895
14301SOL    HW144862   5.569   0.317   1.866
14301SOL    HW244863   5.692   0.422   1.839
14302SOL     OW44864   7.026   0.856   3.260
14302SOL    HW144865   6.969   0.908   3.197
14302SOL    HW244866   7.122   0.868   3.236
14303SOL     OW44867   5.658   0.166   2.180
14303SOL    HW144868   5.641   0.249   2.126
14303SOL    HW244869   5.748   0.129   2.158
14304SOL     OW44870   6.769   1.335   1.981
14304SOL    HW144871   6.670   1.324   1.983
14304SOL    HW244872   6.803   1.350   2.074
14305SOL     OW44873   6.199   0.842   3.293
14305SOL    HW144874   6.255   0.923   3.276
14305SOL    HW244875   6.258   0.762   3.296
14306SOL     OW44876   7.079   1.767   2.821
14306SOL    HW144877   7.112   1.831   2.752
14306SOL    HW244878   7.145   1.761   2.896
14307SOL     OW44879   6.302   0.565   3.570
14307SOL    HW144880   6.321   0.630   3.644
14307SOL    HW244881   6.362   0.485   3.579
14308SOL     OW44882   7.036   1.220   3.495
14308SOL    HW144883   7.027   1.210   3.594
14308SOL    HW244884   7.132   1.213   3.469
14309SOL     OW44885   7.260   0.883   3.116
14309SOL    HW144886   7.233   0.794   3.079
14309SOL    HW244887   7.261   0.951   3.043
14310SOL     OW44888   6.811   0.325   2.311
14310SOL    HW144889   6.876   0.251   2.300
14310SOL    HW244890   6.831   0.375   2.395
14311SOL     OW44891   6.180   0.745   2.514
14311SOL    HW144892   6.230   0.830   2.495
14311SOL    HW244893   6.092   0.747   2.466
14312SOL     OW44894   7.363   0.342   3.504
14312SOL    HW144895   7.346   0.373   3.410
14312SOL    HW244896   7.279   0.305   3.542
14313SOL     OW44897   7.316   0.934   3.379
14313SOL    HW144898   7.354   1.025   3.394
14313SOL    HW244899   7.308   0.917   3.280
14314SOL     OW44900   6.994   1.851   3.582
14314SOL    HW144901   6.898   1.840   3.555
14314SOL    HW244902   7.050   1.784   3.534
14315SOL     OW44903   6.445   0.956   2.723
14315SOL    HW144904   6.499   0.887   2.771
14315SOL    HW244905   6.413   1.025   2.789
14316SOL     OW44906   6.669   0.984   1.949
14316SOL    HW144907   6.646   1.037   1.867
14316SOL    HW244908   6.750   0.928   1.930
14317SOL     OW44909   7.447   1.569   2.713
14317SOL    HW144910   7.376   1.557   2.643
14317SOL    HW244911   7.448   1.490   2.773
14318SOL     OW44912   5.807   1.314   3.706
14318SOL    HW144913   5.742   1.241   3.685
14318SOL    HW244914   5.811   1.328   3.804
14319SOL     OW44915   5.665   1.240   2.515
14319SOL    HW144916   5.664   1.193   2.603
14319SOL    HW244917   5.747   1.212   2.464
14320SOL     OW44918   7.410   0.192   3.089
14320SOL    HW144919   7.406   0.102   3.133
14320SOL    HW244920   7.413   0.181   2.990
14321SOL     OW44921   6.014   0.424   2.382
14321SOL    HW144922   6.044   0.352   2.320
14321SOL    HW244923   5.975   0.384   2.465
14322SOL     OW44924   7.291   1.487   2.966
14322SOL    HW144925   7.198   1.462   2.939
14322SOL    HW244926   7.317   1.437   3.048
14323SOL     OW44927   5.903   0.547   3.142
14323SOL    HW144928   5.941   0.488   3.214
14323SOL    HW244929   5.943   0.521   3.054
14324SOL     OW44930   7.010   0.214   2.974
14324SOL    HW144931   7.062   0.149   3.029
14324SOL    HW244932   6.961   0.277   3.035
14325SOL     OW44933   6.587   0.034   3.016
14325SOL    HW144934   6.524  -0.038   2.985
14325SOL    HW244935   6.680  -0.002   3.016
14326SOL     OW44936   6.356   1.330   2.163
14326SOL    HW144937   6.310   1.243   2.180
14326SOL    HW244938   6.447   1.327   2.204
14327SOL     OW44939   6.204   1.567   3.146
14327SOL    HW144940   6.199   1.649   3.203
14327SOL    HW244941   6.293   1.564   3.101
14328SOL     OW44942   6.938   0.052   2.030
14328SOL    HW144943   6.973   0.011   1.946
14328SOL    HW244944   6.848   0.014   2.050
14329SOL     OW44945   6.886   0.453   2.553
14329SOL    HW144946   6.827   0.533   2.557
14329SOL    HW244947   6.901   0.418   2.646
14330SOL     OW44948   7.179   0.221   2.744
14330SOL    HW144949   7.095   0.220   2.798
14330SOL    HW244950   7.181   0.304   2.688
14331SOL     OW44951   5.625   1.077   2.162
14331SOL    HW144952   5.724   1.066   2.153
14331SOL    HW244953   5.585   0.991   2.194
14332SOL     OW44954   5.816   0.628   3.837
14332SOL    HW144955   5.723   0.626   3.874
14332SOL    HW244956   5.817   0.589   3.745
14333SOL     OW44957   5.811   0.275   4.720
14333SOL    HW144958   5.846   0.258   4.812
14333SOL    HW244959   5.723   0.230   4.708
14334SOL     OW44960   5.605   0.368   4.371
14334SOL    HW144961   5.523   0.411   4.410
14334SOL    HW244962   5.577   0.295   4.308
14335SOL     OW44963   6.155   1.275   4.889
14335SOL    HW144964   6.062   1.268   4.852
14335SOL    HW244965   6.166   1.364   4.933
14336SOL     OW44966   7.141   1.511   4.427
14336SOL    HW144967   7.084   1.495   4.508
14336SOL    HW244968   7.082   1.521   4.347
14337SOL     OW44969   7.329   0.618   4.580
14337SOL    HW144970   7.362   0.712   4.580
14337SOL    HW244971   7.380   0.564   4.646
14338SOL     OW44972   6.721   0.703   4.441
14338SOL    HW144973   6.778   0.781   4.416
14338SOL    HW244974   6.661   0.729   4.517
14339SOL     OW44975   7.341   0.607   3.955
14339SOL    HW144976   7.329   0.594   3.856
14339SOL    HW244977   7.311   0.526   4.004
14340SOL     OW44978   6.354   1.144   4.747
14340SOL    HW144979   6.276   1.161   4.807
14340SOL    HW244980   6.388   1.231   4.711
14341SOL     OW44981   6.436   0.798   5.547
14341SOL    HW144982   6.432   0.874   5.612
14341SOL    HW244983   6.458   0.834   5.456
14342SOL     OW44984   6.271   1.012   4.389
14342SOL    HW144985   6.340   0.996   4.459
14342SOL    HW244986   6.198   1.069   4.427
14343SOL     OW44987   6.272   1.161   5.527
14343SOL    HW144988   6.332   1.240   5.541
14343SOL    HW244989   6.186   1.192   5.486
14344SOL     OW44990   5.921   1.435   4.785
14344SOL    HW144991   5.843   1.404   4.732
14344SOL    HW244992   5.979   1.493   4.728
14345SOL     OW44993   7.046   1.505   5.063
14345SOL    HW144994   7.070   1.599   5.089
14345SOL    HW244995   7.030   1.451   5.145
14346SOL     OW44996   6.024   0.392   5.223
14346SOL    HW144997   6.106   0.336   5.232
14346SOL    HW244998   5.943   0.334   5.227
14347SOL     OW44999   7.189   0.447   4.461
14347SOL    HW145000   7.115   0.493   4.411
14347SOL    HW245001   7.240   0.515   4.514
14348SOL     OW45002   5.817   1.713   4.207
14348SOL    HW145003   5.851   1.790   4.261
14348SOL    HW245004   5.861   1.713   4.117
14349SOL     OW45005   6.713   1.341   5.414
14349SOL    HW145006   6.760   1.341   5.502
14349SOL    HW245007   6.665   1.254   5.403
14350SOL     OW45008   5.826   1.091   4.610
14350SOL    HW145009   5.840   1.007   4.662
14350SOL    HW245010   5.771   1.155   4.665
14351SOL     OW45011   6.192   0.964   3.847
14351SOL    HW145012   6.199   1.048   3.793
14351SOL    HW245013   6.238   0.977   3.935
14352SOL     OW45014   7.180   0.114   5.204
14352SOL    HW145015   7.162   0.181   5.132
14352SOL    HW245016   7.177   0.160   5.293
14353SOL     OW45017   5.708   0.643   4.287
14353SOL    HW145018   5.663   0.555   4.304
14353SOL    HW245019   5.707   0.697   4.371
14354SOL     OW45020   7.428   1.767   4.083
14354SOL    HW145021   7.482   1.738   4.163
14354SOL    HW245022   7.458   1.857   4.054
14355SOL     OW45023   5.613   1.596   3.841
14355SOL    HW145024   5.594   1.500   3.862
14355SOL    HW245025   5.580   1.654   3.916
14356SOL     OW45026   7.275   0.922   4.336
14356SOL    HW145027   7.370   0.893   4.344
14356SOL    HW245028   7.267   0.987   4.261
14357SOL     OW45029   7.227   1.108   4.156
14357SOL    HW145030   7.313   1.110   4.104
14357SOL    HW245031   7.241   1.155   4.244
14358SOL     OW45032   5.699   0.737   5.321
14358SOL    HW145033   5.787   0.724   5.366
14358SOL    HW245034   5.686   0.834   5.299
14359SOL     OW45035   6.199   1.365   4.450
14359SOL    HW145036   6.150   1.278   4.459
14359SOL    HW245037   6.176   1.408   4.363
14360SOL     OW45038   6.879   1.228   5.147
14360SOL    HW145039   6.916   1.155   5.089
14360SOL    HW245040   6.931   1.233   5.232
14361SOL     OW45041   6.395   0.004   4.226
14361SOL    HW145042   6.435   0.095   4.217
14361SOL    HW245043   6.295   0.012   4.232
14362SOL     OW45044   5.783   0.976   4.988
14362SOL    HW145045   5.872   0.931   4.974
14362SOL    HW245046   5.710   0.911   4.969
14363SOL     OW45047   7.111   0.999   3.914
14363SOL    HW145048   7.048   0.923   3.927
14363SOL    HW245049   7.159   1.017   4.000
14364SOL     OW45050   6.773   1.792   5.340
14364SOL    HW145051   6.797   1.852   5.264
14364SOL    HW245052   6.780   1.697   5.310
14365SOL     OW45053   5.903   0.251   5.525
14365SOL    HW145054   5.974   0.322   5.531
14365SOL    HW245055   5.815   0.290   5.553
14366SOL     OW45056   7.052   1.417   4.677
14366SOL    HW145057   6.993   1.423   4.757
14366SOL    HW245058   7.037   1.329   4.631
14367SOL     OW45059   7.253   1.714   4.296
14367SOL    HW145060   7.212   1.691   4.208
14367SOL    HW245061   7.235   1.640   4.361
14368SOL     OW45062   6.184   0.729   3.994
14368SOL    HW145063   6.208   0.798   3.926
14368SOL    HW245064   6.106   0.762   4.048
14369SOL     OW45065   6.867   0.345   4.668
14369SOL    HW145066   6.781   0.295   4.655
14369SOL    HW245067   6.929   0.291   4.724
14370SOL     OW45068   7.162   1.662   4.031
14370SOL    HW145069   7.251   1.708   4.034
14370SOL    HW245070   7.141   1.638   3.936
14371SOL     OW45071   6.393   0.605   5.189
14371SOL    HW145072   6.346   0.602   5.278
14371SOL    HW245073   6.342   0.550   5.123
14372SOL     OW45074   6.980   0.469   5.398
14372SOL    HW145075   6.960   0.512   5.486
14372SOL    HW245076   7.058   0.407   5.407
14373SOL     OW45077   6.559   0.890   5.296
14373SOL    HW145078   6.605   0.806   5.267
14373SOL    HW245079   6.503   0.924   5.221
14374SOL     OW45080   6.577   0.410   4.966
14374SOL    HW145081   6.500   0.444   5.020
14374SOL    HW245082   6.543   0.359   4.887
14375SOL     OW45083   6.627   0.701   4.153
14375SOL    HW145084   6.653   0.697   4.249
14375SOL    HW245085   6.542   0.650   4.139
14376SOL     OW45086   5.662   0.811   4.513
14376SOL    HW145087   5.761   0.799   4.522
14376SOL    HW245088   5.638   0.906   4.534
14377SOL     OW45089   5.716   1.821   5.295
14377SOL    HW145090   5.706   1.806   5.394
14377SOL    HW245091   5.630   1.857   5.259
14378SOL     OW45092   6.451   0.348   3.919
14378SOL    HW145093   6.510   0.411   3.870
14378SOL    HW245094   6.470   0.254   3.890
14379SOL     OW45095   7.305   0.585   5.555
14379SOL    HW145096   7.279   0.674   5.519
14379SOL    HW245097   7.303   0.517   5.482
14380SOL     OW45098   6.948   1.144   4.269
14380SOL    HW145099   7.031   1.115   4.221
14380SOL    HW245100   6.899   1.211   4.213
14381SOL     OW45101   6.136   0.196   4.609
14381SOL    HW145102   6.131   0.191   4.709
14381SOL    HW245103   6.138   0.292   4.580
14382SOL     OW45104   6.594   1.456   4.201
14382SOL    HW145105   6.548   1.528   4.149
14382SOL    HW245106   6.590   1.476   4.299
14383SOL     OW45107   7.381   1.066   4.597
14383SOL    HW145108   7.319   1.051   4.521
14383SOL    HW245109   7.329   1.077   4.682
14384SOL     OW45110   6.813   1.550   5.230
14384SOL    HW145111   6.819   1.473   5.294
14384SOL    HW245112   6.761   1.524   5.150
14385SOL     OW45113   5.907   0.943   3.966
14385SOL    HW145114   5.989   0.982   3.924
14385SOL    HW245115   5.880   0.861   3.917
14386SOL     OW45116   7.044   0.735   4.452
14386SOL    HW145117   7.039   0.670   4.527
14386SOL    HW245118   7.124   0.794   4.465
14387SOL     OW45119   6.047   1.266   5.451
14387SOL    HW145120   5.997   1.267   5.365
14387SOL    HW245121   5.984   1.248   5.527
14388SOL     OW45122   6.697   1.776   3.961
14388SOL    HW145123   6.637   1.714   4.011
14388SOL    HW245124   6.728   1.732   3.876
14389SOL     OW45125   5.788   0.285   5.222
14389SOL    HW145126   5.708   0.345   5.209
14389SOL    HW245127   5.778   0.236   5.308
14390SOL     OW45128   7.218   1.377   3.805
14390SOL    HW145129   7.186   1.471   3.795
14390SOL    HW245130   7.142   1.314   3.793
14391SOL     OW45131   6.986   0.107   4.150
14391SOL    HW145132   6.962   0.070   4.060
14391SOL    HW245133   7.085   0.123   4.154
14392SOL     OW45134   5.835   1.785   4.965
14392SOL    HW145135   5.892   1.720   5.015
14392SOL    HW245136   5.819   1.752   4.872
14393SOL     OW45137   5.968   0.700   4.204
14393SOL    HW145138   6.013   0.610   4.201
14393SOL    HW245139   5.874   0.689   4.237
14394SOL     OW45140   7.133   0.222   5.453
14394SOL    HW145141   7.128   0.259   5.545
14394SOL    HW245142   7.061   0.153   5.441
14395SOL     OW45143   6.200   0.122   3.841
14395SOL    HW145144   6.298   0.100   3.848
14395SOL    HW245145   6.169   0.105   3.748
14396SOL     OW45146   6.367   0.264   5.473
14396SOL    HW145147   6.434   0.203   5.516
14396SOL    HW245148   6.294   0.283   5.538
14397SOL     OW45149   6.474   1.514   4.919
14397SOL    HW145150   6.451   1.489   4.825
14397SOL    HW245151   6.535   1.445   4.958
14398SOL     OW45152   6.937   0.590   5.157
14398SOL    HW145153   6.965   0.547   5.242
14398SOL    HW245154   6.962   0.686   5.158
14399SOL     OW45155   6.389   1.402   4.648
14399SOL    HW145156   6.479   1.416   4.606
14399SOL    HW245157   6.318   1.404   4.577
14400SOL     OW45158   6.508   0.503   4.623
14400SOL    HW145159   6.483   0.494   4.527
14400SOL    HW245160   6.556   0.421   4.654
14401SOL     OW45161   6.125   0.064   4.236
14401SOL    HW145162   6.044   0.065   4.294
14401SOL    HW245163   6.128   0.147   4.181
14402SOL     OW45164   7.020   1.188   3.765
14402SOL    HW145165   7.052   1.112   3.822
14402SOL    HW245166   6.928   1.215   3.795
14403SOL     OW45167   5.883   0.035   3.895
14403SOL    HW145168   5.932   0.119   3.874
14403SOL    HW245169   5.945  -0.030   3.940
14404SOL     OW45170   6.521   0.236   4.204
14404SOL    HW145171   6.473   0.277   4.126
14404SOL    HW245172   6.620   0.234   4.185
14405SOL     OW45173   6.662   0.683   5.188
14405SOL    HW145174   6.582   0.622   5.191
14405SOL    HW245175   6.743   0.630   5.164
14406SOL     OW45176   6.813   1.570   4.517
14406SOL    HW145177   6.834   1.644   4.452
14406SOL    HW245178   6.881   1.570   4.590
14407SOL     OW45179   6.045   1.152   4.465
14407SOL    HW145180   5.974   1.125   4.530
14407SOL    HW245181   6.019   1.124   4.372
14408SOL     OW45182   6.857   1.797   4.315
14408SOL    HW145183   6.901   1.861   4.251
14408SOL    HW245184   6.807   1.849   4.385
14409SOL     OW45185   6.618   0.549   3.740
14409SOL    HW145186   6.577   0.631   3.701
14409SOL    HW245187   6.682   0.575   3.813
14410SOL     OW45188   5.664   0.556   5.110
14410SOL    HW145189   5.756   0.555   5.069
14410SOL    HW245190   5.658   0.630   5.177
14411SOL     OW45191   6.147   0.222   4.871
14411SOL    HW145192   6.185   0.138   4.908
14411SOL    HW245193   6.059   0.241   4.915
14412SOL     OW45194   6.452   0.454   4.366
14412SOL    HW145195   6.420   0.526   4.304
14412SOL    HW245196   6.476   0.373   4.313
14413SOL     OW45197   6.603   0.039   4.477
14413SOL    HW145198   6.531   0.044   4.408
14413SOL    HW245199   6.579  -0.030   4.546
14414SOL     OW45200   7.015   1.173   4.591
14414SOL    HW145201   6.960   1.089   4.584
14414SOL    HW245202   7.041   1.202   4.499
14415SOL     OW45203   7.052   0.590   4.716
14415SOL    HW145204   7.022   0.495   4.723
14415SOL    HW245205   7.125   0.606   4.782
14416SOL     OW45206   7.443   0.833   4.101
14416SOL    HW145207   7.485   0.769   4.165
14416SOL    HW245208   7.405   0.782   4.023
14417SOL     OW45209   7.250   1.280   4.381
14417SOL    HW145210   7.349   1.288   4.395
14417SOL    HW245211   7.205   1.364   4.412
14418SOL     OW45212   6.976   0.575   3.802
14418SOL    HW145213   6.922   0.554   3.883
14418SOL    HW245214   7.067   0.534   3.811
14419SOL     OW45215   6.113   0.256   4.052
14419SOL    HW145216   6.140   0.197   3.977
14419SOL    HW245217   6.113   0.351   4.021
14420SOL     OW45218   7.340   1.223   5.312
14420SOL    HW145219   7.431   1.184   5.299
14420SOL    HW245220   7.348   1.319   5.336
14421SOL     OW45221   6.650   1.347   5.064
14421SOL    HW145222   6.570   1.324   5.119
14421SOL    HW245223   6.733   1.321   5.113
14422SOL     OW45224   7.178   1.629   5.349
14422SOL    HW145225   7.205   1.663   5.259
14422SOL    HW245226   7.257   1.591   5.395
14423SOL     OW45227   6.697   1.195   4.824
14423SOL    HW145228   6.657   1.239   4.905
14423SOL    HW245229   6.656   1.232   4.741
14424SOL     OW45230   7.224   1.099   4.803
14424SOL    HW145231   7.229   1.180   4.862
14424SOL    HW245232   7.138   1.101   4.752
14425SOL     OW45233   6.501   0.089   5.126
14425SOL    HW145234   6.526   0.069   5.031
14425SOL    HW245235   6.573   0.145   5.168
14426SOL     OW45236   6.566   1.116   5.443
14426SOL    HW145237   6.467   1.122   5.453
14426SOL    HW245238   6.589   1.036   5.387
14427SOL     OW45239   6.291   1.050   4.092
14427SOL    HW145240   6.277   1.057   4.191
14427SOL    HW245241   6.375   0.999   4.074
14428SOL     OW45242   5.996   0.813   4.975
14428SOL    HW145243   6.082   0.825   5.025
14428SOL    HW245244   5.954   0.726   5.002
14429SOL     OW45245   6.860   0.386   4.986
14429SOL    HW145246   6.881   0.460   5.050
14429SOL    HW245247   6.771   0.403   4.943
14430SOL     OW45248   5.650   1.564   5.055
14430SOL    HW145249   5.604   1.646   5.021
14430SOL    HW245250   5.748   1.583   5.064
14431SOL     OW45251   6.152   0.537   4.589
14431SOL    HW145252   6.164   0.603   4.515
14431SOL    HW245253   6.198   0.571   4.672
14432SOL     OW45254   6.838   1.348   4.112
14432SOL    HW145255   6.888   1.425   4.152
14432SOL    HW245256   6.743   1.350   4.144
14433SOL     OW45257   6.858   1.445   4.866
14433SOL    HW145258   6.905   1.458   4.953
14433SOL    HW245259   6.792   1.371   4.875
14434SOL     OW45260   7.168   0.639   4.196
14434SOL    HW145261   7.137   0.700   4.269
14434SOL    HW245262   7.218   0.691   4.127
14435SOL     OW45263   5.940   1.510   5.053
14435SOL    HW145264   5.919   1.466   4.966
14435SOL    HW245265   6.037   1.536   5.056
14436SOL     OW45266   5.988   0.751   5.322
14436SOL    HW145267   6.056   0.806   5.275
14436SOL    HW245268   6.028   0.663   5.349
14437SOL     OW45269   7.173   0.779   5.394
14437SOL    HW145270   7.081   0.817   5.389
14437SOL    HW245271   7.233   0.826   5.329
14438SOL     OW45272   6.599   0.105   5.494
14438SOL    HW145273   6.605   0.190   5.442
14438SOL    HW245274   6.631   0.029   5.437
14439SOL     OW45275   6.090   0.050   5.464
14439SOL    HW145276   6.048  -0.007   5.394
14439SOL    HW245277   6.024   0.119   5.496
14440SOL     OW45278   6.159   0.870   4.753
14440SOL    HW145279   6.203   0.959   4.744
14440SOL    HW245280   6.096   0.870   4.830
14441SOL     OW45281   6.946   0.862   4.769
14441SOL    HW145282   6.871   0.862   4.703
14441SOL    HW245283   6.983   0.770   4.778
14442SOL     OW45284   6.795   0.525   3.999
14442SOL    HW145285   6.808   0.441   4.053
14442SOL    HW245286   6.766   0.599   4.059
14443SOL     OW45287   5.893   0.213   4.955
14443SOL    HW145288   5.870   0.250   5.045
14443SOL    HW245289   5.863   0.118   4.949
14444SOL     OW45290   5.623   1.310   5.006
14444SOL    HW145291   5.676   1.261   5.074
14444SOL    HW245292   5.645   1.408   5.011
14445SOL     OW45293   6.318   0.634   4.788
14445SOL    HW145294   6.377   0.608   4.712
14445SOL    HW245295   6.290   0.730   4.777
14446SOL     OW45296   7.314   0.935   5.578
14446SOL    HW145297   7.268   0.928   5.489
14446SOL    HW245298   7.252   0.979   5.644
14447SOL     OW45299   5.893   0.063   4.342
14447SOL    HW145300   5.882   0.157   4.375
14447SOL    HW245301   5.888   0.000   4.419
14448SOL     OW45302   7.208   0.367   4.098
14448SOL    HW145303   7.210   0.291   4.162
14448SOL    HW245304   7.160   0.444   4.138
14449SOL     OW45305   6.609   0.766   4.690
14449SOL    HW145306   6.624   0.787   4.786
14449SOL    HW245307   6.579   0.671   4.681
14450SOL     OW45308   6.566   1.573   5.424
14450SOL    HW145309   6.546   1.617   5.336
14450SOL    HW245310   6.605   1.482   5.408
14451SOL     OW45311   7.445   1.518   5.329
14451SOL    HW145312   7.459   1.545   5.234
14451SOL    HW245313   7.528   1.540   5.382
14452SOL     OW45314   5.936   0.898   5.528
14452SOL    HW145315   6.012   0.942   5.576
14452SOL    HW245316   5.971   0.851   5.446
14453SOL     OW45317   7.126   0.274   3.849
14453SOL    HW145318   7.065   0.199   3.872
14453SOL    HW245319   7.148   0.326   3.932
14454SOL     OW45320   6.889   0.838   3.766
14454SOL    HW145321   6.923   0.745   3.781
14454SOL    HW245322   6.907   0.865   3.671
14455SOL     OW45323   6.654   1.333   4.573
14455SOL    HW145324   6.661   1.249   4.518
14455SOL    HW245325   6.716   1.402   4.537
14456SOL     OW45326   5.905   0.810   4.673
14456SOL    HW145327   5.998   0.846   4.678
14456SOL    HW245328   5.899   0.725   4.725
14457SOL     OW45329   5.925   0.509   4.730
14457SOL    HW145330   5.873   0.426   4.713
14457SOL    HW245331   6.002   0.514   4.666
14458SOL     OW45332   6.724   0.380   5.402
14458SOL    HW145333   6.679   0.443   5.466
14458SOL    HW245334   6.817   0.411   5.385
14459SOL     OW45335   6.746   0.207   5.201
14459SOL    HW145336   6.746   0.271   5.278
14459SOL    HW245337   6.774   0.255   5.118
14460SOL     OW45338   5.594   1.326   3.924
14460SOL    HW145339   5.501   1.347   3.893
14460SOL    HW245340   5.604   1.227   3.937
14461SOL     OW45341   6.090   1.568   4.634
14461SOL    HW145342   6.156   1.642   4.643
14461SOL    HW245343   6.134   1.489   4.592
14462SOL     OW45344   6.588   0.796   4.962
14462SOL    HW145345   6.629   0.764   5.048
14462SOL    HW245346   6.492   0.769   4.959
14463SOL     OW45347   5.626   0.544   4.838
14463SOL    HW145348   5.711   0.511   4.797
14463SOL    HW245349   5.639   0.559   4.936
14464SOL     OW45350   5.775   0.520   5.446
14464SOL    HW145351   5.834   0.480   5.376
14464SOL    HW245352   5.717   0.591   5.405
14465SOL     OW45353   6.955   0.950   5.384
14465SOL    HW145354   6.994   1.039   5.404
14465SOL    HW245355   6.965   0.930   5.287
14466SOL     OW45356   6.401   0.572   4.049
14466SOL    HW145357   6.408   0.483   4.003
14466SOL    HW245358   6.307   0.606   4.041
14467SOL     OW45359   7.243   0.604   4.930
14467SOL    HW145360   7.205   0.535   4.992
14467SOL    HW245361   7.325   0.568   4.886
14468SOL     OW45362   5.838   1.564   5.468
14468SOL    HW145363   5.808   1.621   5.544
14468SOL    HW245364   5.831   1.467   5.494
14469SOL     OW45365   6.257   0.464   4.993
14469SOL    HW145366   6.223   0.375   4.963
14469SOL    HW245367   6.283   0.518   4.913
14470SOL     OW45368   6.516   1.678   5.189
14470SOL    HW145369   6.492   1.660   5.094
14470SOL    HW245370   6.546   1.772   5.199
14471SOL     OW45371   6.059   0.500   3.915
14471SOL    HW145372   6.120   0.580   3.919
14471SOL    HW245373   5.964   0.531   3.922
14472SOL     OW45374   5.745   1.137   5.190
14472SOL    HW145375   5.767   1.076   5.266
14472SOL    HW245376   5.755   1.088   5.104
14473SOL     OW45377   6.933   1.059   4.958
14473SOL    HW145378   6.957   0.996   4.884
14473SOL    HW245379   6.843   1.099   4.940
14474SOL     OW45380   6.888   0.855   4.033
14474SOL    HW145381   6.802   0.824   4.075
14474SOL    HW245382   6.884   0.841   3.934
14475SOL     OW45383   7.345   1.747   4.878
14475SOL    HW145384   7.406   1.777   4.805
14475SOL    HW245385   7.307   1.658   4.856
14476SOL     OW45386   6.838   1.731   4.852
14476SOL    HW145387   6.922   1.736   4.798
14476SOL    HW245388   6.815   1.635   4.870
14477SOL     OW45389   5.669   1.258   4.746
14477SOL    HW145390   5.664   1.257   4.846
14477SOL    HW245391   5.586   1.217   4.708
14478SOL     OW45392   6.274   1.662   5.440
14478SOL    HW145393   6.218   1.743   5.449
14478SOL    HW245394   6.326   1.666   5.354
14479SOL     OW45395   7.312   0.135   4.247
14479SOL    HW145396   7.385   0.118   4.180
14479SOL    HW245397   7.281   0.048   4.285
14480SOL     OW45398   6.974   1.573   4.201
14480SOL    HW145399   7.041   1.585   4.127
14480SOL    HW245400   6.934   1.662   4.224
14481SOL     OW45401   6.866   0.927   4.396
14481SOL    HW145402   6.926   0.846   4.398
14481SOL    HW245403   6.906   0.996   4.336
14482SOL     OW45404   6.416   1.273   5.146
14482SOL    HW145405   6.411   1.306   5.241
14482SOL    HW245406   6.330   1.292   5.100
14483SOL     OW45407   7.236   1.720   5.118
14483SOL    HW145408   7.289   1.730   5.034
14483SOL    HW245409   7.209   1.810   5.152
14484SOL     OW45410   7.427   0.175   4.687
14484SOL    HW145411   7.466   0.090   4.651
14484SOL    HW245412   7.329   0.177   4.668
14485SOL     OW45413   5.849   0.326   4.444
14485SOL    HW145414   5.770   0.377   4.410
14485SOL    HW245415   5.840   0.311   4.542
14486SOL     OW45416   6.780   1.612   3.755
14486SOL    HW145417   6.786   1.519   3.792
14486SOL    HW245418   6.721   1.612   3.675
14487SOL     OW45419   6.408   1.002   5.096
14487SOL    HW145420   6.448   1.001   5.004
14487SOL    HW245421   6.418   1.094   5.136
14488SOL     OW45422   6.502   0.910   4.015
14488SOL    HW145423   6.565   0.948   3.947
14488SOL    HW245424   6.542   0.827   4.054
14489SOL     OW45425   7.090   1.607   3.768
14489SOL    HW145426   6.998   1.644   3.775
14489SOL    HW245427   7.128   1.627   3.678
14490SOL     OW45428   5.958   1.288   5.214
14490SOL    HW145429   5.945   1.381   5.180
14490SOL    HW245430   5.874   1.236   5.201
14491SOL     OW45431   7.200   1.292   5.013
14491SOL    HW145432   7.260   1.295   5.093
14491SOL    HW245433   7.125   1.356   5.026
14492SOL     OW45434   6.625   1.098   4.420
14492SOL    HW145435   6.555   1.051   4.474
14492SOL    HW245436   6.684   1.030   4.377
14493SOL     OW45437   6.600   0.236   4.695
14493SOL    HW145438   6.592   0.200   4.602
14493SOL    HW245439   6.598   0.160   4.760
14494SOL     OW45440   7.295   0.385   5.105
14494SOL    HW145441   7.368   0.454   5.109
14494SOL    HW245442   7.323   0.310   5.046
14495SOL     OW45443   5.841   1.348   4.014
14495SOL    HW145444   5.745   1.349   3.987
14495SOL    HW245445   5.853   1.401   4.098
14496SOL     OW45446   5.691   1.013   5.450
14496SOL    HW145447   5.614   0.980   5.504
14496SOL    HW245448   5.776   0.983   5.492
14497SOL     OW45449   6.258   0.203   5.213
14497SOL    HW145450   6.348   0.187   5.173
14497SOL    HW245451   6.266   0.208   5.312
14498SOL     OW45452   5.661   0.345   3.757
14498SOL    HW145453   5.569   0.317   3.728
14498SOL    HW245454   5.692   0.422   3.701
14499SOL     OW45455   7.026   0.856   5.122
14499SOL    HW145456   6.969   0.908   5.059
14499SOL    HW245457   7.122   0.868   5.098
14500SOL     OW45458   5.658   0.166   4.042
14500SOL    HW145459   5.641   0.249   3.988
14500SOL    HW245460   5.748   0.129   4.020
14501SOL     OW45461   6.769   1.335   3.843
14501SOL    HW145462   6.670   1.324   3.845
14501SOL    HW245463   6.803   1.350   3.936
14502SOL     OW45464   6.199   0.842   5.155
14502SOL    HW145465   6.255   0.923   5.138
14502SOL    HW245466   6.258   0.762   5.158
14503SOL     OW45467   7.079   1.767   4.683
14503SOL    HW145468   7.112   1.831   4.614
14503SOL    HW245469   7.145   1.761   4.758
14504SOL     OW45470   6.302   0.565   5.432
14504SOL    HW145471   6.321   0.630   5.506
14504SOL    HW245472   6.362   0.485   5.441
14505SOL     OW45473   7.036   1.220   5.357
14505SOL    HW145474   7.027   1.210   5.456
14505SOL    HW245475   7.132   1.213   5.331
14506SOL     OW45476   7.260   0.883   4.978
14506SOL    HW145477   7.233   0.794   4.941
14506SOL    HW245478   7.261   0.951   4.905
14507SOL     OW45479   6.811   0.325   4.173
14507SOL    HW145480   6.876   0.251   4.162
14507SOL    HW245481   6.831   0.375   4.257
14508SOL     OW45482   6.180   0.745   4.376
14508SOL    HW145483   6.230   0.830   4.357
14508SOL    HW245484   6.092   0.747   4.328
14509SOL     OW45485   7.363   0.342   5.366
14509SOL    HW145486   7.346   0.373   5.272
14509SOL    HW245487   7.279   0.305   5.404
14510SOL     OW45488   7.316   0.934   5.241
14510SOL    HW145489   7.354   1.025   5.256
14510SOL    HW245490   7.308   0.917   5.142
14511SOL     OW45491   6.445   1.374   3.740
14511SOL    HW145492   6.399   1.389   3.828
14511SOL    HW245493   6.489   1.459   3.710
14512SOL     OW45494   6.994   1.851   5.444
14512SOL    HW145495   6.898   1.840   5.417
14512SOL    HW245496   7.050   1.784   5.396
14513SOL     OW45497   6.445   0.956   4.585
14513SOL    HW145498   6.499   0.887   4.633
14513SOL    HW245499   6.413   1.025   4.651
14514SOL     OW45500   6.669   0.984   3.811
14514SOL    HW145501   6.646   1.037   3.729
14514SOL    HW245502   6.750   0.928   3.792
14515SOL     OW45503   7.447   1.569   4.575
14515SOL    HW145504   7.376   1.557   4.505
14515SOL    HW245505   7.448   1.490   4.635
14516SOL     OW45506   5.807   1.314   5.568
14516SOL    HW145507   5.742   1.241   5.547
14516SOL    HW245508   5.811   1.328   5.666
14517SOL     OW45509   5.665   1.240   4.377
14517SOL    HW145510   5.664   1.193   4.465
14517SOL    HW245511   5.747   1.212   4.326
14518SOL     OW45512   7.410   0.192   4.951
14518SOL    HW145513   7.406   0.102   4.995
14518SOL    HW245514   7.413   0.181   4.852
14519SOL     OW45515   6.014   0.424   4.244
14519SOL    HW145516   6.044   0.352   4.182
14519SOL    HW245517   5.975   0.384   4.327
14520SOL     OW45518   7.291   1.487   4.828
14520SOL    HW145519   7.198   1.462   4.801
14520SOL    HW245520   7.317   1.437   4.910
14521SOL     OW45521   5.903   0.547   5.004
14521SOL    HW145522   5.941   0.488   5.076
14521SOL    HW245523   5.943   0.521   4.916
14522SOL     OW45524   7.010   0.214   4.836
14522SOL    HW145525   7.062   0.149   4.891
14522SOL    HW245526   6.961   0.277   4.897
14523SOL     OW45527   6.587   0.034   4.878
14523SOL    HW145528   6.524  -0.038   4.847
14523SOL    HW245529   6.680  -0.002   4.878
14524SOL     OW45530   6.356   1.330   4.025
14524SOL    HW145531   6.310   1.243   4.042
14524SOL    HW245532   6.447   1.327   4.066
14525SOL     OW45533   6.938   0.052   3.892
14525SOL    HW145534   6.973   0.011   3.808
14525SOL    HW245535   6.848   0.014   3.912
14526SOL     OW45536   6.886   0.453   4.415
14526SOL    HW145537   6.827   0.533   4.419
14526SOL    HW245538   6.901   0.418   4.508
14527SOL     OW45539   7.179   0.221   4.606
14527SOL    HW145540   7.095   0.220   4.660
14527SOL    HW245541   7.181   0.304   4.550
14528SOL     OW45542   5.625   1.077   4.024
14528SOL    HW145543   5.724   1.066   4.015
14528SOL    HW245544   5.585   0.991   4.056
14529SOL     OW45545   5.816   0.628   5.699
14529SOL    HW145546   5.723   0.626   5.736
14529SOL    HW245547   5.817   0.589   5.607
14530SOL     OW45548   5.811   0.275   6.582
14530SOL    HW145549   5.846   0.258   6.674
14530SOL    HW245550   5.723   0.230   6.570
14531SOL     OW45551   5.605   0.368   6.233
14531SOL    HW145552   5.523   0.411   6.272
14531SOL    HW245553   5.577   0.295   6.170
14532SOL     OW45554   6.155   1.275   6.751
14532SOL    HW145555   6.062   1.268   6.714
14532SOL    HW245556   6.166   1.364   6.795
14533SOL     OW45557   7.141   1.511   6.289
14533SOL    HW145558   7.084   1.495   6.370
14533SOL    HW245559   7.082   1.521   6.209
14534SOL     OW45560   7.329   0.618   6.442
14534SOL    HW145561   7.362   0.712   6.442
14534SOL    HW245562   7.380   0.564   6.508
14535SOL     OW45563   6.721   0.703   6.303
14535SOL    HW145564   6.778   0.781   6.278
14535SOL    HW245565   6.661   0.729   6.379
14536SOL     OW45566   7.341   0.607   5.817
14536SOL    HW145567   7.329   0.594   5.718
14536SOL    HW245568   7.311   0.526   5.866
14537SOL     OW45569   6.354   1.144   6.609
14537SOL    HW145570   6.276   1.161   6.669
14537SOL    HW245571   6.388   1.231   6.573
14538SOL     OW45572   6.436   0.798   7.409
14538SOL    HW145573   6.432   0.874   7.474
14538SOL    HW245574   6.458   0.834   7.318
14539SOL     OW45575   6.271   1.012   6.251
14539SOL    HW145576   6.340   0.996   6.321
14539SOL    HW245577   6.198   1.069   6.289
14540SOL     OW45578   6.272   1.161   7.389
14540SOL    HW145579   6.332   1.240   7.403
14540SOL    HW245580   6.186   1.192   7.348
14541SOL     OW45581   5.921   1.435   6.647
14541SOL    HW145582   5.843   1.404   6.594
14541SOL    HW245583   5.979   1.493   6.590
14542SOL     OW45584   7.046   1.505   6.925
14542SOL    HW145585   7.070   1.599   6.951
14542SOL    HW245586   7.030   1.451   7.007
14543SOL     OW45587   6.024   0.392   7.085
14543SOL    HW145588   6.106   0.336   7.094
14543SOL    HW245589   5.943   0.334   7.089
14544SOL     OW45590   7.189   0.447   6.323
14544SOL    HW145591   7.115   0.493   6.273
14544SOL    HW245592   7.240   0.515   6.376
14545SOL     OW45593   6.713   1.341   7.276
14545SOL    HW145594   6.760   1.341   7.364
14545SOL    HW245595   6.665   1.254   7.265
14546SOL     OW45596   5.826   1.091   6.472
14546SOL    HW145597   5.840   1.007   6.524
14546SOL    HW245598   5.771   1.155   6.527
14547SOL     OW45599   6.206   1.786   7.025
14547SOL    HW145600   6.114   1.769   7.060
14547SOL    HW245601   6.234   1.878   7.051
14548SOL     OW45602   6.192   0.964   5.709
14548SOL    HW145603   6.199   1.048   5.655
14548SOL    HW245604   6.238   0.977   5.797
14549SOL     OW45605   7.180   0.114   7.066
14549SOL    HW145606   7.162   0.181   6.994
14549SOL    HW245607   7.177   0.160   7.155
14550SOL     OW45608   5.708   0.643   6.149
14550SOL    HW145609   5.663   0.555   6.166
14550SOL    HW245610   5.707   0.697   6.233
14551SOL     OW45611   7.428   1.767   5.945
14551SOL    HW145612   7.482   1.738   6.025
14551SOL    HW245613   7.458   1.857   5.916
14552SOL     OW45614   5.613   1.596   5.703
14552SOL    HW145615   5.594   1.500   5.724
14552SOL    HW245616   5.580   1.654   5.778
14553SOL     OW45617   7.275   0.922   6.198
14553SOL    HW145618   7.370   0.893   6.206
14553SOL    HW245619   7.267   0.987   6.123
14554SOL     OW45620   7.227   1.108   6.018
14554SOL    HW145621   7.313   1.110   5.966
14554SOL    HW245622   7.241   1.155   6.106
14555SOL     OW45623   5.699   0.737   7.183
14555SOL    HW145624   5.787   0.724   7.228
14555SOL    HW245625   5.686   0.834   7.161
14556SOL     OW45626   6.199   1.365   6.312
14556SOL    HW145627   6.150   1.278   6.321
14556SOL    HW245628   6.176   1.408   6.225
14557SOL     OW45629   6.879   1.228   7.009
14557SOL    HW145630   6.916   1.155   6.951
14557SOL    HW245631   6.931   1.233   7.094
14558SOL     OW45632   6.395   0.004   6.088
14558SOL    HW145633   6.435   0.095   6.079
14558SOL    HW245634   6.295   0.012   6.094
14559SOL     OW45635   5.783   0.976   6.850
14559SOL    HW145636   5.872   0.931   6.836
14559SOL    HW245637   5.710   0.911   6.831
14560SOL     OW45638   7.111   0.999   5.776
14560SOL    HW145639   7.048   0.923   5.789
14560SOL    HW245640   7.159   1.017   5.862
14561SOL     OW45641   6.773   1.792   7.202
14561SOL    HW145642   6.797   1.852   7.126
14561SOL    HW245643   6.780   1.697   7.172
14562SOL     OW45644   5.903   0.251   7.387
14562SOL    HW145645   5.974   0.322   7.393
14562SOL    HW245646   5.815   0.290   7.415
14563SOL     OW45647   7.052   1.417   6.539
14563SOL    HW145648   6.993   1.423   6.619
14563SOL    HW245649   7.037   1.329   6.493
14564SOL     OW45650   7.253   1.714   6.158
14564SOL    HW145651   7.212   1.691   6.070
14564SOL    HW245652   7.235   1.640   6.223
14565SOL     OW45653   6.184   0.729   5.856
14565SOL    HW145654   6.208   0.798   5.788
14565SOL    HW245655   6.106   0.762   5.910
14566SOL     OW45656   6.867   0.345   6.530
14566SOL    HW145657   6.781   0.295   6.517
14566SOL    HW245658   6.929   0.291   6.586
14567SOL     OW45659   7.162   1.662   5.893
14567SOL    HW145660   7.251   1.708   5.896
14567SOL    HW245661   7.141   1.638   5.798
14568SOL     OW45662   6.393   0.605   7.051
14568SOL    HW145663   6.346   0.602   7.140
14568SOL    HW245664   6.342   0.550   6.985
14569SOL     OW45665   6.980   0.469   7.260
14569SOL    HW145666   6.960   0.512   7.348
14569SOL    HW245667   7.058   0.407   7.269
14570SOL     OW45668   6.559   0.890   7.158
14570SOL    HW145669   6.605   0.806   7.129
14570SOL    HW245670   6.503   0.924   7.083
14571SOL     OW45671   6.577   0.410   6.828
14571SOL    HW145672   6.500   0.444   6.882
14571SOL    HW245673   6.543   0.359   6.749
14572SOL     OW45674   6.627   0.701   6.015
14572SOL    HW145675   6.653   0.697   6.111
14572SOL    HW245676   6.542   0.650   6.001
14573SOL     OW45677   5.662   0.811   6.375
14573SOL    HW145678   5.761   0.799   6.384
14573SOL    HW245679   5.638   0.906   6.396
14574SOL     OW45680   6.451   0.348   5.781
14574SOL    HW145681   6.510   0.411   5.732
14574SOL    HW245682   6.470   0.254   5.752
14575SOL     OW45683   7.305   0.585   7.417
14575SOL    HW145684   7.279   0.674   7.381
14575SOL    HW245685   7.303   0.517   7.344
14576SOL     OW45686   6.948   1.144   6.131
14576SOL    HW145687   7.031   1.115   6.083
14576SOL    HW245688   6.899   1.211   6.075
14577SOL     OW45689   6.136   0.196   6.471
14577SOL    HW145690   6.131   0.191   6.571
14577SOL    HW245691   6.138   0.292   6.442
14578SOL     OW45692   6.594   1.456   6.063
14578SOL    HW145693   6.548   1.528   6.011
14578SOL    HW245694   6.590   1.476   6.161
14579SOL     OW45695   5.937   1.801   6.439
14579SOL    HW145696   5.987   1.715   6.445
14579SOL    HW245697   6.002   1.878   6.436
14580SOL     OW45698   7.381   1.066   6.459
14580SOL    HW145699   7.319   1.051   6.383
14580SOL    HW245700   7.329   1.077   6.544
14581SOL     OW45701   6.813   1.550   7.092
14581SOL    HW145702   6.819   1.473   7.156
14581SOL    HW245703   6.761   1.524   7.012
14582SOL     OW45704   5.907   0.943   5.828
14582SOL    HW145705   5.989   0.982   5.786
14582SOL    HW245706   5.880   0.861   5.779
14583SOL     OW45707   7.044   0.735   6.314
14583SOL    HW145708   7.039   0.670   6.389
14583SOL    HW245709   7.124   0.794   6.327
14584SOL     OW45710   6.047   1.266   7.313
14584SOL    HW145711   5.997   1.267   7.227
14584SOL    HW245712   5.984   1.248   7.389
14585SOL     OW45713   6.697   1.776   5.823
14585SOL    HW145714   6.637   1.714   5.873
14585SOL    HW245715   6.728   1.732   5.738
14586SOL     OW45716   5.788   0.285   7.084
14586SOL    HW145717   5.708   0.345   7.071
14586SOL    HW245718   5.778   0.236   7.170
14587SOL     OW45719   7.218   1.377   5.667
14587SOL    HW145720   7.186   1.471   5.657
14587SOL    HW245721   7.142   1.314   5.655
14588SOL     OW45722   6.986   0.107   6.012
14588SOL    HW145723   6.962   0.070   5.922
14588SOL    HW245724   7.085   0.123   6.016
14589SOL     OW45725   5.835   1.785   6.827
14589SOL    HW145726   5.892   1.720   6.877
14589SOL    HW245727   5.819   1.752   6.734
14590SOL     OW45728   5.968   0.700   6.066
14590SOL    HW145729   6.013   0.610   6.063
14590SOL    HW245730   5.874   0.689   6.099
14591SOL     OW45731   7.133   0.222   7.315
14591SOL    HW145732   7.128   0.259   7.407
14591SOL    HW245733   7.061   0.153   7.303
14592SOL     OW45734   6.200   0.122   5.703
14592SOL    HW145735   6.298   0.100   5.710
14592SOL    HW245736   6.169   0.105   5.610
14593SOL     OW45737   6.367   0.264   7.335
14593SOL    HW145738   6.434   0.203   7.378
14593SOL    HW245739   6.294   0.283   7.400
14594SOL     OW45740   6.474   1.514   6.781
14594SOL    HW145741   6.451   1.489   6.687
14594SOL    HW245742   6.535   1.445   6.820
14595SOL     OW45743   6.937   0.590   7.019
14595SOL    HW145744   6.965   0.547   7.104
14595SOL    HW245745   6.962   0.686   7.020
14596SOL     OW45746   6.389   1.402   6.510
14596SOL    HW145747   6.479   1.416   6.468
14596SOL    HW245748   6.318   1.404   6.439
14597SOL     OW45749   6.508   0.503   6.485
14597SOL    HW145750   6.483   0.494   6.389
14597SOL    HW245751   6.556   0.421   6.516
14598SOL     OW45752   6.125   0.064   6.098
14598SOL    HW145753   6.044   0.065   6.156
14598SOL    HW245754   6.128   0.147   6.043
14599SOL     OW45755   7.020   1.188   5.627
14599SOL    HW145756   7.052   1.112   5.684
14599SOL    HW245757   6.928   1.215   5.657
14600SOL     OW45758   5.883   0.035   5.757
14600SOL    HW145759   5.932   0.119   5.736
14600SOL    HW245760   5.945  -0.030   5.802
14601SOL     OW45761   6.521   0.236   6.066
14601SOL    HW145762   6.473   0.277   5.988
14601SOL    HW245763   6.620   0.234   6.047
14602SOL     OW45764   6.662   0.683   7.050
14602SOL    HW145765   6.582   0.622   7.053
14602SOL    HW245766   6.743   0.630   7.026
14603SOL     OW45767   6.813   1.570   6.379
14603SOL    HW145768   6.834   1.644   6.314
14603SOL    HW245769   6.881   1.570   6.452
14604SOL     OW45770   6.045   1.152   6.327
14604SOL    HW145771   5.974   1.125   6.392
14604SOL    HW245772   6.019   1.124   6.234
14605SOL     OW45773   6.857   1.797   6.177
14605SOL    HW145774   6.901   1.861   6.113
14605SOL    HW245775   6.807   1.849   6.247
14606SOL     OW45776   6.618   0.549   5.602
14606SOL    HW145777   6.577   0.631   5.563
14606SOL    HW245778   6.682   0.575   5.675
14607SOL     OW45779   5.664   0.556   6.972
14607SOL    HW145780   5.756   0.555   6.931
14607SOL    HW245781   5.658   0.630   7.039
14608SOL     OW45782   6.147   0.222   6.733
14608SOL    HW145783   6.185   0.138   6.770
14608SOL    HW245784   6.059   0.241   6.777
14609SOL     OW45785   6.452   0.454   6.228
14609SOL    HW145786   6.420   0.526   6.166
14609SOL    HW245787   6.476   0.373   6.175
14610SOL     OW45788   6.603   0.039   6.339
14610SOL    HW145789   6.531   0.044   6.270
14610SOL    HW245790   6.579  -0.030   6.408
14611SOL     OW45791   7.015   1.173   6.453
14611SOL    HW145792   6.960   1.089   6.446
14611SOL    HW245793   7.041   1.202   6.361
14612SOL     OW45794   7.052   0.590   6.578
14612SOL    HW145795   7.022   0.495   6.585
14612SOL    HW245796   7.125   0.606   6.644
14613SOL     OW45797   7.443   0.833   5.963
14613SOL    HW145798   7.485   0.769   6.027
14613SOL    HW245799   7.405   0.782   5.885
14614SOL     OW45800   7.250   1.280   6.243
14614SOL    HW145801   7.349   1.288   6.257
14614SOL    HW245802   7.205   1.364   6.274
14615SOL     OW45803   6.976   0.575   5.664
14615SOL    HW145804   6.922   0.554   5.745
14615SOL    HW245805   7.067   0.534   5.673
14616SOL     OW45806   6.113   0.256   5.914
14616SOL    HW145807   6.140   0.197   5.839
14616SOL    HW245808   6.113   0.351   5.883
14617SOL     OW45809   7.340   1.223   7.174
14617SOL    HW145810   7.431   1.184   7.161
14617SOL    HW245811   7.348   1.319   7.198
14618SOL     OW45812   6.650   1.347   6.926
14618SOL    HW145813   6.570   1.324   6.981
14618SOL    HW245814   6.733   1.321   6.975
14619SOL     OW45815   7.178   1.629   7.211
14619SOL    HW145816   7.205   1.663   7.121
14619SOL    HW245817   7.257   1.591   7.257
14620SOL     OW45818   6.697   1.195   6.686
14620SOL    HW145819   6.657   1.239   6.767
14620SOL    HW245820   6.656   1.232   6.603
14621SOL     OW45821   7.224   1.099   6.665
14621SOL    HW145822   7.229   1.180   6.724
14621SOL    HW245823   7.138   1.101   6.614
14622SOL     OW45824   6.501   0.089   6.988
14622SOL    HW145825   6.526   0.069   6.893
14622SOL    HW245826   6.573   0.145   7.030
14623SOL     OW45827   6.566   1.116   7.305
14623SOL    HW145828   6.467   1.122   7.315
14623SOL    HW245829   6.589   1.036   7.249
14624SOL     OW45830   6.291   1.050   5.954
14624SOL    HW145831   6.277   1.057   6.053
14624SOL    HW245832   6.375   0.999   5.936
14625SOL     OW45833   5.996   0.813   6.837
14625SOL    HW145834   6.082   0.825   6.887
14625SOL    HW245835   5.954   0.726   6.864
14626SOL     OW45836   6.860   0.386   6.848
14626SOL    HW145837   6.881   0.460   6.912
14626SOL    HW245838   6.771   0.403   6.805
14627SOL     OW45839   5.953   1.100   6.087
14627SOL    HW145840   5.946   1.183   6.031
14627SOL    HW245841   5.957   1.020   6.027
14628SOL     OW45842   6.838   1.348   5.974
14628SOL    HW145843   6.888   1.425   6.014
14628SOL    HW245844   6.743   1.350   6.006
14629SOL     OW45845   6.858   1.445   6.728
14629SOL    HW145846   6.905   1.458   6.815
14629SOL    HW245847   6.792   1.371   6.737
14630SOL     OW45848   7.168   0.639   6.058
14630SOL    HW145849   7.137   0.700   6.131
14630SOL    HW245850   7.218   0.691   5.989
14631SOL     OW45851   5.988   0.751   7.184
14631SOL    HW145852   6.056   0.806   7.137
14631SOL    HW245853   6.028   0.663   7.211
14632SOL     OW45854   7.173   0.779   7.256
14632SOL    HW145855   7.081   0.817   7.251
14632SOL    HW245856   7.233   0.826   7.191
14633SOL     OW45857   6.599   0.105   7.356
14633SOL    HW145858   6.605   0.190   7.304
14633SOL    HW245859   6.631   0.029   7.299
14634SOL     OW45860   6.090   0.050   7.326
14634SOL    HW145861   6.048  -0.007   7.256
14634SOL    HW245862   6.024   0.119   7.358
14635SOL     OW45863   6.946   0.862   6.631
14635SOL    HW145864   6.871   0.862   6.565
14635SOL    HW245865   6.983   0.770   6.640
14636SOL     OW45866   6.795   0.525   5.861
14636SOL    HW145867   6.808   0.441   5.915
14636SOL    HW245868   6.766   0.599   5.921
14637SOL     OW45869   5.893   0.213   6.817
14637SOL    HW145870   5.870   0.250   6.907
14637SOL    HW245871   5.863   0.118   6.811
14638SOL     OW45872   5.623   1.310   6.868
14638SOL    HW145873   5.676   1.261   6.936
14638SOL    HW245874   5.645   1.408   6.873
14639SOL     OW45875   6.318   0.634   6.650
14639SOL    HW145876   6.377   0.608   6.574
14639SOL    HW245877   6.290   0.730   6.639
14640SOL     OW45878   7.314   0.935   7.440
14640SOL    HW145879   7.268   0.928   7.351
14640SOL    HW245880   7.252   0.979   7.506
14641SOL     OW45881   5.893   0.063   6.204
14641SOL    HW145882   5.882   0.157   6.237
14641SOL    HW245883   5.888   0.000   6.281
14642SOL     OW45884   7.208   0.367   5.960
14642SOL    HW145885   7.210   0.291   6.024
14642SOL    HW245886   7.160   0.444   6.000
14643SOL     OW45887   6.609   0.766   6.552
14643SOL    HW145888   6.624   0.787   6.648
14643SOL    HW245889   6.579   0.671   6.543
14644SOL     OW45890   6.566   1.573   7.286
14644SOL    HW145891   6.546   1.617   7.198
14644SOL    HW245892   6.605   1.482   7.270
14645SOL     OW45893   7.445   1.518   7.191
14645SOL    HW145894   7.459   1.545   7.096
14645SOL    HW245895   7.528   1.540   7.244
14646SOL     OW45896   5.936   0.898   7.390
14646SOL    HW145897   6.012   0.942   7.438
14646SOL    HW245898   5.971   0.851   7.308
14647SOL     OW45899   7.126   0.274   5.711
14647SOL    HW145900   7.065   0.199   5.734
14647SOL    HW245901   7.148   0.326   5.794
14648SOL     OW45902   6.889   0.838   5.628
14648SOL    HW145903   6.923   0.745   5.643
14648SOL    HW245904   6.907   0.865   5.533
14649SOL     OW45905   6.654   1.333   6.435
14649SOL    HW145906   6.661   1.249   6.380
14649SOL    HW245907   6.716   1.402   6.399
14650SOL     OW45908   5.925   0.509   6.592
14650SOL    HW145909   5.873   0.426   6.575
14650SOL    HW245910   6.002   0.514   6.528
14651SOL     OW45911   6.724   0.380   7.264
14651SOL    HW145912   6.679   0.443   7.328
14651SOL    HW245913   6.817   0.411   7.247
14652SOL     OW45914   6.746   0.207   7.063
14652SOL    HW145915   6.746   0.271   7.140
14652SOL    HW245916   6.774   0.255   6.980
14653SOL     OW45917   5.594   1.326   5.786
14653SOL    HW145918   5.501   1.347   5.755
14653SOL    HW245919   5.604   1.227   5.799
14654SOL     OW45920   5.674   1.801   6.513
14654SOL    HW145921   5.632   1.715   6.486
14654SOL    HW245922   5.768   1.804   6.479
14655SOL     OW45923   6.090   1.568   6.496
14655SOL    HW145924   6.156   1.642   6.505
14655SOL    HW245925   6.134   1.489   6.454
14656SOL     OW45926   6.588   0.796   6.824
14656SOL    HW145927   6.629   0.764   6.910
14656SOL    HW245928   6.492   0.769   6.821
14657SOL     OW45929   5.626   0.544   6.700
14657SOL    HW145930   5.711   0.511   6.659
14657SOL    HW245931   5.639   0.559   6.798
14658SOL     OW45932   5.775   0.520   7.308
14658SOL    HW145933   5.834   0.480   7.238
14658SOL    HW245934   5.717   0.591   7.267
14659SOL     OW45935   6.955   0.950   7.246
14659SOL    HW145936   6.994   1.039   7.266
14659SOL    HW245937   6.965   0.930   7.149
14660SOL     OW45938   6.401   0.572   5.911
14660SOL    HW145939   6.408   0.483   5.865
14660SOL    HW245940   6.307   0.606   5.903
14661SOL     OW45941   7.243   0.604   6.792
14661SOL    HW145942   7.205   0.535   6.854
14661SOL    HW245943   7.325   0.568   6.748
14662SOL     OW45944   5.838   1.564   7.330
14662SOL    HW145945   5.808   1.621   7.406
14662SOL    HW245946   5.831   1.467   7.356
14663SOL     OW45947   6.257   0.464   6.855
14663SOL    HW145948   6.223   0.375   6.825
14663SOL    HW245949   6.283   0.518   6.775
14664SOL     OW45950   6.516   1.678   7.051
14664SOL    HW145951   6.492   1.660   6.956
14664SOL    HW245952   6.546   1.772   7.061
14665SOL     OW45953   6.059   0.500   5.777
14665SOL    HW145954   6.120   0.580   5.781
14665SOL    HW245955   5.964   0.531   5.784
14666SOL     OW45956   5.745   1.137   7.052
14666SOL    HW145957   5.767   1.076   7.128
14666SOL    HW245958   5.755   1.088   6.966
14667SOL     OW45959   6.933   1.059   6.820
14667SOL    HW145960   6.957   0.996   6.746
14667SOL    HW245961   6.843   1.099   6.802
14668SOL     OW45962   6.888   0.855   5.895
14668SOL    HW145963   6.802   0.824   5.937
14668SOL    HW245964   6.884   0.841   5.796
14669SOL     OW45965   7.345   1.747   6.740
14669SOL    HW145966   7.406   1.777   6.667
14669SOL    HW245967   7.307   1.658   6.718
14670SOL     OW45968   6.838   1.731   6.714
14670SOL    HW145969   6.922   1.736   6.660
14670SOL    HW245970   6.815   1.635   6.732
14671SOL     OW45971   5.669   1.258   6.608
14671SOL    HW145972   5.664   1.257   6.708
14671SOL    HW245973   5.586   1.217   6.570
14672SOL     OW45974   6.274   1.662   7.302
14672SOL    HW145975   6.218   1.743   7.311
14672SOL    HW245976   6.326   1.666   7.216
14673SOL     OW45977   7.312   0.135   6.109
14673SOL    HW145978   7.385   0.118   6.042
14673SOL    HW245979   7.281   0.048   6.147
14674SOL     OW45980   6.974   1.573   6.063
14674SOL    HW145981   7.041   1.585   5.989
14674SOL    HW245982   6.934   1.662   6.086
14675SOL     OW45983   6.866   0.927   6.258
14675SOL    HW145984   6.926   0.846   6.260
14675SOL    HW245985   6.906   0.996   6.198
14676SOL     OW45986   6.416   1.273   7.008
14676SOL    HW145987   6.411   1.306   7.103
14676SOL    HW245988   6.330   1.292   6.962
14677SOL     OW45989   6.258   1.616   5.740
14677SOL    HW145990   6.267   1.626   5.641
14677SOL    HW245991   6.218   1.527   5.761
14678SOL     OW45992   7.236   1.720   6.980
14678SOL    HW145993   7.289   1.730   6.896
14678SOL    HW245994   7.209   1.810   7.014
14679SOL     OW45995   7.427   0.175   6.549
14679SOL    HW145996   7.466   0.090   6.513
14679SOL    HW245997   7.329   0.177   6.530
14680SOL     OW45998   5.849   0.326   6.306
14680SOL    HW145999   5.770   0.377   6.272
14680SOL    HW246000   5.840   0.311   6.404
14681SOL     OW46001   6.780   1.612   5.617
14681SOL    HW146002   6.786   1.519   5.654
14681SOL    HW246003   6.721   1.612   5.537
14682SOL     OW46004   6.408   1.002   6.958
14682SOL    HW146005   6.448   1.001   6.866
14682SOL    HW246006   6.418   1.094   6.998
14683SOL     OW46007   6.502   0.910   5.877
14683SOL    HW146008   6.565   0.948   5.809
14683SOL    HW246009   6.542   0.827   5.916
14684SOL     OW46010   7.090   1.607   5.630
14684SOL    HW146011   6.998   1.644   5.637
14684SOL    HW246012   7.128   1.627   5.540
14685SOL     OW46013   5.958   1.288   7.076
14685SOL    HW146014   5.945   1.381   7.042
14685SOL    HW246015   5.874   1.236   7.063
14686SOL     OW46016   7.200   1.292   6.875
14686SOL    HW146017   7.260   1.295   6.955
14686SOL    HW246018   7.125   1.356   6.888
14687SOL     OW46019   6.625   1.098   6.282
14687SOL    HW146020   6.555   1.051   6.336
14687SOL    HW246021   6.684   1.030   6.239
14688SOL     OW46022   6.600   0.236   6.557
14688SOL    HW146023   6.592   0.200   6.464
14688SOL    HW246024   6.598   0.160   6.622
14689SOL     OW46025   6.176   1.487   6.077
14689SOL    HW146026   6.218   1.429   6.007
14689SOL    HW246027   6.132   1.566   6.033
14690SOL     OW46028   7.295   0.385   6.967
14690SOL    HW146029   7.368   0.454   6.971
14690SOL    HW246030   7.323   0.310   6.908
14691SOL     OW46031   5.691   1.013   7.312
14691SOL    HW146032   5.614   0.980   7.366
14691SOL    HW246033   5.776   0.983   7.354
14692SOL     OW46034   6.258   0.203   7.075
14692SOL    HW146035   6.348   0.187   7.035
14692SOL    HW246036   6.266   0.208   7.174
14693SOL     OW46037   5.661   0.345   5.619
14693SOL    HW146038   5.569   0.317   5.590
14693SOL    HW246039   5.692   0.422   5.563
14694SOL     OW46040   7.026   0.856   6.984
14694SOL    HW146041   6.969   0.908   6.921
14694SOL    HW246042   7.122   0.868   6.960
14695SOL     OW46043   5.658   0.166   5.904
14695SOL    HW146044   5.641   0.249   5.850
14695SOL    HW246045   5.748   0.129   5.882
14696SOL     OW46046   6.769   1.335   5.705
14696SOL    HW146047   6.670   1.324   5.707
14696SOL    HW246048   6.803   1.350   5.798
14697SOL     OW46049   6.199   0.842   7.017
14697SOL    HW146050   6.255   0.923   7.000
14697SOL    HW246051   6.258   0.762   7.020
14698SOL     OW46052   7.079   1.767   6.545
14698SOL    HW146053   7.112   1.831   6.476
14698SOL    HW246054   7.145   1.761   6.620
14699SOL     OW46055   6.302   0.565   7.294
14699SOL    HW146056   6.321   0.630   7.368
14699SOL    HW246057   6.362   0.485   7.303
14700SOL     OW46058   7.036   1.220   7.219
14700SOL    HW146059   7.027   1.210   7.318
14700SOL    HW246060   7.132   1.213   7.193
14701SOL     OW46061   7.260   0.883   6.840
14701SOL    HW146062   7.233   0.794   6.803
14701SOL    HW246063   7.261   0.951   6.767
14702SOL     OW46064   6.811   0.325   6.035
14702SOL    HW146065   6.876   0.251   6.024
14702SOL    HW246066   6.831   0.375   6.119
14703SOL     OW46067   7.363   0.342   7.228
14703SOL    HW146068   7.346   0.373   7.134
14703SOL    HW246069   7.279   0.305   7.266
14704SOL     OW46070   7.316   0.934   7.103
14704SOL    HW146071   7.354   1.025   7.118
14704SOL    HW246072   7.308   0.917   7.004
14705SOL     OW46073   6.445   1.374   5.602
14705SOL    HW146074   6.399   1.389   5.690
14705SOL    HW246075   6.489   1.459   5.572
14706SOL     OW46076   6.247   1.790   6.539
14706SOL    HW146077   6.201   1.878   6.526
14706SOL    HW246078   6.346   1.802   6.532
14707SOL     OW46079   6.994   1.851   7.306
14707SOL    HW146080   6.898   1.840   7.279
14707SOL    HW246081   7.050   1.784   7.258
14708SOL     OW46082   6.445   0.956   6.447
14708SOL    HW146083   6.499   0.887   6.495
14708SOL    HW246084   6.413   1.025   6.513
14709SOL     OW46085   6.669   0.984   5.673
14709SOL    HW146086   6.646   1.037   5.591
14709SOL    HW246087   6.750   0.928   5.654
14710SOL     OW46088   7.447   1.569   6.437
14710SOL    HW146089   7.376   1.557   6.367
14710SOL    HW246090   7.448   1.490   6.497
14711SOL     OW46091   5.807   1.314   7.430
14711SOL    HW146092   5.742   1.241   7.409
14711SOL    HW246093   5.811   1.328   7.528
14712SOL     OW46094   5.665   1.240   6.239
14712SOL    HW146095   5.664   1.193   6.327
14712SOL    HW246096   5.747   1.212   6.188
14713SOL     OW46097   6.258   1.391   7.210
14713SOL    HW146098   6.180   1.341   7.248
14713SOL    HW246099   6.255   1.486   7.241
14714SOL     OW46100   7.410   0.192   6.813
14714SOL    HW146101   7.406   0.102   6.857
14714SOL    HW246102   7.413   0.181   6.714
14715SOL     OW46103   6.014   0.424   6.106
14715SOL    HW146104   6.044   0.352   6.044
14715SOL    HW246105   5.975   0.384   6.189
14716SOL     OW46106   7.291   1.487   6.690
14716SOL    HW146107   7.198   1.462   6.663
14716SOL    HW246108   7.317   1.437   6.772
14717SOL     OW46109   5.903   0.547   6.866
14717SOL    HW146110   5.941   0.488   6.938
14717SOL    HW246111   5.943   0.521   6.778
14718SOL     OW46112   6.398   1.586   6.273
14718SOL    HW146113   6.430   1.596   6.179
14718SOL    HW246114   6.319   1.524   6.275
14719SOL     OW46115   7.010   0.214   6.698
14719SOL    HW146116   7.062   0.149   6.753
14719SOL    HW246117   6.961   0.277   6.759
14720SOL     OW46118   6.587   0.034   6.740
14720SOL    HW146119   6.524  -0.038   6.709
14720SOL    HW246120   6.680  -0.002   6.740
14721SOL     OW46121   6.356   1.330   5.887
14721SOL    HW146122   6.310   1.243   5.904
14721SOL    HW246123   6.447   1.327   5.928
14722SOL     OW46124   6.938   0.052   5.754
14722SOL    HW146125   6.973   0.011   5.670
14722SOL    HW246126   6.848   0.014   5.774
14723SOL     OW46127   6.886   0.453   6.277
14723SOL    HW146128   6.827   0.533   6.281
14723SOL    HW246129   6.901   0.418   6.370
14724SOL     OW46130   7.179   0.221   6.468
14724SOL    HW146131   7.095   0.220   6.522
14724SOL    HW246132   7.181   0.304   6.412
14725SOL     OW46133   5.625   1.077   5.886
14725SOL    HW146134   5.724   1.066   5.877
14725SOL    HW246135   5.585   0.991   5.918
14726SOL     OW46136   6.461   1.646   5.923
14726SOL    HW146137   6.384   1.611   5.869
14726SOL    HW246138   6.429   1.717   5.985
14727SOL     OW46139   5.816   0.628   7.561
14727SOL    HW146140   5.723   0.626   7.598
14727SOL    HW246141   5.817   0.589   7.469
14728SOL     OW46142   5.811   0.275   8.444
14728SOL    HW146143   5.846   0.258   8.536
14728SOL    HW246144   5.723   0.230   8.432
14729SOL     OW46145   5.605   0.368   8.095
14729SOL    HW146146   5.523   0.411   8.134
14729SOL    HW246147   5.577   0.295   8.032
14730SOL     OW46148   6.155   1.275   8.613
14730SOL    HW146149   6.062   1.268   8.576
14730SOL    HW246150   6.166   1.364   8.657
14731SOL     OW46151   7.141   1.511   8.151
14731SOL    HW146152   7.084   1.495   8.232
14731SOL    HW246153   7.082   1.521   8.071
14732SOL     OW46154   7.329   0.618   8.304
14732SOL    HW146155   7.362   0.712   8.304
14732SOL    HW246156   7.380   0.564   8.370
14733SOL     OW46157   6.721   0.703   8.165
14733SOL    HW146158   6.778   0.781   8.140
14733SOL    HW246159   6.661   0.729   8.241
14734SOL     OW46160   7.341   0.607   7.679
14734SOL    HW146161   7.329   0.594   7.580
14734SOL    HW246162   7.311   0.526   7.728
14735SOL     OW46163   6.354   1.144   8.471
14735SOL    HW146164   6.276   1.161   8.531
14735SOL    HW246165   6.388   1.231   8.435
14736SOL     OW46166   6.271   1.012   8.113
14736SOL    HW146167   6.340   0.996   8.183
14736SOL    HW246168   6.198   1.069   8.151
14737SOL     OW46169   5.921   1.435   8.509
14737SOL    HW146170   5.843   1.404   8.456
14737SOL    HW246171   5.979   1.493   8.452
14738SOL     OW46172   7.046   1.505   8.787
14738SOL    HW146173   7.070   1.599   8.813
14738SOL    HW246174   7.030   1.451   8.869
14739SOL     OW46175   6.024   0.392   8.947
14739SOL    HW146176   6.106   0.336   8.956
14739SOL    HW246177   5.943   0.334   8.951
14740SOL     OW46178   7.189   0.447   8.185
14740SOL    HW146179   7.115   0.493   8.135
14740SOL    HW246180   7.240   0.515   8.238
14741SOL     OW46181   5.817   1.713   7.931
14741SOL    HW146182   5.851   1.790   7.985
14741SOL    HW246183   5.861   1.713   7.841
14742SOL     OW46184   5.816   1.434   7.986
14742SOL    HW146185   5.790   1.530   7.986
14742SOL    HW246186   5.745   1.380   8.031
14743SOL     OW46187   5.826   1.091   8.334
14743SOL    HW146188   5.840   1.007   8.386
14743SOL    HW246189   5.771   1.155   8.389
14744SOL     OW46190   6.206   1.786   8.887
14744SOL    HW146191   6.114   1.769   8.922
14744SOL    HW246192   6.234   1.878   8.913
14745SOL     OW46193   6.192   0.964   7.571
14745SOL    HW146194   6.199   1.048   7.517
14745SOL    HW246195   6.238   0.977   7.659
14746SOL     OW46196   7.180   0.114   8.928
14746SOL    HW146197   7.162   0.181   8.856
14746SOL    HW246198   7.177   0.160   9.017
14747SOL     OW46199   5.708   0.643   8.011
14747SOL    HW146200   5.663   0.555   8.028
14747SOL    HW246201   5.707   0.697   8.095
14748SOL     OW46202   7.428   1.767   7.807
14748SOL    HW146203   7.482   1.738   7.887
14748SOL    HW246204   7.458   1.857   7.778
14749SOL     OW46205   5.613   1.596   7.565
14749SOL    HW146206   5.594   1.500   7.586
14749SOL    HW246207   5.580   1.654   7.640
14750SOL     OW46208   7.275   0.922   8.060
14750SOL    HW146209   7.370   0.893   8.068
14750SOL    HW246210   7.267   0.987   7.985
14751SOL     OW46211   7.227   1.108   7.880
14751SOL    HW146212   7.313   1.110   7.828
14751SOL    HW246213   7.241   1.155   7.968
14752SOL     OW46214   6.199   1.365   8.174
14752SOL    HW146215   6.150   1.278   8.183
14752SOL    HW246216   6.176   1.408   8.087
14753SOL     OW46217   6.395   0.004   7.950
14753SOL    HW146218   6.435   0.095   7.941
14753SOL    HW246219   6.295   0.012   7.956
14754SOL     OW46220   5.783   0.976   8.712
14754SOL    HW146221   5.872   0.931   8.698
14754SOL    HW246222   5.710   0.911   8.693
14755SOL     OW46223   7.111   0.999   7.638
14755SOL    HW146224   7.048   0.923   7.651
14755SOL    HW246225   7.159   1.017   7.724
14756SOL     OW46226   7.052   1.417   8.401
14756SOL    HW146227   6.993   1.423   8.481
14756SOL    HW246228   7.037   1.329   8.355
14757SOL     OW46229   7.253   1.714   8.020
14757SOL    HW146230   7.212   1.691   7.932
14757SOL    HW246231   7.235   1.640   8.085
14758SOL     OW46232   6.184   0.729   7.718
14758SOL    HW146233   6.208   0.798   7.650
14758SOL    HW246234   6.106   0.762   7.772
14759SOL     OW46235   6.867   0.345   8.392
14759SOL    HW146236   6.781   0.295   8.379
14759SOL    HW246237   6.929   0.291   8.448
14760SOL     OW46238   7.162   1.662   7.755
14760SOL    HW146239   7.251   1.708   7.758
14760SOL    HW246240   7.141   1.638   7.660
14761SOL     OW46241   6.393   0.605   8.913
14761SOL    HW146242   6.346   0.602   9.002
14761SOL    HW246243   6.342   0.550   8.847
14762SOL     OW46244   6.577   0.410   8.690
14762SOL    HW146245   6.500   0.444   8.744
14762SOL    HW246246   6.543   0.359   8.611
14763SOL     OW46247   6.627   0.701   7.877
14763SOL    HW146248   6.653   0.697   7.973
14763SOL    HW246249   6.542   0.650   7.863
14764SOL     OW46250   5.662   0.811   8.237
14764SOL    HW146251   5.761   0.799   8.246
14764SOL    HW246252   5.638   0.906   8.258
14765SOL     OW46253   5.716   1.821   0.019
14765SOL    HW146254   5.706   1.806   0.118
14765SOL    HW246255   5.630   1.857  -0.017
14766SOL     OW46256   6.451   0.348   7.643
14766SOL    HW146257   6.510   0.411   7.594
14766SOL    HW246258   6.470   0.254   7.614
14767SOL     OW46259   6.948   1.144   7.993
14767SOL    HW146260   7.031   1.115   7.945
14767SOL    HW246261   6.899   1.211   7.937
14768SOL     OW46262   6.136   0.196   8.333
14768SOL    HW146263   6.131   0.191   8.433
14768SOL    HW246264   6.138   0.292   8.304
14769SOL     OW46265   6.594   1.456   7.925
14769SOL    HW146266   6.548   1.528   7.873
14769SOL    HW246267   6.590   1.476   8.023
14770SOL     OW46268   5.937   1.801   8.301
14770SOL    HW146269   5.987   1.715   8.307
14770SOL    HW246270   6.002   1.878   8.298
14771SOL     OW46271   7.381   1.066   8.321
14771SOL    HW146272   7.319   1.051   8.245
14771SOL    HW246273   7.329   1.077   8.406
14772SOL     OW46274   5.907   0.943   7.690
14772SOL    HW146275   5.989   0.982   7.648
14772SOL    HW246276   5.880   0.861   7.641
14773SOL     OW46277   7.044   0.735   8.176
14773SOL    HW146278   7.039   0.670   8.251
14773SOL    HW246279   7.124   0.794   8.189
14774SOL     OW46280   6.697   1.776   7.685
14774SOL    HW146281   6.637   1.714   7.735
14774SOL    HW246282   6.728   1.732   7.600
14775SOL     OW46283   5.788   0.285   8.946
14775SOL    HW146284   5.708   0.345   8.933
14775SOL    HW246285   5.778   0.236   9.032
14776SOL     OW46286   7.218   1.377   7.529
14776SOL    HW146287   7.186   1.471   7.519
14776SOL    HW246288   7.142   1.314   7.517
14777SOL     OW46289   6.050   1.743   7.771
14777SOL    HW146290   6.083   1.782   7.857
14777SOL    HW246291   6.126   1.736   7.706
14778SOL     OW46292   6.986   0.107   7.874
14778SOL    HW146293   6.962   0.070   7.784
14778SOL    HW246294   7.085   0.123   7.878
14779SOL     OW46295   5.835   1.785   8.689
14779SOL    HW146296   5.892   1.720   8.739
14779SOL    HW246297   5.819   1.752   8.596
14780SOL     OW46298   6.526   1.698   8.352
14780SOL    HW146299   6.606   1.641   8.373
14780SOL    HW246300   6.477   1.658   8.275
14781SOL     OW46301   5.968   0.700   7.928
14781SOL    HW146302   6.013   0.610   7.925
14781SOL    HW246303   5.874   0.689   7.961
14782SOL     OW46304   6.200   0.122   7.565
14782SOL    HW146305   6.298   0.100   7.572
14782SOL    HW246306   6.169   0.105   7.472
14783SOL     OW46307   6.474   1.514   8.643
14783SOL    HW146308   6.451   1.489   8.549
14783SOL    HW246309   6.535   1.445   8.682
14784SOL     OW46310   6.389   1.402   8.372
14784SOL    HW146311   6.479   1.416   8.330
14784SOL    HW246312   6.318   1.404   8.301
14785SOL     OW46313   6.508   0.503   8.347
14785SOL    HW146314   6.483   0.494   8.251
14785SOL    HW246315   6.556   0.421   8.378
14786SOL     OW46316   6.125   0.064   7.960
14786SOL    HW146317   6.044   0.065   8.018
14786SOL    HW246318   6.128   0.147   7.905
14787SOL     OW46319   7.020   1.188   7.489
14787SOL    HW146320   7.052   1.112   7.546
14787SOL    HW246321   6.928   1.215   7.519
14788SOL     OW46322   5.883   0.035   7.619
14788SOL    HW146323   5.932   0.119   7.598
14788SOL    HW246324   5.945  -0.030   7.664
14789SOL     OW46325   6.521   0.236   7.928
14789SOL    HW146326   6.473   0.277   7.850
14789SOL    HW246327   6.620   0.234   7.909
14790SOL     OW46328   6.813   1.570   8.241
14790SOL    HW146329   6.834   1.644   8.176
14790SOL    HW246330   6.881   1.570   8.314
14791SOL     OW46331   6.045   1.152   8.189
14791SOL    HW146332   5.974   1.125   8.254
14791SOL    HW246333   6.019   1.124   8.096
14792SOL     OW46334   6.857   1.797   8.039
14792SOL    HW146335   6.901   1.861   7.975
14792SOL    HW246336   6.807   1.849   8.109
14793SOL     OW46337   6.618   0.549   7.464
14793SOL    HW146338   6.577   0.631   7.425
14793SOL    HW246339   6.682   0.575   7.537
14794SOL     OW46340   5.664   0.556   8.834
14794SOL    HW146341   5.756   0.555   8.793
14794SOL    HW246342   5.658   0.630   8.901
14795SOL     OW46343   6.147   0.222   8.595
14795SOL    HW146344   6.185   0.138   8.632
14795SOL    HW246345   6.059   0.241   8.639
14796SOL     OW46346   6.452   0.454   8.090
14796SOL    HW146347   6.420   0.526   8.028
14796SOL    HW246348   6.476   0.373   8.037
14797SOL     OW46349   6.603   0.039   8.201
14797SOL    HW146350   6.531   0.044   8.132
14797SOL    HW246351   6.579  -0.030   8.270
14798SOL     OW46352   7.015   1.173   8.315
14798SOL    HW146353   6.960   1.089   8.308
14798SOL    HW246354   7.041   1.202   8.223
14799SOL     OW46355   7.052   0.590   8.440
14799SOL    HW146356   7.022   0.495   8.447
14799SOL    HW246357   7.125   0.606   8.506
14800SOL     OW46358   7.443   0.833   7.825
14800SOL    HW146359   7.485   0.769   7.889
14800SOL    HW246360   7.405   0.782   7.747
14801SOL     OW46361   6.074   1.385   7.622
14801SOL    HW146362   5.987   1.370   7.669
14801SOL    HW246363   6.057   1.411   7.527
14802SOL     OW46364   7.250   1.280   8.105
14802SOL    HW146365   7.349   1.288   8.119
14802SOL    HW246366   7.205   1.364   8.136
14803SOL     OW46367   6.976   0.575   7.526
14803SOL    HW146368   6.922   0.554   7.607
14803SOL    HW246369   7.067   0.534   7.535
14804SOL     OW46370   6.113   0.256   7.776
14804SOL    HW146371   6.140   0.197   7.701
14804SOL    HW246372   6.113   0.351   7.745
14805SOL     OW46373   6.650   1.347   8.788
14805SOL    HW146374   6.570   1.324   8.843
14805SOL    HW246375   6.733   1.321   8.837
14806SOL     OW46376   6.697   1.195   8.548
14806SOL    HW146377   6.657   1.239   8.629
14806SOL    HW246378   6.656   1.232   8.465
14807SOL     OW46379   7.224   1.099   8.527
14807SOL    HW146380   7.229   1.180   8.586
14807SOL    HW246381   7.138   1.101   8.476
14808SOL     OW46382   6.501   0.089   8.850
14808SOL    HW146383   6.526   0.069   8.755
14808SOL    HW246384   6.573   0.145   8.892
14809SOL     OW46385   6.291   1.050   7.816
14809SOL    HW146386   6.277   1.057   7.915
14809SOL    HW246387   6.375   0.999   7.798
14810SOL     OW46388   5.996   0.813   8.699
14810SOL    HW146389   6.082   0.825   8.749
14810SOL    HW246390   5.954   0.726   8.726
14811SOL     OW46391   6.860   0.386   8.710
14811SOL    HW146392   6.881   0.460   8.774
14811SOL    HW246393   6.771   0.403   8.667
14812SOL     OW46394   5.650   1.564   8.779
14812SOL    HW146395   5.604   1.646   8.745
14812SOL    HW246396   5.748   1.583   8.788
14813SOL     OW46397   5.953   1.100   7.949
14813SOL    HW146398   5.946   1.183   7.893
14813SOL    HW246399   5.957   1.020   7.889
14814SOL     OW46400   6.152   0.537   8.313
14814SOL    HW146401   6.164   0.603   8.239
14814SOL    HW246402   6.198   0.571   8.396
14815SOL     OW46403   6.838   1.348   7.836
14815SOL    HW146404   6.888   1.425   7.876
14815SOL    HW246405   6.743   1.350   7.868
14816SOL     OW46406   6.858   1.445   8.590
14816SOL    HW146407   6.905   1.458   8.677
14816SOL    HW246408   6.792   1.371   8.599
14817SOL     OW46409   7.168   0.639   7.920
14817SOL    HW146410   7.137   0.700   7.993
14817SOL    HW246411   7.218   0.691   7.851
14818SOL     OW46412   5.940   1.510   8.777
14818SOL    HW146413   5.919   1.466   8.690
14818SOL    HW246414   6.037   1.536   8.780
14819SOL     OW46415   5.988   0.751   0.046
14819SOL    HW146416   6.056   0.806  -0.001
14819SOL    HW246417   6.028   0.663   0.073
14820SOL     OW46418   7.173   0.779   0.118
14820SOL    HW146419   7.081   0.817   0.113
14820SOL    HW246420   7.233   0.826   0.053
14821SOL     OW46421   6.159   0.870   8.477
14821SOL    HW146422   6.203   0.959   8.468
14821SOL    HW246423   6.096   0.870   8.554
14822SOL     OW46424   6.946   0.862   8.493
14822SOL    HW146425   6.871   0.862   8.427
14822SOL    HW246426   6.983   0.770   8.502
14823SOL     OW46427   6.795   0.525   7.723
14823SOL    HW146428   6.808   0.441   7.777
14823SOL    HW246429   6.766   0.599   7.783
14824SOL     OW46430   5.893   0.213   8.679
14824SOL    HW146431   5.870   0.250   8.769
14824SOL    HW246432   5.863   0.118   8.673
14825SOL     OW46433   5.623   1.310   8.730
14825SOL    HW146434   5.676   1.261   8.798
14825SOL    HW246435   5.645   1.408   8.735
14826SOL     OW46436   6.318   0.634   8.512
14826SOL    HW146437   6.377   0.608   8.436
14826SOL    HW246438   6.290   0.730   8.501
14827SOL     OW46439   5.893   0.063   8.066
14827SOL    HW146440   5.882   0.157   8.099
14827SOL    HW246441   5.888   0.000   8.143
14828SOL     OW46442   7.208   0.367   7.822
14828SOL    HW146443   7.210   0.291   7.886
14828SOL    HW246444   7.160   0.444   7.862
14829SOL     OW46445   6.609   0.766   8.414
14829SOL    HW146446   6.624   0.787   8.510
14829SOL    HW246447   6.579   0.671   8.405
14830SOL     OW46448   6.566   1.573   0.148
14830SOL    HW146449   6.546   1.617   0.060
14830SOL    HW246450   6.605   1.482   0.132
14831SOL     OW46451   7.445   1.518   0.053
14831SOL    HW146452   7.459   1.545  -0.042
14831SOL    HW246453   7.528   1.540   0.106
14832SOL     OW46454   7.126   0.274   7.573
14832SOL    HW146455   7.065   0.199   7.596
14832SOL    HW246456   7.148   0.326   7.656
14833SOL     OW46457   6.889   0.838   7.490
14833SOL    HW146458   6.923   0.745   7.505
14833SOL    HW246459   6.907   0.865   7.395
14834SOL     OW46460   6.654   1.333   8.297
14834SOL    HW146461   6.661   1.249   8.242
14834SOL    HW246462   6.716   1.402   8.261
14835SOL     OW46463   5.905   0.810   8.397
14835SOL    HW146464   5.998   0.846   8.402
14835SOL    HW246465   5.899   0.725   8.449
14836SOL     OW46466   5.925   0.509   8.454
14836SOL    HW146467   5.873   0.426   8.437
14836SOL    HW246468   6.002   0.514   8.390
14837SOL     OW46469   6.724   0.380   0.126
14837SOL    HW146470   6.679   0.443   0.190
14837SOL    HW246471   6.817   0.411   0.109
14838SOL     OW46472   6.746   0.207   8.925
14838SOL    HW146473   6.746   0.271   9.002
14838SOL    HW246474   6.774   0.255   8.842
14839SOL     OW46475   5.594   1.326   7.648
14839SOL    HW146476   5.501   1.347   7.617
14839SOL    HW246477   5.604   1.227   7.661
14840SOL     OW46478   5.674   1.801   8.375
14840SOL    HW146479   5.632   1.715   8.348
14840SOL    HW246480   5.768   1.804   8.341
14841SOL     OW46481   6.090   1.568   8.358
14841SOL    HW146482   6.156   1.642   8.367
14841SOL    HW246483   6.134   1.489   8.316
14842SOL     OW46484   6.588   0.796   8.686
14842SOL    HW146485   6.629   0.764   8.772
14842SOL    HW246486   6.492   0.769   8.683
14843SOL     OW46487   5.626   0.544   8.562
14843SOL    HW146488   5.711   0.511   8.521
14843SOL    HW246489   5.639   0.559   8.660
14844SOL     OW46490   6.401   0.572   7.773
14844SOL    HW146491   6.408   0.483   7.727
14844SOL    HW246492   6.307   0.606   7.765
14845SOL     OW46493   7.243   0.604   8.654
14845SOL    HW146494   7.205   0.535   8.716
14845SOL    HW246495   7.325   0.568   8.610
14846SOL     OW46496   6.257   0.464   8.717
14846SOL    HW146497   6.223   0.375   8.687
14846SOL    HW246498   6.283   0.518   8.637
14847SOL     OW46499   6.516   1.678   8.913
14847SOL    HW146500   6.492   1.660   8.818
14847SOL    HW246501   6.546   1.772   8.923
14848SOL     OW46502   6.059   0.500   7.639
14848SOL    HW146503   6.120   0.580   7.643
14848SOL    HW246504   5.964   0.531   7.646
14849SOL     OW46505   5.745   1.137   8.914
14849SOL    HW146506   5.767   1.076   8.990
14849SOL    HW246507   5.755   1.088   8.828
14850SOL     OW46508   6.933   1.059   8.682
14850SOL    HW146509   6.957   0.996   8.608
14850SOL    HW246510   6.843   1.099   8.664
14851SOL     OW46511   6.888   0.855   7.757
14851SOL    HW146512   6.802   0.824   7.799
14851SOL    HW246513   6.884   0.841   7.658
14852SOL     OW46514   7.345   1.747   8.602
14852SOL    HW146515   7.406   1.777   8.529
14852SOL    HW246516   7.307   1.658   8.580
14853SOL     OW46517   6.838   1.731   8.576
14853SOL    HW146518   6.922   1.736   8.522
14853SOL    HW246519   6.815   1.635   8.594
14854SOL     OW46520   5.669   1.258   8.470
14854SOL    HW146521   5.664   1.257   8.570
14854SOL    HW246522   5.586   1.217   8.432
14855SOL     OW46523   7.312   0.135   7.971
14855SOL    HW146524   7.385   0.118   7.904
14855SOL    HW246525   7.281   0.048   8.009
14856SOL     OW46526   6.974   1.573   7.925
14856SOL    HW146527   7.041   1.585   7.851
14856SOL    HW246528   6.934   1.662   7.948
14857SOL     OW46529   6.866   0.927   8.120
14857SOL    HW146530   6.926   0.846   8.122
14857SOL    HW246531   6.906   0.996   8.060
14858SOL     OW46532   6.258   1.616   7.602
14858SOL    HW146533   6.267   1.626   7.503
14858SOL    HW246534   6.218   1.527   7.623
14859SOL     OW46535   7.236   1.720   8.842
14859SOL    HW146536   7.289   1.730   8.758
14859SOL    HW246537   7.209   1.810   8.876
14860SOL     OW46538   7.427   0.175   8.411
14860SOL    HW146539   7.466   0.090   8.375
14860SOL    HW246540   7.329   0.177   8.392
14861SOL     OW46541   5.849   0.326   8.168
14861SOL    HW146542   5.770   0.377   8.134
14861SOL    HW246543   5.840   0.311   8.266
14862SOL     OW46544   6.780   1.612   7.479
14862SOL    HW146545   6.786   1.519   7.516
14862SOL    HW246546   6.721   1.612   7.399
14863SOL     OW46547   6.408   1.002   8.820
14863SOL    HW146548   6.448   1.001   8.728
14863SOL    HW246549   6.418   1.094   8.860
14864SOL     OW46550   6.502   0.910   7.739
14864SOL    HW146551   6.565   0.948   7.671
14864SOL    HW246552   6.542   0.827   7.778
14865SOL     OW46553   7.090   1.607   7.492
14865SOL    HW146554   6.998   1.644   7.499
14865SOL    HW246555   7.128   1.627   7.402
14866SOL     OW46556   5.958   1.288   8.938
14866SOL    HW146557   5.945   1.381   8.904
14866SOL    HW246558   5.874   1.236   8.925
14867SOL     OW46559   7.200   1.292   8.737
14867SOL    HW146560   7.260   1.295   8.817
14867SOL    HW246561   7.125   1.356   8.750
14868SOL     OW46562   6.625   1.098   8.144
14868SOL    HW146563   6.555   1.051   8.198
14868SOL    HW246564   6.684   1.030   8.101
14869SOL     OW46565   6.600   0.236   8.419
14869SOL    HW146566   6.592   0.200   8.326
14869SOL    HW246567   6.598   0.160   8.484
14870SOL     OW46568   6.176   1.487   7.939
14870SOL    HW146569   6.218   1.429   7.869
14870SOL    HW246570   6.132   1.566   7.895
14871SOL     OW46571   7.295   0.385   8.829
14871SOL    HW146572   7.368   0.454   8.833
14871SOL    HW246573   7.323   0.310   8.770
14872SOL     OW46574   5.841   1.348   7.738
14872SOL    HW146575   5.745   1.349   7.711
14872SOL    HW246576   5.853   1.401   7.822
14873SOL     OW46577   5.661   0.345   7.481
14873SOL    HW146578   5.569   0.317   7.452
14873SOL    HW246579   5.692   0.422   7.425
14874SOL     OW46580   7.026   0.856   8.846
14874SOL    HW146581   6.969   0.908   8.783
14874SOL    HW246582   7.122   0.868   8.822
14875SOL     OW46583   5.658   0.166   7.766
14875SOL    HW146584   5.641   0.249   7.712
14875SOL    HW246585   5.748   0.129   7.744
14876SOL     OW46586   6.769   1.335   7.567
14876SOL    HW146587   6.670   1.324   7.569
14876SOL    HW246588   6.803   1.350   7.660
14877SOL     OW46589   6.199   0.842   8.879
14877SOL    HW146590   6.255   0.923   8.862
14877SOL    HW246591   6.258   0.762   8.882
14878SOL     OW46592   7.079   1.767   8.407
14878SOL    HW146593   7.112   1.831   8.338
14878SOL    HW246594   7.145   1.761   8.482
14879SOL     OW46595   5.976   1.741   0.008
14879SOL    HW146596   5.885   1.782   0.006
14879SOL    HW246597   5.969   1.647   0.040
14880SOL     OW46598   7.260   0.883   8.702
14880SOL    HW146599   7.233   0.794   8.665
14880SOL    HW246600   7.261   0.951   8.629
14881SOL     OW46601   6.811   0.325   7.897
14881SOL    HW146602   6.876   0.251   7.886
14881SOL    HW246603   6.831   0.375   7.981
14882SOL     OW46604   6.180   0.745   8.100
14882SOL    HW146605   6.230   0.830   8.081
14882SOL    HW246606   6.092   0.747   8.052
14883SOL     OW46607   7.363   0.342   0.090
14883SOL    HW146608   7.346   0.373  -0.004
14883SOL    HW246609   7.279   0.305   0.128
14884SOL     OW46610   7.316   0.934   8.965
14884SOL    HW146611   7.354   1.025   8.980
14884SOL    HW246612   7.308   0.917   8.866
14885SOL     OW46613   6.445   1.374   7.464
14885SOL    HW146614   6.399   1.389   7.552
14885SOL    HW246615   6.489   1.459   7.434
14886SOL     OW46616   6.247   1.790   8.401
14886SOL    HW146617   6.201   1.878   8.388
14886SOL    HW246618   6.346   1.802   8.394
14887SOL     OW46619   6.994   1.851   0.168
14887SOL    HW146620   6.898   1.840   0.141
14887SOL    HW246621   7.050   1.784   0.120
14888SOL     OW46622   6.445   0.956   8.309
14888SOL    HW146623   6.499   0.887   8.357
14888SOL    HW246624   6.413   1.025   8.375
14889SOL     OW46625   6.669   0.984   7.535
14889SOL    HW146626   6.646   1.037   7.453
14889SOL    HW246627   6.750   0.928   7.516
14890SOL     OW46628   7.447   1.569   8.299
14890SOL    HW146629   7.376   1.557   8.229
14890SOL    HW246630   7.448   1.490   8.359
14891SOL     OW46631   5.665   1.240   8.101
14891SOL    HW146632   5.664   1.193   8.189
14891SOL    HW246633   5.747   1.212   8.050
14892SOL     OW46634   7.410   0.192   8.675
14892SOL    HW146635   7.406   0.102   8.719
14892SOL    HW246636   7.413   0.181   8.576
14893SOL     OW46637   6.014   0.424   7.968
14893SOL    HW146638   6.044   0.352   7.906
14893SOL    HW246639   5.975   0.384   8.051
14894SOL     OW46640   7.291   1.487   8.552
14894SOL    HW146641   7.198   1.462   8.525
14894SOL    HW246642   7.317   1.437   8.634
14895SOL     OW46643   5.903   0.547   8.728
14895SOL    HW146644   5.941   0.488   8.800
14895SOL    HW246645   5.943   0.521   8.640
14896SOL     OW46646   6.398   1.586   8.135
14896SOL    HW146647   6.430   1.596   8.041
14896SOL    HW246648   6.319   1.524   8.137
14897SOL     OW46649   7.010   0.214   8.560
14897SOL    HW146650   7.062   0.149   8.615
14897SOL    HW246651   6.961   0.277   8.621
14898SOL     OW46652   6.587   0.034   8.602
14898SOL    HW146653   6.524  -0.038   8.571
14898SOL    HW246654   6.680  -0.002   8.602
14899SOL     OW46655   6.356   1.330   7.749
14899SOL    HW146656   6.310   1.243   7.766
14899SOL    HW246657   6.447   1.327   7.790
14900SOL     OW46658   6.204   1.567   8.732
14900SOL    HW146659   6.199   1.649   8.789
14900SOL    HW246660   6.293   1.564   8.687
14901SOL     OW46661   6.938   0.052   7.616
14901SOL    HW146662   6.973   0.011   7.532
14901SOL    HW246663   6.848   0.014   7.636
14902SOL     OW46664   6.886   0.453   8.139
14902SOL    HW146665   6.827   0.533   8.143
14902SOL    HW246666   6.901   0.418   8.232
14903SOL     OW46667   7.179   0.221   8.330
14903SOL    HW146668   7.095   0.220   8.384
14903SOL    HW246669   7.181   0.304   8.274
14904SOL     OW46670   5.625   1.077   7.748
14904SOL    HW146671   5.724   1.066   7.739
14904SOL    HW246672   5.585   0.991   7.780
14905SOL     OW46673   6.461   1.646   7.785
14905SOL    HW146674   6.384   1.611   7.731
14905SOL    HW246675   6.429   1.717   7.847
14906SOL     OW46676   5.816   2.490   0.113
14906SOL    HW146677   5.723   2.488   0.150
14906SOL    HW246678   5.817   2.451   0.021
14907SOL     OW46679   5.811   2.137   0.996
14907SOL    HW146680   5.846   2.120   1.088
14907SOL    HW246681   5.723   2.092   0.984
14908SOL     OW46682   5.605   2.230   0.647
14908SOL    HW146683   5.523   2.273   0.686
14908SOL    HW246684   5.577   2.157   0.584
14909SOL     OW46685   6.155   3.137   1.165
14909SOL    HW146686   6.062   3.130   1.128
14909SOL    HW246687   6.166   3.226   1.209
14910SOL     OW46688   7.141   3.373   0.703
14910SOL    HW146689   7.084   3.357   0.784
14910SOL    HW246690   7.082   3.383   0.623
14911SOL     OW46691   7.329   2.480   0.856
14911SOL    HW146692   7.362   2.574   0.856
14911SOL    HW246693   7.380   2.426   0.922
14912SOL     OW46694   6.721   2.565   0.717
14912SOL    HW146695   6.778   2.643   0.692
14912SOL    HW246696   6.661   2.591   0.793
14913SOL     OW46697   7.341   2.469   0.231
14913SOL    HW146698   7.329   2.456   0.132
14913SOL    HW246699   7.311   2.388   0.280
14914SOL     OW46700   6.354   3.006   1.023
14914SOL    HW146701   6.276   3.023   1.083
14914SOL    HW246702   6.388   3.093   0.987
14915SOL     OW46703   6.436   2.660   1.823
14915SOL    HW146704   6.432   2.736   1.888
14915SOL    HW246705   6.458   2.696   1.732
14916SOL     OW46706   6.271   2.874   0.665
14916SOL    HW146707   6.340   2.858   0.735
14916SOL    HW246708   6.198   2.931   0.703
14917SOL     OW46709   6.272   3.023   1.803
14917SOL    HW146710   6.332   3.102   1.817
14917SOL    HW246711   6.186   3.054   1.762
14918SOL     OW46712   5.921   3.297   1.061
14918SOL    HW146713   5.843   3.266   1.008
14918SOL    HW246714   5.979   3.355   1.004
14919SOL     OW46715   6.024   2.254   1.499
14919SOL    HW146716   6.106   2.198   1.508
14919SOL    HW246717   5.943   2.196   1.503
14920SOL     OW46718   7.189   2.309   0.737
14920SOL    HW146719   7.115   2.355   0.687
14920SOL    HW246720   7.240   2.377   0.790
14921SOL     OW46721   5.817   3.575   0.483
14921SOL    HW146722   5.851   3.652   0.537
14921SOL    HW246723   5.861   3.575   0.393
14922SOL     OW46724   5.816   3.296   0.538
14922SOL    HW146725   5.790   3.392   0.538
14922SOL    HW246726   5.745   3.242   0.583
14923SOL     OW46727   5.826   2.953   0.886
14923SOL    HW146728   5.840   2.869   0.938
14923SOL    HW246729   5.771   3.017   0.941
14924SOL     OW46730   6.206   3.648   1.439
14924SOL    HW146731   6.114   3.631   1.474
14924SOL    HW246732   6.234   3.740   1.465
14925SOL     OW46733   6.192   2.826   0.123
14925SOL    HW146734   6.199   2.910   0.069
14925SOL    HW246735   6.238   2.839   0.211
14926SOL     OW46736   7.180   1.976   1.480
14926SOL    HW146737   7.162   2.043   1.408
14926SOL    HW246738   7.177   2.022   1.569
14927SOL     OW46739   5.708   2.505   0.563
14927SOL    HW146740   5.663   2.417   0.580
14927SOL    HW246741   5.707   2.559   0.647
14928SOL     OW46742   7.428   3.629   0.359
14928SOL    HW146743   7.482   3.600   0.439
14928SOL    HW246744   7.458   3.719   0.330
14929SOL     OW46745   7.275   2.784   0.612
14929SOL    HW146746   7.370   2.755   0.620
14929SOL    HW246747   7.267   2.849   0.537
14930SOL     OW46748   7.227   2.970   0.432
14930SOL    HW146749   7.313   2.972   0.380
14930SOL    HW246750   7.241   3.017   0.520
14931SOL     OW46751   5.699   2.599   1.597
14931SOL    HW146752   5.787   2.586   1.642
14931SOL    HW246753   5.686   2.696   1.575
14932SOL     OW46754   6.199   3.227   0.726
14932SOL    HW146755   6.150   3.140   0.735
14932SOL    HW246756   6.176   3.270   0.639
14933SOL     OW46757   6.395   1.866   0.502
14933SOL    HW146758   6.435   1.957   0.493
14933SOL    HW246759   6.295   1.874   0.508
14934SOL     OW46760   5.783   2.838   1.264
14934SOL    HW146761   5.872   2.793   1.250
14934SOL    HW246762   5.710   2.773   1.245
14935SOL     OW46763   7.111   2.861   0.190
14935SOL    HW146764   7.048   2.785   0.203
14935SOL    HW246765   7.159   2.879   0.276
14936SOL     OW46766   6.773   3.654   1.616
14936SOL    HW146767   6.797   3.714   1.540
14936SOL    HW246768   6.780   3.559   1.586
14937SOL     OW46769   7.253   3.576   0.572
14937SOL    HW146770   7.212   3.553   0.484
14937SOL    HW246771   7.235   3.502   0.637
14938SOL     OW46772   6.184   2.591   0.270
14938SOL    HW146773   6.208   2.660   0.202
14938SOL    HW246774   6.106   2.624   0.324
14939SOL     OW46775   6.867   2.207   0.944
14939SOL    HW146776   6.781   2.157   0.931
14939SOL    HW246777   6.929   2.153   1.000
14940SOL     OW46778   7.162   3.524   0.307
14940SOL    HW146779   7.251   3.570   0.310
14940SOL    HW246780   7.141   3.500   0.212
14941SOL     OW46781   6.393   2.467   1.465
14941SOL    HW146782   6.346   2.464   1.554
14941SOL    HW246783   6.342   2.412   1.399
14942SOL     OW46784   6.980   2.331   1.674
14942SOL    HW146785   6.960   2.374   1.762
14942SOL    HW246786   7.058   2.269   1.683
14943SOL     OW46787   6.559   2.752   1.572
14943SOL    HW146788   6.605   2.668   1.543
14943SOL    HW246789   6.503   2.786   1.497
14944SOL     OW46790   6.577   2.272   1.242
14944SOL    HW146791   6.500   2.306   1.296
14944SOL    HW246792   6.543   2.221   1.163
14945SOL     OW46793   6.627   2.563   0.429
14945SOL    HW146794   6.653   2.559   0.525
14945SOL    HW246795   6.542   2.512   0.415
14946SOL     OW46796   5.662   2.673   0.789
14946SOL    HW146797   5.761   2.661   0.798
14946SOL    HW246798   5.638   2.768   0.810
14947SOL     OW46799   5.716   3.683   1.571
14947SOL    HW146800   5.706   3.668   1.670
14947SOL    HW246801   5.630   3.719   1.535
14948SOL     OW46802   6.451   2.210   0.195
14948SOL    HW146803   6.510   2.273   0.146
14948SOL    HW246804   6.470   2.116   0.166
14949SOL     OW46805   7.305   2.447   1.831
14949SOL    HW146806   7.279   2.536   1.795
14949SOL    HW246807   7.303   2.379   1.758
14950SOL     OW46808   6.948   3.006   0.545
14950SOL    HW146809   7.031   2.977   0.497
14950SOL    HW246810   6.899   3.073   0.489
14951SOL     OW46811   6.594   3.318   0.477
14951SOL    HW146812   6.548   3.390   0.425
14951SOL    HW246813   6.590   3.338   0.575
14952SOL     OW46814   5.937   3.663   0.853
14952SOL    HW146815   5.987   3.577   0.859
14952SOL    HW246816   6.002   3.740   0.850
14953SOL     OW46817   7.381   2.928   0.873
14953SOL    HW146818   7.319   2.913   0.797
14953SOL    HW246819   7.329   2.939   0.958
14954SOL     OW46820   5.907   2.805   0.242
14954SOL    HW146821   5.989   2.844   0.200
14954SOL    HW246822   5.880   2.723   0.193
14955SOL     OW46823   7.044   2.597   0.728
14955SOL    HW146824   7.039   2.532   0.803
14955SOL    HW246825   7.124   2.656   0.741
14956SOL     OW46826   6.047   3.128   1.727
14956SOL    HW146827   5.997   3.129   1.641
14956SOL    HW246828   5.984   3.110   1.803
14957SOL     OW46829   6.697   3.638   0.237
14957SOL    HW146830   6.637   3.576   0.287
14957SOL    HW246831   6.728   3.594   0.152
14958SOL     OW46832   5.788   2.147   1.498
14958SOL    HW146833   5.708   2.207   1.485
14958SOL    HW246834   5.778   2.098   1.584
14959SOL     OW46835   7.218   3.239   0.081
14959SOL    HW146836   7.186   3.333   0.071
14959SOL    HW246837   7.142   3.176   0.069
14960SOL     OW46838   6.050   3.605   0.323
14960SOL    HW146839   6.083   3.644   0.409
14960SOL    HW246840   6.126   3.598   0.258
14961SOL     OW46841   6.986   1.969   0.426
14961SOL    HW146842   6.962   1.932   0.336
14961SOL    HW246843   7.085   1.985   0.430
14962SOL     OW46844   5.835   3.647   1.241
14962SOL    HW146845   5.892   3.582   1.291
14962SOL    HW246846   5.819   3.614   1.148
14963SOL     OW46847   6.526   3.560   0.904
14963SOL    HW146848   6.606   3.503   0.925
14963SOL    HW246849   6.477   3.520   0.827
14964SOL     OW46850   5.968   2.562   0.480
14964SOL    HW146851   6.013   2.472   0.477
14964SOL    HW246852   5.874   2.551   0.513
14965SOL     OW46853   7.133   2.084   1.729
14965SOL    HW146854   7.128   2.121   1.821
14965SOL    HW246855   7.061   2.015   1.717
14966SOL     OW46856   6.200   1.984   0.117
14966SOL    HW146857   6.298   1.962   0.124
14966SOL    HW246858   6.169   1.967   0.024
14967SOL     OW46859   6.474   3.376   1.195
14967SOL    HW146860   6.451   3.351   1.101
14967SOL    HW246861   6.535   3.307   1.234
14968SOL     OW46862   6.937   2.452   1.433
14968SOL    HW146863   6.965   2.409   1.518
14968SOL    HW246864   6.962   2.548   1.434
14969SOL     OW46865   6.389   3.264   0.924
14969SOL    HW146866   6.479   3.278   0.882
14969SOL    HW246867   6.318   3.266   0.853
14970SOL     OW46868   6.508   2.365   0.899
14970SOL    HW146869   6.483   2.356   0.803
14970SOL    HW246870   6.556   2.283   0.930
14971SOL     OW46871   6.125   1.926   0.512
14971SOL    HW146872   6.044   1.927   0.570
14971SOL    HW246873   6.128   2.009   0.457
14972SOL     OW46874   7.020   3.050   0.041
14972SOL    HW146875   7.052   2.974   0.098
14972SOL    HW246876   6.928   3.077   0.071
14973SOL     OW46877   5.883   1.897   0.171
14973SOL    HW146878   5.932   1.981   0.150
14973SOL    HW246879   5.945   1.832   0.216
14974SOL     OW46880   6.521   2.098   0.480
14974SOL    HW146881   6.473   2.139   0.402
14974SOL    HW246882   6.620   2.096   0.461
14975SOL     OW46883   6.662   2.545   1.464
14975SOL    HW146884   6.582   2.484   1.467
14975SOL    HW246885   6.743   2.492   1.440
14976SOL     OW46886   6.813   3.432   0.793
14976SOL    HW146887   6.834   3.506   0.728
14976SOL    HW246888   6.881   3.432   0.866
14977SOL     OW46889   6.045   3.014   0.741
14977SOL    HW146890   5.974   2.987   0.806
14977SOL    HW246891   6.019   2.986   0.648
14978SOL     OW46892   6.857   3.659   0.591
14978SOL    HW146893   6.901   3.723   0.527
14978SOL    HW246894   6.807   3.711   0.661
14979SOL     OW46895   6.618   2.411   0.016
14979SOL    HW146896   6.577   2.493  -0.023
14979SOL    HW246897   6.682   2.437   0.089
14980SOL     OW46898   5.664   2.418   1.386
14980SOL    HW146899   5.756   2.417   1.345
14980SOL    HW246900   5.658   2.492   1.453
14981SOL     OW46901   6.147   2.084   1.147
14981SOL    HW146902   6.185   2.000   1.184
14981SOL    HW246903   6.059   2.103   1.191
14982SOL     OW46904   6.452   2.316   0.642
14982SOL    HW146905   6.420   2.388   0.580
14982SOL    HW246906   6.476   2.235   0.589
14983SOL     OW46907   7.015   3.035   0.867
14983SOL    HW146908   6.960   2.951   0.860
14983SOL    HW246909   7.041   3.064   0.775
14984SOL     OW46910   7.052   2.452   0.992
14984SOL    HW146911   7.022   2.357   0.999
14984SOL    HW246912   7.125   2.468   1.058
14985SOL     OW46913   7.443   2.695   0.377
14985SOL    HW146914   7.485   2.631   0.441
14985SOL    HW246915   7.405   2.644   0.299
14986SOL     OW46916   6.074   3.247   0.174
14986SOL    HW146917   5.987   3.232   0.221
14986SOL    HW246918   6.057   3.273   0.079
14987SOL     OW46919   7.250   3.142   0.657
14987SOL    HW146920   7.349   3.150   0.671
14987SOL    HW246921   7.205   3.226   0.688
14988SOL     OW46922   6.976   2.437   0.078
14988SOL    HW146923   6.922   2.416   0.159
14988SOL    HW246924   7.067   2.396   0.087
14989SOL     OW46925   6.113   2.118   0.328
14989SOL    HW146926   6.140   2.059   0.253
14989SOL    HW246927   6.113   2.213   0.297
14990SOL     OW46928   7.340   3.085   1.588
14990SOL    HW146929   7.431   3.046   1.575
14990SOL    HW246930   7.348   3.181   1.612
14991SOL     OW46931   6.650   3.209   1.340
14991SOL    HW146932   6.570   3.186   1.395
14991SOL    HW246933   6.733   3.183   1.389
14992SOL     OW46934   6.697   3.057   1.100
14992SOL    HW146935   6.657   3.101   1.181
14992SOL    HW246936   6.656   3.094   1.017
14993SOL     OW46937   6.566   2.978   1.719
14993SOL    HW146938   6.467   2.984   1.729
14993SOL    HW246939   6.589   2.898   1.663
14994SOL     OW46940   6.291   2.912   0.368
14994SOL    HW146941   6.277   2.919   0.467
14994SOL    HW246942   6.375   2.861   0.350
14995SOL     OW46943   5.996   2.675   1.251
14995SOL    HW146944   6.082   2.687   1.301
14995SOL    HW246945   5.954   2.588   1.278
14996SOL     OW46946   6.860   2.248   1.262
14996SOL    HW146947   6.881   2.322   1.326
14996SOL    HW246948   6.771   2.265   1.219
14997SOL     OW46949   5.650   3.426   1.331
14997SOL    HW146950   5.604   3.508   1.297
14997SOL    HW246951   5.748   3.445   1.340
14998SOL     OW46952   5.953   2.962   0.501
14998SOL    HW146953   5.946   3.045   0.445
14998SOL    HW246954   5.957   2.882   0.441
14999SOL     OW46955   6.152   2.399   0.865
14999SOL    HW146956   6.164   2.465   0.791
14999SOL    HW246957   6.198   2.433   0.948
15000SOL     OW46958   6.838   3.210   0.388
15000SOL    HW146959   6.888   3.287   0.428
15000SOL    HW246960   6.743   3.212   0.420
15001SOL     OW46961   7.168   2.501   0.472
15001SOL    HW146962   7.137   2.562   0.545
15001SOL    HW246963   7.218   2.553   0.403
15002SOL     OW46964   5.940   3.372   1.329
15002SOL    HW146965   5.919   3.328   1.242
15002SOL    HW246966   6.037   3.398   1.332
15003SOL     OW46967   5.988   2.613   1.598
15003SOL    HW146968   6.056   2.668   1.551
15003SOL    HW246969   6.028   2.525   1.625
15004SOL     OW46970   7.173   2.641   1.670
15004SOL    HW146971   7.081   2.679   1.665
15004SOL    HW246972   7.233   2.688   1.605
15005SOL     OW46973   6.599   1.967   1.770
15005SOL    HW146974   6.605   2.052   1.718
15005SOL    HW246975   6.631   1.891   1.713
15006SOL     OW46976   6.159   2.732   1.029
15006SOL    HW146977   6.203   2.821   1.020
15006SOL    HW246978   6.096   2.732   1.106
15007SOL     OW46979   6.946   2.724   1.045
15007SOL    HW146980   6.871   2.724   0.979
15007SOL    HW246981   6.983   2.632   1.054
15008SOL     OW46982   6.795   2.387   0.275
15008SOL    HW146983   6.808   2.303   0.329
15008SOL    HW246984   6.766   2.461   0.335
15009SOL     OW46985   5.893   2.075   1.231
15009SOL    HW146986   5.870   2.112   1.321
15009SOL    HW246987   5.863   1.980   1.225
15010SOL     OW46988   5.623   3.172   1.282
15010SOL    HW146989   5.676   3.123   1.350
15010SOL    HW246990   5.645   3.270   1.287
15011SOL     OW46991   6.318   2.496   1.064
15011SOL    HW146992   6.377   2.470   0.988
15011SOL    HW246993   6.290   2.592   1.053
15012SOL     OW46994   5.893   1.925   0.618
15012SOL    HW146995   5.882   2.019   0.651
15012SOL    HW246996   5.888   1.862   0.695
15013SOL     OW46997   7.208   2.229   0.374
15013SOL    HW146998   7.210   2.153   0.438
15013SOL    HW246999   7.160   2.306   0.414
15014SOL     OW47000   6.609   2.628   0.966
15014SOL    HW147001   6.624   2.649   1.062
15014SOL    HW247002   6.579   2.533   0.957
15015SOL     OW47003   5.936   2.760   1.804
15015SOL    HW147004   6.012   2.804   1.852
15015SOL    HW247005   5.971   2.713   1.722
15016SOL     OW47006   7.126   2.136   0.125
15016SOL    HW147007   7.065   2.061   0.148
15016SOL    HW247008   7.148   2.188   0.208
15017SOL     OW47009   6.889   2.700   0.042
15017SOL    HW147010   6.923   2.607   0.057
15017SOL    HW247011   6.907   2.727  -0.053
15018SOL     OW47012   6.654   3.195   0.849
15018SOL    HW147013   6.661   3.111   0.794
15018SOL    HW247014   6.716   3.264   0.813
15019SOL     OW47015   5.905   2.672   0.949
15019SOL    HW147016   5.998   2.708   0.954
15019SOL    HW247017   5.899   2.587   1.001
15020SOL     OW47018   5.925   2.371   1.006
15020SOL    HW147019   5.873   2.288   0.989
15020SOL    HW247020   6.002   2.376   0.942
15021SOL     OW47021   6.097   2.277   1.808
15021SOL    HW147022   6.079   2.322   1.896
15021SOL    HW247023   6.139   2.342   1.745
15022SOL     OW47024   6.724   2.242   1.678
15022SOL    HW147025   6.679   2.305   1.742
15022SOL    HW247026   6.817   2.273   1.661
15023SOL     OW47027   6.746   2.069   1.477
15023SOL    HW147028   6.746   2.133   1.554
15023SOL    HW247029   6.774   2.117   1.394
15024SOL     OW47030   5.594   3.188   0.200
15024SOL    HW147031   5.501   3.209   0.169
15024SOL    HW247032   5.604   3.089   0.213
15025SOL     OW47033   5.674   3.663   0.927
15025SOL    HW147034   5.632   3.577   0.900
15025SOL    HW247035   5.768   3.666   0.893
15026SOL     OW47036   6.090   3.430   0.910
15026SOL    HW147037   6.156   3.504   0.919
15026SOL    HW247038   6.134   3.351   0.868
15027SOL     OW47039   6.588   2.658   1.238
15027SOL    HW147040   6.629   2.626   1.324
15027SOL    HW247041   6.492   2.631   1.235
15028SOL     OW47042   5.626   2.406   1.114
15028SOL    HW147043   5.711   2.373   1.073
15028SOL    HW247044   5.639   2.421   1.212
15029SOL     OW47045   5.775   2.382   1.722
15029SOL    HW147046   5.834   2.342   1.652
15029SOL    HW247047   5.717   2.453   1.681
15030SOL     OW47048   6.955   2.812   1.660
15030SOL    HW147049   6.994   2.901   1.680
15030SOL    HW247050   6.965   2.792   1.563
15031SOL     OW47051   6.401   2.434   0.325
15031SOL    HW147052   6.408   2.345   0.279
15031SOL    HW247053   6.307   2.468   0.317
15032SOL     OW47054   7.243   2.466   1.206
15032SOL    HW147055   7.205   2.397   1.268
15032SOL    HW247056   7.325   2.430   1.162
15033SOL     OW47057   5.838   3.426   1.744
15033SOL    HW147058   5.808   3.483   1.820
15033SOL    HW247059   5.831   3.329   1.770
15034SOL     OW47060   6.257   2.326   1.269
15034SOL    HW147061   6.223   2.237   1.239
15034SOL    HW247062   6.283   2.380   1.189
15035SOL     OW47063   6.059   2.362   0.191
15035SOL    HW147064   6.120   2.442   0.195
15035SOL    HW247065   5.964   2.393   0.198
15036SOL     OW47066   5.745   2.999   1.466
15036SOL    HW147067   5.767   2.938   1.542
15036SOL    HW247068   5.755   2.950   1.380
15037SOL     OW47069   6.933   2.921   1.234
15037SOL    HW147070   6.957   2.858   1.160
15037SOL    HW247071   6.843   2.961   1.216
15038SOL     OW47072   6.888   2.717   0.309
15038SOL    HW147073   6.802   2.686   0.351
15038SOL    HW247074   6.884   2.703   0.210
15039SOL     OW47075   6.838   3.593   1.128
15039SOL    HW147076   6.922   3.598   1.074
15039SOL    HW247077   6.815   3.497   1.146
15040SOL     OW47078   5.669   3.120   1.022
15040SOL    HW147079   5.664   3.119   1.122
15040SOL    HW247080   5.586   3.079   0.984
15041SOL     OW47081   6.489   1.948   0.133
15041SOL    HW147082   6.540   1.949   0.047
15041SOL    HW247083   6.545   1.906   0.204
15042SOL     OW47084   7.312   1.997   0.523
15042SOL    HW147085   7.385   1.980   0.456
15042SOL    HW247086   7.281   1.910   0.561
15043SOL     OW47087   6.974   3.435   0.477
15043SOL    HW147088   7.041   3.447   0.403
15043SOL    HW247089   6.934   3.524   0.500
15044SOL     OW47090   5.716   3.656   1.851
15044SOL    HW147091   5.675   3.582   1.904
15044SOL    HW247092   5.780   3.707   1.909
15045SOL     OW47093   6.866   2.789   0.672
15045SOL    HW147094   6.926   2.708   0.674
15045SOL    HW247095   6.906   2.858   0.612
15046SOL     OW47096   6.416   3.135   1.422
15046SOL    HW147097   6.411   3.168   1.517
15046SOL    HW247098   6.330   3.154   1.376
15047SOL     OW47099   6.258   3.478   0.154
15047SOL    HW147100   6.267   3.488   0.055
15047SOL    HW247101   6.218   3.389   0.175
15048SOL     OW47102   7.427   2.037   0.963
15048SOL    HW147103   7.466   1.952   0.927
15048SOL    HW247104   7.329   2.039   0.944
15049SOL     OW47105   5.849   2.188   0.720
15049SOL    HW147106   5.770   2.239   0.686
15049SOL    HW247107   5.840   2.173   0.818
15050SOL     OW47108   6.780   3.474   0.031
15050SOL    HW147109   6.786   3.381   0.068
15050SOL    HW247110   6.721   3.474  -0.049
15051SOL     OW47111   6.408   2.864   1.372
15051SOL    HW147112   6.448   2.863   1.280
15051SOL    HW247113   6.418   2.956   1.412
15052SOL     OW47114   6.502   2.772   0.291
15052SOL    HW147115   6.565   2.810   0.223
15052SOL    HW247116   6.542   2.689   0.330
15053SOL     OW47117   7.090   3.469   0.044
15053SOL    HW147118   6.998   3.506   0.051
15053SOL    HW247119   7.128   3.489  -0.046
15054SOL     OW47120   5.958   3.150   1.490
15054SOL    HW147121   5.945   3.243   1.456
15054SOL    HW247122   5.874   3.098   1.477
15055SOL     OW47123   6.625   2.960   0.696
15055SOL    HW147124   6.555   2.913   0.750
15055SOL    HW247125   6.684   2.892   0.653
15056SOL     OW47126   6.600   2.098   0.971
15056SOL    HW147127   6.592   2.062   0.878
15056SOL    HW247128   6.598   2.022   1.036
15057SOL     OW47129   6.176   3.349   0.491
15057SOL    HW147130   6.218   3.291   0.421
15057SOL    HW247131   6.132   3.428   0.447
15058SOL     OW47132   7.295   2.247   1.381
15058SOL    HW147133   7.368   2.316   1.385
15058SOL    HW247134   7.323   2.172   1.322
15059SOL     OW47135   5.841   3.210   0.290
15059SOL    HW147136   5.745   3.211   0.263
15059SOL    HW247137   5.853   3.263   0.374
15060SOL     OW47138   5.691   2.875   1.726
15060SOL    HW147139   5.614   2.842   1.780
15060SOL    HW247140   5.776   2.845   1.768
15061SOL     OW47141   7.026   2.718   1.398
15061SOL    HW147142   6.969   2.770   1.335
15061SOL    HW247143   7.122   2.730   1.374
15062SOL     OW47144   5.658   2.028   0.318
15062SOL    HW147145   5.641   2.111   0.264
15062SOL    HW247146   5.748   1.991   0.296
15063SOL     OW47147   6.769   3.197   0.119
15063SOL    HW147148   6.670   3.186   0.121
15063SOL    HW247149   6.803   3.212   0.212
15064SOL     OW47150   6.199   2.704   1.431
15064SOL    HW147151   6.255   2.785   1.414
15064SOL    HW247152   6.258   2.624   1.434
15065SOL     OW47153   6.302   2.427   1.708
15065SOL    HW147154   6.321   2.492   1.782
15065SOL    HW247155   6.362   2.347   1.717
15066SOL     OW47156   5.976   3.603   1.560
15066SOL    HW147157   5.885   3.644   1.558
15066SOL    HW247158   5.969   3.509   1.592
15067SOL     OW47159   7.260   2.745   1.254
15067SOL    HW147160   7.233   2.656   1.217
15067SOL    HW247161   7.261   2.813   1.181
15068SOL     OW47162   6.811   2.187   0.449
15068SOL    HW147163   6.876   2.113   0.438
15068SOL    HW247164   6.831   2.237   0.533
15069SOL     OW47165   6.180   2.607   0.652
15069SOL    HW147166   6.230   2.692   0.633
15069SOL    HW247167   6.092   2.609   0.604
15070SOL     OW47168   7.363   2.204   1.642
15070SOL    HW147169   7.346   2.235   1.548
15070SOL    HW247170   7.279   2.167   1.680
15071SOL     OW47171   7.316   2.796   1.517
15071SOL    HW147172   7.354   2.887   1.532
15071SOL    HW247173   7.308   2.779   1.418
15072SOL     OW47174   6.445   3.236   0.016
15072SOL    HW147175   6.399   3.251   0.104
15072SOL    HW247176   6.489   3.321  -0.014
15073SOL     OW47177   6.247   3.652   0.953
15073SOL    HW147178   6.201   3.740   0.940
15073SOL    HW247179   6.346   3.664   0.946
15074SOL     OW47180   6.445   2.818   0.861
15074SOL    HW147181   6.499   2.749   0.909
15074SOL    HW247182   6.413   2.887   0.927
15075SOL     OW47183   6.669   2.846   0.087
15075SOL    HW147184   6.646   2.899   0.005
15075SOL    HW247185   6.750   2.790   0.068
15076SOL     OW47186   7.447   3.431   0.851
15076SOL    HW147187   7.376   3.419   0.781
15076SOL    HW247188   7.448   3.352   0.911
15077SOL     OW47189   5.807   3.176   1.844
15077SOL    HW147190   5.742   3.103   1.823
15077SOL    HW247191   5.811   3.190   1.942
15078SOL     OW47192   5.665   3.102   0.653
15078SOL    HW147193   5.664   3.055   0.741
15078SOL    HW247194   5.747   3.074   0.602
15079SOL     OW47195   6.258   3.253   1.624
15079SOL    HW147196   6.180   3.203   1.662
15079SOL    HW247197   6.255   3.348   1.655
15080SOL     OW47198   7.410   2.054   1.227
15080SOL    HW147199   7.406   1.964   1.271
15080SOL    HW247200   7.413   2.043   1.128
15081SOL     OW47201   6.014   2.286   0.520
15081SOL    HW147202   6.044   2.214   0.458
15081SOL    HW247203   5.975   2.246   0.603
15082SOL     OW47204   5.903   2.409   1.280
15082SOL    HW147205   5.941   2.350   1.352
15082SOL    HW247206   5.943   2.383   1.192
15083SOL     OW47207   6.398   3.448   0.687
15083SOL    HW147208   6.430   3.458   0.593
15083SOL    HW247209   6.319   3.386   0.689
15084SOL     OW47210   7.010   2.076   1.112
15084SOL    HW147211   7.062   2.011   1.167
15084SOL    HW247212   6.961   2.139   1.173
15085SOL     OW47213   6.356   3.192   0.301
15085SOL    HW147214   6.310   3.105   0.318
15085SOL    HW247215   6.447   3.189   0.342
15086SOL     OW47216   6.204   3.429   1.284
15086SOL    HW147217   6.199   3.511   1.341
15086SOL    HW247218   6.293   3.426   1.239
15087SOL     OW47219   6.886   2.315   0.691
15087SOL    HW147220   6.827   2.395   0.695
15087SOL    HW247221   6.901   2.280   0.784
15088SOL     OW47222   7.179   2.083   0.882
15088SOL    HW147223   7.095   2.082   0.936
15088SOL    HW247224   7.181   2.166   0.826
15089SOL     OW47225   5.625   2.939   0.300
15089SOL    HW147226   5.724   2.928   0.291
15089SOL    HW247227   5.585   2.853   0.332
15090SOL     OW47228   6.461   3.508   0.337
15090SOL    HW147229   6.384   3.473   0.283
15090SOL    HW247230   6.429   3.579   0.399
15091SOL     OW47231   5.816   2.490   1.975
15091SOL    HW147232   5.723   2.488   2.012
15091SOL    HW247233   5.817   2.451   1.883
15092SOL     OW47234   5.811   2.137   2.858
15092SOL    HW147235   5.846   2.120   2.950
15092SOL    HW247236   5.723   2.092   2.846
15093SOL     OW47237   5.605   2.230   2.509
15093SOL    HW147238   5.523   2.273   2.548
15093SOL    HW247239   5.577   2.157   2.446
15094SOL     OW47240   7.141   3.373   2.565
15094SOL    HW147241   7.084   3.357   2.646
15094SOL    HW247242   7.082   3.383   2.485
15095SOL     OW47243   7.329   2.480   2.718
15095SOL    HW147244   7.362   2.574   2.718
15095SOL    HW247245   7.380   2.426   2.784
15096SOL     OW47246   6.721   2.565   2.579
15096SOL    HW147247   6.778   2.643   2.554
15096SOL    HW247248   6.661   2.591   2.655
15097SOL     OW47249   7.341   2.469   2.093
15097SOL    HW147250   7.329   2.456   1.994
15097SOL    HW247251   7.311   2.388   2.142
15098SOL     OW47252   6.354   3.006   2.885
15098SOL    HW147253   6.276   3.023   2.945
15098SOL    HW247254   6.388   3.093   2.849
15099SOL     OW47255   6.436   2.660   3.685
15099SOL    HW147256   6.432   2.736   3.750
15099SOL    HW247257   6.458   2.696   3.594
15100SOL     OW47258   6.271   2.874   2.527
15100SOL    HW147259   6.340   2.858   2.597
15100SOL    HW247260   6.198   2.931   2.565
15101SOL     OW47261   6.272   3.023   3.665
15101SOL    HW147262   6.332   3.102   3.679
15101SOL    HW247263   6.186   3.054   3.624
15102SOL     OW47264   7.046   3.367   3.201
15102SOL    HW147265   7.070   3.461   3.227
15102SOL    HW247266   7.030   3.313   3.283
15103SOL     OW47267   7.189   2.309   2.599
15103SOL    HW147268   7.115   2.355   2.549
15103SOL    HW247269   7.240   2.377   2.652
15104SOL     OW47270   6.713   3.203   3.552
15104SOL    HW147271   6.760   3.203   3.640
15104SOL    HW247272   6.665   3.116   3.541
15105SOL     OW47273   6.206   3.648   3.301
15105SOL    HW147274   6.114   3.631   3.336
15105SOL    HW247275   6.234   3.740   3.327
15106SOL     OW47276   6.192   2.826   1.985
15106SOL    HW147277   6.199   2.910   1.931
15106SOL    HW247278   6.238   2.839   2.073
15107SOL     OW47279   7.180   1.976   3.342
15107SOL    HW147280   7.162   2.043   3.270
15107SOL    HW247281   7.177   2.022   3.431
15108SOL     OW47282   5.708   2.505   2.425
15108SOL    HW147283   5.663   2.417   2.442
15108SOL    HW247284   5.707   2.559   2.509
15109SOL     OW47285   7.428   3.629   2.221
15109SOL    HW147286   7.482   3.600   2.301
15109SOL    HW247287   7.458   3.719   2.192
15110SOL     OW47288   5.613   3.458   1.979
15110SOL    HW147289   5.594   3.362   2.000
15110SOL    HW247290   5.580   3.516   2.054
15111SOL     OW47291   7.275   2.784   2.474
15111SOL    HW147292   7.370   2.755   2.482
15111SOL    HW247293   7.267   2.849   2.399
15112SOL     OW47294   7.227   2.970   2.294
15112SOL    HW147295   7.313   2.972   2.242
15112SOL    HW247296   7.241   3.017   2.382
15113SOL     OW47297   5.699   2.599   3.459
15113SOL    HW147298   5.787   2.586   3.504
15113SOL    HW247299   5.686   2.696   3.437
15114SOL     OW47300   6.199   3.227   2.588
15114SOL    HW147301   6.150   3.140   2.597
15114SOL    HW247302   6.176   3.270   2.501
15115SOL     OW47303   6.879   3.090   3.285
15115SOL    HW147304   6.916   3.017   3.227
15115SOL    HW247305   6.931   3.095   3.370
15116SOL     OW47306   5.783   2.838   3.126
15116SOL    HW147307   5.872   2.793   3.112
15116SOL    HW247308   5.710   2.773   3.107
15117SOL     OW47309   7.111   2.861   2.052
15117SOL    HW147310   7.048   2.785   2.065
15117SOL    HW247311   7.159   2.879   2.138
15118SOL     OW47312   6.773   3.654   3.478
15118SOL    HW147313   6.797   3.714   3.402
15118SOL    HW247314   6.780   3.559   3.448
15119SOL     OW47315   7.052   3.279   2.815
15119SOL    HW147316   6.993   3.285   2.895
15119SOL    HW247317   7.037   3.191   2.769
15120SOL     OW47318   6.184   2.591   2.132
15120SOL    HW147319   6.208   2.660   2.064
15120SOL    HW247320   6.106   2.624   2.186
15121SOL     OW47321   6.867   2.207   2.806
15121SOL    HW147322   6.781   2.157   2.793
15121SOL    HW247323   6.929   2.153   2.862
15122SOL     OW47324   6.980   2.331   3.536
15122SOL    HW147325   6.960   2.374   3.624
15122SOL    HW247326   7.058   2.269   3.545
15123SOL     OW47327   6.559   2.752   3.434
15123SOL    HW147328   6.605   2.668   3.405
15123SOL    HW247329   6.503   2.786   3.359
15124SOL     OW47330   6.577   2.272   3.104
15124SOL    HW147331   6.500   2.306   3.158
15124SOL    HW247332   6.543   2.221   3.025
15125SOL     OW47333   6.627   2.563   2.291
15125SOL    HW147334   6.653   2.559   2.387
15125SOL    HW247335   6.542   2.512   2.277
15126SOL     OW47336   5.662   2.673   2.651
15126SOL    HW147337   5.761   2.661   2.660
15126SOL    HW247338   5.638   2.768   2.672
15127SOL     OW47339   6.451   2.210   2.057
15127SOL    HW147340   6.510   2.273   2.008
15127SOL    HW247341   6.470   2.116   2.028
15128SOL     OW47342   7.305   2.447   3.693
15128SOL    HW147343   7.279   2.536   3.657
15128SOL    HW247344   7.303   2.379   3.620
15129SOL     OW47345   6.948   3.006   2.407
15129SOL    HW147346   7.031   2.977   2.359
15129SOL    HW247347   6.899   3.073   2.351
15130SOL     OW47348   7.381   2.928   2.735
15130SOL    HW147349   7.319   2.913   2.659
15130SOL    HW247350   7.329   2.939   2.820
15131SOL     OW47351   6.813   3.412   3.368
15131SOL    HW147352   6.819   3.335   3.432
15131SOL    HW247353   6.761   3.386   3.288
15132SOL     OW47354   5.907   2.805   2.104
15132SOL    HW147355   5.989   2.844   2.062
15132SOL    HW247356   5.880   2.723   2.055
15133SOL     OW47357   7.044   2.597   2.590
15133SOL    HW147358   7.039   2.532   2.665
15133SOL    HW247359   7.124   2.656   2.603
15134SOL     OW47360   6.047   3.128   3.589
15134SOL    HW147361   5.997   3.129   3.503
15134SOL    HW247362   5.984   3.110   3.665
15135SOL     OW47363   5.788   2.147   3.360
15135SOL    HW147364   5.708   2.207   3.347
15135SOL    HW247365   5.778   2.098   3.446
15136SOL     OW47366   6.986   1.969   2.288
15136SOL    HW147367   6.962   1.932   2.198
15136SOL    HW247368   7.085   1.985   2.292
15137SOL     OW47369   5.835   3.647   3.103
15137SOL    HW147370   5.892   3.582   3.153
15137SOL    HW247371   5.819   3.614   3.010
15138SOL     OW47372   6.526   3.560   2.766
15138SOL    HW147373   6.606   3.503   2.787
15138SOL    HW247374   6.477   3.520   2.689
15139SOL     OW47375   5.968   2.562   2.342
15139SOL    HW147376   6.013   2.472   2.339
15139SOL    HW247377   5.874   2.551   2.375
15140SOL     OW47378   7.133   2.084   3.591
15140SOL    HW147379   7.128   2.121   3.683
15140SOL    HW247380   7.061   2.015   3.579
15141SOL     OW47381   6.367   2.126   3.611
15141SOL    HW147382   6.434   2.065   3.654
15141SOL    HW247383   6.294   2.145   3.676
15142SOL     OW47384   6.474   3.376   3.057
15142SOL    HW147385   6.451   3.351   2.963
15142SOL    HW247386   6.535   3.307   3.096
15143SOL     OW47387   6.937   2.452   3.295
15143SOL    HW147388   6.965   2.409   3.380
15143SOL    HW247389   6.962   2.548   3.296
15144SOL     OW47390   6.508   2.365   2.761
15144SOL    HW147391   6.483   2.356   2.665
15144SOL    HW247392   6.556   2.283   2.792
15145SOL     OW47393   6.521   2.098   2.342
15145SOL    HW147394   6.473   2.139   2.264
15145SOL    HW247395   6.620   2.096   2.323
15146SOL     OW47396   6.662   2.545   3.326
15146SOL    HW147397   6.582   2.484   3.329
15146SOL    HW247398   6.743   2.492   3.302
15147SOL     OW47399   6.813   3.432   2.655
15147SOL    HW147400   6.834   3.506   2.590
15147SOL    HW247401   6.881   3.432   2.728
15148SOL     OW47402   6.045   3.014   2.603
15148SOL    HW147403   5.974   2.987   2.668
15148SOL    HW247404   6.019   2.986   2.510
15149SOL     OW47405   6.618   2.411   1.878
15149SOL    HW147406   6.577   2.493   1.839
15149SOL    HW247407   6.682   2.437   1.951
15150SOL     OW47408   5.664   2.418   3.248
15150SOL    HW147409   5.756   2.417   3.207
15150SOL    HW247410   5.658   2.492   3.315
15151SOL     OW47411   6.452   2.316   2.504
15151SOL    HW147412   6.420   2.388   2.442
15151SOL    HW247413   6.476   2.235   2.451
15152SOL     OW47414   6.603   1.901   2.615
15152SOL    HW147415   6.531   1.906   2.546
15152SOL    HW247416   6.579   1.832   2.684
15153SOL     OW47417   7.015   3.035   2.729
15153SOL    HW147418   6.960   2.951   2.722
15153SOL    HW247419   7.041   3.064   2.637
15154SOL     OW47420   7.052   2.452   2.854
15154SOL    HW147421   7.022   2.357   2.861
15154SOL    HW247422   7.125   2.468   2.920
15155SOL     OW47423   7.443   2.695   2.239
15155SOL    HW147424   7.485   2.631   2.303
15155SOL    HW247425   7.405   2.644   2.161
15156SOL     OW47426   7.250   3.142   2.519
15156SOL    HW147427   7.349   3.150   2.533
15156SOL    HW247428   7.205   3.226   2.550
15157SOL     OW47429   6.976   2.437   1.940
15157SOL    HW147430   6.922   2.416   2.021
15157SOL    HW247431   7.067   2.396   1.949
15158SOL     OW47432   6.113   2.118   2.190
15158SOL    HW147433   6.140   2.059   2.115
15158SOL    HW247434   6.113   2.213   2.159
15159SOL     OW47435   7.340   3.085   3.450
15159SOL    HW147436   7.431   3.046   3.437
15159SOL    HW247437   7.348   3.181   3.474
15160SOL     OW47438   6.650   3.209   3.202
15160SOL    HW147439   6.570   3.186   3.257
15160SOL    HW247440   6.733   3.183   3.251
15161SOL     OW47441   7.178   3.491   3.487
15161SOL    HW147442   7.205   3.525   3.397
15161SOL    HW247443   7.257   3.453   3.533
15162SOL     OW47444   6.697   3.057   2.962
15162SOL    HW147445   6.657   3.101   3.043
15162SOL    HW247446   6.656   3.094   2.879
15163SOL     OW47447   7.224   2.961   2.941
15163SOL    HW147448   7.229   3.042   3.000
15163SOL    HW247449   7.138   2.963   2.890
15164SOL     OW47450   6.566   2.978   3.581
15164SOL    HW147451   6.467   2.984   3.591
15164SOL    HW247452   6.589   2.898   3.525
15165SOL     OW47453   5.996   2.675   3.113
15165SOL    HW147454   6.082   2.687   3.163
15165SOL    HW247455   5.954   2.588   3.140
15166SOL     OW47456   6.860   2.248   3.124
15166SOL    HW147457   6.881   2.322   3.188
15166SOL    HW247458   6.771   2.265   3.081
15167SOL     OW47459   5.953   2.962   2.363
15167SOL    HW147460   5.946   3.045   2.307
15167SOL    HW247461   5.957   2.882   2.303
15168SOL     OW47462   6.152   2.399   2.727
15168SOL    HW147463   6.164   2.465   2.653
15168SOL    HW247464   6.198   2.433   2.810
15169SOL     OW47465   6.858   3.307   3.004
15169SOL    HW147466   6.905   3.320   3.091
15169SOL    HW247467   6.792   3.233   3.013
15170SOL     OW47468   7.168   2.501   2.334
15170SOL    HW147469   7.137   2.562   2.407
15170SOL    HW247470   7.218   2.553   2.265
15171SOL     OW47471   5.988   2.613   3.460
15171SOL    HW147472   6.056   2.668   3.413
15171SOL    HW247473   6.028   2.525   3.487
15172SOL     OW47474   7.173   2.641   3.532
15172SOL    HW147475   7.081   2.679   3.527
15172SOL    HW247476   7.233   2.688   3.467
15173SOL     OW47477   6.159   2.732   2.891
15173SOL    HW147478   6.203   2.821   2.882
15173SOL    HW247479   6.096   2.732   2.968
15174SOL     OW47480   6.946   2.724   2.907
15174SOL    HW147481   6.871   2.724   2.841
15174SOL    HW247482   6.983   2.632   2.916
15175SOL     OW47483   6.795   2.387   2.137
15175SOL    HW147484   6.808   2.303   2.191
15175SOL    HW247485   6.766   2.461   2.197
15176SOL     OW47486   5.893   2.075   3.093
15176SOL    HW147487   5.870   2.112   3.183
15176SOL    HW247488   5.863   1.980   3.087
15177SOL     OW47489   6.318   2.496   2.926
15177SOL    HW147490   6.377   2.470   2.850
15177SOL    HW247491   6.290   2.592   2.915
15178SOL     OW47492   7.314   2.797   3.716
15178SOL    HW147493   7.268   2.790   3.627
15178SOL    HW247494   7.252   2.841   3.782
15179SOL     OW47495   5.893   1.925   2.480
15179SOL    HW147496   5.882   2.019   2.513
15179SOL    HW247497   5.888   1.862   2.557
15180SOL     OW47498   7.208   2.229   2.236
15180SOL    HW147499   7.210   2.153   2.300
15180SOL    HW247500   7.160   2.306   2.276
15181SOL     OW47501   6.609   2.628   2.828
15181SOL    HW147502   6.624   2.649   2.924
15181SOL    HW247503   6.579   2.533   2.819
15182SOL     OW47504   6.566   3.435   3.562
15182SOL    HW147505   6.546   3.479   3.474
15182SOL    HW247506   6.605   3.344   3.546
15183SOL     OW47507   7.445   3.380   3.467
15183SOL    HW147508   7.459   3.407   3.372
15183SOL    HW247509   7.528   3.402   3.520
15184SOL     OW47510   5.936   2.760   3.666
15184SOL    HW147511   6.012   2.804   3.714
15184SOL    HW247512   5.971   2.713   3.584
15185SOL     OW47513   7.126   2.136   1.987
15185SOL    HW147514   7.065   2.061   2.010
15185SOL    HW247515   7.148   2.188   2.070
15186SOL     OW47516   6.889   2.700   1.904
15186SOL    HW147517   6.923   2.607   1.919
15186SOL    HW247518   6.907   2.727   1.809
15187SOL     OW47519   6.654   3.195   2.711
15187SOL    HW147520   6.661   3.111   2.656
15187SOL    HW247521   6.716   3.264   2.675
15188SOL     OW47522   5.905   2.672   2.811
15188SOL    HW147523   5.998   2.708   2.816
15188SOL    HW247524   5.899   2.587   2.863
15189SOL     OW47525   5.925   2.371   2.868
15189SOL    HW147526   5.873   2.288   2.851
15189SOL    HW247527   6.002   2.376   2.804
15190SOL     OW47528   6.097   2.277   3.670
15190SOL    HW147529   6.079   2.322   3.758
15190SOL    HW247530   6.139   2.342   3.607
15191SOL     OW47531   6.724   2.242   3.540
15191SOL    HW147532   6.679   2.305   3.604
15191SOL    HW247533   6.817   2.273   3.523
15192SOL     OW47534   6.746   2.069   3.339
15192SOL    HW147535   6.746   2.133   3.416
15192SOL    HW247536   6.774   2.117   3.256
15193SOL     OW47537   5.594   3.188   2.062
15193SOL    HW147538   5.501   3.209   2.031
15193SOL    HW247539   5.604   3.089   2.075
15194SOL     OW47540   6.588   2.658   3.100
15194SOL    HW147541   6.629   2.626   3.186
15194SOL    HW247542   6.492   2.631   3.097
15195SOL     OW47543   5.626   2.406   2.976
15195SOL    HW147544   5.711   2.373   2.935
15195SOL    HW247545   5.639   2.421   3.074
15196SOL     OW47546   5.775   2.382   3.584
15196SOL    HW147547   5.834   2.342   3.514
15196SOL    HW247548   5.717   2.453   3.543
15197SOL     OW47549   6.955   2.812   3.522
15197SOL    HW147550   6.994   2.901   3.542
15197SOL    HW247551   6.965   2.792   3.425
15198SOL     OW47552   6.401   2.434   2.187
15198SOL    HW147553   6.408   2.345   2.141
15198SOL    HW247554   6.307   2.468   2.179
15199SOL     OW47555   7.243   2.466   3.068
15199SOL    HW147556   7.205   2.397   3.130
15199SOL    HW247557   7.325   2.430   3.024
15200SOL     OW47558   6.516   3.540   3.327
15200SOL    HW147559   6.492   3.522   3.232
15200SOL    HW247560   6.546   3.634   3.337
15201SOL     OW47561   6.059   2.362   2.053
15201SOL    HW147562   6.120   2.442   2.057
15201SOL    HW247563   5.964   2.393   2.060
15202SOL     OW47564   5.745   2.999   3.328
15202SOL    HW147565   5.767   2.938   3.404
15202SOL    HW247566   5.755   2.950   3.242
15203SOL     OW47567   6.933   2.921   3.096
15203SOL    HW147568   6.957   2.858   3.022
15203SOL    HW247569   6.843   2.961   3.078
15204SOL     OW47570   6.888   2.717   2.171
15204SOL    HW147571   6.802   2.686   2.213
15204SOL    HW247572   6.884   2.703   2.072
15205SOL     OW47573   7.345   3.609   3.016
15205SOL    HW147574   7.406   3.639   2.943
15205SOL    HW247575   7.307   3.520   2.994
15206SOL     OW47576   6.838   3.593   2.990
15206SOL    HW147577   6.922   3.598   2.936
15206SOL    HW247578   6.815   3.497   3.008
15207SOL     OW47579   6.274   3.524   3.578
15207SOL    HW147580   6.218   3.605   3.587
15207SOL    HW247581   6.326   3.528   3.492
15208SOL     OW47582   7.312   1.997   2.385
15208SOL    HW147583   7.385   1.980   2.318
15208SOL    HW247584   7.281   1.910   2.423
15209SOL     OW47585   5.716   3.656   3.713
15209SOL    HW147586   5.675   3.582   3.766
15209SOL    HW247587   5.780   3.707   3.771
15210SOL     OW47588   6.866   2.789   2.534
15210SOL    HW147589   6.926   2.708   2.536
15210SOL    HW247590   6.906   2.858   2.474
15211SOL     OW47591   6.416   3.135   3.284
15211SOL    HW147592   6.411   3.168   3.379
15211SOL    HW247593   6.330   3.154   3.238
15212SOL     OW47594   6.258   3.478   2.016
15212SOL    HW147595   6.267   3.488   1.917
15212SOL    HW247596   6.218   3.389   2.037
15213SOL     OW47597   7.236   3.582   3.256
15213SOL    HW147598   7.289   3.592   3.172
15213SOL    HW247599   7.209   3.672   3.290
15214SOL     OW47600   7.427   2.037   2.825
15214SOL    HW147601   7.466   1.952   2.789
15214SOL    HW247602   7.329   2.039   2.806
15215SOL     OW47603   5.849   2.188   2.582
15215SOL    HW147604   5.770   2.239   2.548
15215SOL    HW247605   5.840   2.173   2.680
15216SOL     OW47606   6.408   2.864   3.234
15216SOL    HW147607   6.448   2.863   3.142
15216SOL    HW247608   6.418   2.956   3.274
15217SOL     OW47609   6.502   2.772   2.153
15217SOL    HW147610   6.565   2.810   2.085
15217SOL    HW247611   6.542   2.689   2.192
15218SOL     OW47612   7.090   3.469   1.906
15218SOL    HW147613   6.998   3.506   1.913
15218SOL    HW247614   7.128   3.489   1.816
15219SOL     OW47615   7.200   3.154   3.151
15219SOL    HW147616   7.260   3.157   3.231
15219SOL    HW247617   7.125   3.218   3.164
15220SOL     OW47618   6.625   2.960   2.558
15220SOL    HW147619   6.555   2.913   2.612
15220SOL    HW247620   6.684   2.892   2.515
15221SOL     OW47621   7.295   2.247   3.243
15221SOL    HW147622   7.368   2.316   3.247
15221SOL    HW247623   7.323   2.172   3.184
15222SOL     OW47624   5.691   2.875   3.588
15222SOL    HW147625   5.614   2.842   3.642
15222SOL    HW247626   5.776   2.845   3.630
15223SOL     OW47627   5.661   2.207   1.895
15223SOL    HW147628   5.569   2.179   1.866
15223SOL    HW247629   5.692   2.284   1.839
15224SOL     OW47630   7.026   2.718   3.260
15224SOL    HW147631   6.969   2.770   3.197
15224SOL    HW247632   7.122   2.730   3.236
15225SOL     OW47633   6.199   2.704   3.293
15225SOL    HW147634   6.255   2.785   3.276
15225SOL    HW247635   6.258   2.624   3.296
15226SOL     OW47636   7.079   3.629   2.821
15226SOL    HW147637   7.112   3.693   2.752
15226SOL    HW247638   7.145   3.623   2.896
15227SOL     OW47639   6.302   2.427   3.570
15227SOL    HW147640   6.321   2.492   3.644
15227SOL    HW247641   6.362   2.347   3.579
15228SOL     OW47642   7.036   3.082   3.495
15228SOL    HW147643   7.027   3.072   3.594
15228SOL    HW247644   7.132   3.075   3.469
15229SOL     OW47645   7.260   2.745   3.116
15229SOL    HW147646   7.233   2.656   3.079
15229SOL    HW247647   7.261   2.813   3.043
15230SOL     OW47648   6.811   2.187   2.311
15230SOL    HW147649   6.876   2.113   2.300
15230SOL    HW247650   6.831   2.237   2.395
15231SOL     OW47651   6.180   2.607   2.514
15231SOL    HW147652   6.230   2.692   2.495
15231SOL    HW247653   6.092   2.609   2.466
15232SOL     OW47654   7.363   2.204   3.504
15232SOL    HW147655   7.346   2.235   3.410
15232SOL    HW247656   7.279   2.167   3.542
15233SOL     OW47657   7.316   2.796   3.379
15233SOL    HW147658   7.354   2.887   3.394
15233SOL    HW247659   7.308   2.779   3.280
15234SOL     OW47660   6.445   3.236   1.878
15234SOL    HW147661   6.399   3.251   1.966
15234SOL    HW247662   6.489   3.321   1.848
15235SOL     OW47663   6.994   3.713   3.582
15235SOL    HW147664   6.898   3.702   3.555
15235SOL    HW247665   7.050   3.646   3.534
15236SOL     OW47666   6.445   2.818   2.723
15236SOL    HW147667   6.499   2.749   2.771
15236SOL    HW247668   6.413   2.887   2.789
15237SOL     OW47669   6.669   2.846   1.949
15237SOL    HW147670   6.646   2.899   1.867
15237SOL    HW247671   6.750   2.790   1.930
15238SOL     OW47672   7.447   3.431   2.713
15238SOL    HW147673   7.376   3.419   2.643
15238SOL    HW247674   7.448   3.352   2.773
15239SOL     OW47675   5.807   3.176   3.706
15239SOL    HW147676   5.742   3.103   3.685
15239SOL    HW247677   5.811   3.190   3.804
15240SOL     OW47678   6.258   3.253   3.486
15240SOL    HW147679   6.180   3.203   3.524
15240SOL    HW247680   6.255   3.348   3.517
15241SOL     OW47681   7.410   2.054   3.089
15241SOL    HW147682   7.406   1.964   3.133
15241SOL    HW247683   7.413   2.043   2.990
15242SOL     OW47684   7.291   3.349   2.966
15242SOL    HW147685   7.198   3.324   2.939
15242SOL    HW247686   7.317   3.299   3.048
15243SOL     OW47687   5.903   2.409   3.142
15243SOL    HW147688   5.941   2.350   3.214
15243SOL    HW247689   5.943   2.383   3.054
15244SOL     OW47690   7.010   2.076   2.974
15244SOL    HW147691   7.062   2.011   3.029
15244SOL    HW247692   6.961   2.139   3.035
15245SOL     OW47693   6.204   3.429   3.146
15245SOL    HW147694   6.199   3.511   3.203
15245SOL    HW247695   6.293   3.426   3.101
15246SOL     OW47696   6.938   1.914   2.030
15246SOL    HW147697   6.973   1.873   1.946
15246SOL    HW247698   6.848   1.876   2.050
15247SOL     OW47699   6.886   2.315   2.553
15247SOL    HW147700   6.827   2.395   2.557
15247SOL    HW247701   6.901   2.280   2.646
15248SOL     OW47702   7.179   2.083   2.744
15248SOL    HW147703   7.095   2.082   2.798
15248SOL    HW247704   7.181   2.166   2.688
15249SOL     OW47705   5.625   2.939   2.162
15249SOL    HW147706   5.724   2.928   2.153
15249SOL    HW247707   5.585   2.853   2.194
15250SOL     OW47708   5.816   2.490   3.837
15250SOL    HW147709   5.723   2.488   3.874
15250SOL    HW247710   5.817   2.451   3.745
15251SOL     OW47711   5.811   2.137   4.720
15251SOL    HW147712   5.846   2.120   4.812
15251SOL    HW247713   5.723   2.092   4.708
15252SOL     OW47714   5.605   2.230   4.371
15252SOL    HW147715   5.523   2.273   4.410
15252SOL    HW247716   5.577   2.157   4.308
15253SOL     OW47717   6.155   3.137   4.889
15253SOL    HW147718   6.062   3.130   4.852
15253SOL    HW247719   6.166   3.226   4.933
15254SOL     OW47720   7.141   3.373   4.427
15254SOL    HW147721   7.084   3.357   4.508
15254SOL    HW247722   7.082   3.383   4.347
15255SOL     OW47723   7.329   2.480   4.580
15255SOL    HW147724   7.362   2.574   4.580
15255SOL    HW247725   7.380   2.426   4.646
15256SOL     OW47726   6.721   2.565   4.441
15256SOL    HW147727   6.778   2.643   4.416
15256SOL    HW247728   6.661   2.591   4.517
15257SOL     OW47729   7.341   2.469   3.955
15257SOL    HW147730   7.329   2.456   3.856
15257SOL    HW247731   7.311   2.388   4.004
15258SOL     OW47732   6.354   3.006   4.747
15258SOL    HW147733   6.276   3.023   4.807
15258SOL    HW247734   6.388   3.093   4.711
15259SOL     OW47735   6.436   2.660   5.547
15259SOL    HW147736   6.432   2.736   5.612
15259SOL    HW247737   6.458   2.696   5.456
15260SOL     OW47738   6.271   2.874   4.389
15260SOL    HW147739   6.340   2.858   4.459
15260SOL    HW247740   6.198   2.931   4.427
15261SOL     OW47741   6.272   3.023   5.527
15261SOL    HW147742   6.332   3.102   5.541
15261SOL    HW247743   6.186   3.054   5.486
15262SOL     OW47744   5.921   3.297   4.785
15262SOL    HW147745   5.843   3.266   4.732
15262SOL    HW247746   5.979   3.355   4.728
15263SOL     OW47747   7.046   3.367   5.063
15263SOL    HW147748   7.070   3.461   5.089
15263SOL    HW247749   7.030   3.313   5.145
15264SOL     OW47750   7.189   2.309   4.461
15264SOL    HW147751   7.115   2.355   4.411
15264SOL    HW247752   7.240   2.377   4.514
15265SOL     OW47753   5.817   3.575   4.207
15265SOL    HW147754   5.851   3.652   4.261
15265SOL    HW247755   5.861   3.575   4.117
15266SOL     OW47756   6.713   3.203   5.414
15266SOL    HW147757   6.760   3.203   5.502
15266SOL    HW247758   6.665   3.116   5.403
15267SOL     OW47759   5.816   3.296   4.262
15267SOL    HW147760   5.790   3.392   4.262
15267SOL    HW247761   5.745   3.242   4.307
15268SOL     OW47762   5.826   2.953   4.610
15268SOL    HW147763   5.840   2.869   4.662
15268SOL    HW247764   5.771   3.017   4.665
15269SOL     OW47765   6.206   3.648   5.163
15269SOL    HW147766   6.114   3.631   5.198
15269SOL    HW247767   6.234   3.740   5.189
15270SOL     OW47768   6.192   2.826   3.847
15270SOL    HW147769   6.199   2.910   3.793
15270SOL    HW247770   6.238   2.839   3.935
15271SOL     OW47771   7.180   1.976   5.204
15271SOL    HW147772   7.162   2.043   5.132
15271SOL    HW247773   7.177   2.022   5.293
15272SOL     OW47774   5.708   2.505   4.287
15272SOL    HW147775   5.663   2.417   4.304
15272SOL    HW247776   5.707   2.559   4.371
15273SOL     OW47777   7.428   3.629   4.083
15273SOL    HW147778   7.482   3.600   4.163
15273SOL    HW247779   7.458   3.719   4.054
15274SOL     OW47780   5.613   3.458   3.841
15274SOL    HW147781   5.594   3.362   3.862
15274SOL    HW247782   5.580   3.516   3.916
15275SOL     OW47783   7.275   2.784   4.336
15275SOL    HW147784   7.370   2.755   4.344
15275SOL    HW247785   7.267   2.849   4.261
15276SOL     OW47786   7.227   2.970   4.156
15276SOL    HW147787   7.313   2.972   4.104
15276SOL    HW247788   7.241   3.017   4.244
15277SOL     OW47789   5.699   2.599   5.321
15277SOL    HW147790   5.787   2.586   5.366
15277SOL    HW247791   5.686   2.696   5.299
15278SOL     OW47792   6.199   3.227   4.450
15278SOL    HW147793   6.150   3.140   4.459
15278SOL    HW247794   6.176   3.270   4.363
15279SOL     OW47795   6.879   3.090   5.147
15279SOL    HW147796   6.916   3.017   5.089
15279SOL    HW247797   6.931   3.095   5.232
15280SOL     OW47798   5.783   2.838   4.988
15280SOL    HW147799   5.872   2.793   4.974
15280SOL    HW247800   5.710   2.773   4.969
15281SOL     OW47801   7.111   2.861   3.914
15281SOL    HW147802   7.048   2.785   3.927
15281SOL    HW247803   7.159   2.879   4.000
15282SOL     OW47804   7.052   3.279   4.677
15282SOL    HW147805   6.993   3.285   4.757
15282SOL    HW247806   7.037   3.191   4.631
15283SOL     OW47807   7.253   3.576   4.296
15283SOL    HW147808   7.212   3.553   4.208
15283SOL    HW247809   7.235   3.502   4.361
15284SOL     OW47810   6.184   2.591   3.994
15284SOL    HW147811   6.208   2.660   3.926
15284SOL    HW247812   6.106   2.624   4.048
15285SOL     OW47813   6.867   2.207   4.668
15285SOL    HW147814   6.781   2.157   4.655
15285SOL    HW247815   6.929   2.153   4.724
15286SOL     OW47816   7.162   3.524   4.031
15286SOL    HW147817   7.251   3.570   4.034
15286SOL    HW247818   7.141   3.500   3.936
15287SOL     OW47819   6.980   2.331   5.398
15287SOL    HW147820   6.960   2.374   5.486
15287SOL    HW247821   7.058   2.269   5.407
15288SOL     OW47822   6.559   2.752   5.296
15288SOL    HW147823   6.605   2.668   5.267
15288SOL    HW247824   6.503   2.786   5.221
15289SOL     OW47825   6.627   2.563   4.153
15289SOL    HW147826   6.653   2.559   4.249
15289SOL    HW247827   6.542   2.512   4.139
15290SOL     OW47828   5.662   2.673   4.513
15290SOL    HW147829   5.761   2.661   4.522
15290SOL    HW247830   5.638   2.768   4.534
15291SOL     OW47831   5.716   3.683   5.295
15291SOL    HW147832   5.706   3.668   5.394
15291SOL    HW247833   5.630   3.719   5.259
15292SOL     OW47834   6.451   2.210   3.919
15292SOL    HW147835   6.510   2.273   3.870
15292SOL    HW247836   6.470   2.116   3.890
15293SOL     OW47837   7.305   2.447   5.555
15293SOL    HW147838   7.279   2.536   5.519
15293SOL    HW247839   7.303   2.379   5.482
15294SOL     OW47840   6.948   3.006   4.269
15294SOL    HW147841   7.031   2.977   4.221
15294SOL    HW247842   6.899   3.073   4.213
15295SOL     OW47843   6.594   3.318   4.201
15295SOL    HW147844   6.548   3.390   4.149
15295SOL    HW247845   6.590   3.338   4.299
15296SOL     OW47846   5.937   3.663   4.577
15296SOL    HW147847   5.987   3.577   4.583
15296SOL    HW247848   6.002   3.740   4.574
15297SOL     OW47849   7.381   2.928   4.597
15297SOL    HW147850   7.319   2.913   4.521
15297SOL    HW247851   7.329   2.939   4.682
15298SOL     OW47852   6.813   3.412   5.230
15298SOL    HW147853   6.819   3.335   5.294
15298SOL    HW247854   6.761   3.386   5.150
15299SOL     OW47855   5.907   2.805   3.966
15299SOL    HW147856   5.989   2.844   3.924
15299SOL    HW247857   5.880   2.723   3.917
15300SOL     OW47858   7.044   2.597   4.452
15300SOL    HW147859   7.039   2.532   4.527
15300SOL    HW247860   7.124   2.656   4.465
15301SOL     OW47861   6.047   3.128   5.451
15301SOL    HW147862   5.997   3.129   5.365
15301SOL    HW247863   5.984   3.110   5.527
15302SOL     OW47864   6.697   3.638   3.961
15302SOL    HW147865   6.637   3.576   4.011
15302SOL    HW247866   6.728   3.594   3.876
15303SOL     OW47867   7.218   3.239   3.805
15303SOL    HW147868   7.186   3.333   3.795
15303SOL    HW247869   7.142   3.176   3.793
15304SOL     OW47870   6.050   3.605   4.047
15304SOL    HW147871   6.083   3.644   4.133
15304SOL    HW247872   6.126   3.598   3.982
15305SOL     OW47873   6.986   1.969   4.150
15305SOL    HW147874   6.962   1.932   4.060
15305SOL    HW247875   7.085   1.985   4.154
15306SOL     OW47876   5.835   3.647   4.965
15306SOL    HW147877   5.892   3.582   5.015
15306SOL    HW247878   5.819   3.614   4.872
15307SOL     OW47879   6.526   3.560   4.628
15307SOL    HW147880   6.606   3.503   4.649
15307SOL    HW247881   6.477   3.520   4.551
15308SOL     OW47882   7.133   2.084   5.453
15308SOL    HW147883   7.128   2.121   5.545
15308SOL    HW247884   7.061   2.015   5.441
15309SOL     OW47885   6.474   3.376   4.919
15309SOL    HW147886   6.451   3.351   4.825
15309SOL    HW247887   6.535   3.307   4.958
15310SOL     OW47888   6.937   2.452   5.157
15310SOL    HW147889   6.965   2.409   5.242
15310SOL    HW247890   6.962   2.548   5.158
15311SOL     OW47891   6.389   3.264   4.648
15311SOL    HW147892   6.479   3.278   4.606
15311SOL    HW247893   6.318   3.266   4.577
15312SOL     OW47894   6.508   2.365   4.623
15312SOL    HW147895   6.483   2.356   4.527
15312SOL    HW247896   6.556   2.283   4.654
15313SOL     OW47897   7.020   3.050   3.765
15313SOL    HW147898   7.052   2.974   3.822
15313SOL    HW247899   6.928   3.077   3.795
15314SOL     OW47900   6.521   2.098   4.204
15314SOL    HW147901   6.473   2.139   4.126
15314SOL    HW247902   6.620   2.096   4.185
15315SOL     OW47903   6.662   2.545   5.188
15315SOL    HW147904   6.582   2.484   5.191
15315SOL    HW247905   6.743   2.492   5.164
15316SOL     OW47906   6.813   3.432   4.517
15316SOL    HW147907   6.834   3.506   4.452
15316SOL    HW247908   6.881   3.432   4.590
15317SOL     OW47909   6.045   3.014   4.465
15317SOL    HW147910   5.974   2.987   4.530
15317SOL    HW247911   6.019   2.986   4.372
15318SOL     OW47912   6.857   3.659   4.315
15318SOL    HW147913   6.901   3.723   4.251
15318SOL    HW247914   6.807   3.711   4.385
15319SOL     OW47915   6.618   2.411   3.740
15319SOL    HW147916   6.577   2.493   3.701
15319SOL    HW247917   6.682   2.437   3.813
15320SOL     OW47918   5.664   2.418   5.110
15320SOL    HW147919   5.756   2.417   5.069
15320SOL    HW247920   5.658   2.492   5.177
15321SOL     OW47921   6.452   2.316   4.366
15321SOL    HW147922   6.420   2.388   4.304
15321SOL    HW247923   6.476   2.235   4.313
15322SOL     OW47924   7.015   3.035   4.591
15322SOL    HW147925   6.960   2.951   4.584
15322SOL    HW247926   7.041   3.064   4.499
15323SOL     OW47927   7.052   2.452   4.716
15323SOL    HW147928   7.022   2.357   4.723
15323SOL    HW247929   7.125   2.468   4.782
15324SOL     OW47930   7.443   2.695   4.101
15324SOL    HW147931   7.485   2.631   4.165
15324SOL    HW247932   7.405   2.644   4.023
15325SOL     OW47933   6.074   3.247   3.898
15325SOL    HW147934   5.987   3.232   3.945
15325SOL    HW247935   6.057   3.273   3.803
15326SOL     OW47936   7.250   3.142   4.381
15326SOL    HW147937   7.349   3.150   4.395
15326SOL    HW247938   7.205   3.226   4.412
15327SOL     OW47939   6.976   2.437   3.802
15327SOL    HW147940   6.922   2.416   3.883
15327SOL    HW247941   7.067   2.396   3.811
15328SOL     OW47942   7.340   3.085   5.312
15328SOL    HW147943   7.431   3.046   5.299
15328SOL    HW247944   7.348   3.181   5.336
15329SOL     OW47945   6.650   3.209   5.064
15329SOL    HW147946   6.570   3.186   5.119
15329SOL    HW247947   6.733   3.183   5.113
15330SOL     OW47948   6.697   3.057   4.824
15330SOL    HW147949   6.657   3.101   4.905
15330SOL    HW247950   6.656   3.094   4.741
15331SOL     OW47951   7.224   2.961   4.803
15331SOL    HW147952   7.229   3.042   4.862
15331SOL    HW247953   7.138   2.963   4.752
15332SOL     OW47954   6.501   1.951   5.126
15332SOL    HW147955   6.526   1.931   5.031
15332SOL    HW247956   6.573   2.007   5.168
15333SOL     OW47957   6.566   2.978   5.443
15333SOL    HW147958   6.467   2.984   5.453
15333SOL    HW247959   6.589   2.898   5.387
15334SOL     OW47960   6.291   2.912   4.092
15334SOL    HW147961   6.277   2.919   4.191
15334SOL    HW247962   6.375   2.861   4.074
15335SOL     OW47963   5.996   2.675   4.975
15335SOL    HW147964   6.082   2.687   5.025
15335SOL    HW247965   5.954   2.588   5.002
15336SOL     OW47966   6.860   2.248   4.986
15336SOL    HW147967   6.881   2.322   5.050
15336SOL    HW247968   6.771   2.265   4.943
15337SOL     OW47969   5.650   3.426   5.055
15337SOL    HW147970   5.604   3.508   5.021
15337SOL    HW247971   5.748   3.445   5.064
15338SOL     OW47972   5.953   2.962   4.225
15338SOL    HW147973   5.946   3.045   4.169
15338SOL    HW247974   5.957   2.882   4.165
15339SOL     OW47975   6.152   2.399   4.589
15339SOL    HW147976   6.164   2.465   4.515
15339SOL    HW247977   6.198   2.433   4.672
15340SOL     OW47978   6.838   3.210   4.112
15340SOL    HW147979   6.888   3.287   4.152
15340SOL    HW247980   6.743   3.212   4.144
15341SOL     OW47981   6.858   3.307   4.866
15341SOL    HW147982   6.905   3.320   4.953
15341SOL    HW247983   6.792   3.233   4.875
15342SOL     OW47984   7.168   2.501   4.196
15342SOL    HW147985   7.137   2.562   4.269
15342SOL    HW247986   7.218   2.553   4.127
15343SOL     OW47987   5.940   3.372   5.053
15343SOL    HW147988   5.919   3.328   4.966
15343SOL    HW247989   6.037   3.398   5.056
15344SOL     OW47990   5.988   2.613   5.322
15344SOL    HW147991   6.056   2.668   5.275
15344SOL    HW247992   6.028   2.525   5.349
15345SOL     OW47993   7.173   2.641   5.394
15345SOL    HW147994   7.081   2.679   5.389
15345SOL    HW247995   7.233   2.688   5.329
15346SOL     OW47996   6.159   2.732   4.753
15346SOL    HW147997   6.203   2.821   4.744
15346SOL    HW247998   6.096   2.732   4.830
15347SOL     OW47999   6.946   2.724   4.769
15347SOL    HW148000   6.871   2.724   4.703
15347SOL    HW248001   6.983   2.632   4.778
15348SOL     OW48002   6.795   2.387   3.999
15348SOL    HW148003   6.808   2.303   4.053
15348SOL    HW248004   6.766   2.461   4.059
15349SOL     OW48005   5.623   3.172   5.006
15349SOL    HW148006   5.676   3.123   5.074
15349SOL    HW248007   5.645   3.270   5.011
15350SOL     OW48008   6.318   2.496   4.788
15350SOL    HW148009   6.377   2.470   4.712
15350SOL    HW248010   6.290   2.592   4.777
15351SOL     OW48011   7.314   2.797   5.578
15351SOL    HW148012   7.268   2.790   5.489
15351SOL    HW248013   7.252   2.841   5.644
15352SOL     OW48014   7.208   2.229   4.098
15352SOL    HW148015   7.210   2.153   4.162
15352SOL    HW248016   7.160   2.306   4.138
15353SOL     OW48017   6.609   2.628   4.690
15353SOL    HW148018   6.624   2.649   4.786
15353SOL    HW248019   6.579   2.533   4.681
15354SOL     OW48020   6.566   3.435   5.424
15354SOL    HW148021   6.546   3.479   5.336
15354SOL    HW248022   6.605   3.344   5.408
15355SOL     OW48023   7.445   3.380   5.329
15355SOL    HW148024   7.459   3.407   5.234
15355SOL    HW248025   7.528   3.402   5.382
15356SOL     OW48026   5.936   2.760   5.528
15356SOL    HW148027   6.012   2.804   5.576
15356SOL    HW248028   5.971   2.713   5.446
15357SOL     OW48029   7.126   2.136   3.849
15357SOL    HW148030   7.065   2.061   3.872
15357SOL    HW248031   7.148   2.188   3.932
15358SOL     OW48032   6.889   2.700   3.766
15358SOL    HW148033   6.923   2.607   3.781
15358SOL    HW248034   6.907   2.727   3.671
15359SOL     OW48035   6.654   3.195   4.573
15359SOL    HW148036   6.661   3.111   4.518
15359SOL    HW248037   6.716   3.264   4.537
15360SOL     OW48038   5.905   2.672   4.673
15360SOL    HW148039   5.998   2.708   4.678
15360SOL    HW248040   5.899   2.587   4.725
15361SOL     OW48041   5.925   2.371   4.730
15361SOL    HW148042   5.873   2.288   4.713
15361SOL    HW248043   6.002   2.376   4.666
15362SOL     OW48044   6.097   2.277   5.532
15362SOL    HW148045   6.079   2.322   5.620
15362SOL    HW248046   6.139   2.342   5.469
15363SOL     OW48047   6.724   2.242   5.402
15363SOL    HW148048   6.679   2.305   5.466
15363SOL    HW248049   6.817   2.273   5.385
15364SOL     OW48050   6.746   2.069   5.201
15364SOL    HW148051   6.746   2.133   5.278
15364SOL    HW248052   6.774   2.117   5.118
15365SOL     OW48053   5.594   3.188   3.924
15365SOL    HW148054   5.501   3.209   3.893
15365SOL    HW248055   5.604   3.089   3.937
15366SOL     OW48056   5.674   3.663   4.651
15366SOL    HW148057   5.632   3.577   4.624
15366SOL    HW248058   5.768   3.666   4.617
15367SOL     OW48059   6.090   3.430   4.634
15367SOL    HW148060   6.156   3.504   4.643
15367SOL    HW248061   6.134   3.351   4.592
15368SOL     OW48062   6.588   2.658   4.962
15368SOL    HW148063   6.629   2.626   5.048
15368SOL    HW248064   6.492   2.631   4.959
15369SOL     OW48065   5.626   2.406   4.838
15369SOL    HW148066   5.711   2.373   4.797
15369SOL    HW248067   5.639   2.421   4.936
15370SOL     OW48068   6.955   2.812   5.384
15370SOL    HW148069   6.994   2.901   5.404
15370SOL    HW248070   6.965   2.792   5.287
15371SOL     OW48071   6.401   2.434   4.049
15371SOL    HW148072   6.408   2.345   4.003
15371SOL    HW248073   6.307   2.468   4.041
15372SOL     OW48074   7.243   2.466   4.930
15372SOL    HW148075   7.205   2.397   4.992
15372SOL    HW248076   7.325   2.430   4.886
15373SOL     OW48077   5.838   3.426   5.468
15373SOL    HW148078   5.808   3.483   5.544
15373SOL    HW248079   5.831   3.329   5.494
15374SOL     OW48080   6.516   3.540   5.189
15374SOL    HW148081   6.492   3.522   5.094
15374SOL    HW248082   6.546   3.634   5.199
15375SOL     OW48083   6.059   2.362   3.915
15375SOL    HW148084   6.120   2.442   3.919
15375SOL    HW248085   5.964   2.393   3.922
15376SOL     OW48086   5.745   2.999   5.190
15376SOL    HW148087   5.767   2.938   5.266
15376SOL    HW248088   5.755   2.950   5.104
15377SOL     OW48089   6.933   2.921   4.958
15377SOL    HW148090   6.957   2.858   4.884
15377SOL    HW248091   6.843   2.961   4.940
15378SOL     OW48092   6.888   2.717   4.033
15378SOL    HW148093   6.802   2.686   4.075
15378SOL    HW248094   6.884   2.703   3.934
15379SOL     OW48095   7.345   3.609   4.878
15379SOL    HW148096   7.406   3.639   4.805
15379SOL    HW248097   7.307   3.520   4.856
15380SOL     OW48098   6.838   3.593   4.852
15380SOL    HW148099   6.922   3.598   4.798
15380SOL    HW248100   6.815   3.497   4.870
15381SOL     OW48101   5.669   3.120   4.746
15381SOL    HW148102   5.664   3.119   4.846
15381SOL    HW248103   5.586   3.079   4.708
15382SOL     OW48104   6.274   3.524   5.440
15382SOL    HW148105   6.218   3.605   5.449
15382SOL    HW248106   6.326   3.528   5.354
15383SOL     OW48107   7.312   1.997   4.247
15383SOL    HW148108   7.385   1.980   4.180
15383SOL    HW248109   7.281   1.910   4.285
15384SOL     OW48110   6.974   3.435   4.201
15384SOL    HW148111   7.041   3.447   4.127
15384SOL    HW248112   6.934   3.524   4.224
15385SOL     OW48113   5.716   3.656   5.575
15385SOL    HW148114   5.675   3.582   5.628
15385SOL    HW248115   5.780   3.707   5.633
15386SOL     OW48116   6.866   2.789   4.396
15386SOL    HW148117   6.926   2.708   4.398
15386SOL    HW248118   6.906   2.858   4.336
15387SOL     OW48119   6.416   3.135   5.146
15387SOL    HW148120   6.411   3.168   5.241
15387SOL    HW248121   6.330   3.154   5.100
15388SOL     OW48122   6.258   3.478   3.878
15388SOL    HW148123   6.267   3.488   3.779
15388SOL    HW248124   6.218   3.389   3.899
15389SOL     OW48125   7.236   3.582   5.118
15389SOL    HW148126   7.289   3.592   5.034
15389SOL    HW248127   7.209   3.672   5.152
15390SOL     OW48128   7.427   2.037   4.687
15390SOL    HW148129   7.466   1.952   4.651
15390SOL    HW248130   7.329   2.039   4.668
15391SOL     OW48131   6.780   3.474   3.755
15391SOL    HW148132   6.786   3.381   3.792
15391SOL    HW248133   6.721   3.474   3.675
15392SOL     OW48134   6.408   2.864   5.096
15392SOL    HW148135   6.448   2.863   5.004
15392SOL    HW248136   6.418   2.956   5.136
15393SOL     OW48137   6.502   2.772   4.015
15393SOL    HW148138   6.565   2.810   3.947
15393SOL    HW248139   6.542   2.689   4.054
15394SOL     OW48140   7.090   3.469   3.768
15394SOL    HW148141   6.998   3.506   3.775
15394SOL    HW248142   7.128   3.489   3.678
15395SOL     OW48143   5.958   3.150   5.214
15395SOL    HW148144   5.945   3.243   5.180
15395SOL    HW248145   5.874   3.098   5.201
15396SOL     OW48146   7.200   3.154   5.013
15396SOL    HW148147   7.260   3.157   5.093
15396SOL    HW248148   7.125   3.218   5.026
15397SOL     OW48149   6.625   2.960   4.420
15397SOL    HW148150   6.555   2.913   4.474
15397SOL    HW248151   6.684   2.892   4.377
15398SOL     OW48152   6.176   3.349   4.215
15398SOL    HW148153   6.218   3.291   4.145
15398SOL    HW248154   6.132   3.428   4.171
15399SOL     OW48155   7.295   2.247   5.105
15399SOL    HW148156   7.368   2.316   5.109
15399SOL    HW248157   7.323   2.172   5.046
15400SOL     OW48158   5.841   3.210   4.014
15400SOL    HW148159   5.745   3.211   3.987
15400SOL    HW248160   5.853   3.263   4.098
15401SOL     OW48161   5.691   2.875   5.450
15401SOL    HW148162   5.614   2.842   5.504
15401SOL    HW248163   5.776   2.845   5.492
15402SOL     OW48164   6.258   2.065   5.213
15402SOL    HW148165   6.348   2.049   5.173
15402SOL    HW248166   6.266   2.070   5.312
15403SOL     OW48167   7.026   2.718   5.122
15403SOL    HW148168   6.969   2.770   5.059
15403SOL    HW248169   7.122   2.730   5.098
15404SOL     OW48170   5.658   2.028   4.042
15404SOL    HW148171   5.641   2.111   3.988
15404SOL    HW248172   5.748   1.991   4.020
15405SOL     OW48173   6.769   3.197   3.843
15405SOL    HW148174   6.670   3.186   3.845
15405SOL    HW248175   6.803   3.212   3.936
15406SOL     OW48176   6.199   2.704   5.155
15406SOL    HW148177   6.255   2.785   5.138
15406SOL    HW248178   6.258   2.624   5.158
15407SOL     OW48179   7.079   3.629   4.683
15407SOL    HW148180   7.112   3.693   4.614
15407SOL    HW248181   7.145   3.623   4.758
15408SOL     OW48182   6.302   2.427   5.432
15408SOL    HW148183   6.321   2.492   5.506
15408SOL    HW248184   6.362   2.347   5.441
15409SOL     OW48185   7.036   3.082   5.357
15409SOL    HW148186   7.027   3.072   5.456
15409SOL    HW248187   7.132   3.075   5.331
15410SOL     OW48188   5.976   3.603   5.284
15410SOL    HW148189   5.885   3.644   5.282
15410SOL    HW248190   5.969   3.509   5.316
15411SOL     OW48191   7.260   2.745   4.978
15411SOL    HW148192   7.233   2.656   4.941
15411SOL    HW248193   7.261   2.813   4.905
15412SOL     OW48194   6.811   2.187   4.173
15412SOL    HW148195   6.876   2.113   4.162
15412SOL    HW248196   6.831   2.237   4.257
15413SOL     OW48197   6.180   2.607   4.376
15413SOL    HW148198   6.230   2.692   4.357
15413SOL    HW248199   6.092   2.609   4.328
15414SOL     OW48200   7.363   2.204   5.366
15414SOL    HW148201   7.346   2.235   5.272
15414SOL    HW248202   7.279   2.167   5.404
15415SOL     OW48203   7.316   2.796   5.241
15415SOL    HW148204   7.354   2.887   5.256
15415SOL    HW248205   7.308   2.779   5.142
15416SOL     OW48206   6.445   3.236   3.740
15416SOL    HW148207   6.399   3.251   3.828
15416SOL    HW248208   6.489   3.321   3.710
15417SOL     OW48209   6.247   3.652   4.677
15417SOL    HW148210   6.201   3.740   4.664
15417SOL    HW248211   6.346   3.664   4.670
15418SOL     OW48212   6.994   3.713   5.444
15418SOL    HW148213   6.898   3.702   5.417
15418SOL    HW248214   7.050   3.646   5.396
15419SOL     OW48215   6.445   2.818   4.585
15419SOL    HW148216   6.499   2.749   4.633
15419SOL    HW248217   6.413   2.887   4.651
15420SOL     OW48218   6.669   2.846   3.811
15420SOL    HW148219   6.646   2.899   3.729
15420SOL    HW248220   6.750   2.790   3.792
15421SOL     OW48221   7.447   3.431   4.575
15421SOL    HW148222   7.376   3.419   4.505
15421SOL    HW248223   7.448   3.352   4.635
15422SOL     OW48224   5.807   3.176   5.568
15422SOL    HW148225   5.742   3.103   5.547
15422SOL    HW248226   5.811   3.190   5.666
15423SOL     OW48227   5.665   3.102   4.377
15423SOL    HW148228   5.664   3.055   4.465
15423SOL    HW248229   5.747   3.074   4.326
15424SOL     OW48230   6.258   3.253   5.348
15424SOL    HW148231   6.180   3.203   5.386
15424SOL    HW248232   6.255   3.348   5.379
15425SOL     OW48233   7.410   2.054   4.951
15425SOL    HW148234   7.406   1.964   4.995
15425SOL    HW248235   7.413   2.043   4.852
15426SOL     OW48236   7.291   3.349   4.828
15426SOL    HW148237   7.198   3.324   4.801
15426SOL    HW248238   7.317   3.299   4.910
15427SOL     OW48239   6.398   3.448   4.411
15427SOL    HW148240   6.430   3.458   4.317
15427SOL    HW248241   6.319   3.386   4.413
15428SOL     OW48242   7.010   2.076   4.836
15428SOL    HW148243   7.062   2.011   4.891
15428SOL    HW248244   6.961   2.139   4.897
15429SOL     OW48245   6.587   1.896   4.878
15429SOL    HW148246   6.524   1.824   4.847
15429SOL    HW248247   6.680   1.860   4.878
15430SOL     OW48248   6.356   3.192   4.025
15430SOL    HW148249   6.310   3.105   4.042
15430SOL    HW248250   6.447   3.189   4.066
15431SOL     OW48251   6.204   3.429   5.008
15431SOL    HW148252   6.199   3.511   5.065
15431SOL    HW248253   6.293   3.426   4.963
15432SOL     OW48254   6.938   1.914   3.892
15432SOL    HW148255   6.973   1.873   3.808
15432SOL    HW248256   6.848   1.876   3.912
15433SOL     OW48257   6.886   2.315   4.415
15433SOL    HW148258   6.827   2.395   4.419
15433SOL    HW248259   6.901   2.280   4.508
15434SOL     OW48260   7.179   2.083   4.606
15434SOL    HW148261   7.095   2.082   4.660
15434SOL    HW248262   7.181   2.166   4.550
15435SOL     OW48263   5.625   2.939   4.024
15435SOL    HW148264   5.724   2.928   4.015
15435SOL    HW248265   5.585   2.853   4.056
15436SOL     OW48266   6.461   3.508   4.061
15436SOL    HW148267   6.384   3.473   4.007
15436SOL    HW248268   6.429   3.579   4.123
15437SOL     OW48269   5.816   2.490   5.699
15437SOL    HW148270   5.723   2.488   5.736
15437SOL    HW248271   5.817   2.451   5.607
15438SOL     OW48272   5.605   2.230   6.233
15438SOL    HW148273   5.523   2.273   6.272
15438SOL    HW248274   5.577   2.157   6.170
15439SOL     OW48275   7.141   3.373   6.289
15439SOL    HW148276   7.084   3.357   6.370
15439SOL    HW248277   7.082   3.383   6.209
15440SOL     OW48278   7.329   2.480   6.442
15440SOL    HW148279   7.362   2.574   6.442
15440SOL    HW248280   7.380   2.426   6.508
15441SOL     OW48281   6.721   2.565   6.303
15441SOL    HW148282   6.778   2.643   6.278
15441SOL    HW248283   6.661   2.591   6.379
15442SOL     OW48284   7.341   2.469   5.817
15442SOL    HW148285   7.329   2.456   5.718
15442SOL    HW248286   7.311   2.388   5.866
15443SOL     OW48287   6.354   3.006   6.609
15443SOL    HW148288   6.276   3.023   6.669
15443SOL    HW248289   6.388   3.093   6.573
15444SOL     OW48290   6.436   2.660   7.409
15444SOL    HW148291   6.432   2.736   7.474
15444SOL    HW248292   6.458   2.696   7.318
15445SOL     OW48293   6.271   2.874   6.251
15445SOL    HW148294   6.340   2.858   6.321
15445SOL    HW248295   6.198   2.931   6.289
15446SOL     OW48296   7.046   3.367   6.925
15446SOL    HW148297   7.070   3.461   6.951
15446SOL    HW248298   7.030   3.313   7.007
15447SOL     OW48299   7.189   2.309   6.323
15447SOL    HW148300   7.115   2.355   6.273
15447SOL    HW248301   7.240   2.377   6.376
15448SOL     OW48302   5.817   3.575   6.069
15448SOL    HW148303   5.851   3.652   6.123
15448SOL    HW248304   5.861   3.575   5.979
15449SOL     OW48305   6.713   3.203   7.276
15449SOL    HW148306   6.760   3.203   7.364
15449SOL    HW248307   6.665   3.116   7.265
15450SOL     OW48308   5.816   3.296   6.124
15450SOL    HW148309   5.790   3.392   6.124
15450SOL    HW248310   5.745   3.242   6.169
15451SOL     OW48311   5.826   2.953   6.472
15451SOL    HW148312   5.840   2.869   6.524
15451SOL    HW248313   5.771   3.017   6.527
15452SOL     OW48314   6.192   2.826   5.709
15452SOL    HW148315   6.199   2.910   5.655
15452SOL    HW248316   6.238   2.839   5.797
15453SOL     OW48317   7.180   1.976   7.066
15453SOL    HW148318   7.162   2.043   6.994
15453SOL    HW248319   7.177   2.022   7.155
15454SOL     OW48320   5.708   2.505   6.149
15454SOL    HW148321   5.663   2.417   6.166
15454SOL    HW248322   5.707   2.559   6.233
15455SOL     OW48323   7.428   3.629   5.945
15455SOL    HW148324   7.482   3.600   6.025
15455SOL    HW248325   7.458   3.719   5.916
15456SOL     OW48326   5.613   3.458   5.703
15456SOL    HW148327   5.594   3.362   5.724
15456SOL    HW248328   5.580   3.516   5.778
15457SOL     OW48329   7.275   2.784   6.198
15457SOL    HW148330   7.370   2.755   6.206
15457SOL    HW248331   7.267   2.849   6.123
15458SOL     OW48332   7.227   2.970   6.018
15458SOL    HW148333   7.313   2.972   5.966
15458SOL    HW248334   7.241   3.017   6.106
15459SOL     OW48335   6.199   3.227   6.312
15459SOL    HW148336   6.150   3.140   6.321
15459SOL    HW248337   6.176   3.270   6.225
15460SOL     OW48338   6.879   3.090   7.009
15460SOL    HW148339   6.916   3.017   6.951
15460SOL    HW248340   6.931   3.095   7.094
15461SOL     OW48341   5.783   2.838   6.850
15461SOL    HW148342   5.872   2.793   6.836
15461SOL    HW248343   5.710   2.773   6.831
15462SOL     OW48344   7.111   2.861   5.776
15462SOL    HW148345   7.048   2.785   5.789
15462SOL    HW248346   7.159   2.879   5.862
15463SOL     OW48347   6.773   3.654   7.202
15463SOL    HW148348   6.797   3.714   7.126
15463SOL    HW248349   6.780   3.559   7.172
15464SOL     OW48350   5.903   2.113   7.387
15464SOL    HW148351   5.974   2.184   7.393
15464SOL    HW248352   5.815   2.152   7.415
15465SOL     OW48353   7.052   3.279   6.539
15465SOL    HW148354   6.993   3.285   6.619
15465SOL    HW248355   7.037   3.191   6.493
15466SOL     OW48356   6.184   2.591   5.856
15466SOL    HW148357   6.208   2.660   5.788
15466SOL    HW248358   6.106   2.624   5.910
15467SOL     OW48359   6.867   2.207   6.530
15467SOL    HW148360   6.781   2.157   6.517
15467SOL    HW248361   6.929   2.153   6.586
15468SOL     OW48362   6.393   2.467   7.051
15468SOL    HW148363   6.346   2.464   7.140
15468SOL    HW248364   6.342   2.412   6.985
15469SOL     OW48365   6.980   2.331   7.260
15469SOL    HW148366   6.960   2.374   7.348
15469SOL    HW248367   7.058   2.269   7.269
15470SOL     OW48368   6.559   2.752   7.158
15470SOL    HW148369   6.605   2.668   7.129
15470SOL    HW248370   6.503   2.786   7.083
15471SOL     OW48371   6.577   2.272   6.828
15471SOL    HW148372   6.500   2.306   6.882
15471SOL    HW248373   6.543   2.221   6.749
15472SOL     OW48374   6.627   2.563   6.015
15472SOL    HW148375   6.653   2.559   6.111
15472SOL    HW248376   6.542   2.512   6.001
15473SOL     OW48377   5.662   2.673   6.375
15473SOL    HW148378   5.761   2.661   6.384
15473SOL    HW248379   5.638   2.768   6.396
15474SOL     OW48380   6.451   2.210   5.781
15474SOL    HW148381   6.510   2.273   5.732
15474SOL    HW248382   6.470   2.116   5.752
15475SOL     OW48383   7.305   2.447   7.417
15475SOL    HW148384   7.279   2.536   7.381
15475SOL    HW248385   7.303   2.379   7.344
15476SOL     OW48386   6.948   3.006   6.131
15476SOL    HW148387   7.031   2.977   6.083
15476SOL    HW248388   6.899   3.073   6.075
15477SOL     OW48389   6.594   3.318   6.063
15477SOL    HW148390   6.548   3.390   6.011
15477SOL    HW248391   6.590   3.338   6.161
15478SOL     OW48392   7.381   2.928   6.459
15478SOL    HW148393   7.319   2.913   6.383
15478SOL    HW248394   7.329   2.939   6.544
15479SOL     OW48395   6.813   3.412   7.092
15479SOL    HW148396   6.819   3.335   7.156
15479SOL    HW248397   6.761   3.386   7.012
15480SOL     OW48398   5.907   2.805   5.828
15480SOL    HW148399   5.989   2.844   5.786
15480SOL    HW248400   5.880   2.723   5.779
15481SOL     OW48401   7.044   2.597   6.314
15481SOL    HW148402   7.039   2.532   6.389
15481SOL    HW248403   7.124   2.656   6.327
15482SOL     OW48404   7.218   3.239   5.667
15482SOL    HW148405   7.186   3.333   5.657
15482SOL    HW248406   7.142   3.176   5.655
15483SOL     OW48407   6.050   3.605   5.909
15483SOL    HW148408   6.083   3.644   5.995
15483SOL    HW248409   6.126   3.598   5.844
15484SOL     OW48410   6.986   1.969   6.012
15484SOL    HW148411   6.962   1.932   5.922
15484SOL    HW248412   7.085   1.985   6.016
15485SOL     OW48413   7.133   2.084   7.315
15485SOL    HW148414   7.128   2.121   7.407
15485SOL    HW248415   7.061   2.015   7.303
15486SOL     OW48416   6.367   2.126   7.335
15486SOL    HW148417   6.434   2.065   7.378
15486SOL    HW248418   6.294   2.145   7.400
15487SOL     OW48419   6.937   2.452   7.019
15487SOL    HW148420   6.965   2.409   7.104
15487SOL    HW248421   6.962   2.548   7.020
15488SOL     OW48422   6.389   3.264   6.510
15488SOL    HW148423   6.479   3.278   6.468
15488SOL    HW248424   6.318   3.266   6.439
15489SOL     OW48425   7.020   3.050   5.627
15489SOL    HW148426   7.052   2.974   5.684
15489SOL    HW248427   6.928   3.077   5.657
15490SOL     OW48428   6.521   2.098   6.066
15490SOL    HW148429   6.473   2.139   5.988
15490SOL    HW248430   6.620   2.096   6.047
15491SOL     OW48431   6.662   2.545   7.050
15491SOL    HW148432   6.582   2.484   7.053
15491SOL    HW248433   6.743   2.492   7.026
15492SOL     OW48434   6.045   3.014   6.327
15492SOL    HW148435   5.974   2.987   6.392
15492SOL    HW248436   6.019   2.986   6.234
15493SOL     OW48437   6.618   2.411   5.602
15493SOL    HW148438   6.577   2.493   5.563
15493SOL    HW248439   6.682   2.437   5.675
15494SOL     OW48440   6.452   2.316   6.228
15494SOL    HW148441   6.420   2.388   6.166
15494SOL    HW248442   6.476   2.235   6.175
15495SOL     OW48443   7.015   3.035   6.453
15495SOL    HW148444   6.960   2.951   6.446
15495SOL    HW248445   7.041   3.064   6.361
15496SOL     OW48446   7.052   2.452   6.578
15496SOL    HW148447   7.022   2.357   6.585
15496SOL    HW248448   7.125   2.468   6.644
15497SOL     OW48449   7.443   2.695   5.963
15497SOL    HW148450   7.485   2.631   6.027
15497SOL    HW248451   7.405   2.644   5.885
15498SOL     OW48452   6.074   3.247   5.760
15498SOL    HW148453   5.987   3.232   5.807
15498SOL    HW248454   6.057   3.273   5.665
15499SOL     OW48455   7.250   3.142   6.243
15499SOL    HW148456   7.349   3.150   6.257
15499SOL    HW248457   7.205   3.226   6.274
15500SOL     OW48458   6.976   2.437   5.664
15500SOL    HW148459   6.922   2.416   5.745
15500SOL    HW248460   7.067   2.396   5.673
15501SOL     OW48461   7.340   3.085   7.174
15501SOL    HW148462   7.431   3.046   7.161
15501SOL    HW248463   7.348   3.181   7.198
15502SOL     OW48464   7.178   3.491   7.211
15502SOL    HW148465   7.205   3.525   7.121
15502SOL    HW248466   7.257   3.453   7.257
15503SOL     OW48467   7.224   2.961   6.665
15503SOL    HW148468   7.229   3.042   6.724
15503SOL    HW248469   7.138   2.963   6.614
15504SOL     OW48470   6.501   1.951   6.988
15504SOL    HW148471   6.526   1.931   6.893
15504SOL    HW248472   6.573   2.007   7.030
15505SOL     OW48473   6.566   2.978   7.305
15505SOL    HW148474   6.467   2.984   7.315
15505SOL    HW248475   6.589   2.898   7.249
15506SOL     OW48476   6.291   2.912   5.954
15506SOL    HW148477   6.277   2.919   6.053
15506SOL    HW248478   6.375   2.861   5.936
15507SOL     OW48479   5.996   2.675   6.837
15507SOL    HW148480   6.082   2.687   6.887
15507SOL    HW248481   5.954   2.588   6.864
15508SOL     OW48482   6.860   2.248   6.848
15508SOL    HW148483   6.881   2.322   6.912
15508SOL    HW248484   6.771   2.265   6.805
15509SOL     OW48485   5.650   3.426   6.917
15509SOL    HW148486   5.604   3.508   6.883
15509SOL    HW248487   5.748   3.445   6.926
15510SOL     OW48488   5.953   2.962   6.087
15510SOL    HW148489   5.946   3.045   6.031
15510SOL    HW248490   5.957   2.882   6.027
15511SOL     OW48491   6.838   3.210   5.974
15511SOL    HW148492   6.888   3.287   6.014
15511SOL    HW248493   6.743   3.212   6.006
15512SOL     OW48494   7.168   2.501   6.058
15512SOL    HW148495   7.137   2.562   6.131
15512SOL    HW248496   7.218   2.553   5.989
15513SOL     OW48497   5.988   2.613   7.184
15513SOL    HW148498   6.056   2.668   7.137
15513SOL    HW248499   6.028   2.525   7.211
15514SOL     OW48500   7.173   2.641   7.256
15514SOL    HW148501   7.081   2.679   7.251
15514SOL    HW248502   7.233   2.688   7.191
15515SOL     OW48503   6.599   1.967   7.356
15515SOL    HW148504   6.605   2.052   7.304
15515SOL    HW248505   6.631   1.891   7.299
15516SOL     OW48506   6.090   1.912   7.326
15516SOL    HW148507   6.048   1.855   7.256
15516SOL    HW248508   6.024   1.981   7.358
15517SOL     OW48509   6.159   2.732   6.615
15517SOL    HW148510   6.203   2.821   6.606
15517SOL    HW248511   6.096   2.732   6.692
15518SOL     OW48512   6.946   2.724   6.631
15518SOL    HW148513   6.871   2.724   6.565
15518SOL    HW248514   6.983   2.632   6.640
15519SOL     OW48515   6.795   2.387   5.861
15519SOL    HW148516   6.808   2.303   5.915
15519SOL    HW248517   6.766   2.461   5.921
15520SOL     OW48518   5.623   3.172   6.868
15520SOL    HW148519   5.676   3.123   6.936
15520SOL    HW248520   5.645   3.270   6.873
15521SOL     OW48521   7.314   2.797   7.440
15521SOL    HW148522   7.268   2.790   7.351
15521SOL    HW248523   7.252   2.841   7.506
15522SOL     OW48524   7.208   2.229   5.960
15522SOL    HW148525   7.210   2.153   6.024
15522SOL    HW248526   7.160   2.306   6.000
15523SOL     OW48527   6.609   2.628   6.552
15523SOL    HW148528   6.624   2.649   6.648
15523SOL    HW248529   6.579   2.533   6.543
15524SOL     OW48530   6.566   3.435   7.286
15524SOL    HW148531   6.546   3.479   7.198
15524SOL    HW248532   6.605   3.344   7.270
15525SOL     OW48533   7.445   3.380   7.191
15525SOL    HW148534   7.459   3.407   7.096
15525SOL    HW248535   7.528   3.402   7.244
15526SOL     OW48536   5.936   2.760   7.390
15526SOL    HW148537   6.012   2.804   7.438
15526SOL    HW248538   5.971   2.713   7.308
15527SOL     OW48539   7.126   2.136   5.711
15527SOL    HW148540   7.065   2.061   5.734
15527SOL    HW248541   7.148   2.188   5.794
15528SOL     OW48542   6.889   2.700   5.628
15528SOL    HW148543   6.923   2.607   5.643
15528SOL    HW248544   6.907   2.727   5.533
15529SOL     OW48545   6.654   3.195   6.435
15529SOL    HW148546   6.661   3.111   6.380
15529SOL    HW248547   6.716   3.264   6.399
15530SOL     OW48548   5.905   2.672   6.535
15530SOL    HW148549   5.998   2.708   6.540
15530SOL    HW248550   5.899   2.587   6.587
15531SOL     OW48551   6.097   2.277   7.394
15531SOL    HW148552   6.079   2.322   7.482
15531SOL    HW248553   6.139   2.342   7.331
15532SOL     OW48554   6.724   2.242   7.264
15532SOL    HW148555   6.679   2.305   7.328
15532SOL    HW248556   6.817   2.273   7.247
15533SOL     OW48557   6.746   2.069   7.063
15533SOL    HW148558   6.746   2.133   7.140
15533SOL    HW248559   6.774   2.117   6.980
15534SOL     OW48560   5.594   3.188   5.786
15534SOL    HW148561   5.501   3.209   5.755
15534SOL    HW248562   5.604   3.089   5.799
15535SOL     OW48563   5.674   3.663   6.513
15535SOL    HW148564   5.632   3.577   6.486
15535SOL    HW248565   5.768   3.666   6.479
15536SOL     OW48566   6.090   3.430   6.496
15536SOL    HW148567   6.156   3.504   6.505
15536SOL    HW248568   6.134   3.351   6.454
15537SOL     OW48569   6.588   2.658   6.824
15537SOL    HW148570   6.629   2.626   6.910
15537SOL    HW248571   6.492   2.631   6.821
15538SOL     OW48572   5.626   2.406   6.700
15538SOL    HW148573   5.711   2.373   6.659
15538SOL    HW248574   5.639   2.421   6.798
15539SOL     OW48575   6.955   2.812   7.246
15539SOL    HW148576   6.994   2.901   7.266
15539SOL    HW248577   6.965   2.792   7.149
15540SOL     OW48578   6.401   2.434   5.911
15540SOL    HW148579   6.408   2.345   5.865
15540SOL    HW248580   6.307   2.468   5.903
15541SOL     OW48581   7.243   2.466   6.792
15541SOL    HW148582   7.205   2.397   6.854
15541SOL    HW248583   7.325   2.430   6.748
15542SOL     OW48584   6.516   3.540   7.051
15542SOL    HW148585   6.492   3.522   6.956
15542SOL    HW248586   6.546   3.634   7.061
15543SOL     OW48587   5.745   2.999   7.052
15543SOL    HW148588   5.767   2.938   7.128
15543SOL    HW248589   5.755   2.950   6.966
15544SOL     OW48590   6.933   2.921   6.820
15544SOL    HW148591   6.957   2.858   6.746
15544SOL    HW248592   6.843   2.961   6.802
15545SOL     OW48593   6.888   2.717   5.895
15545SOL    HW148594   6.802   2.686   5.937
15545SOL    HW248595   6.884   2.703   5.796
15546SOL     OW48596   7.345   3.609   6.740
15546SOL    HW148597   7.406   3.639   6.667
15546SOL    HW248598   7.307   3.520   6.718
15547SOL     OW48599   6.838   3.593   6.714
15547SOL    HW148600   6.922   3.598   6.660
15547SOL    HW248601   6.815   3.497   6.732
15548SOL     OW48602   5.669   3.120   6.608
15548SOL    HW148603   5.664   3.119   6.708
15548SOL    HW248604   5.586   3.079   6.570
15549SOL     OW48605   7.312   1.997   6.109
15549SOL    HW148606   7.385   1.980   6.042
15549SOL    HW248607   7.281   1.910   6.147
15550SOL     OW48608   6.866   2.789   6.258
15550SOL    HW148609   6.926   2.708   6.260
15550SOL    HW248610   6.906   2.858   6.198
15551SOL     OW48611   6.416   3.135   7.008
15551SOL    HW148612   6.411   3.168   7.103
15551SOL    HW248613   6.330   3.154   6.962
15552SOL     OW48614   6.258   3.478   5.740
15552SOL    HW148615   6.267   3.488   5.641
15552SOL    HW248616   6.218   3.389   5.761
15553SOL     OW48617   7.236   3.582   6.980
15553SOL    HW148618   7.289   3.592   6.896
15553SOL    HW248619   7.209   3.672   7.014
15554SOL     OW48620   7.427   2.037   6.549
15554SOL    HW148621   7.466   1.952   6.513
15554SOL    HW248622   7.329   2.039   6.530
15555SOL     OW48623   6.408   2.864   6.958
15555SOL    HW148624   6.448   2.863   6.866
15555SOL    HW248625   6.418   2.956   6.998
15556SOL     OW48626   6.502   2.772   5.877
15556SOL    HW148627   6.565   2.810   5.809
15556SOL    HW248628   6.542   2.689   5.916
15557SOL     OW48629   7.200   3.154   6.875
15557SOL    HW148630   7.260   3.157   6.955
15557SOL    HW248631   7.125   3.218   6.888
15558SOL     OW48632   6.625   2.960   6.282
15558SOL    HW148633   6.555   2.913   6.336
15558SOL    HW248634   6.684   2.892   6.239
15559SOL     OW48635   6.600   2.098   6.557
15559SOL    HW148636   6.592   2.062   6.464
15559SOL    HW248637   6.598   2.022   6.622
15560SOL     OW48638   6.176   3.349   6.077
15560SOL    HW148639   6.218   3.291   6.007
15560SOL    HW248640   6.132   3.428   6.033
15561SOL     OW48641   7.295   2.247   6.967
15561SOL    HW148642   7.368   2.316   6.971
15561SOL    HW248643   7.323   2.172   6.908
15562SOL     OW48644   5.841   3.210   5.876
15562SOL    HW148645   5.745   3.211   5.849
15562SOL    HW248646   5.853   3.263   5.960
15563SOL     OW48647   6.258   2.065   7.075
15563SOL    HW148648   6.348   2.049   7.035
15563SOL    HW248649   6.266   2.070   7.174
15564SOL     OW48650   7.026   2.718   6.984
15564SOL    HW148651   6.969   2.770   6.921
15564SOL    HW248652   7.122   2.730   6.960
15565SOL     OW48653   5.658   2.028   5.904
15565SOL    HW148654   5.641   2.111   5.850
15565SOL    HW248655   5.748   1.991   5.882
15566SOL     OW48656   6.769   3.197   5.705
15566SOL    HW148657   6.670   3.186   5.707
15566SOL    HW248658   6.803   3.212   5.798
15567SOL     OW48659   6.199   2.704   7.017
15567SOL    HW148660   6.255   2.785   7.000
15567SOL    HW248661   6.258   2.624   7.020
15568SOL     OW48662   7.079   3.629   6.545
15568SOL    HW148663   7.112   3.693   6.476
15568SOL    HW248664   7.145   3.623   6.620
15569SOL     OW48665   6.302   2.427   7.294
15569SOL    HW148666   6.321   2.492   7.368
15569SOL    HW248667   6.362   2.347   7.303
15570SOL     OW48668   7.036   3.082   7.219
15570SOL    HW148669   7.027   3.072   7.318
15570SOL    HW248670   7.132   3.075   7.193
15571SOL     OW48671   5.976   3.603   7.146
15571SOL    HW148672   5.885   3.644   7.144
15571SOL    HW248673   5.969   3.509   7.178
15572SOL     OW48674   7.260   2.745   6.840
15572SOL    HW148675   7.233   2.656   6.803
15572SOL    HW248676   7.261   2.813   6.767
15573SOL     OW48677   6.811   2.187   6.035
15573SOL    HW148678   6.876   2.113   6.024
15573SOL    HW248679   6.831   2.237   6.119
15574SOL     OW48680   6.180   2.607   6.238
15574SOL    HW148681   6.230   2.692   6.219
15574SOL    HW248682   6.092   2.609   6.190
15575SOL     OW48683   7.363   2.204   7.228
15575SOL    HW148684   7.346   2.235   7.134
15575SOL    HW248685   7.279   2.167   7.266
15576SOL     OW48686   7.316   2.796   7.103
15576SOL    HW148687   7.354   2.887   7.118
15576SOL    HW248688   7.308   2.779   7.004
15577SOL     OW48689   6.445   3.236   5.602
15577SOL    HW148690   6.399   3.251   5.690
15577SOL    HW248691   6.489   3.321   5.572
15578SOL     OW48692   6.994   3.713   7.306
15578SOL    HW148693   6.898   3.702   7.279
15578SOL    HW248694   7.050   3.646   7.258
15579SOL     OW48695   6.445   2.818   6.447
15579SOL    HW148696   6.499   2.749   6.495
15579SOL    HW248697   6.413   2.887   6.513
15580SOL     OW48698   6.669   2.846   5.673
15580SOL    HW148699   6.646   2.899   5.591
15580SOL    HW248700   6.750   2.790   5.654
15581SOL     OW48701   7.447   3.431   6.437
15581SOL    HW148702   7.376   3.419   6.367
15581SOL    HW248703   7.448   3.352   6.497
15582SOL     OW48704   5.665   3.102   6.239
15582SOL    HW148705   5.664   3.055   6.327
15582SOL    HW248706   5.747   3.074   6.188
15583SOL     OW48707   7.410   2.054   6.813
15583SOL    HW148708   7.406   1.964   6.857
15583SOL    HW248709   7.413   2.043   6.714
15584SOL     OW48710   7.291   3.349   6.690
15584SOL    HW148711   7.198   3.324   6.663
15584SOL    HW248712   7.317   3.299   6.772
15585SOL     OW48713   7.010   2.076   6.698
15585SOL    HW148714   7.062   2.011   6.753
15585SOL    HW248715   6.961   2.139   6.759
15586SOL     OW48716   6.587   1.896   6.740
15586SOL    HW148717   6.524   1.824   6.709
15586SOL    HW248718   6.680   1.860   6.740
15587SOL     OW48719   6.356   3.192   5.887
15587SOL    HW148720   6.310   3.105   5.904
15587SOL    HW248721   6.447   3.189   5.928
15588SOL     OW48722   6.938   1.914   5.754
15588SOL    HW148723   6.973   1.873   5.670
15588SOL    HW248724   6.848   1.876   5.774
15589SOL     OW48725   6.886   2.315   6.277
15589SOL    HW148726   6.827   2.395   6.281
15589SOL    HW248727   6.901   2.280   6.370
15590SOL     OW48728   7.179   2.083   6.468
15590SOL    HW148729   7.095   2.082   6.522
15590SOL    HW248730   7.181   2.166   6.412
15591SOL     OW48731   5.625   2.939   5.886
15591SOL    HW148732   5.724   2.928   5.877
15591SOL    HW248733   5.585   2.853   5.918
15592SOL     OW48734   5.816   2.490   7.561
15592SOL    HW148735   5.723   2.488   7.598
15592SOL    HW248736   5.817   2.451   7.469
15593SOL     OW48737   5.811   2.137   8.444
15593SOL    HW148738   5.846   2.120   8.536
15593SOL    HW248739   5.723   2.092   8.432
15594SOL     OW48740   5.605   2.230   8.095
15594SOL    HW148741   5.523   2.273   8.134
15594SOL    HW248742   5.577   2.157   8.032
15595SOL     OW48743   6.155   3.137   8.613
15595SOL    HW148744   6.062   3.130   8.576
15595SOL    HW248745   6.166   3.226   8.657
15596SOL     OW48746   7.141   3.373   8.151
15596SOL    HW148747   7.084   3.357   8.232
15596SOL    HW248748   7.082   3.383   8.071
15597SOL     OW48749   7.329   2.480   8.304
15597SOL    HW148750   7.362   2.574   8.304
15597SOL    HW248751   7.380   2.426   8.370
15598SOL     OW48752   6.721   2.565   8.165
15598SOL    HW148753   6.778   2.643   8.140
15598SOL    HW248754   6.661   2.591   8.241
15599SOL     OW48755   7.341   2.469   7.679
15599SOL    HW148756   7.329   2.456   7.580
15599SOL    HW248757   7.311   2.388   7.728
15600SOL     OW48758   6.354   3.006   8.471
15600SOL    HW148759   6.276   3.023   8.531
15600SOL    HW248760   6.388   3.093   8.435
15601SOL     OW48761   6.271   2.874   8.113
15601SOL    HW148762   6.340   2.858   8.183
15601SOL    HW248763   6.198   2.931   8.151
15602SOL     OW48764   5.921   3.297   8.509
15602SOL    HW148765   5.843   3.266   8.456
15602SOL    HW248766   5.979   3.355   8.452
15603SOL     OW48767   7.046   3.367   8.787
15603SOL    HW148768   7.070   3.461   8.813
15603SOL    HW248769   7.030   3.313   8.869
15604SOL     OW48770   6.024   2.254   8.947
15604SOL    HW148771   6.106   2.198   8.956
15604SOL    HW248772   5.943   2.196   8.951
15605SOL     OW48773   7.189   2.309   8.185
15605SOL    HW148774   7.115   2.355   8.135
15605SOL    HW248775   7.240   2.377   8.238
15606SOL     OW48776   6.206   3.648   8.887
15606SOL    HW148777   6.114   3.631   8.922
15606SOL    HW248778   6.234   3.740   8.913
15607SOL     OW48779   7.180   1.976   8.928
15607SOL    HW148780   7.162   2.043   8.856
15607SOL    HW248781   7.177   2.022   9.017
15608SOL     OW48782   7.428   3.629   7.807
15608SOL    HW148783   7.482   3.600   7.887
15608SOL    HW248784   7.458   3.719   7.778
15609SOL     OW48785   7.275   2.784   8.060
15609SOL    HW148786   7.370   2.755   8.068
15609SOL    HW248787   7.267   2.849   7.985
15610SOL     OW48788   7.227   2.970   7.880
15610SOL    HW148789   7.313   2.972   7.828
15610SOL    HW248790   7.241   3.017   7.968
15611SOL     OW48791   6.395   1.866   7.950
15611SOL    HW148792   6.435   1.957   7.941
15611SOL    HW248793   6.295   1.874   7.956
15612SOL     OW48794   5.783   2.838   8.712
15612SOL    HW148795   5.872   2.793   8.698
15612SOL    HW248796   5.710   2.773   8.693
15613SOL     OW48797   7.111   2.861   7.638
15613SOL    HW148798   7.048   2.785   7.651
15613SOL    HW248799   7.159   2.879   7.724
15614SOL     OW48800   7.052   3.279   8.401
15614SOL    HW148801   6.993   3.285   8.481
15614SOL    HW248802   7.037   3.191   8.355
15615SOL     OW48803   7.253   3.576   8.020
15615SOL    HW148804   7.212   3.553   7.932
15615SOL    HW248805   7.235   3.502   8.085
15616SOL     OW48806   6.184   2.591   7.718
15616SOL    HW148807   6.208   2.660   7.650
15616SOL    HW248808   6.106   2.624   7.772
15617SOL     OW48809   6.867   2.207   8.392
15617SOL    HW148810   6.781   2.157   8.379
15617SOL    HW248811   6.929   2.153   8.448
15618SOL     OW48812   7.162   3.524   7.755
15618SOL    HW148813   7.251   3.570   7.758
15618SOL    HW248814   7.141   3.500   7.660
15619SOL     OW48815   6.393   2.467   8.913
15619SOL    HW148816   6.346   2.464   9.002
15619SOL    HW248817   6.342   2.412   8.847
15620SOL     OW48818   6.577   2.272   8.690
15620SOL    HW148819   6.500   2.306   8.744
15620SOL    HW248820   6.543   2.221   8.611
15621SOL     OW48821   6.627   2.563   7.877
15621SOL    HW148822   6.653   2.559   7.973
15621SOL    HW248823   6.542   2.512   7.863
15622SOL     OW48824   5.716   3.683   0.019
15622SOL    HW148825   5.706   3.668   0.118
15622SOL    HW248826   5.630   3.719  -0.017
15623SOL     OW48827   6.451   2.210   7.643
15623SOL    HW148828   6.510   2.273   7.594
15623SOL    HW248829   6.470   2.116   7.614
15624SOL     OW48830   6.948   3.006   7.993
15624SOL    HW148831   7.031   2.977   7.945
15624SOL    HW248832   6.899   3.073   7.937
15625SOL     OW48833   6.136   2.058   8.333
15625SOL    HW148834   6.131   2.053   8.433
15625SOL    HW248835   6.138   2.154   8.304
15626SOL     OW48836   6.594   3.318   7.925
15626SOL    HW148837   6.548   3.390   7.873
15626SOL    HW248838   6.590   3.338   8.023
15627SOL     OW48839   5.937   3.663   8.301
15627SOL    HW148840   5.987   3.577   8.307
15627SOL    HW248841   6.002   3.740   8.298
15628SOL     OW48842   7.381   2.928   8.321
15628SOL    HW148843   7.319   2.913   8.245
15628SOL    HW248844   7.329   2.939   8.406
15629SOL     OW48845   7.044   2.597   8.176
15629SOL    HW148846   7.039   2.532   8.251
15629SOL    HW248847   7.124   2.656   8.189
15630SOL     OW48848   6.697   3.638   7.685
15630SOL    HW148849   6.637   3.576   7.735
15630SOL    HW248850   6.728   3.594   7.600
15631SOL     OW48851   5.788   2.147   8.946
15631SOL    HW148852   5.708   2.207   8.933
15631SOL    HW248853   5.778   2.098   9.032
15632SOL     OW48854   7.218   3.239   7.529
15632SOL    HW148855   7.186   3.333   7.519
15632SOL    HW248856   7.142   3.176   7.517
15633SOL     OW48857   6.050   3.605   7.771
15633SOL    HW148858   6.083   3.644   7.857
15633SOL    HW248859   6.126   3.598   7.706
15634SOL     OW48860   6.986   1.969   7.874
15634SOL    HW148861   6.962   1.932   7.784
15634SOL    HW248862   7.085   1.985   7.878
15635SOL     OW48863   5.835   3.647   8.689
15635SOL    HW148864   5.892   3.582   8.739
15635SOL    HW248865   5.819   3.614   8.596
15636SOL     OW48866   6.526   3.560   8.352
15636SOL    HW148867   6.606   3.503   8.373
15636SOL    HW248868   6.477   3.520   8.275
15637SOL     OW48869   5.968   2.562   7.928
15637SOL    HW148870   6.013   2.472   7.925
15637SOL    HW248871   5.874   2.551   7.961
15638SOL     OW48872   6.200   1.984   7.565
15638SOL    HW148873   6.298   1.962   7.572
15638SOL    HW248874   6.169   1.967   7.472
15639SOL     OW48875   6.474   3.376   8.643
15639SOL    HW148876   6.451   3.351   8.549
15639SOL    HW248877   6.535   3.307   8.682
15640SOL     OW48878   6.389   3.264   8.372
15640SOL    HW148879   6.479   3.278   8.330
15640SOL    HW248880   6.318   3.266   8.301
15641SOL     OW48881   6.508   2.365   8.347
15641SOL    HW148882   6.483   2.356   8.251
15641SOL    HW248883   6.556   2.283   8.378
15642SOL     OW48884   6.125   1.926   7.960
15642SOL    HW148885   6.044   1.927   8.018
15642SOL    HW248886   6.128   2.009   7.905
15643SOL     OW48887   7.020   3.050   7.489
15643SOL    HW148888   7.052   2.974   7.546
15643SOL    HW248889   6.928   3.077   7.519
15644SOL     OW48890   5.883   1.897   7.619
15644SOL    HW148891   5.932   1.981   7.598
15644SOL    HW248892   5.945   1.832   7.664
15645SOL     OW48893   6.521   2.098   7.928
15645SOL    HW148894   6.473   2.139   7.850
15645SOL    HW248895   6.620   2.096   7.909
15646SOL     OW48896   6.813   3.432   8.241
15646SOL    HW148897   6.834   3.506   8.176
15646SOL    HW248898   6.881   3.432   8.314
15647SOL     OW48899   6.045   3.014   8.189
15647SOL    HW148900   5.974   2.987   8.254
15647SOL    HW248901   6.019   2.986   8.096
15648SOL     OW48902   6.857   3.659   8.039
15648SOL    HW148903   6.901   3.723   7.975
15648SOL    HW248904   6.807   3.711   8.109
15649SOL     OW48905   6.618   2.411   7.464
15649SOL    HW148906   6.577   2.493   7.425
15649SOL    HW248907   6.682   2.437   7.537
15650SOL     OW48908   5.664   2.418   8.834
15650SOL    HW148909   5.756   2.417   8.793
15650SOL    HW248910   5.658   2.492   8.901
15651SOL     OW48911   6.147   2.084   8.595
15651SOL    HW148912   6.185   2.000   8.632
15651SOL    HW248913   6.059   2.103   8.639
15652SOL     OW48914   6.452   2.316   8.090
15652SOL    HW148915   6.420   2.388   8.028
15652SOL    HW248916   6.476   2.235   8.037
15653SOL     OW48917   6.603   1.901   8.201
15653SOL    HW148918   6.531   1.906   8.132
15653SOL    HW248919   6.579   1.832   8.270
15654SOL     OW48920   7.015   3.035   8.315
15654SOL    HW148921   6.960   2.951   8.308
15654SOL    HW248922   7.041   3.064   8.223
15655SOL     OW48923   7.052   2.452   8.440
15655SOL    HW148924   7.022   2.357   8.447
15655SOL    HW248925   7.125   2.468   8.506
15656SOL     OW48926   7.443   2.695   7.825
15656SOL    HW148927   7.485   2.631   7.889
15656SOL    HW248928   7.405   2.644   7.747
15657SOL     OW48929   7.250   3.142   8.105
15657SOL    HW148930   7.349   3.150   8.119
15657SOL    HW248931   7.205   3.226   8.136
15658SOL     OW48932   6.976   2.437   7.526
15658SOL    HW148933   6.922   2.416   7.607
15658SOL    HW248934   7.067   2.396   7.535
15659SOL     OW48935   6.113   2.118   7.776
15659SOL    HW148936   6.140   2.059   7.701
15659SOL    HW248937   6.113   2.213   7.745
15660SOL     OW48938   6.650   3.209   8.788
15660SOL    HW148939   6.570   3.186   8.843
15660SOL    HW248940   6.733   3.183   8.837
15661SOL     OW48941   6.697   3.057   8.548
15661SOL    HW148942   6.657   3.101   8.629
15661SOL    HW248943   6.656   3.094   8.465
15662SOL     OW48944   7.224   2.961   8.527
15662SOL    HW148945   7.229   3.042   8.586
15662SOL    HW248946   7.138   2.963   8.476
15663SOL     OW48947   6.501   1.951   8.850
15663SOL    HW148948   6.526   1.931   8.755
15663SOL    HW248949   6.573   2.007   8.892
15664SOL     OW48950   5.996   2.675   8.699
15664SOL    HW148951   6.082   2.687   8.749
15664SOL    HW248952   5.954   2.588   8.726
15665SOL     OW48953   6.860   2.248   8.710
15665SOL    HW148954   6.881   2.322   8.774
15665SOL    HW248955   6.771   2.265   8.667
15666SOL     OW48956   6.152   2.399   8.313
15666SOL    HW148957   6.164   2.465   8.239
15666SOL    HW248958   6.198   2.433   8.396
15667SOL     OW48959   6.838   3.210   7.836
15667SOL    HW148960   6.888   3.287   7.876
15667SOL    HW248961   6.743   3.212   7.868
15668SOL     OW48962   6.858   3.307   8.590
15668SOL    HW148963   6.905   3.320   8.677
15668SOL    HW248964   6.792   3.233   8.599
15669SOL     OW48965   7.168   2.501   7.920
15669SOL    HW148966   7.137   2.562   7.993
15669SOL    HW248967   7.218   2.553   7.851
15670SOL     OW48968   5.940   3.372   8.777
15670SOL    HW148969   5.919   3.328   8.690
15670SOL    HW248970   6.037   3.398   8.780
15671SOL     OW48971   5.988   2.613   0.046
15671SOL    HW148972   6.056   2.668  -0.001
15671SOL    HW248973   6.028   2.525   0.073
15672SOL     OW48974   7.173   2.641   0.118
15672SOL    HW148975   7.081   2.679   0.113
15672SOL    HW248976   7.233   2.688   0.053
15673SOL     OW48977   6.159   2.732   8.477
15673SOL    HW148978   6.203   2.821   8.468
15673SOL    HW248979   6.096   2.732   8.554
15674SOL     OW48980   6.946   2.724   8.493
15674SOL    HW148981   6.871   2.724   8.427
15674SOL    HW248982   6.983   2.632   8.502
15675SOL     OW48983   6.795   2.387   7.723
15675SOL    HW148984   6.808   2.303   7.777
15675SOL    HW248985   6.766   2.461   7.783
15676SOL     OW48986   5.893   2.075   8.679
15676SOL    HW148987   5.870   2.112   8.769
15676SOL    HW248988   5.863   1.980   8.673
15677SOL     OW48989   6.318   2.496   8.512
15677SOL    HW148990   6.377   2.470   8.436
15677SOL    HW248991   6.290   2.592   8.501
15678SOL     OW48992   5.893   1.925   8.066
15678SOL    HW148993   5.882   2.019   8.099
15678SOL    HW248994   5.888   1.862   8.143
15679SOL     OW48995   7.208   2.229   7.822
15679SOL    HW148996   7.210   2.153   7.886
15679SOL    HW248997   7.160   2.306   7.862
15680SOL     OW48998   6.609   2.628   8.414
15680SOL    HW148999   6.624   2.649   8.510
15680SOL    HW249000   6.579   2.533   8.405
15681SOL     OW49001   6.566   3.435   0.148
15681SOL    HW149002   6.546   3.479   0.060
15681SOL    HW249003   6.605   3.344   0.132
15682SOL     OW49004   7.445   3.380   0.053
15682SOL    HW149005   7.459   3.407  -0.042
15682SOL    HW249006   7.528   3.402   0.106
15683SOL     OW49007   7.126   2.136   7.573
15683SOL    HW149008   7.065   2.061   7.596
15683SOL    HW249009   7.148   2.188   7.656
15684SOL     OW49010   6.889   2.700   7.490
15684SOL    HW149011   6.923   2.607   7.505
15684SOL    HW249012   6.907   2.727   7.395
15685SOL     OW49013   6.654   3.195   8.297
15685SOL    HW149014   6.661   3.111   8.242
15685SOL    HW249015   6.716   3.264   8.261
15686SOL     OW49016   5.905   2.672   8.397
15686SOL    HW149017   5.998   2.708   8.402
15686SOL    HW249018   5.899   2.587   8.449
15687SOL     OW49019   5.925   2.371   8.454
15687SOL    HW149020   5.873   2.288   8.437
15687SOL    HW249021   6.002   2.376   8.390
15688SOL     OW49022   6.724   2.242   0.126
15688SOL    HW149023   6.679   2.305   0.190
15688SOL    HW249024   6.817   2.273   0.109
15689SOL     OW49025   6.746   2.069   8.925
15689SOL    HW149026   6.746   2.133   9.002
15689SOL    HW249027   6.774   2.117   8.842
15690SOL     OW49028   5.594   3.188   7.648
15690SOL    HW149029   5.501   3.209   7.617
15690SOL    HW249030   5.604   3.089   7.661
15691SOL     OW49031   5.674   3.663   8.375
15691SOL    HW149032   5.632   3.577   8.348
15691SOL    HW249033   5.768   3.666   8.341
15692SOL     OW49034   6.090   3.430   8.358
15692SOL    HW149035   6.156   3.504   8.367
15692SOL    HW249036   6.134   3.351   8.316
15693SOL     OW49037   6.588   2.658   8.686
15693SOL    HW149038   6.629   2.626   8.772
15693SOL    HW249039   6.492   2.631   8.683
15694SOL     OW49040   5.626   2.406   8.562
15694SOL    HW149041   5.711   2.373   8.521
15694SOL    HW249042   5.639   2.421   8.660
15695SOL     OW49043   6.401   2.434   7.773
15695SOL    HW149044   6.408   2.345   7.727
15695SOL    HW249045   6.307   2.468   7.765
15696SOL     OW49046   7.243   2.466   8.654
15696SOL    HW149047   7.205   2.397   8.716
15696SOL    HW249048   7.325   2.430   8.610
15697SOL     OW49049   6.257   2.326   8.717
15697SOL    HW149050   6.223   2.237   8.687
15697SOL    HW249051   6.283   2.380   8.637
15698SOL     OW49052   6.516   3.540   8.913
15698SOL    HW149053   6.492   3.522   8.818
15698SOL    HW249054   6.546   3.634   8.923
15699SOL     OW49055   6.059   2.362   7.639
15699SOL    HW149056   6.120   2.442   7.643
15699SOL    HW249057   5.964   2.393   7.646
15700SOL     OW49058   5.745   2.999   8.914
15700SOL    HW149059   5.767   2.938   8.990
15700SOL    HW249060   5.755   2.950   8.828
15701SOL     OW49061   6.933   2.921   8.682
15701SOL    HW149062   6.957   2.858   8.608
15701SOL    HW249063   6.843   2.961   8.664
15702SOL     OW49064   6.888   2.717   7.757
15702SOL    HW149065   6.802   2.686   7.799
15702SOL    HW249066   6.884   2.703   7.658
15703SOL     OW49067   7.345   3.609   8.602
15703SOL    HW149068   7.406   3.639   8.529
15703SOL    HW249069   7.307   3.520   8.580
15704SOL     OW49070   6.838   3.593   8.576
15704SOL    HW149071   6.922   3.598   8.522
15704SOL    HW249072   6.815   3.497   8.594
15705SOL     OW49073   5.669   3.120   8.470
15705SOL    HW149074   5.664   3.119   8.570
15705SOL    HW249075   5.586   3.079   8.432
15706SOL     OW49076   6.489   1.948   7.581
15706SOL    HW149077   6.540   1.949   7.495
15706SOL    HW249078   6.545   1.906   7.652
15707SOL     OW49079   7.312   1.997   7.971
15707SOL    HW149080   7.385   1.980   7.904
15707SOL    HW249081   7.281   1.910   8.009
15708SOL     OW49082   6.974   3.435   7.925
15708SOL    HW149083   7.041   3.447   7.851
15708SOL    HW249084   6.934   3.524   7.948
15709SOL     OW49085   6.866   2.789   8.120
15709SOL    HW149086   6.926   2.708   8.122
15709SOL    HW249087   6.906   2.858   8.060
15710SOL     OW49088   6.258   3.478   7.602
15710SOL    HW149089   6.267   3.488   7.503
15710SOL    HW249090   6.218   3.389   7.623
15711SOL     OW49091   7.236   3.582   8.842
15711SOL    HW149092   7.289   3.592   8.758
15711SOL    HW249093   7.209   3.672   8.876
15712SOL     OW49094   7.427   2.037   8.411
15712SOL    HW149095   7.466   1.952   8.375
15712SOL    HW249096   7.329   2.039   8.392
15713SOL     OW49097   5.849   2.188   8.168
15713SOL    HW149098   5.770   2.239   8.134
15713SOL    HW249099   5.840   2.173   8.266
15714SOL     OW49100   6.780   3.474   7.479
15714SOL    HW149101   6.786   3.381   7.516
15714SOL    HW249102   6.721   3.474   7.399
15715SOL     OW49103   6.408   2.864   8.820
15715SOL    HW149104   6.448   2.863   8.728
15715SOL    HW249105   6.418   2.956   8.860
15716SOL     OW49106   6.502   2.772   7.739
15716SOL    HW149107   6.565   2.810   7.671
15716SOL    HW249108   6.542   2.689   7.778
15717SOL     OW49109   7.090   3.469   7.492
15717SOL    HW149110   6.998   3.506   7.499
15717SOL    HW249111   7.128   3.489   7.402
15718SOL     OW49112   5.958   3.150   8.938
15718SOL    HW149113   5.945   3.243   8.904
15718SOL    HW249114   5.874   3.098   8.925
15719SOL     OW49115   7.200   3.154   8.737
15719SOL    HW149116   7.260   3.157   8.817
15719SOL    HW249117   7.125   3.218   8.750
15720SOL     OW49118   6.625   2.960   8.144
15720SOL    HW149119   6.555   2.913   8.198
15720SOL    HW249120   6.684   2.892   8.101
15721SOL     OW49121   6.600   2.098   8.419
15721SOL    HW149122   6.592   2.062   8.326
15721SOL    HW249123   6.598   2.022   8.484
15722SOL     OW49124   7.295   2.247   8.829
15722SOL    HW149125   7.368   2.316   8.833
15722SOL    HW249126   7.323   2.172   8.770
15723SOL     OW49127   5.661   2.207   7.481
15723SOL    HW149128   5.569   2.179   7.452
15723SOL    HW249129   5.692   2.284   7.425
15724SOL     OW49130   7.026   2.718   8.846
15724SOL    HW149131   6.969   2.770   8.783
15724SOL    HW249132   7.122   2.730   8.822
15725SOL     OW49133   5.658   2.028   7.766
15725SOL    HW149134   5.641   2.111   7.712
15725SOL    HW249135   5.748   1.991   7.744
15726SOL     OW49136   6.769   3.197   7.567
15726SOL    HW149137   6.670   3.186   7.569
15726SOL    HW249138   6.803   3.212   7.660
15727SOL     OW49139   6.199   2.704   8.879
15727SOL    HW149140   6.255   2.785   8.862
15727SOL    HW249141   6.258   2.624   8.882
15728SOL     OW49142   7.079   3.629   8.407
15728SOL    HW149143   7.112   3.693   8.338
15728SOL    HW249144   7.145   3.623   8.482
15729SOL     OW49145   5.976   3.603   0.008
15729SOL    HW149146   5.885   3.644   0.006
15729SOL    HW249147   5.969   3.509   0.040
15730SOL     OW49148   7.260   2.745   8.702
15730SOL    HW149149   7.233   2.656   8.665
15730SOL    HW249150   7.261   2.813   8.629
15731SOL     OW49151   6.811   2.187   7.897
15731SOL    HW149152   6.876   2.113   7.886
15731SOL    HW249153   6.831   2.237   7.981
15732SOL     OW49154   7.363   2.204   0.090
15732SOL    HW149155   7.346   2.235  -0.004
15732SOL    HW249156   7.279   2.167   0.128
15733SOL     OW49157   7.316   2.796   8.965
15733SOL    HW149158   7.354   2.887   8.980
15733SOL    HW249159   7.308   2.779   8.866
15734SOL     OW49160   6.247   3.652   8.401
15734SOL    HW149161   6.201   3.740   8.388
15734SOL    HW249162   6.346   3.664   8.394
15735SOL     OW49163   6.994   3.713   0.168
15735SOL    HW149164   6.898   3.702   0.141
15735SOL    HW249165   7.050   3.646   0.120
15736SOL     OW49166   6.445   2.818   8.309
15736SOL    HW149167   6.499   2.749   8.357
15736SOL    HW249168   6.413   2.887   8.375
15737SOL     OW49169   6.669   2.846   7.535
15737SOL    HW149170   6.646   2.899   7.453
15737SOL    HW249171   6.750   2.790   7.516
15738SOL     OW49172   7.447   3.431   8.299
15738SOL    HW149173   7.376   3.419   8.229
15738SOL    HW249174   7.448   3.352   8.359
15739SOL     OW49175   7.410   2.054   8.675
15739SOL    HW149176   7.406   1.964   8.719
15739SOL    HW249177   7.413   2.043   8.576
15740SOL     OW49178   6.014   2.286   7.968
15740SOL    HW149179   6.044   2.214   7.906
15740SOL    HW249180   5.975   2.246   8.051
15741SOL     OW49181   7.291   3.349   8.552
15741SOL    HW149182   7.198   3.324   8.525
15741SOL    HW249183   7.317   3.299   8.634
15742SOL     OW49184   5.903   2.409   8.728
15742SOL    HW149185   5.941   2.350   8.800
15742SOL    HW249186   5.943   2.383   8.640
15743SOL     OW49187   6.398   3.448   8.135
15743SOL    HW149188   6.430   3.458   8.041
15743SOL    HW249189   6.319   3.386   8.137
15744SOL     OW49190   7.010   2.076   8.560
15744SOL    HW149191   7.062   2.011   8.615
15744SOL    HW249192   6.961   2.139   8.621
15745SOL     OW49193   6.587   1.896   8.602
15745SOL    HW149194   6.524   1.824   8.571
15745SOL    HW249195   6.680   1.860   8.602
15746SOL     OW49196   6.204   3.429   8.732
15746SOL    HW149197   6.199   3.511   8.789
15746SOL    HW249198   6.293   3.426   8.687
15747SOL     OW49199   6.938   1.914   7.616
15747SOL    HW149200   6.973   1.873   7.532
15747SOL    HW249201   6.848   1.876   7.636
15748SOL     OW49202   6.886   2.315   8.139
15748SOL    HW149203   6.827   2.395   8.143
15748SOL    HW249204   6.901   2.280   8.232
15749SOL     OW49205   7.179   2.083   8.330
15749SOL    HW149206   7.095   2.082   8.384
15749SOL    HW249207   7.181   2.166   8.274
15750SOL     OW49208   6.461   3.508   7.785
15750SOL    HW149209   6.384   3.473   7.731
15750SOL    HW249210   6.429   3.579   7.847
15751SOL     OW49211   5.816   4.352   0.113
15751SOL    HW149212   5.723   4.350   0.150
15751SOL    HW249213   5.817   4.313   0.021
15752SOL     OW49214   5.811   3.999   0.996
15752SOL    HW149215   5.846   3.982   1.088
15752SOL    HW249216   5.723   3.954   0.984
15753SOL     OW49217   5.605   4.092   0.647
15753SOL    HW149218   5.523   4.135   0.686
15753SOL    HW249219   5.577   4.019   0.584
15754SOL     OW49220   6.155   4.999   1.165
15754SOL    HW149221   6.062   4.992   1.128
15754SOL    HW249222   6.166   5.088   1.209
15755SOL     OW49223   7.141   5.235   0.703
15755SOL    HW149224   7.084   5.219   0.784
15755SOL    HW249225   7.082   5.245   0.623
15756SOL     OW49226   7.329   4.342   0.856
15756SOL    HW149227   7.362   4.436   0.856
15756SOL    HW249228   7.380   4.288   0.922
15757SOL     OW49229   6.721   4.427   0.717
15757SOL    HW149230   6.778   4.505   0.692
15757SOL    HW249231   6.661   4.453   0.793
15758SOL     OW49232   7.341   4.331   0.231
15758SOL    HW149233   7.329   4.318   0.132
15758SOL    HW249234   7.311   4.250   0.280
15759SOL     OW49235   6.354   4.868   1.023
15759SOL    HW149236   6.276   4.885   1.083
15759SOL    HW249237   6.388   4.955   0.987
15760SOL     OW49238   6.436   4.522   1.823
15760SOL    HW149239   6.432   4.598   1.888
15760SOL    HW249240   6.458   4.558   1.732
15761SOL     OW49241   6.271   4.736   0.665
15761SOL    HW149242   6.340   4.720   0.735
15761SOL    HW249243   6.198   4.793   0.703
15762SOL     OW49244   5.921   5.159   1.061
15762SOL    HW149245   5.843   5.128   1.008
15762SOL    HW249246   5.979   5.217   1.004
15763SOL     OW49247   7.046   5.229   1.339
15763SOL    HW149248   7.070   5.323   1.365
15763SOL    HW249249   7.030   5.175   1.421
15764SOL     OW49250   6.024   4.116   1.499
15764SOL    HW149251   6.106   4.060   1.508
15764SOL    HW249252   5.943   4.058   1.503
15765SOL     OW49253   7.189   4.171   0.737
15765SOL    HW149254   7.115   4.217   0.687
15765SOL    HW249255   7.240   4.239   0.790
15766SOL     OW49256   5.817   5.437   0.483
15766SOL    HW149257   5.851   5.514   0.537
15766SOL    HW249258   5.861   5.437   0.393
15767SOL     OW49259   5.816   5.158   0.538
15767SOL    HW149260   5.790   5.254   0.538
15767SOL    HW249261   5.745   5.104   0.583
15768SOL     OW49262   5.826   4.815   0.886
15768SOL    HW149263   5.840   4.731   0.938
15768SOL    HW249264   5.771   4.879   0.941
15769SOL     OW49265   6.206   5.510   1.439
15769SOL    HW149266   6.114   5.493   1.474
15769SOL    HW249267   6.234   5.602   1.465
15770SOL     OW49268   6.192   4.688   0.123
15770SOL    HW149269   6.199   4.772   0.069
15770SOL    HW249270   6.238   4.701   0.211
15771SOL     OW49271   5.708   4.367   0.563
15771SOL    HW149272   5.663   4.279   0.580
15771SOL    HW249273   5.707   4.421   0.647
15772SOL     OW49274   7.428   5.491   0.359
15772SOL    HW149275   7.482   5.462   0.439
15772SOL    HW249276   7.458   5.581   0.330
15773SOL     OW49277   7.275   4.646   0.612
15773SOL    HW149278   7.370   4.617   0.620
15773SOL    HW249279   7.267   4.711   0.537
15774SOL     OW49280   7.227   4.832   0.432
15774SOL    HW149281   7.313   4.834   0.380
15774SOL    HW249282   7.241   4.879   0.520
15775SOL     OW49283   6.199   5.089   0.726
15775SOL    HW149284   6.150   5.002   0.735
15775SOL    HW249285   6.176   5.132   0.639
15776SOL     OW49286   6.879   4.952   1.423
15776SOL    HW149287   6.916   4.879   1.365
15776SOL    HW249288   6.931   4.957   1.508
15777SOL     OW49289   6.395   3.728   0.502
15777SOL    HW149290   6.435   3.819   0.493
15777SOL    HW249291   6.295   3.736   0.508
15778SOL     OW49292   5.783   4.700   1.264
15778SOL    HW149293   5.872   4.655   1.250
15778SOL    HW249294   5.710   4.635   1.245
15779SOL     OW49295   7.111   4.723   0.190
15779SOL    HW149296   7.048   4.647   0.203
15779SOL    HW249297   7.159   4.741   0.276
15780SOL     OW49298   6.773   5.516   1.616
15780SOL    HW149299   6.797   5.576   1.540
15780SOL    HW249300   6.780   5.421   1.586
15781SOL     OW49301   5.903   3.975   1.801
15781SOL    HW149302   5.974   4.046   1.807
15781SOL    HW249303   5.815   4.014   1.829
15782SOL     OW49304   7.052   5.141   0.953
15782SOL    HW149305   6.993   5.147   1.033
15782SOL    HW249306   7.037   5.053   0.907
15783SOL     OW49307   7.253   5.438   0.572
15783SOL    HW149308   7.212   5.415   0.484
15783SOL    HW249309   7.235   5.364   0.637
15784SOL     OW49310   6.184   4.453   0.270
15784SOL    HW149311   6.208   4.522   0.202
15784SOL    HW249312   6.106   4.486   0.324
15785SOL     OW49313   6.867   4.069   0.944
15785SOL    HW149314   6.781   4.019   0.931
15785SOL    HW249315   6.929   4.015   1.000
15786SOL     OW49316   7.162   5.386   0.307
15786SOL    HW149317   7.251   5.432   0.310
15786SOL    HW249318   7.141   5.362   0.212
15787SOL     OW49319   6.393   4.329   1.465
15787SOL    HW149320   6.346   4.326   1.554
15787SOL    HW249321   6.342   4.274   1.399
15788SOL     OW49322   6.980   4.193   1.674
15788SOL    HW149323   6.960   4.236   1.762
15788SOL    HW249324   7.058   4.131   1.683
15789SOL     OW49325   6.559   4.614   1.572
15789SOL    HW149326   6.605   4.530   1.543
15789SOL    HW249327   6.503   4.648   1.497
15790SOL     OW49328   6.577   4.134   1.242
15790SOL    HW149329   6.500   4.168   1.296
15790SOL    HW249330   6.543   4.083   1.163
15791SOL     OW49331   6.627   4.425   0.429
15791SOL    HW149332   6.653   4.421   0.525
15791SOL    HW249333   6.542   4.374   0.415
15792SOL     OW49334   5.662   4.535   0.789
15792SOL    HW149335   5.761   4.523   0.798
15792SOL    HW249336   5.638   4.630   0.810
15793SOL     OW49337   5.716   5.545   1.571
15793SOL    HW149338   5.706   5.530   1.670
15793SOL    HW249339   5.630   5.581   1.535
15794SOL     OW49340   6.451   4.072   0.195
15794SOL    HW149341   6.510   4.135   0.146
15794SOL    HW249342   6.470   3.978   0.166
15795SOL     OW49343   7.305   4.309   1.831
15795SOL    HW149344   7.279   4.398   1.795
15795SOL    HW249345   7.303   4.241   1.758
15796SOL     OW49346   6.948   4.868   0.545
15796SOL    HW149347   7.031   4.839   0.497
15796SOL    HW249348   6.899   4.935   0.489
15797SOL     OW49349   6.136   3.920   0.885
15797SOL    HW149350   6.131   3.915   0.985
15797SOL    HW249351   6.138   4.016   0.856
15798SOL     OW49352   6.594   5.180   0.477
15798SOL    HW149353   6.548   5.252   0.425
15798SOL    HW249354   6.590   5.200   0.575
15799SOL     OW49355   5.937   5.525   0.853
15799SOL    HW149356   5.987   5.439   0.859
15799SOL    HW249357   6.002   5.602   0.850
15800SOL     OW49358   7.381   4.790   0.873
15800SOL    HW149359   7.319   4.775   0.797
15800SOL    HW249360   7.329   4.801   0.958
15801SOL     OW49361   6.813   5.274   1.506
15801SOL    HW149362   6.819   5.197   1.570
15801SOL    HW249363   6.761   5.248   1.426
15802SOL     OW49364   5.907   4.667   0.242
15802SOL    HW149365   5.989   4.706   0.200
15802SOL    HW249366   5.880   4.585   0.193
15803SOL     OW49367   7.044   4.459   0.728
15803SOL    HW149368   7.039   4.394   0.803
15803SOL    HW249369   7.124   4.518   0.741
15804SOL     OW49370   6.697   5.500   0.237
15804SOL    HW149371   6.637   5.438   0.287
15804SOL    HW249372   6.728   5.456   0.152
15805SOL     OW49373   5.788   4.009   1.498
15805SOL    HW149374   5.708   4.069   1.485
15805SOL    HW249375   5.778   3.960   1.584
15806SOL     OW49376   7.218   5.101   0.081
15806SOL    HW149377   7.186   5.195   0.071
15806SOL    HW249378   7.142   5.038   0.069
15807SOL     OW49379   6.050   5.467   0.323
15807SOL    HW149380   6.083   5.506   0.409
15807SOL    HW249381   6.126   5.460   0.258
15808SOL     OW49382   6.986   3.831   0.426
15808SOL    HW149383   6.962   3.794   0.336
15808SOL    HW249384   7.085   3.847   0.430
15809SOL     OW49385   5.835   5.509   1.241
15809SOL    HW149386   5.892   5.444   1.291
15809SOL    HW249387   5.819   5.476   1.148
15810SOL     OW49388   6.526   5.422   0.904
15810SOL    HW149389   6.606   5.365   0.925
15810SOL    HW249390   6.477   5.382   0.827
15811SOL     OW49391   5.968   4.424   0.480
15811SOL    HW149392   6.013   4.334   0.477
15811SOL    HW249393   5.874   4.413   0.513
15812SOL     OW49394   6.200   3.846   0.117
15812SOL    HW149395   6.298   3.824   0.124
15812SOL    HW249396   6.169   3.829   0.024
15813SOL     OW49397   6.367   3.988   1.749
15813SOL    HW149398   6.434   3.927   1.792
15813SOL    HW249399   6.294   4.007   1.814
15814SOL     OW49400   6.474   5.238   1.195
15814SOL    HW149401   6.451   5.213   1.101
15814SOL    HW249402   6.535   5.169   1.234
15815SOL     OW49403   6.937   4.314   1.433
15815SOL    HW149404   6.965   4.271   1.518
15815SOL    HW249405   6.962   4.410   1.434
15816SOL     OW49406   6.389   5.126   0.924
15816SOL    HW149407   6.479   5.140   0.882
15816SOL    HW249408   6.318   5.128   0.853
15817SOL     OW49409   6.508   4.227   0.899
15817SOL    HW149410   6.483   4.218   0.803
15817SOL    HW249411   6.556   4.145   0.930
15818SOL     OW49412   6.125   3.788   0.512
15818SOL    HW149413   6.044   3.789   0.570
15818SOL    HW249414   6.128   3.871   0.457
15819SOL     OW49415   7.020   4.912   0.041
15819SOL    HW149416   7.052   4.836   0.098
15819SOL    HW249417   6.928   4.939   0.071
15820SOL     OW49418   5.883   3.759   0.171
15820SOL    HW149419   5.932   3.843   0.150
15820SOL    HW249420   5.945   3.694   0.216
15821SOL     OW49421   6.521   3.960   0.480
15821SOL    HW149422   6.473   4.001   0.402
15821SOL    HW249423   6.620   3.958   0.461
15822SOL     OW49424   6.662   4.407   1.464
15822SOL    HW149425   6.582   4.346   1.467
15822SOL    HW249426   6.743   4.354   1.440
15823SOL     OW49427   6.813   5.294   0.793
15823SOL    HW149428   6.834   5.368   0.728
15823SOL    HW249429   6.881   5.294   0.866
15824SOL     OW49430   6.045   4.876   0.741
15824SOL    HW149431   5.974   4.849   0.806
15824SOL    HW249432   6.019   4.848   0.648
15825SOL     OW49433   6.857   5.521   0.591
15825SOL    HW149434   6.901   5.585   0.527
15825SOL    HW249435   6.807   5.573   0.661
15826SOL     OW49436   6.618   4.273   0.016
15826SOL    HW149437   6.577   4.355  -0.023
15826SOL    HW249438   6.682   4.299   0.089
15827SOL     OW49439   5.664   4.280   1.386
15827SOL    HW149440   5.756   4.279   1.345
15827SOL    HW249441   5.658   4.354   1.453
15828SOL     OW49442   6.147   3.946   1.147
15828SOL    HW149443   6.185   3.862   1.184
15828SOL    HW249444   6.059   3.965   1.191
15829SOL     OW49445   6.452   4.178   0.642
15829SOL    HW149446   6.420   4.250   0.580
15829SOL    HW249447   6.476   4.097   0.589
15830SOL     OW49448   6.603   3.763   0.753
15830SOL    HW149449   6.531   3.768   0.684
15830SOL    HW249450   6.579   3.694   0.822
15831SOL     OW49451   7.015   4.897   0.867
15831SOL    HW149452   6.960   4.813   0.860
15831SOL    HW249453   7.041   4.926   0.775
15832SOL     OW49454   7.052   4.314   0.992
15832SOL    HW149455   7.022   4.219   0.999
15832SOL    HW249456   7.125   4.330   1.058
15833SOL     OW49457   7.443   4.557   0.377
15833SOL    HW149458   7.485   4.493   0.441
15833SOL    HW249459   7.405   4.506   0.299
15834SOL     OW49460   6.074   5.109   0.174
15834SOL    HW149461   5.987   5.094   0.221
15834SOL    HW249462   6.057   5.135   0.079
15835SOL     OW49463   7.250   5.004   0.657
15835SOL    HW149464   7.349   5.012   0.671
15835SOL    HW249465   7.205   5.088   0.688
15836SOL     OW49466   6.976   4.299   0.078
15836SOL    HW149467   6.922   4.278   0.159
15836SOL    HW249468   7.067   4.258   0.087
15837SOL     OW49469   6.113   3.980   0.328
15837SOL    HW149470   6.140   3.921   0.253
15837SOL    HW249471   6.113   4.075   0.297
15838SOL     OW49472   7.340   4.947   1.588
15838SOL    HW149473   7.431   4.908   1.575
15838SOL    HW249474   7.348   5.043   1.612
15839SOL     OW49475   6.650   5.071   1.340
15839SOL    HW149476   6.570   5.048   1.395
15839SOL    HW249477   6.733   5.045   1.389
15840SOL     OW49478   7.178   5.353   1.625
15840SOL    HW149479   7.205   5.387   1.535
15840SOL    HW249480   7.257   5.315   1.671
15841SOL     OW49481   6.697   4.919   1.100
15841SOL    HW149482   6.657   4.963   1.181
15841SOL    HW249483   6.656   4.956   1.017
15842SOL     OW49484   7.224   4.823   1.079
15842SOL    HW149485   7.229   4.904   1.138
15842SOL    HW249486   7.138   4.825   1.028
15843SOL     OW49487   6.501   3.813   1.402
15843SOL    HW149488   6.526   3.793   1.307
15843SOL    HW249489   6.573   3.869   1.444
15844SOL     OW49490   6.291   4.774   0.368
15844SOL    HW149491   6.277   4.781   0.467
15844SOL    HW249492   6.375   4.723   0.350
15845SOL     OW49493   5.996   4.537   1.251
15845SOL    HW149494   6.082   4.549   1.301
15845SOL    HW249495   5.954   4.450   1.278
15846SOL     OW49496   6.860   4.110   1.262
15846SOL    HW149497   6.881   4.184   1.326
15846SOL    HW249498   6.771   4.127   1.219
15847SOL     OW49499   5.650   5.288   1.331
15847SOL    HW149500   5.604   5.370   1.297
15847SOL    HW249501   5.748   5.307   1.340
15848SOL     OW49502   5.953   4.824   0.501
15848SOL    HW149503   5.946   4.907   0.445
15848SOL    HW249504   5.957   4.744   0.441
15849SOL     OW49505   6.152   4.261   0.865
15849SOL    HW149506   6.164   4.327   0.791
15849SOL    HW249507   6.198   4.295   0.948
15850SOL     OW49508   6.838   5.072   0.388
15850SOL    HW149509   6.888   5.149   0.428
15850SOL    HW249510   6.743   5.074   0.420
15851SOL     OW49511   6.858   5.169   1.142
15851SOL    HW149512   6.905   5.182   1.229
15851SOL    HW249513   6.792   5.095   1.151
15852SOL     OW49514   7.168   4.363   0.472
15852SOL    HW149515   7.137   4.424   0.545
15852SOL    HW249516   7.218   4.415   0.403
15853SOL     OW49517   5.988   4.475   1.598
15853SOL    HW149518   6.056   4.530   1.551
15853SOL    HW249519   6.028   4.387   1.625
15854SOL     OW49520   7.173   4.503   1.670
15854SOL    HW149521   7.081   4.541   1.665
15854SOL    HW249522   7.233   4.550   1.605
15855SOL     OW49523   6.599   3.829   1.770
15855SOL    HW149524   6.605   3.914   1.718
15855SOL    HW249525   6.631   3.753   1.713
15856SOL     OW49526   6.090   3.774   1.740
15856SOL    HW149527   6.048   3.717   1.670
15856SOL    HW249528   6.024   3.843   1.772
15857SOL     OW49529   6.159   4.594   1.029
15857SOL    HW149530   6.203   4.683   1.020
15857SOL    HW249531   6.096   4.594   1.106
15858SOL     OW49532   6.946   4.586   1.045
15858SOL    HW149533   6.871   4.586   0.979
15858SOL    HW249534   6.983   4.494   1.054
15859SOL     OW49535   6.795   4.249   0.275
15859SOL    HW149536   6.808   4.165   0.329
15859SOL    HW249537   6.766   4.323   0.335
15860SOL     OW49538   5.893   3.937   1.231
15860SOL    HW149539   5.870   3.974   1.321
15860SOL    HW249540   5.863   3.842   1.225
15861SOL     OW49541   5.623   5.034   1.282
15861SOL    HW149542   5.676   4.985   1.350
15861SOL    HW249543   5.645   5.132   1.287
15862SOL     OW49544   6.318   4.358   1.064
15862SOL    HW149545   6.377   4.332   0.988
15862SOL    HW249546   6.290   4.454   1.053
15863SOL     OW49547   7.314   4.659   1.854
15863SOL    HW149548   7.268   4.652   1.765
15863SOL    HW249549   7.252   4.703   1.920
15864SOL     OW49550   5.893   3.787   0.618
15864SOL    HW149551   5.882   3.881   0.651
15864SOL    HW249552   5.888   3.724   0.695
15865SOL     OW49553   7.208   4.091   0.374
15865SOL    HW149554   7.210   4.015   0.438
15865SOL    HW249555   7.160   4.168   0.414
15866SOL     OW49556   6.609   4.490   0.966
15866SOL    HW149557   6.624   4.511   1.062
15866SOL    HW249558   6.579   4.395   0.957
15867SOL     OW49559   6.566   5.297   1.700
15867SOL    HW149560   6.546   5.341   1.612
15867SOL    HW249561   6.605   5.206   1.684
15868SOL     OW49562   7.445   5.242   1.605
15868SOL    HW149563   7.459   5.269   1.510
15868SOL    HW249564   7.528   5.264   1.658
15869SOL     OW49565   5.936   4.622   1.804
15869SOL    HW149566   6.012   4.666   1.852
15869SOL    HW249567   5.971   4.575   1.722
15870SOL     OW49568   7.126   3.998   0.125
15870SOL    HW149569   7.065   3.923   0.148
15870SOL    HW249570   7.148   4.050   0.208
15871SOL     OW49571   6.889   4.562   0.042
15871SOL    HW149572   6.923   4.469   0.057
15871SOL    HW249573   6.907   4.589  -0.053
15872SOL     OW49574   6.654   5.057   0.849
15872SOL    HW149575   6.661   4.973   0.794
15872SOL    HW249576   6.716   5.126   0.813
15873SOL     OW49577   5.905   4.534   0.949
15873SOL    HW149578   5.998   4.570   0.954
15873SOL    HW249579   5.899   4.449   1.001
15874SOL     OW49580   5.925   4.233   1.006
15874SOL    HW149581   5.873   4.150   0.989
15874SOL    HW249582   6.002   4.238   0.942
15875SOL     OW49583   6.097   4.139   1.808
15875SOL    HW149584   6.079   4.184   1.896
15875SOL    HW249585   6.139   4.204   1.745
15876SOL     OW49586   6.724   4.104   1.678
15876SOL    HW149587   6.679   4.167   1.742
15876SOL    HW249588   6.817   4.135   1.661
15877SOL     OW49589   6.746   3.931   1.477
15877SOL    HW149590   6.746   3.995   1.554
15877SOL    HW249591   6.774   3.979   1.394
15878SOL     OW49592   5.594   5.050   0.200
15878SOL    HW149593   5.501   5.071   0.169
15878SOL    HW249594   5.604   4.951   0.213
15879SOL     OW49595   5.674   5.525   0.927
15879SOL    HW149596   5.632   5.439   0.900
15879SOL    HW249597   5.768   5.528   0.893
15880SOL     OW49598   6.090   5.292   0.910
15880SOL    HW149599   6.156   5.366   0.919
15880SOL    HW249600   6.134   5.213   0.868
15881SOL     OW49601   6.588   4.520   1.238
15881SOL    HW149602   6.629   4.488   1.324
15881SOL    HW249603   6.492   4.493   1.235
15882SOL     OW49604   5.626   4.268   1.114
15882SOL    HW149605   5.711   4.235   1.073
15882SOL    HW249606   5.639   4.283   1.212
15883SOL     OW49607   6.955   4.674   1.660
15883SOL    HW149608   6.994   4.763   1.680
15883SOL    HW249609   6.965   4.654   1.563
15884SOL     OW49610   6.401   4.296   0.325
15884SOL    HW149611   6.408   4.207   0.279
15884SOL    HW249612   6.307   4.330   0.317
15885SOL     OW49613   7.243   4.328   1.206
15885SOL    HW149614   7.205   4.259   1.268
15885SOL    HW249615   7.325   4.292   1.162
15886SOL     OW49616   6.257   4.188   1.269
15886SOL    HW149617   6.223   4.099   1.239
15886SOL    HW249618   6.283   4.242   1.189
15887SOL     OW49619   6.516   5.402   1.465
15887SOL    HW149620   6.492   5.384   1.370
15887SOL    HW249621   6.546   5.496   1.475
15888SOL     OW49622   6.059   4.224   0.191
15888SOL    HW149623   6.120   4.304   0.195
15888SOL    HW249624   5.964   4.255   0.198
15889SOL     OW49625   6.933   4.783   1.234
15889SOL    HW149626   6.957   4.720   1.160
15889SOL    HW249627   6.843   4.823   1.216
15890SOL     OW49628   6.888   4.579   0.309
15890SOL    HW149629   6.802   4.548   0.351
15890SOL    HW249630   6.884   4.565   0.210
15891SOL     OW49631   7.345   5.471   1.154
15891SOL    HW149632   7.406   5.501   1.081
15891SOL    HW249633   7.307   5.382   1.132
15892SOL     OW49634   6.838   5.455   1.128
15892SOL    HW149635   6.922   5.460   1.074
15892SOL    HW249636   6.815   5.359   1.146
15893SOL     OW49637   5.669   4.982   1.022
15893SOL    HW149638   5.664   4.981   1.122
15893SOL    HW249639   5.586   4.941   0.984
15894SOL     OW49640   6.274   5.386   1.716
15894SOL    HW149641   6.218   5.467   1.725
15894SOL    HW249642   6.326   5.390   1.630
15895SOL     OW49643   6.489   3.810   0.133
15895SOL    HW149644   6.540   3.811   0.047
15895SOL    HW249645   6.545   3.768   0.204
15896SOL     OW49646   7.312   3.859   0.523
15896SOL    HW149647   7.385   3.842   0.456
15896SOL    HW249648   7.281   3.772   0.561
15897SOL     OW49649   6.974   5.297   0.477
15897SOL    HW149650   7.041   5.309   0.403
15897SOL    HW249651   6.934   5.386   0.500
15898SOL     OW49652   5.716   5.518   1.851
15898SOL    HW149653   5.675   5.444   1.904
15898SOL    HW249654   5.780   5.569   1.909
15899SOL     OW49655   6.866   4.651   0.672
15899SOL    HW149656   6.926   4.570   0.674
15899SOL    HW249657   6.906   4.720   0.612
15900SOL     OW49658   6.416   4.997   1.422
15900SOL    HW149659   6.411   5.030   1.517
15900SOL    HW249660   6.330   5.016   1.376
15901SOL     OW49661   6.258   5.340   0.154
15901SOL    HW149662   6.267   5.350   0.055
15901SOL    HW249663   6.218   5.251   0.175
15902SOL     OW49664   7.236   5.444   1.394
15902SOL    HW149665   7.289   5.454   1.310
15902SOL    HW249666   7.209   5.534   1.428
15903SOL     OW49667   5.849   4.050   0.720
15903SOL    HW149668   5.770   4.101   0.686
15903SOL    HW249669   5.840   4.035   0.818
15904SOL     OW49670   6.780   5.336   0.031
15904SOL    HW149671   6.786   5.243   0.068
15904SOL    HW249672   6.721   5.336  -0.049
15905SOL     OW49673   6.408   4.726   1.372
15905SOL    HW149674   6.448   4.725   1.280
15905SOL    HW249675   6.418   4.818   1.412
15906SOL     OW49676   6.502   4.634   0.291
15906SOL    HW149677   6.565   4.672   0.223
15906SOL    HW249678   6.542   4.551   0.330
15907SOL     OW49679   7.090   5.331   0.044
15907SOL    HW149680   6.998   5.368   0.051
15907SOL    HW249681   7.128   5.351  -0.046
15908SOL     OW49682   7.200   5.016   1.289
15908SOL    HW149683   7.260   5.019   1.369
15908SOL    HW249684   7.125   5.080   1.302
15909SOL     OW49685   6.625   4.822   0.696
15909SOL    HW149686   6.555   4.775   0.750
15909SOL    HW249687   6.684   4.754   0.653
15910SOL     OW49688   6.600   3.960   0.971
15910SOL    HW149689   6.592   3.924   0.878
15910SOL    HW249690   6.598   3.884   1.036
15911SOL     OW49691   6.176   5.211   0.491
15911SOL    HW149692   6.218   5.153   0.421
15911SOL    HW249693   6.132   5.290   0.447
15912SOL     OW49694   7.295   4.109   1.381
15912SOL    HW149695   7.368   4.178   1.385
15912SOL    HW249696   7.323   4.034   1.322
15913SOL     OW49697   5.841   5.072   0.290
15913SOL    HW149698   5.745   5.073   0.263
15913SOL    HW249699   5.853   5.125   0.374
15914SOL     OW49700   6.258   3.927   1.489
15914SOL    HW149701   6.348   3.911   1.449
15914SOL    HW249702   6.266   3.932   1.588
15915SOL     OW49703   7.026   4.580   1.398
15915SOL    HW149704   6.969   4.632   1.335
15915SOL    HW249705   7.122   4.592   1.374
15916SOL     OW49706   5.658   3.890   0.318
15916SOL    HW149707   5.641   3.973   0.264
15916SOL    HW249708   5.748   3.853   0.296
15917SOL     OW49709   6.769   5.059   0.119
15917SOL    HW149710   6.670   5.048   0.121
15917SOL    HW249711   6.803   5.074   0.212
15918SOL     OW49712   6.199   4.566   1.431
15918SOL    HW149713   6.255   4.647   1.414
15918SOL    HW249714   6.258   4.486   1.434
15919SOL     OW49715   7.079   5.491   0.959
15919SOL    HW149716   7.112   5.555   0.890
15919SOL    HW249717   7.145   5.485   1.034
15920SOL     OW49718   6.302   4.289   1.708
15920SOL    HW149719   6.321   4.354   1.782
15920SOL    HW249720   6.362   4.209   1.717
15921SOL     OW49721   7.036   4.944   1.633
15921SOL    HW149722   7.027   4.934   1.732
15921SOL    HW249723   7.132   4.937   1.607
15922SOL     OW49724   5.976   5.465   1.560
15922SOL    HW149725   5.885   5.506   1.558
15922SOL    HW249726   5.969   5.371   1.592
15923SOL     OW49727   7.260   4.607   1.254
15923SOL    HW149728   7.233   4.518   1.217
15923SOL    HW249729   7.261   4.675   1.181
15924SOL     OW49730   6.811   4.049   0.449
15924SOL    HW149731   6.876   3.975   0.438
15924SOL    HW249732   6.831   4.099   0.533
15925SOL     OW49733   6.180   4.469   0.652
15925SOL    HW149734   6.230   4.554   0.633
15925SOL    HW249735   6.092   4.471   0.604
15926SOL     OW49736   7.316   4.658   1.517
15926SOL    HW149737   7.354   4.749   1.532
15926SOL    HW249738   7.308   4.641   1.418
15927SOL     OW49739   6.445   5.098   0.016
15927SOL    HW149740   6.399   5.113   0.104
15927SOL    HW249741   6.489   5.183  -0.014
15928SOL     OW49742   6.247   5.514   0.953
15928SOL    HW149743   6.201   5.602   0.940
15928SOL    HW249744   6.346   5.526   0.946
15929SOL     OW49745   6.994   5.575   1.720
15929SOL    HW149746   6.898   5.564   1.693
15929SOL    HW249747   7.050   5.508   1.672
15930SOL     OW49748   6.445   4.680   0.861
15930SOL    HW149749   6.499   4.611   0.909
15930SOL    HW249750   6.413   4.749   0.927
15931SOL     OW49751   6.669   4.708   0.087
15931SOL    HW149752   6.646   4.761   0.005
15931SOL    HW249753   6.750   4.652   0.068
15932SOL     OW49754   7.447   5.293   0.851
15932SOL    HW149755   7.376   5.281   0.781
15932SOL    HW249756   7.448   5.214   0.911
15933SOL     OW49757   5.665   4.964   0.653
15933SOL    HW149758   5.664   4.917   0.741
15933SOL    HW249759   5.747   4.936   0.602
15934SOL     OW49760   6.258   5.115   1.624
15934SOL    HW149761   6.180   5.065   1.662
15934SOL    HW249762   6.255   5.210   1.655
15935SOL     OW49763   7.410   3.916   1.227
15935SOL    HW149764   7.406   3.826   1.271
15935SOL    HW249765   7.413   3.905   1.128
15936SOL     OW49766   6.014   4.148   0.520
15936SOL    HW149767   6.044   4.076   0.458
15936SOL    HW249768   5.975   4.108   0.603
15937SOL     OW49769   7.291   5.211   1.104
15937SOL    HW149770   7.198   5.186   1.077
15937SOL    HW249771   7.317   5.161   1.186
15938SOL     OW49772   5.903   4.271   1.280
15938SOL    HW149773   5.941   4.212   1.352
15938SOL    HW249774   5.943   4.245   1.192
15939SOL     OW49775   6.398   5.310   0.687
15939SOL    HW149776   6.430   5.320   0.593
15939SOL    HW249777   6.319   5.248   0.689
15940SOL     OW49778   7.010   3.938   1.112
15940SOL    HW149779   7.062   3.873   1.167
15940SOL    HW249780   6.961   4.001   1.173
15941SOL     OW49781   6.587   3.758   1.154
15941SOL    HW149782   6.524   3.686   1.123
15941SOL    HW249783   6.680   3.722   1.154
15942SOL     OW49784   6.356   5.054   0.301
15942SOL    HW149785   6.310   4.967   0.318
15942SOL    HW249786   6.447   5.051   0.342
15943SOL     OW49787   6.204   5.291   1.284
15943SOL    HW149788   6.199   5.373   1.341
15943SOL    HW249789   6.293   5.288   1.239
15944SOL     OW49790   6.886   4.177   0.691
15944SOL    HW149791   6.827   4.257   0.695
15944SOL    HW249792   6.901   4.142   0.784
15945SOL     OW49793   7.179   3.945   0.882
15945SOL    HW149794   7.095   3.944   0.936
15945SOL    HW249795   7.181   4.028   0.826
15946SOL     OW49796   5.625   4.801   0.300
15946SOL    HW149797   5.724   4.790   0.291
15946SOL    HW249798   5.585   4.715   0.332
15947SOL     OW49799   6.461   5.370   0.337
15947SOL    HW149800   6.384   5.335   0.283
15947SOL    HW249801   6.429   5.441   0.399
15948SOL     OW49802   5.605   4.092   2.509
15948SOL    HW149803   5.523   4.135   2.548
15948SOL    HW249804   5.577   4.019   2.446
15949SOL     OW49805   6.155   4.999   3.027
15949SOL    HW149806   6.062   4.992   2.990
15949SOL    HW249807   6.166   5.088   3.071
15950SOL     OW49808   7.141   5.235   2.565
15950SOL    HW149809   7.084   5.219   2.646
15950SOL    HW249810   7.082   5.245   2.485
15951SOL     OW49811   7.329   4.342   2.718
15951SOL    HW149812   7.362   4.436   2.718
15951SOL    HW249813   7.380   4.288   2.784
15952SOL     OW49814   6.721   4.427   2.579
15952SOL    HW149815   6.778   4.505   2.554
15952SOL    HW249816   6.661   4.453   2.655
15953SOL     OW49817   7.341   4.331   2.093
15953SOL    HW149818   7.329   4.318   1.994
15953SOL    HW249819   7.311   4.250   2.142
15954SOL     OW49820   6.354   4.868   2.885
15954SOL    HW149821   6.276   4.885   2.945
15954SOL    HW249822   6.388   4.955   2.849
15955SOL     OW49823   6.436   4.522   3.685
15955SOL    HW149824   6.432   4.598   3.750
15955SOL    HW249825   6.458   4.558   3.594
15956SOL     OW49826   6.271   4.736   2.527
15956SOL    HW149827   6.340   4.720   2.597
15956SOL    HW249828   6.198   4.793   2.565
15957SOL     OW49829   6.272   4.885   3.665
15957SOL    HW149830   6.332   4.964   3.679
15957SOL    HW249831   6.186   4.916   3.624
15958SOL     OW49832   5.921   5.159   2.923
15958SOL    HW149833   5.843   5.128   2.870
15958SOL    HW249834   5.979   5.217   2.866
15959SOL     OW49835   7.046   5.229   3.201
15959SOL    HW149836   7.070   5.323   3.227
15959SOL    HW249837   7.030   5.175   3.283
15960SOL     OW49838   6.024   4.116   3.361
15960SOL    HW149839   6.106   4.060   3.370
15960SOL    HW249840   5.943   4.058   3.365
15961SOL     OW49841   7.189   4.171   2.599
15961SOL    HW149842   7.115   4.217   2.549
15961SOL    HW249843   7.240   4.239   2.652
15962SOL     OW49844   5.817   5.437   2.345
15962SOL    HW149845   5.851   5.514   2.399
15962SOL    HW249846   5.861   5.437   2.255
15963SOL     OW49847   6.713   5.065   3.552
15963SOL    HW149848   6.760   5.065   3.640
15963SOL    HW249849   6.665   4.978   3.541
15964SOL     OW49850   5.816   5.158   2.400
15964SOL    HW149851   5.790   5.254   2.400
15964SOL    HW249852   5.745   5.104   2.445
15965SOL     OW49853   5.826   4.815   2.748
15965SOL    HW149854   5.840   4.731   2.800
15965SOL    HW249855   5.771   4.879   2.803
15966SOL     OW49856   6.206   5.510   3.301
15966SOL    HW149857   6.114   5.493   3.336
15966SOL    HW249858   6.234   5.602   3.327
15967SOL     OW49859   6.192   4.688   1.985
15967SOL    HW149860   6.199   4.772   1.931
15967SOL    HW249861   6.238   4.701   2.073
15968SOL     OW49862   7.180   3.838   3.342
15968SOL    HW149863   7.162   3.905   3.270
15968SOL    HW249864   7.177   3.884   3.431
15969SOL     OW49865   5.708   4.367   2.425
15969SOL    HW149866   5.663   4.279   2.442
15969SOL    HW249867   5.707   4.421   2.509
15970SOL     OW49868   5.613   5.320   1.979
15970SOL    HW149869   5.594   5.224   2.000
15970SOL    HW249870   5.580   5.378   2.054
15971SOL     OW49871   7.275   4.646   2.474
15971SOL    HW149872   7.370   4.617   2.482
15971SOL    HW249873   7.267   4.711   2.399
15972SOL     OW49874   5.699   4.461   3.459
15972SOL    HW149875   5.787   4.448   3.504
15972SOL    HW249876   5.686   4.558   3.437
15973SOL     OW49877   6.879   4.952   3.285
15973SOL    HW149878   6.916   4.879   3.227
15973SOL    HW249879   6.931   4.957   3.370
15974SOL     OW49880   5.783   4.700   3.126
15974SOL    HW149881   5.872   4.655   3.112
15974SOL    HW249882   5.710   4.635   3.107
15975SOL     OW49883   7.111   4.723   2.052
15975SOL    HW149884   7.048   4.647   2.065
15975SOL    HW249885   7.159   4.741   2.138
15976SOL     OW49886   6.773   5.516   3.478
15976SOL    HW149887   6.797   5.576   3.402
15976SOL    HW249888   6.780   5.421   3.448
15977SOL     OW49889   5.903   3.975   3.663
15977SOL    HW149890   5.974   4.046   3.669
15977SOL    HW249891   5.815   4.014   3.691
15978SOL     OW49892   7.052   5.141   2.815
15978SOL    HW149893   6.993   5.147   2.895
15978SOL    HW249894   7.037   5.053   2.769
15979SOL     OW49895   6.184   4.453   2.132
15979SOL    HW149896   6.208   4.522   2.064
15979SOL    HW249897   6.106   4.486   2.186
15980SOL     OW49898   6.867   4.069   2.806
15980SOL    HW149899   6.781   4.019   2.793
15980SOL    HW249900   6.929   4.015   2.862
15981SOL     OW49901   6.393   4.329   3.327
15981SOL    HW149902   6.346   4.326   3.416
15981SOL    HW249903   6.342   4.274   3.261
15982SOL     OW49904   6.980   4.193   3.536
15982SOL    HW149905   6.960   4.236   3.624
15982SOL    HW249906   7.058   4.131   3.545
15983SOL     OW49907   6.559   4.614   3.434
15983SOL    HW149908   6.605   4.530   3.405
15983SOL    HW249909   6.503   4.648   3.359
15984SOL     OW49910   6.577   4.134   3.104
15984SOL    HW149911   6.500   4.168   3.158
15984SOL    HW249912   6.543   4.083   3.025
15985SOL     OW49913   6.627   4.425   2.291
15985SOL    HW149914   6.653   4.421   2.387
15985SOL    HW249915   6.542   4.374   2.277
15986SOL     OW49916   5.662   4.535   2.651
15986SOL    HW149917   5.761   4.523   2.660
15986SOL    HW249918   5.638   4.630   2.672
15987SOL     OW49919   5.716   5.545   3.433
15987SOL    HW149920   5.706   5.530   3.532
15987SOL    HW249921   5.630   5.581   3.397
15988SOL     OW49922   7.305   4.309   3.693
15988SOL    HW149923   7.279   4.398   3.657
15988SOL    HW249924   7.303   4.241   3.620
15989SOL     OW49925   5.937   5.525   2.715
15989SOL    HW149926   5.987   5.439   2.721
15989SOL    HW249927   6.002   5.602   2.712
15990SOL     OW49928   7.381   4.790   2.735
15990SOL    HW149929   7.319   4.775   2.659
15990SOL    HW249930   7.329   4.801   2.820
15991SOL     OW49931   6.813   5.274   3.368
15991SOL    HW149932   6.819   5.197   3.432
15991SOL    HW249933   6.761   5.248   3.288
15992SOL     OW49934   7.044   4.459   2.590
15992SOL    HW149935   7.039   4.394   2.665
15992SOL    HW249936   7.124   4.518   2.603
15993SOL     OW49937   6.047   4.990   3.589
15993SOL    HW149938   5.997   4.991   3.503
15993SOL    HW249939   5.984   4.972   3.665
15994SOL     OW49940   5.788   4.009   3.360
15994SOL    HW149941   5.708   4.069   3.347
15994SOL    HW249942   5.778   3.960   3.446
15995SOL     OW49943   7.218   5.101   1.943
15995SOL    HW149944   7.186   5.195   1.933
15995SOL    HW249945   7.142   5.038   1.931
15996SOL     OW49946   6.986   3.831   2.288
15996SOL    HW149947   6.962   3.794   2.198
15996SOL    HW249948   7.085   3.847   2.292
15997SOL     OW49949   5.835   5.509   3.103
15997SOL    HW149950   5.892   5.444   3.153
15997SOL    HW249951   5.819   5.476   3.010
15998SOL     OW49952   5.968   4.424   2.342
15998SOL    HW149953   6.013   4.334   2.339
15998SOL    HW249954   5.874   4.413   2.375
15999SOL     OW49955   7.133   3.946   3.591
15999SOL    HW149956   7.128   3.983   3.683
15999SOL    HW249957   7.061   3.877   3.579
16000SOL     OW49958   6.367   3.988   3.611
16000SOL    HW149959   6.434   3.927   3.654
16000SOL    HW249960   6.294   4.007   3.676
16001SOL     OW49961   6.474   5.238   3.057
16001SOL    HW149962   6.451   5.213   2.963
16001SOL    HW249963   6.535   5.169   3.096
16002SOL     OW49964   6.937   4.314   3.295
16002SOL    HW149965   6.965   4.271   3.380
16002SOL    HW249966   6.962   4.410   3.296
16003SOL     OW49967   6.508   4.227   2.761
16003SOL    HW149968   6.483   4.218   2.665
16003SOL    HW249969   6.556   4.145   2.792
16004SOL     OW49970   7.020   4.912   1.903
16004SOL    HW149971   7.052   4.836   1.960
16004SOL    HW249972   6.928   4.939   1.933
16005SOL     OW49973   6.662   4.407   3.326
16005SOL    HW149974   6.582   4.346   3.329
16005SOL    HW249975   6.743   4.354   3.302
16006SOL     OW49976   6.813   5.294   2.655
16006SOL    HW149977   6.834   5.368   2.590
16006SOL    HW249978   6.881   5.294   2.728
16007SOL     OW49979   6.045   4.876   2.603
16007SOL    HW149980   5.974   4.849   2.668
16007SOL    HW249981   6.019   4.848   2.510
16008SOL     OW49982   6.618   4.273   1.878
16008SOL    HW149983   6.577   4.355   1.839
16008SOL    HW249984   6.682   4.299   1.951
16009SOL     OW49985   5.664   4.280   3.248
16009SOL    HW149986   5.756   4.279   3.207
16009SOL    HW249987   5.658   4.354   3.315
16010SOL     OW49988   6.147   3.946   3.009
16010SOL    HW149989   6.185   3.862   3.046
16010SOL    HW249990   6.059   3.965   3.053
16011SOL     OW49991   6.452   4.178   2.504
16011SOL    HW149992   6.420   4.250   2.442
16011SOL    HW249993   6.476   4.097   2.451
16012SOL     OW49994   6.603   3.763   2.615
16012SOL    HW149995   6.531   3.768   2.546
16012SOL    HW249996   6.579   3.694   2.684
16013SOL     OW49997   7.015   4.897   2.729
16013SOL    HW149998   6.960   4.813   2.722
16013SOL    HW249999   7.041   4.926   2.637
16014SOL     OW50000   7.052   4.314   2.854
16014SOL    HW150001   7.022   4.219   2.861
16014SOL    HW250002   7.125   4.330   2.920
16015SOL     OW50003   7.443   4.557   2.239
16015SOL    HW150004   7.485   4.493   2.303
16015SOL    HW250005   7.405   4.506   2.161
16016SOL     OW50006   6.976   4.299   1.940
16016SOL    HW150007   6.922   4.278   2.021
16016SOL    HW250008   7.067   4.258   1.949
16017SOL     OW50009   6.113   3.980   2.190
16017SOL    HW150010   6.140   3.921   2.115
16017SOL    HW250011   6.113   4.075   2.159
16018SOL     OW50012   7.340   4.947   3.450
16018SOL    HW150013   7.431   4.908   3.437
16018SOL    HW250014   7.348   5.043   3.474
16019SOL     OW50015   6.650   5.071   3.202
16019SOL    HW150016   6.570   5.048   3.257
16019SOL    HW250017   6.733   5.045   3.251
16020SOL     OW50018   7.178   5.353   3.487
16020SOL    HW150019   7.205   5.387   3.397
16020SOL    HW250020   7.257   5.315   3.533
16021SOL     OW50021   6.697   4.919   2.962
16021SOL    HW150022   6.657   4.963   3.043
16021SOL    HW250023   6.656   4.956   2.879
16022SOL     OW50024   7.224   4.823   2.941
16022SOL    HW150025   7.229   4.904   3.000
16022SOL    HW250026   7.138   4.825   2.890
16023SOL     OW50027   6.501   3.813   3.264
16023SOL    HW150028   6.526   3.793   3.169
16023SOL    HW250029   6.573   3.869   3.306
16024SOL     OW50030   6.566   4.840   3.581
16024SOL    HW150031   6.467   4.846   3.591
16024SOL    HW250032   6.589   4.760   3.525
16025SOL     OW50033   6.291   4.774   2.230
16025SOL    HW150034   6.277   4.781   2.329
16025SOL    HW250035   6.375   4.723   2.212
16026SOL     OW50036   5.996   4.537   3.113
16026SOL    HW150037   6.082   4.549   3.163
16026SOL    HW250038   5.954   4.450   3.140
16027SOL     OW50039   6.860   4.110   3.124
16027SOL    HW150040   6.881   4.184   3.188
16027SOL    HW250041   6.771   4.127   3.081
16028SOL     OW50042   5.650   5.288   3.193
16028SOL    HW150043   5.604   5.370   3.159
16028SOL    HW250044   5.748   5.307   3.202
16029SOL     OW50045   6.152   4.261   2.727
16029SOL    HW150046   6.164   4.327   2.653
16029SOL    HW250047   6.198   4.295   2.810
16030SOL     OW50048   6.858   5.169   3.004
16030SOL    HW150049   6.905   5.182   3.091
16030SOL    HW250050   6.792   5.095   3.013
16031SOL     OW50051   7.168   4.363   2.334
16031SOL    HW150052   7.137   4.424   2.407
16031SOL    HW250053   7.218   4.415   2.265
16032SOL     OW50054   5.940   5.234   3.191
16032SOL    HW150055   5.919   5.190   3.104
16032SOL    HW250056   6.037   5.260   3.194
16033SOL     OW50057   5.988   4.475   3.460
16033SOL    HW150058   6.056   4.530   3.413
16033SOL    HW250059   6.028   4.387   3.487
16034SOL     OW50060   7.173   4.503   3.532
16034SOL    HW150061   7.081   4.541   3.527
16034SOL    HW250062   7.233   4.550   3.467
16035SOL     OW50063   6.599   3.829   3.632
16035SOL    HW150064   6.605   3.914   3.580
16035SOL    HW250065   6.631   3.753   3.575
16036SOL     OW50066   6.090   3.774   3.602
16036SOL    HW150067   6.048   3.717   3.532
16036SOL    HW250068   6.024   3.843   3.634
16037SOL     OW50069   6.159   4.594   2.891
16037SOL    HW150070   6.203   4.683   2.882
16037SOL    HW250071   6.096   4.594   2.968
16038SOL     OW50072   6.946   4.586   2.907
16038SOL    HW150073   6.871   4.586   2.841
16038SOL    HW250074   6.983   4.494   2.916
16039SOL     OW50075   6.795   4.249   2.137
16039SOL    HW150076   6.808   4.165   2.191
16039SOL    HW250077   6.766   4.323   2.197
16040SOL     OW50078   5.623   5.034   3.144
16040SOL    HW150079   5.676   4.985   3.212
16040SOL    HW250080   5.645   5.132   3.149
16041SOL     OW50081   6.318   4.358   2.926
16041SOL    HW150082   6.377   4.332   2.850
16041SOL    HW250083   6.290   4.454   2.915
16042SOL     OW50084   5.893   3.787   2.480
16042SOL    HW150085   5.882   3.881   2.513
16042SOL    HW250086   5.888   3.724   2.557
16043SOL     OW50087   7.208   4.091   2.236
16043SOL    HW150088   7.210   4.015   2.300
16043SOL    HW250089   7.160   4.168   2.276
16044SOL     OW50090   6.609   4.490   2.828
16044SOL    HW150091   6.624   4.511   2.924
16044SOL    HW250092   6.579   4.395   2.819
16045SOL     OW50093   6.566   5.297   3.562
16045SOL    HW150094   6.546   5.341   3.474
16045SOL    HW250095   6.605   5.206   3.546
16046SOL     OW50096   7.445   5.242   3.467
16046SOL    HW150097   7.459   5.269   3.372
16046SOL    HW250098   7.528   5.264   3.520
16047SOL     OW50099   5.936   4.622   3.666
16047SOL    HW150100   6.012   4.666   3.714
16047SOL    HW250101   5.971   4.575   3.584
16048SOL     OW50102   7.126   3.998   1.987
16048SOL    HW150103   7.065   3.923   2.010
16048SOL    HW250104   7.148   4.050   2.070
16049SOL     OW50105   6.889   4.562   1.904
16049SOL    HW150106   6.923   4.469   1.919
16049SOL    HW250107   6.907   4.589   1.809
16050SOL     OW50108   5.905   4.534   2.811
16050SOL    HW150109   5.998   4.570   2.816
16050SOL    HW250110   5.899   4.449   2.863
16051SOL     OW50111   5.925   4.233   2.868
16051SOL    HW150112   5.873   4.150   2.851
16051SOL    HW250113   6.002   4.238   2.804
16052SOL     OW50114   6.097   4.139   3.670
16052SOL    HW150115   6.079   4.184   3.758
16052SOL    HW250116   6.139   4.204   3.607
16053SOL     OW50117   6.724   4.104   3.540
16053SOL    HW150118   6.679   4.167   3.604
16053SOL    HW250119   6.817   4.135   3.523
16054SOL     OW50120   6.746   3.931   3.339
16054SOL    HW150121   6.746   3.995   3.416
16054SOL    HW250122   6.774   3.979   3.256
16055SOL     OW50123   5.594   5.050   2.062
16055SOL    HW150124   5.501   5.071   2.031
16055SOL    HW250125   5.604   4.951   2.075
16056SOL     OW50126   5.674   5.525   2.789
16056SOL    HW150127   5.632   5.439   2.762
16056SOL    HW250128   5.768   5.528   2.755
16057SOL     OW50129   6.090   5.292   2.772
16057SOL    HW150130   6.156   5.366   2.781
16057SOL    HW250131   6.134   5.213   2.730
16058SOL     OW50132   6.588   4.520   3.100
16058SOL    HW150133   6.629   4.488   3.186
16058SOL    HW250134   6.492   4.493   3.097
16059SOL     OW50135   5.626   4.268   2.976
16059SOL    HW150136   5.711   4.235   2.935
16059SOL    HW250137   5.639   4.283   3.074
16060SOL     OW50138   5.775   4.244   3.584
16060SOL    HW150139   5.834   4.204   3.514
16060SOL    HW250140   5.717   4.315   3.543
16061SOL     OW50141   6.955   4.674   3.522
16061SOL    HW150142   6.994   4.763   3.542
16061SOL    HW250143   6.965   4.654   3.425
16062SOL     OW50144   6.401   4.296   2.187
16062SOL    HW150145   6.408   4.207   2.141
16062SOL    HW250146   6.307   4.330   2.179
16063SOL     OW50147   7.243   4.328   3.068
16063SOL    HW150148   7.205   4.259   3.130
16063SOL    HW250149   7.325   4.292   3.024
16064SOL     OW50150   5.838   5.288   3.606
16064SOL    HW150151   5.808   5.345   3.682
16064SOL    HW250152   5.831   5.191   3.632
16065SOL     OW50153   6.257   4.188   3.131
16065SOL    HW150154   6.223   4.099   3.101
16065SOL    HW250155   6.283   4.242   3.051
16066SOL     OW50156   6.516   5.402   3.327
16066SOL    HW150157   6.492   5.384   3.232
16066SOL    HW250158   6.546   5.496   3.337
16067SOL     OW50159   6.059   4.224   2.053
16067SOL    HW150160   6.120   4.304   2.057
16067SOL    HW250161   5.964   4.255   2.060
16068SOL     OW50162   5.745   4.861   3.328
16068SOL    HW150163   5.767   4.800   3.404
16068SOL    HW250164   5.755   4.812   3.242
16069SOL     OW50165   6.933   4.783   3.096
16069SOL    HW150166   6.957   4.720   3.022
16069SOL    HW250167   6.843   4.823   3.078
16070SOL     OW50168   6.888   4.579   2.171
16070SOL    HW150169   6.802   4.548   2.213
16070SOL    HW250170   6.884   4.565   2.072
16071SOL     OW50171   6.838   5.455   2.990
16071SOL    HW150172   6.922   5.460   2.936
16071SOL    HW250173   6.815   5.359   3.008
16072SOL     OW50174   5.669   4.982   2.884
16072SOL    HW150175   5.664   4.981   2.984
16072SOL    HW250176   5.586   4.941   2.846
16073SOL     OW50177   6.274   5.386   3.578
16073SOL    HW150178   6.218   5.467   3.587
16073SOL    HW250179   6.326   5.390   3.492
16074SOL     OW50180   7.312   3.859   2.385
16074SOL    HW150181   7.385   3.842   2.318
16074SOL    HW250182   7.281   3.772   2.423
16075SOL     OW50183   5.716   5.518   3.713
16075SOL    HW150184   5.675   5.444   3.766
16075SOL    HW250185   5.780   5.569   3.771
16076SOL     OW50186   6.866   4.651   2.534
16076SOL    HW150187   6.926   4.570   2.536
16076SOL    HW250188   6.906   4.720   2.474
16077SOL     OW50189   6.416   4.997   3.284
16077SOL    HW150190   6.411   5.030   3.379
16077SOL    HW250191   6.330   5.016   3.238
16078SOL     OW50192   7.427   3.899   2.825
16078SOL    HW150193   7.466   3.814   2.789
16078SOL    HW250194   7.329   3.901   2.806
16079SOL     OW50195   5.849   4.050   2.582
16079SOL    HW150196   5.770   4.101   2.548
16079SOL    HW250197   5.840   4.035   2.680
16080SOL     OW50198   6.780   5.336   1.893
16080SOL    HW150199   6.786   5.243   1.930
16080SOL    HW250200   6.721   5.336   1.813
16081SOL     OW50201   6.408   4.726   3.234
16081SOL    HW150202   6.448   4.725   3.142
16081SOL    HW250203   6.418   4.818   3.274
16082SOL     OW50204   6.502   4.634   2.153
16082SOL    HW150205   6.565   4.672   2.085
16082SOL    HW250206   6.542   4.551   2.192
16083SOL     OW50207   7.090   5.331   1.906
16083SOL    HW150208   6.998   5.368   1.913
16083SOL    HW250209   7.128   5.351   1.816
16084SOL     OW50210   5.958   5.012   3.352
16084SOL    HW150211   5.945   5.105   3.318
16084SOL    HW250212   5.874   4.960   3.339
16085SOL     OW50213   7.200   5.016   3.151
16085SOL    HW150214   7.260   5.019   3.231
16085SOL    HW250215   7.125   5.080   3.164
16086SOL     OW50216   6.625   4.822   2.558
16086SOL    HW150217   6.555   4.775   2.612
16086SOL    HW250218   6.684   4.754   2.515
16087SOL     OW50219   6.600   3.960   2.833
16087SOL    HW150220   6.592   3.924   2.740
16087SOL    HW250221   6.598   3.884   2.898
16088SOL     OW50222   7.295   4.109   3.243
16088SOL    HW150223   7.368   4.178   3.247
16088SOL    HW250224   7.323   4.034   3.184
16089SOL     OW50225   5.841   5.072   2.152
16089SOL    HW150226   5.745   5.073   2.125
16089SOL    HW250227   5.853   5.125   2.236
16090SOL     OW50228   5.691   4.737   3.588
16090SOL    HW150229   5.614   4.704   3.642
16090SOL    HW250230   5.776   4.707   3.630
16091SOL     OW50231   6.258   3.927   3.351
16091SOL    HW150232   6.348   3.911   3.311
16091SOL    HW250233   6.266   3.932   3.450
16092SOL     OW50234   5.661   4.069   1.895
16092SOL    HW150235   5.569   4.041   1.866
16092SOL    HW250236   5.692   4.146   1.839
16093SOL     OW50237   7.026   4.580   3.260
16093SOL    HW150238   6.969   4.632   3.197
16093SOL    HW250239   7.122   4.592   3.236
16094SOL     OW50240   5.658   3.890   2.180
16094SOL    HW150241   5.641   3.973   2.126
16094SOL    HW250242   5.748   3.853   2.158
16095SOL     OW50243   6.199   4.566   3.293
16095SOL    HW150244   6.255   4.647   3.276
16095SOL    HW250245   6.258   4.486   3.296
16096SOL     OW50246   7.079   5.491   2.821
16096SOL    HW150247   7.112   5.555   2.752
16096SOL    HW250248   7.145   5.485   2.896
16097SOL     OW50249   6.302   4.289   3.570
16097SOL    HW150250   6.321   4.354   3.644
16097SOL    HW250251   6.362   4.209   3.579
16098SOL     OW50252   7.036   4.944   3.495
16098SOL    HW150253   7.027   4.934   3.594
16098SOL    HW250254   7.132   4.937   3.469
16099SOL     OW50255   5.976   5.465   3.422
16099SOL    HW150256   5.885   5.506   3.420
16099SOL    HW250257   5.969   5.371   3.454
16100SOL     OW50258   7.260   4.607   3.116
16100SOL    HW150259   7.233   4.518   3.079
16100SOL    HW250260   7.261   4.675   3.043
16101SOL     OW50261   6.811   4.049   2.311
16101SOL    HW150262   6.876   3.975   2.300
16101SOL    HW250263   6.831   4.099   2.395
16102SOL     OW50264   6.180   4.469   2.514
16102SOL    HW150265   6.230   4.554   2.495
16102SOL    HW250266   6.092   4.471   2.466
16103SOL     OW50267   7.363   4.066   3.504
16103SOL    HW150268   7.346   4.097   3.410
16103SOL    HW250269   7.279   4.029   3.542
16104SOL     OW50270   7.316   4.658   3.379
16104SOL    HW150271   7.354   4.749   3.394
16104SOL    HW250272   7.308   4.641   3.280
16105SOL     OW50273   6.247   5.514   2.815
16105SOL    HW150274   6.201   5.602   2.802
16105SOL    HW250275   6.346   5.526   2.808
16106SOL     OW50276   6.994   5.575   3.582
16106SOL    HW150277   6.898   5.564   3.555
16106SOL    HW250278   7.050   5.508   3.534
16107SOL     OW50279   6.445   4.680   2.723
16107SOL    HW150280   6.499   4.611   2.771
16107SOL    HW250281   6.413   4.749   2.789
16108SOL     OW50282   5.807   5.038   3.706
16108SOL    HW150283   5.742   4.965   3.685
16108SOL    HW250284   5.811   5.052   3.804
16109SOL     OW50285   5.665   4.964   2.515
16109SOL    HW150286   5.664   4.917   2.603
16109SOL    HW250287   5.747   4.936   2.464
16110SOL     OW50288   6.258   5.115   3.486
16110SOL    HW150289   6.180   5.065   3.524
16110SOL    HW250290   6.255   5.210   3.517
16111SOL     OW50291   7.410   3.916   3.089
16111SOL    HW150292   7.406   3.826   3.133
16111SOL    HW250293   7.413   3.905   2.990
16112SOL     OW50294   6.014   4.148   2.382
16112SOL    HW150295   6.044   4.076   2.320
16112SOL    HW250296   5.975   4.108   2.465
16113SOL     OW50297   7.291   5.211   2.966
16113SOL    HW150298   7.198   5.186   2.939
16113SOL    HW250299   7.317   5.161   3.048
16114SOL     OW50300   5.903   4.271   3.142
16114SOL    HW150301   5.941   4.212   3.214
16114SOL    HW250302   5.943   4.245   3.054
16115SOL     OW50303   7.010   3.938   2.974
16115SOL    HW150304   7.062   3.873   3.029
16115SOL    HW250305   6.961   4.001   3.035
16116SOL     OW50306   6.587   3.758   3.016
16116SOL    HW150307   6.524   3.686   2.985
16116SOL    HW250308   6.680   3.722   3.016
16117SOL     OW50309   6.204   5.291   3.146
16117SOL    HW150310   6.199   5.373   3.203
16117SOL    HW250311   6.293   5.288   3.101
16118SOL     OW50312   6.938   3.776   2.030
16118SOL    HW150313   6.973   3.735   1.946
16118SOL    HW250314   6.848   3.738   2.050
16119SOL     OW50315   6.886   4.177   2.553
16119SOL    HW150316   6.827   4.257   2.557
16119SOL    HW250317   6.901   4.142   2.646
16120SOL     OW50318   7.179   3.945   2.744
16120SOL    HW150319   7.095   3.944   2.798
16120SOL    HW250320   7.181   4.028   2.688
16121SOL     OW50321   5.625   4.801   2.162
16121SOL    HW150322   5.724   4.790   2.153
16121SOL    HW250323   5.585   4.715   2.194
16122SOL     OW50324   6.461   5.370   2.199
16122SOL    HW150325   6.384   5.335   2.145
16122SOL    HW250326   6.429   5.441   2.261
16123SOL     OW50327   5.816   4.352   3.837
16123SOL    HW150328   5.723   4.350   3.874
16123SOL    HW250329   5.817   4.313   3.745
16124SOL     OW50330   5.811   3.999   4.720
16124SOL    HW150331   5.846   3.982   4.812
16124SOL    HW250332   5.723   3.954   4.708
16125SOL     OW50333   5.605   4.092   4.371
16125SOL    HW150334   5.523   4.135   4.410
16125SOL    HW250335   5.577   4.019   4.308
16126SOL     OW50336   6.155   4.999   4.889
16126SOL    HW150337   6.062   4.992   4.852
16126SOL    HW250338   6.166   5.088   4.933
16127SOL     OW50339   7.141   5.235   4.427
16127SOL    HW150340   7.084   5.219   4.508
16127SOL    HW250341   7.082   5.245   4.347
16128SOL     OW50342   6.721   4.427   4.441
16128SOL    HW150343   6.778   4.505   4.416
16128SOL    HW250344   6.661   4.453   4.517
16129SOL     OW50345   7.341   4.331   3.955
16129SOL    HW150346   7.329   4.318   3.856
16129SOL    HW250347   7.311   4.250   4.004
16130SOL     OW50348   6.354   4.868   4.747
16130SOL    HW150349   6.276   4.885   4.807
16130SOL    HW250350   6.388   4.955   4.711
16131SOL     OW50351   6.436   4.522   5.547
16131SOL    HW150352   6.432   4.598   5.612
16131SOL    HW250353   6.458   4.558   5.456
16132SOL     OW50354   6.271   4.736   4.389
16132SOL    HW150355   6.340   4.720   4.459
16132SOL    HW250356   6.198   4.793   4.427
16133SOL     OW50357   6.272   4.885   5.527
16133SOL    HW150358   6.332   4.964   5.541
16133SOL    HW250359   6.186   4.916   5.486
16134SOL     OW50360   5.921   5.159   4.785
16134SOL    HW150361   5.843   5.128   4.732
16134SOL    HW250362   5.979   5.217   4.728
16135SOL     OW50363   7.046   5.229   5.063
16135SOL    HW150364   7.070   5.323   5.089
16135SOL    HW250365   7.030   5.175   5.145
16136SOL     OW50366   6.024   4.116   5.223
16136SOL    HW150367   6.106   4.060   5.232
16136SOL    HW250368   5.943   4.058   5.227
16137SOL     OW50369   7.189   4.171   4.461
16137SOL    HW150370   7.115   4.217   4.411
16137SOL    HW250371   7.240   4.239   4.514
16138SOL     OW50372   5.817   5.437   4.207
16138SOL    HW150373   5.851   5.514   4.261
16138SOL    HW250374   5.861   5.437   4.117
16139SOL     OW50375   6.713   5.065   5.414
16139SOL    HW150376   6.760   5.065   5.502
16139SOL    HW250377   6.665   4.978   5.403
16140SOL     OW50378   5.816   5.158   4.262
16140SOL    HW150379   5.790   5.254   4.262
16140SOL    HW250380   5.745   5.104   4.307
16141SOL     OW50381   5.826   4.815   4.610
16141SOL    HW150382   5.840   4.731   4.662
16141SOL    HW250383   5.771   4.879   4.665
16142SOL     OW50384   6.206   5.510   5.163
16142SOL    HW150385   6.114   5.493   5.198
16142SOL    HW250386   6.234   5.602   5.189
16143SOL     OW50387   6.192   4.688   3.847
16143SOL    HW150388   6.199   4.772   3.793
16143SOL    HW250389   6.238   4.701   3.935
16144SOL     OW50390   5.708   4.367   4.287
16144SOL    HW150391   5.663   4.279   4.304
16144SOL    HW250392   5.707   4.421   4.371
16145SOL     OW50393   7.428   5.491   4.083
16145SOL    HW150394   7.482   5.462   4.163
16145SOL    HW250395   7.458   5.581   4.054
16146SOL     OW50396   5.613   5.320   3.841
16146SOL    HW150397   5.594   5.224   3.862
16146SOL    HW250398   5.580   5.378   3.916
16147SOL     OW50399   7.227   4.832   4.156
16147SOL    HW150400   7.313   4.834   4.104
16147SOL    HW250401   7.241   4.879   4.244
16148SOL     OW50402   5.699   4.461   5.321
16148SOL    HW150403   5.787   4.448   5.366
16148SOL    HW250404   5.686   4.558   5.299
16149SOL     OW50405   6.199   5.089   4.450
16149SOL    HW150406   6.150   5.002   4.459
16149SOL    HW250407   6.176   5.132   4.363
16150SOL     OW50408   6.879   4.952   5.147
16150SOL    HW150409   6.916   4.879   5.089
16150SOL    HW250410   6.931   4.957   5.232
16151SOL     OW50411   6.395   3.728   4.226
16151SOL    HW150412   6.435   3.819   4.217
16151SOL    HW250413   6.295   3.736   4.232
16152SOL     OW50414   5.783   4.700   4.988
16152SOL    HW150415   5.872   4.655   4.974
16152SOL    HW250416   5.710   4.635   4.969
16153SOL     OW50417   7.111   4.723   3.914
16153SOL    HW150418   7.048   4.647   3.927
16153SOL    HW250419   7.159   4.741   4.000
16154SOL     OW50420   6.773   5.516   5.340
16154SOL    HW150421   6.797   5.576   5.264
16154SOL    HW250422   6.780   5.421   5.310
16155SOL     OW50423   5.903   3.975   5.525
16155SOL    HW150424   5.974   4.046   5.531
16155SOL    HW250425   5.815   4.014   5.553
16156SOL     OW50426   7.052   5.141   4.677
16156SOL    HW150427   6.993   5.147   4.757
16156SOL    HW250428   7.037   5.053   4.631
16157SOL     OW50429   7.253   5.438   4.296
16157SOL    HW150430   7.212   5.415   4.208
16157SOL    HW250431   7.235   5.364   4.361
16158SOL     OW50432   6.184   4.453   3.994
16158SOL    HW150433   6.208   4.522   3.926
16158SOL    HW250434   6.106   4.486   4.048
16159SOL     OW50435   6.867   4.069   4.668
16159SOL    HW150436   6.781   4.019   4.655
16159SOL    HW250437   6.929   4.015   4.724
16160SOL     OW50438   7.162   5.386   4.031
16160SOL    HW150439   7.251   5.432   4.034
16160SOL    HW250440   7.141   5.362   3.936
16161SOL     OW50441   6.393   4.329   5.189
16161SOL    HW150442   6.346   4.326   5.278
16161SOL    HW250443   6.342   4.274   5.123
16162SOL     OW50444   6.559   4.614   5.296
16162SOL    HW150445   6.605   4.530   5.267
16162SOL    HW250446   6.503   4.648   5.221
16163SOL     OW50447   6.577   4.134   4.966
16163SOL    HW150448   6.500   4.168   5.020
16163SOL    HW250449   6.543   4.083   4.887
16164SOL     OW50450   6.627   4.425   4.153
16164SOL    HW150451   6.653   4.421   4.249
16164SOL    HW250452   6.542   4.374   4.139
16165SOL     OW50453   5.662   4.535   4.513
16165SOL    HW150454   5.761   4.523   4.522
16165SOL    HW250455   5.638   4.630   4.534
16166SOL     OW50456   5.716   5.545   5.295
16166SOL    HW150457   5.706   5.530   5.394
16166SOL    HW250458   5.630   5.581   5.259
16167SOL     OW50459   6.451   4.072   3.919
16167SOL    HW150460   6.510   4.135   3.870
16167SOL    HW250461   6.470   3.978   3.890
16168SOL     OW50462   6.948   4.868   4.269
16168SOL    HW150463   7.031   4.839   4.221
16168SOL    HW250464   6.899   4.935   4.213
16169SOL     OW50465   6.136   3.920   4.609
16169SOL    HW150466   6.131   3.915   4.709
16169SOL    HW250467   6.138   4.016   4.580
16170SOL     OW50468   6.594   5.180   4.201
16170SOL    HW150469   6.548   5.252   4.149
16170SOL    HW250470   6.590   5.200   4.299
16171SOL     OW50471   5.937   5.525   4.577
16171SOL    HW150472   5.987   5.439   4.583
16171SOL    HW250473   6.002   5.602   4.574
16172SOL     OW50474   6.813   5.274   5.230
16172SOL    HW150475   6.819   5.197   5.294
16172SOL    HW250476   6.761   5.248   5.150
16173SOL     OW50477   5.907   4.667   3.966
16173SOL    HW150478   5.989   4.706   3.924
16173SOL    HW250479   5.880   4.585   3.917
16174SOL     OW50480   7.044   4.459   4.452
16174SOL    HW150481   7.039   4.394   4.527
16174SOL    HW250482   7.124   4.518   4.465
16175SOL     OW50483   6.047   4.990   5.451
16175SOL    HW150484   5.997   4.991   5.365
16175SOL    HW250485   5.984   4.972   5.527
16176SOL     OW50486   6.697   5.500   3.961
16176SOL    HW150487   6.637   5.438   4.011
16176SOL    HW250488   6.728   5.456   3.876
16177SOL     OW50489   5.788   4.009   5.222
16177SOL    HW150490   5.708   4.069   5.209
16177SOL    HW250491   5.778   3.960   5.308
16178SOL     OW50492   7.218   5.101   3.805
16178SOL    HW150493   7.186   5.195   3.795
16178SOL    HW250494   7.142   5.038   3.793
16179SOL     OW50495   6.050   5.467   4.047
16179SOL    HW150496   6.083   5.506   4.133
16179SOL    HW250497   6.126   5.460   3.982
16180SOL     OW50498   6.986   3.831   4.150
16180SOL    HW150499   6.962   3.794   4.060
16180SOL    HW250500   7.085   3.847   4.154
16181SOL     OW50501   5.835   5.509   4.965
16181SOL    HW150502   5.892   5.444   5.015
16181SOL    HW250503   5.819   5.476   4.872
16182SOL     OW50504   6.526   5.422   4.628
16182SOL    HW150505   6.606   5.365   4.649
16182SOL    HW250506   6.477   5.382   4.551
16183SOL     OW50507   5.968   4.424   4.204
16183SOL    HW150508   6.013   4.334   4.201
16183SOL    HW250509   5.874   4.413   4.237
16184SOL     OW50510   6.200   3.846   3.841
16184SOL    HW150511   6.298   3.824   3.848
16184SOL    HW250512   6.169   3.829   3.748
16185SOL     OW50513   6.367   3.988   5.473
16185SOL    HW150514   6.434   3.927   5.516
16185SOL    HW250515   6.294   4.007   5.538
16186SOL     OW50516   6.474   5.238   4.919
16186SOL    HW150517   6.451   5.213   4.825
16186SOL    HW250518   6.535   5.169   4.958
16187SOL     OW50519   6.937   4.314   5.157
16187SOL    HW150520   6.965   4.271   5.242
16187SOL    HW250521   6.962   4.410   5.158
16188SOL     OW50522   6.389   5.126   4.648
16188SOL    HW150523   6.479   5.140   4.606
16188SOL    HW250524   6.318   5.128   4.577
16189SOL     OW50525   6.508   4.227   4.623
16189SOL    HW150526   6.483   4.218   4.527
16189SOL    HW250527   6.556   4.145   4.654
16190SOL     OW50528   6.125   3.788   4.236
16190SOL    HW150529   6.044   3.789   4.294
16190SOL    HW250530   6.128   3.871   4.181
16191SOL     OW50531   7.020   4.912   3.765
16191SOL    HW150532   7.052   4.836   3.822
16191SOL    HW250533   6.928   4.939   3.795
16192SOL     OW50534   5.883   3.759   3.895
16192SOL    HW150535   5.932   3.843   3.874
16192SOL    HW250536   5.945   3.694   3.940
16193SOL     OW50537   6.521   3.960   4.204
16193SOL    HW150538   6.473   4.001   4.126
16193SOL    HW250539   6.620   3.958   4.185
16194SOL     OW50540   6.813   5.294   4.517
16194SOL    HW150541   6.834   5.368   4.452
16194SOL    HW250542   6.881   5.294   4.590
16195SOL     OW50543   6.045   4.876   4.465
16195SOL    HW150544   5.974   4.849   4.530
16195SOL    HW250545   6.019   4.848   4.372
16196SOL     OW50546   6.857   5.521   4.315
16196SOL    HW150547   6.901   5.585   4.251
16196SOL    HW250548   6.807   5.573   4.385
16197SOL     OW50549   6.618   4.273   3.740
16197SOL    HW150550   6.577   4.355   3.701
16197SOL    HW250551   6.682   4.299   3.813
16198SOL     OW50552   5.664   4.280   5.110
16198SOL    HW150553   5.756   4.279   5.069
16198SOL    HW250554   5.658   4.354   5.177
16199SOL     OW50555   6.147   3.946   4.871
16199SOL    HW150556   6.185   3.862   4.908
16199SOL    HW250557   6.059   3.965   4.915
16200SOL     OW50558   6.452   4.178   4.366
16200SOL    HW150559   6.420   4.250   4.304
16200SOL    HW250560   6.476   4.097   4.313
16201SOL     OW50561   6.603   3.763   4.477
16201SOL    HW150562   6.531   3.768   4.408
16201SOL    HW250563   6.579   3.694   4.546
16202SOL     OW50564   7.015   4.897   4.591
16202SOL    HW150565   6.960   4.813   4.584
16202SOL    HW250566   7.041   4.926   4.499
16203SOL     OW50567   7.052   4.314   4.716
16203SOL    HW150568   7.022   4.219   4.723
16203SOL    HW250569   7.125   4.330   4.782
16204SOL     OW50570   6.074   5.109   3.898
16204SOL    HW150571   5.987   5.094   3.945
16204SOL    HW250572   6.057   5.135   3.803
16205SOL     OW50573   7.250   5.004   4.381
16205SOL    HW150574   7.349   5.012   4.395
16205SOL    HW250575   7.205   5.088   4.412
16206SOL     OW50576   6.976   4.299   3.802
16206SOL    HW150577   6.922   4.278   3.883
16206SOL    HW250578   7.067   4.258   3.811
16207SOL     OW50579   6.113   3.980   4.052
16207SOL    HW150580   6.140   3.921   3.977
16207SOL    HW250581   6.113   4.075   4.021
16208SOL     OW50582   7.340   4.947   5.312
16208SOL    HW150583   7.431   4.908   5.299
16208SOL    HW250584   7.348   5.043   5.336
16209SOL     OW50585   6.650   5.071   5.064
16209SOL    HW150586   6.570   5.048   5.119
16209SOL    HW250587   6.733   5.045   5.113
16210SOL     OW50588   7.178   5.353   5.349
16210SOL    HW150589   7.205   5.387   5.259
16210SOL    HW250590   7.257   5.315   5.395
16211SOL     OW50591   6.697   4.919   4.824
16211SOL    HW150592   6.657   4.963   4.905
16211SOL    HW250593   6.656   4.956   4.741
16212SOL     OW50594   7.224   4.823   4.803
16212SOL    HW150595   7.229   4.904   4.862
16212SOL    HW250596   7.138   4.825   4.752
16213SOL     OW50597   6.501   3.813   5.126
16213SOL    HW150598   6.526   3.793   5.031
16213SOL    HW250599   6.573   3.869   5.168
16214SOL     OW50600   6.566   4.840   5.443
16214SOL    HW150601   6.467   4.846   5.453
16214SOL    HW250602   6.589   4.760   5.387
16215SOL     OW50603   6.291   4.774   4.092
16215SOL    HW150604   6.277   4.781   4.191
16215SOL    HW250605   6.375   4.723   4.074
16216SOL     OW50606   5.996   4.537   4.975
16216SOL    HW150607   6.082   4.549   5.025
16216SOL    HW250608   5.954   4.450   5.002
16217SOL     OW50609   5.650   5.288   5.055
16217SOL    HW150610   5.604   5.370   5.021
16217SOL    HW250611   5.748   5.307   5.064
16218SOL     OW50612   5.953   4.824   4.225
16218SOL    HW150613   5.946   4.907   4.169
16218SOL    HW250614   5.957   4.744   4.165
16219SOL     OW50615   6.152   4.261   4.589
16219SOL    HW150616   6.164   4.327   4.515
16219SOL    HW250617   6.198   4.295   4.672
16220SOL     OW50618   6.838   5.072   4.112
16220SOL    HW150619   6.888   5.149   4.152
16220SOL    HW250620   6.743   5.074   4.144
16221SOL     OW50621   6.858   5.169   4.866
16221SOL    HW150622   6.905   5.182   4.953
16221SOL    HW250623   6.792   5.095   4.875
16222SOL     OW50624   7.168   4.363   4.196
16222SOL    HW150625   7.137   4.424   4.269
16222SOL    HW250626   7.218   4.415   4.127
16223SOL     OW50627   5.940   5.234   5.053
16223SOL    HW150628   5.919   5.190   4.966
16223SOL    HW250629   6.037   5.260   5.056
16224SOL     OW50630   5.988   4.475   5.322
16224SOL    HW150631   6.056   4.530   5.275
16224SOL    HW250632   6.028   4.387   5.349
16225SOL     OW50633   6.090   3.774   5.464
16225SOL    HW150634   6.048   3.717   5.394
16225SOL    HW250635   6.024   3.843   5.496
16226SOL     OW50636   6.159   4.594   4.753
16226SOL    HW150637   6.203   4.683   4.744
16226SOL    HW250638   6.096   4.594   4.830
16227SOL     OW50639   6.946   4.586   4.769
16227SOL    HW150640   6.871   4.586   4.703
16227SOL    HW250641   6.983   4.494   4.778
16228SOL     OW50642   6.795   4.249   3.999
16228SOL    HW150643   6.808   4.165   4.053
16228SOL    HW250644   6.766   4.323   4.059
16229SOL     OW50645   5.893   3.937   4.955
16229SOL    HW150646   5.870   3.974   5.045
16229SOL    HW250647   5.863   3.842   4.949
16230SOL     OW50648   5.623   5.034   5.006
16230SOL    HW150649   5.676   4.985   5.074
16230SOL    HW250650   5.645   5.132   5.011
16231SOL     OW50651   6.318   4.358   4.788
16231SOL    HW150652   6.377   4.332   4.712
16231SOL    HW250653   6.290   4.454   4.777
16232SOL     OW50654   7.314   4.659   5.578
16232SOL    HW150655   7.268   4.652   5.489
16232SOL    HW250656   7.252   4.703   5.644
16233SOL     OW50657   5.893   3.787   4.342
16233SOL    HW150658   5.882   3.881   4.375
16233SOL    HW250659   5.888   3.724   4.419
16234SOL     OW50660   7.208   4.091   4.098
16234SOL    HW150661   7.210   4.015   4.162
16234SOL    HW250662   7.160   4.168   4.138
16235SOL     OW50663   6.609   4.490   4.690
16235SOL    HW150664   6.624   4.511   4.786
16235SOL    HW250665   6.579   4.395   4.681
16236SOL     OW50666   6.566   5.297   5.424
16236SOL    HW150667   6.546   5.341   5.336
16236SOL    HW250668   6.605   5.206   5.408
16237SOL     OW50669   7.445   5.242   5.329
16237SOL    HW150670   7.459   5.269   5.234
16237SOL    HW250671   7.528   5.264   5.382
16238SOL     OW50672   5.936   4.622   5.528
16238SOL    HW150673   6.012   4.666   5.576
16238SOL    HW250674   5.971   4.575   5.446
16239SOL     OW50675   7.126   3.998   3.849
16239SOL    HW150676   7.065   3.923   3.872
16239SOL    HW250677   7.148   4.050   3.932
16240SOL     OW50678   6.889   4.562   3.766
16240SOL    HW150679   6.923   4.469   3.781
16240SOL    HW250680   6.907   4.589   3.671
16241SOL     OW50681   6.654   5.057   4.573
16241SOL    HW150682   6.661   4.973   4.518
16241SOL    HW250683   6.716   5.126   4.537
16242SOL     OW50684   5.905   4.534   4.673
16242SOL    HW150685   5.998   4.570   4.678
16242SOL    HW250686   5.899   4.449   4.725
16243SOL     OW50687   5.925   4.233   4.730
16243SOL    HW150688   5.873   4.150   4.713
16243SOL    HW250689   6.002   4.238   4.666
16244SOL     OW50690   6.097   4.139   5.532
16244SOL    HW150691   6.079   4.184   5.620
16244SOL    HW250692   6.139   4.204   5.469
16245SOL     OW50693   5.594   5.050   3.924
16245SOL    HW150694   5.501   5.071   3.893
16245SOL    HW250695   5.604   4.951   3.937
16246SOL     OW50696   5.674   5.525   4.651
16246SOL    HW150697   5.632   5.439   4.624
16246SOL    HW250698   5.768   5.528   4.617
16247SOL     OW50699   6.090   5.292   4.634
16247SOL    HW150700   6.156   5.366   4.643
16247SOL    HW250701   6.134   5.213   4.592
16248SOL     OW50702   6.588   4.520   4.962
16248SOL    HW150703   6.629   4.488   5.048
16248SOL    HW250704   6.492   4.493   4.959
16249SOL     OW50705   5.626   4.268   4.838
16249SOL    HW150706   5.711   4.235   4.797
16249SOL    HW250707   5.639   4.283   4.936
16250SOL     OW50708   5.775   4.244   5.446
16250SOL    HW150709   5.834   4.204   5.376
16250SOL    HW250710   5.717   4.315   5.405
16251SOL     OW50711   6.955   4.674   5.384
16251SOL    HW150712   6.994   4.763   5.404
16251SOL    HW250713   6.965   4.654   5.287
16252SOL     OW50714   6.401   4.296   4.049
16252SOL    HW150715   6.408   4.207   4.003
16252SOL    HW250716   6.307   4.330   4.041
16253SOL     OW50717   7.243   4.328   4.930
16253SOL    HW150718   7.205   4.259   4.992
16253SOL    HW250719   7.325   4.292   4.886
16254SOL     OW50720   5.838   5.288   5.468
16254SOL    HW150721   5.808   5.345   5.544
16254SOL    HW250722   5.831   5.191   5.494
16255SOL     OW50723   6.257   4.188   4.993
16255SOL    HW150724   6.223   4.099   4.963
16255SOL    HW250725   6.283   4.242   4.913
16256SOL     OW50726   6.516   5.402   5.189
16256SOL    HW150727   6.492   5.384   5.094
16256SOL    HW250728   6.546   5.496   5.199
16257SOL     OW50729   6.059   4.224   3.915
16257SOL    HW150730   6.120   4.304   3.919
16257SOL    HW250731   5.964   4.255   3.922
16258SOL     OW50732   5.745   4.861   5.190
16258SOL    HW150733   5.767   4.800   5.266
16258SOL    HW250734   5.755   4.812   5.104
16259SOL     OW50735   6.933   4.783   4.958
16259SOL    HW150736   6.957   4.720   4.884
16259SOL    HW250737   6.843   4.823   4.940
16260SOL     OW50738   6.888   4.579   4.033
16260SOL    HW150739   6.802   4.548   4.075
16260SOL    HW250740   6.884   4.565   3.934
16261SOL     OW50741   7.345   5.471   4.878
16261SOL    HW150742   7.406   5.501   4.805
16261SOL    HW250743   7.307   5.382   4.856
16262SOL     OW50744   6.838   5.455   4.852
16262SOL    HW150745   6.922   5.460   4.798
16262SOL    HW250746   6.815   5.359   4.870
16263SOL     OW50747   5.669   4.982   4.746
16263SOL    HW150748   5.664   4.981   4.846
16263SOL    HW250749   5.586   4.941   4.708
16264SOL     OW50750   6.274   5.386   5.440
16264SOL    HW150751   6.218   5.467   5.449
16264SOL    HW250752   6.326   5.390   5.354
16265SOL     OW50753   6.489   3.810   3.857
16265SOL    HW150754   6.540   3.811   3.771
16265SOL    HW250755   6.545   3.768   3.928
16266SOL     OW50756   7.312   3.859   4.247
16266SOL    HW150757   7.385   3.842   4.180
16266SOL    HW250758   7.281   3.772   4.285
16267SOL     OW50759   6.974   5.297   4.201
16267SOL    HW150760   7.041   5.309   4.127
16267SOL    HW250761   6.934   5.386   4.224
16268SOL     OW50762   5.716   5.518   5.575
16268SOL    HW150763   5.675   5.444   5.628
16268SOL    HW250764   5.780   5.569   5.633
16269SOL     OW50765   6.866   4.651   4.396
16269SOL    HW150766   6.926   4.570   4.398
16269SOL    HW250767   6.906   4.720   4.336
16270SOL     OW50768   6.416   4.997   5.146
16270SOL    HW150769   6.411   5.030   5.241
16270SOL    HW250770   6.330   5.016   5.100
16271SOL     OW50771   6.258   5.340   3.878
16271SOL    HW150772   6.267   5.350   3.779
16271SOL    HW250773   6.218   5.251   3.899
16272SOL     OW50774   7.236   5.444   5.118
16272SOL    HW150775   7.289   5.454   5.034
16272SOL    HW250776   7.209   5.534   5.152
16273SOL     OW50777   5.849   4.050   4.444
16273SOL    HW150778   5.770   4.101   4.410
16273SOL    HW250779   5.840   4.035   4.542
16274SOL     OW50780   6.780   5.336   3.755
16274SOL    HW150781   6.786   5.243   3.792
16274SOL    HW250782   6.721   5.336   3.675
16275SOL     OW50783   6.408   4.726   5.096
16275SOL    HW150784   6.448   4.725   5.004
16275SOL    HW250785   6.418   4.818   5.136
16276SOL     OW50786   6.502   4.634   4.015
16276SOL    HW150787   6.565   4.672   3.947
16276SOL    HW250788   6.542   4.551   4.054
16277SOL     OW50789   7.090   5.331   3.768
16277SOL    HW150790   6.998   5.368   3.775
16277SOL    HW250791   7.128   5.351   3.678
16278SOL     OW50792   5.958   5.012   5.214
16278SOL    HW150793   5.945   5.105   5.180
16278SOL    HW250794   5.874   4.960   5.201
16279SOL     OW50795   7.200   5.016   5.013
16279SOL    HW150796   7.260   5.019   5.093
16279SOL    HW250797   7.125   5.080   5.026
16280SOL     OW50798   6.625   4.822   4.420
16280SOL    HW150799   6.555   4.775   4.474
16280SOL    HW250800   6.684   4.754   4.377
16281SOL     OW50801   6.600   3.960   4.695
16281SOL    HW150802   6.592   3.924   4.602
16281SOL    HW250803   6.598   3.884   4.760
16282SOL     OW50804   6.176   5.211   4.215
16282SOL    HW150805   6.218   5.153   4.145
16282SOL    HW250806   6.132   5.290   4.171
16283SOL     OW50807   5.841   5.072   4.014
16283SOL    HW150808   5.745   5.073   3.987
16283SOL    HW250809   5.853   5.125   4.098
16284SOL     OW50810   5.691   4.737   5.450
16284SOL    HW150811   5.614   4.704   5.504
16284SOL    HW250812   5.776   4.707   5.492
16285SOL     OW50813   6.258   3.927   5.213
16285SOL    HW150814   6.348   3.911   5.173
16285SOL    HW250815   6.266   3.932   5.312
16286SOL     OW50816   5.661   4.069   3.757
16286SOL    HW150817   5.569   4.041   3.728
16286SOL    HW250818   5.692   4.146   3.701
16287SOL     OW50819   7.026   4.580   5.122
16287SOL    HW150820   6.969   4.632   5.059
16287SOL    HW250821   7.122   4.592   5.098
16288SOL     OW50822   5.658   3.890   4.042
16288SOL    HW150823   5.641   3.973   3.988
16288SOL    HW250824   5.748   3.853   4.020
16289SOL     OW50825   6.769   5.059   3.843
16289SOL    HW150826   6.670   5.048   3.845
16289SOL    HW250827   6.803   5.074   3.936
16290SOL     OW50828   6.199   4.566   5.155
16290SOL    HW150829   6.255   4.647   5.138
16290SOL    HW250830   6.258   4.486   5.158
16291SOL     OW50831   7.079   5.491   4.683
16291SOL    HW150832   7.112   5.555   4.614
16291SOL    HW250833   7.145   5.485   4.758
16292SOL     OW50834   6.302   4.289   5.432
16292SOL    HW150835   6.321   4.354   5.506
16292SOL    HW250836   6.362   4.209   5.441
16293SOL     OW50837   7.036   4.944   5.357
16293SOL    HW150838   7.027   4.934   5.456
16293SOL    HW250839   7.132   4.937   5.331
16294SOL     OW50840   5.976   5.465   5.284
16294SOL    HW150841   5.885   5.506   5.282
16294SOL    HW250842   5.969   5.371   5.316
16295SOL     OW50843   6.811   4.049   4.173
16295SOL    HW150844   6.876   3.975   4.162
16295SOL    HW250845   6.831   4.099   4.257
16296SOL     OW50846   6.180   4.469   4.376
16296SOL    HW150847   6.230   4.554   4.357
16296SOL    HW250848   6.092   4.471   4.328
16297SOL     OW50849   6.445   5.098   3.740
16297SOL    HW150850   6.399   5.113   3.828
16297SOL    HW250851   6.489   5.183   3.710
16298SOL     OW50852   6.247   5.514   4.677
16298SOL    HW150853   6.201   5.602   4.664
16298SOL    HW250854   6.346   5.526   4.670
16299SOL     OW50855   6.994   5.575   5.444
16299SOL    HW150856   6.898   5.564   5.417
16299SOL    HW250857   7.050   5.508   5.396
16300SOL     OW50858   6.445   4.680   4.585
16300SOL    HW150859   6.499   4.611   4.633
16300SOL    HW250860   6.413   4.749   4.651
16301SOL     OW50861   6.669   4.708   3.811
16301SOL    HW150862   6.646   4.761   3.729
16301SOL    HW250863   6.750   4.652   3.792
16302SOL     OW50864   7.447   5.293   4.575
16302SOL    HW150865   7.376   5.281   4.505
16302SOL    HW250866   7.448   5.214   4.635
16303SOL     OW50867   5.807   5.038   5.568
16303SOL    HW150868   5.742   4.965   5.547
16303SOL    HW250869   5.811   5.052   5.666
16304SOL     OW50870   5.665   4.964   4.377
16304SOL    HW150871   5.664   4.917   4.465
16304SOL    HW250872   5.747   4.936   4.326
16305SOL     OW50873   6.258   5.115   5.348
16305SOL    HW150874   6.180   5.065   5.386
16305SOL    HW250875   6.255   5.210   5.379
16306SOL     OW50876   6.014   4.148   4.244
16306SOL    HW150877   6.044   4.076   4.182
16306SOL    HW250878   5.975   4.108   4.327
16307SOL     OW50879   7.291   5.211   4.828
16307SOL    HW150880   7.198   5.186   4.801
16307SOL    HW250881   7.317   5.161   4.910
16308SOL     OW50882   5.903   4.271   5.004
16308SOL    HW150883   5.941   4.212   5.076
16308SOL    HW250884   5.943   4.245   4.916
16309SOL     OW50885   6.398   5.310   4.411
16309SOL    HW150886   6.430   5.320   4.317
16309SOL    HW250887   6.319   5.248   4.413
16310SOL     OW50888   6.587   3.758   4.878
16310SOL    HW150889   6.524   3.686   4.847
16310SOL    HW250890   6.680   3.722   4.878
16311SOL     OW50891   6.356   5.054   4.025
16311SOL    HW150892   6.310   4.967   4.042
16311SOL    HW250893   6.447   5.051   4.066
16312SOL     OW50894   6.204   5.291   5.008
16312SOL    HW150895   6.199   5.373   5.065
16312SOL    HW250896   6.293   5.288   4.963
16313SOL     OW50897   6.938   3.776   3.892
16313SOL    HW150898   6.973   3.735   3.808
16313SOL    HW250899   6.848   3.738   3.912
16314SOL     OW50900   6.886   4.177   4.415
16314SOL    HW150901   6.827   4.257   4.419
16314SOL    HW250902   6.901   4.142   4.508
16315SOL     OW50903   5.625   4.801   4.024
16315SOL    HW150904   5.724   4.790   4.015
16315SOL    HW250905   5.585   4.715   4.056
16316SOL     OW50906   6.461   5.370   4.061
16316SOL    HW150907   6.384   5.335   4.007
16316SOL    HW250908   6.429   5.441   4.123
16317SOL     OW50909   5.816   4.352   5.699
16317SOL    HW150910   5.723   4.350   5.736
16317SOL    HW250911   5.817   4.313   5.607
16318SOL     OW50912   5.811   3.999   6.582
16318SOL    HW150913   5.846   3.982   6.674
16318SOL    HW250914   5.723   3.954   6.570
16319SOL     OW50915   5.605   4.092   6.233
16319SOL    HW150916   5.523   4.135   6.272
16319SOL    HW250917   5.577   4.019   6.170
16320SOL     OW50918   6.155   4.999   6.751
16320SOL    HW150919   6.062   4.992   6.714
16320SOL    HW250920   6.166   5.088   6.795
16321SOL     OW50921   7.141   5.235   6.289
16321SOL    HW150922   7.084   5.219   6.370
16321SOL    HW250923   7.082   5.245   6.209
16322SOL     OW50924   7.329   4.342   6.442
16322SOL    HW150925   7.362   4.436   6.442
16322SOL    HW250926   7.380   4.288   6.508
16323SOL     OW50927   6.721   4.427   6.303
16323SOL    HW150928   6.778   4.505   6.278
16323SOL    HW250929   6.661   4.453   6.379
16324SOL     OW50930   6.354   4.868   6.609
16324SOL    HW150931   6.276   4.885   6.669
16324SOL    HW250932   6.388   4.955   6.573
16325SOL     OW50933   6.436   4.522   7.409
16325SOL    HW150934   6.432   4.598   7.474
16325SOL    HW250935   6.458   4.558   7.318
16326SOL     OW50936   6.271   4.736   6.251
16326SOL    HW150937   6.340   4.720   6.321
16326SOL    HW250938   6.198   4.793   6.289
16327SOL     OW50939   6.272   4.885   7.389
16327SOL    HW150940   6.332   4.964   7.403
16327SOL    HW250941   6.186   4.916   7.348
16328SOL     OW50942   5.921   5.159   6.647
16328SOL    HW150943   5.843   5.128   6.594
16328SOL    HW250944   5.979   5.217   6.590
16329SOL     OW50945   7.046   5.229   6.925
16329SOL    HW150946   7.070   5.323   6.951
16329SOL    HW250947   7.030   5.175   7.007
16330SOL     OW50948   6.024   4.116   7.085
16330SOL    HW150949   6.106   4.060   7.094
16330SOL    HW250950   5.943   4.058   7.089
16331SOL     OW50951   7.189   4.171   6.323
16331SOL    HW150952   7.115   4.217   6.273
16331SOL    HW250953   7.240   4.239   6.376
16332SOL     OW50954   5.817   5.437   6.069
16332SOL    HW150955   5.851   5.514   6.123
16332SOL    HW250956   5.861   5.437   5.979
16333SOL     OW50957   6.713   5.065   7.276
16333SOL    HW150958   6.760   5.065   7.364
16333SOL    HW250959   6.665   4.978   7.265
16334SOL     OW50960   5.816   5.158   6.124
16334SOL    HW150961   5.790   5.254   6.124
16334SOL    HW250962   5.745   5.104   6.169
16335SOL     OW50963   5.826   4.815   6.472
16335SOL    HW150964   5.840   4.731   6.524
16335SOL    HW250965   5.771   4.879   6.527
16336SOL     OW50966   6.206   5.510   7.025
16336SOL    HW150967   6.114   5.493   7.060
16336SOL    HW250968   6.234   5.602   7.051
16337SOL     OW50969   6.192   4.688   5.709
16337SOL    HW150970   6.199   4.772   5.655
16337SOL    HW250971   6.238   4.701   5.797
16338SOL     OW50972   7.180   3.838   7.066
16338SOL    HW150973   7.162   3.905   6.994
16338SOL    HW250974   7.177   3.884   7.155
16339SOL     OW50975   5.708   4.367   6.149
16339SOL    HW150976   5.663   4.279   6.166
16339SOL    HW250977   5.707   4.421   6.233
16340SOL     OW50978   7.428   5.491   5.945
16340SOL    HW150979   7.482   5.462   6.025
16340SOL    HW250980   7.458   5.581   5.916
16341SOL     OW50981   5.613   5.320   5.703
16341SOL    HW150982   5.594   5.224   5.724
16341SOL    HW250983   5.580   5.378   5.778
16342SOL     OW50984   7.275   4.646   6.198
16342SOL    HW150985   7.370   4.617   6.206
16342SOL    HW250986   7.267   4.711   6.123
16343SOL     OW50987   7.227   4.832   6.018
16343SOL    HW150988   7.313   4.834   5.966
16343SOL    HW250989   7.241   4.879   6.106
16344SOL     OW50990   5.699   4.461   7.183
16344SOL    HW150991   5.787   4.448   7.228
16344SOL    HW250992   5.686   4.558   7.161
16345SOL     OW50993   6.199   5.089   6.312
16345SOL    HW150994   6.150   5.002   6.321
16345SOL    HW250995   6.176   5.132   6.225
16346SOL     OW50996   6.879   4.952   7.009
16346SOL    HW150997   6.916   4.879   6.951
16346SOL    HW250998   6.931   4.957   7.094
16347SOL     OW50999   6.395   3.728   6.088
16347SOL    HW151000   6.435   3.819   6.079
16347SOL    HW251001   6.295   3.736   6.094
16348SOL     OW51002   5.783   4.700   6.850
16348SOL    HW151003   5.872   4.655   6.836
16348SOL    HW251004   5.710   4.635   6.831
16349SOL     OW51005   7.111   4.723   5.776
16349SOL    HW151006   7.048   4.647   5.789
16349SOL    HW251007   7.159   4.741   5.862
16350SOL     OW51008   6.773   5.516   7.202
16350SOL    HW151009   6.797   5.576   7.126
16350SOL    HW251010   6.780   5.421   7.172
16351SOL     OW51011   5.903   3.975   7.387
16351SOL    HW151012   5.974   4.046   7.393
16351SOL    HW251013   5.815   4.014   7.415
16352SOL     OW51014   7.052   5.141   6.539
16352SOL    HW151015   6.993   5.147   6.619
16352SOL    HW251016   7.037   5.053   6.493
16353SOL     OW51017   7.253   5.438   6.158
16353SOL    HW151018   7.212   5.415   6.070
16353SOL    HW251019   7.235   5.364   6.223
16354SOL     OW51020   6.184   4.453   5.856
16354SOL    HW151021   6.208   4.522   5.788
16354SOL    HW251022   6.106   4.486   5.910
16355SOL     OW51023   6.867   4.069   6.530
16355SOL    HW151024   6.781   4.019   6.517
16355SOL    HW251025   6.929   4.015   6.586
16356SOL     OW51026   7.162   5.386   5.893
16356SOL    HW151027   7.251   5.432   5.896
16356SOL    HW251028   7.141   5.362   5.798
16357SOL     OW51029   6.393   4.329   7.051
16357SOL    HW151030   6.346   4.326   7.140
16357SOL    HW251031   6.342   4.274   6.985
16358SOL     OW51032   6.980   4.193   7.260
16358SOL    HW151033   6.960   4.236   7.348
16358SOL    HW251034   7.058   4.131   7.269
16359SOL     OW51035   6.559   4.614   7.158
16359SOL    HW151036   6.605   4.530   7.129
16359SOL    HW251037   6.503   4.648   7.083
16360SOL     OW51038   6.627   4.425   6.015
16360SOL    HW151039   6.653   4.421   6.111
16360SOL    HW251040   6.542   4.374   6.001
16361SOL     OW51041   5.662   4.535   6.375
16361SOL    HW151042   5.761   4.523   6.384
16361SOL    HW251043   5.638   4.630   6.396
16362SOL     OW51044   5.716   5.545   7.157
16362SOL    HW151045   5.706   5.530   7.256
16362SOL    HW251046   5.630   5.581   7.121
16363SOL     OW51047   7.305   4.309   7.417
16363SOL    HW151048   7.279   4.398   7.381
16363SOL    HW251049   7.303   4.241   7.344
16364SOL     OW51050   6.948   4.868   6.131
16364SOL    HW151051   7.031   4.839   6.083
16364SOL    HW251052   6.899   4.935   6.075
16365SOL     OW51053   6.136   3.920   6.471
16365SOL    HW151054   6.131   3.915   6.571
16365SOL    HW251055   6.138   4.016   6.442
16366SOL     OW51056   6.594   5.180   6.063
16366SOL    HW151057   6.548   5.252   6.011
16366SOL    HW251058   6.590   5.200   6.161
16367SOL     OW51059   5.937   5.525   6.439
16367SOL    HW151060   5.987   5.439   6.445
16367SOL    HW251061   6.002   5.602   6.436
16368SOL     OW51062   7.381   4.790   6.459
16368SOL    HW151063   7.319   4.775   6.383
16368SOL    HW251064   7.329   4.801   6.544
16369SOL     OW51065   6.813   5.274   7.092
16369SOL    HW151066   6.819   5.197   7.156
16369SOL    HW251067   6.761   5.248   7.012
16370SOL     OW51068   5.907   4.667   5.828
16370SOL    HW151069   5.989   4.706   5.786
16370SOL    HW251070   5.880   4.585   5.779
16371SOL     OW51071   7.044   4.459   6.314
16371SOL    HW151072   7.039   4.394   6.389
16371SOL    HW251073   7.124   4.518   6.327
16372SOL     OW51074   6.047   4.990   7.313
16372SOL    HW151075   5.997   4.991   7.227
16372SOL    HW251076   5.984   4.972   7.389
16373SOL     OW51077   6.697   5.500   5.823
16373SOL    HW151078   6.637   5.438   5.873
16373SOL    HW251079   6.728   5.456   5.738
16374SOL     OW51080   5.788   4.009   7.084
16374SOL    HW151081   5.708   4.069   7.071
16374SOL    HW251082   5.778   3.960   7.170
16375SOL     OW51083   7.218   5.101   5.667
16375SOL    HW151084   7.186   5.195   5.657
16375SOL    HW251085   7.142   5.038   5.655
16376SOL     OW51086   6.050   5.467   5.909
16376SOL    HW151087   6.083   5.506   5.995
16376SOL    HW251088   6.126   5.460   5.844
16377SOL     OW51089   5.835   5.509   6.827
16377SOL    HW151090   5.892   5.444   6.877
16377SOL    HW251091   5.819   5.476   6.734
16378SOL     OW51092   6.526   5.422   6.490
16378SOL    HW151093   6.606   5.365   6.511
16378SOL    HW251094   6.477   5.382   6.413
16379SOL     OW51095   5.968   4.424   6.066
16379SOL    HW151096   6.013   4.334   6.063
16379SOL    HW251097   5.874   4.413   6.099
16380SOL     OW51098   7.133   3.946   7.315
16380SOL    HW151099   7.128   3.983   7.407
16380SOL    HW251100   7.061   3.877   7.303
16381SOL     OW51101   6.200   3.846   5.703
16381SOL    HW151102   6.298   3.824   5.710
16381SOL    HW251103   6.169   3.829   5.610
16382SOL     OW51104   6.367   3.988   7.335
16382SOL    HW151105   6.434   3.927   7.378
16382SOL    HW251106   6.294   4.007   7.400
16383SOL     OW51107   6.474   5.238   6.781
16383SOL    HW151108   6.451   5.213   6.687
16383SOL    HW251109   6.535   5.169   6.820
16384SOL     OW51110   6.937   4.314   7.019
16384SOL    HW151111   6.965   4.271   7.104
16384SOL    HW251112   6.962   4.410   7.020
16385SOL     OW51113   6.389   5.126   6.510
16385SOL    HW151114   6.479   5.140   6.468
16385SOL    HW251115   6.318   5.128   6.439
16386SOL     OW51116   6.125   3.788   6.098
16386SOL    HW151117   6.044   3.789   6.156
16386SOL    HW251118   6.128   3.871   6.043
16387SOL     OW51119   7.020   4.912   5.627
16387SOL    HW151120   7.052   4.836   5.684
16387SOL    HW251121   6.928   4.939   5.657
16388SOL     OW51122   5.883   3.759   5.757
16388SOL    HW151123   5.932   3.843   5.736
16388SOL    HW251124   5.945   3.694   5.802
16389SOL     OW51125   6.662   4.407   7.050
16389SOL    HW151126   6.582   4.346   7.053
16389SOL    HW251127   6.743   4.354   7.026
16390SOL     OW51128   6.813   5.294   6.379
16390SOL    HW151129   6.834   5.368   6.314
16390SOL    HW251130   6.881   5.294   6.452
16391SOL     OW51131   6.045   4.876   6.327
16391SOL    HW151132   5.974   4.849   6.392
16391SOL    HW251133   6.019   4.848   6.234
16392SOL     OW51134   6.857   5.521   6.177
16392SOL    HW151135   6.901   5.585   6.113
16392SOL    HW251136   6.807   5.573   6.247
16393SOL     OW51137   6.618   4.273   5.602
16393SOL    HW151138   6.577   4.355   5.563
16393SOL    HW251139   6.682   4.299   5.675
16394SOL     OW51140   5.664   4.280   6.972
16394SOL    HW151141   5.756   4.279   6.931
16394SOL    HW251142   5.658   4.354   7.039
16395SOL     OW51143   7.015   4.897   6.453
16395SOL    HW151144   6.960   4.813   6.446
16395SOL    HW251145   7.041   4.926   6.361
16396SOL     OW51146   7.052   4.314   6.578
16396SOL    HW151147   7.022   4.219   6.585
16396SOL    HW251148   7.125   4.330   6.644
16397SOL     OW51149   7.443   4.557   5.963
16397SOL    HW151150   7.485   4.493   6.027
16397SOL    HW251151   7.405   4.506   5.885
16398SOL     OW51152   6.074   5.109   5.760
16398SOL    HW151153   5.987   5.094   5.807
16398SOL    HW251154   6.057   5.135   5.665
16399SOL     OW51155   7.250   5.004   6.243
16399SOL    HW151156   7.349   5.012   6.257
16399SOL    HW251157   7.205   5.088   6.274
16400SOL     OW51158   6.976   4.299   5.664
16400SOL    HW151159   6.922   4.278   5.745
16400SOL    HW251160   7.067   4.258   5.673
16401SOL     OW51161   6.113   3.980   5.914
16401SOL    HW151162   6.140   3.921   5.839
16401SOL    HW251163   6.113   4.075   5.883
16402SOL     OW51164   7.340   4.947   7.174
16402SOL    HW151165   7.431   4.908   7.161
16402SOL    HW251166   7.348   5.043   7.198
16403SOL     OW51167   6.650   5.071   6.926
16403SOL    HW151168   6.570   5.048   6.981
16403SOL    HW251169   6.733   5.045   6.975
16404SOL     OW51170   7.178   5.353   7.211
16404SOL    HW151171   7.205   5.387   7.121
16404SOL    HW251172   7.257   5.315   7.257
16405SOL     OW51173   6.697   4.919   6.686
16405SOL    HW151174   6.657   4.963   6.767
16405SOL    HW251175   6.656   4.956   6.603
16406SOL     OW51176   7.224   4.823   6.665
16406SOL    HW151177   7.229   4.904   6.724
16406SOL    HW251178   7.138   4.825   6.614
16407SOL     OW51179   6.501   3.813   6.988
16407SOL    HW151180   6.526   3.793   6.893
16407SOL    HW251181   6.573   3.869   7.030
16408SOL     OW51182   6.566   4.840   7.305
16408SOL    HW151183   6.467   4.846   7.315
16408SOL    HW251184   6.589   4.760   7.249
16409SOL     OW51185   6.291   4.774   5.954
16409SOL    HW151186   6.277   4.781   6.053
16409SOL    HW251187   6.375   4.723   5.936
16410SOL     OW51188   5.996   4.537   6.837
16410SOL    HW151189   6.082   4.549   6.887
16410SOL    HW251190   5.954   4.450   6.864
16411SOL     OW51191   5.650   5.288   6.917
16411SOL    HW151192   5.604   5.370   6.883
16411SOL    HW251193   5.748   5.307   6.926
16412SOL     OW51194   5.953   4.824   6.087
16412SOL    HW151195   5.946   4.907   6.031
16412SOL    HW251196   5.957   4.744   6.027
16413SOL     OW51197   6.152   4.261   6.451
16413SOL    HW151198   6.164   4.327   6.377
16413SOL    HW251199   6.198   4.295   6.534
16414SOL     OW51200   6.838   5.072   5.974
16414SOL    HW151201   6.888   5.149   6.014
16414SOL    HW251202   6.743   5.074   6.006
16415SOL     OW51203   6.858   5.169   6.728
16415SOL    HW151204   6.905   5.182   6.815
16415SOL    HW251205   6.792   5.095   6.737
16416SOL     OW51206   7.168   4.363   6.058
16416SOL    HW151207   7.137   4.424   6.131
16416SOL    HW251208   7.218   4.415   5.989
16417SOL     OW51209   5.940   5.234   6.915
16417SOL    HW151210   5.919   5.190   6.828
16417SOL    HW251211   6.037   5.260   6.918
16418SOL     OW51212   5.988   4.475   7.184
16418SOL    HW151213   6.056   4.530   7.137
16418SOL    HW251214   6.028   4.387   7.211
16419SOL     OW51215   7.173   4.503   7.256
16419SOL    HW151216   7.081   4.541   7.251
16419SOL    HW251217   7.233   4.550   7.191
16420SOL     OW51218   6.090   3.774   7.326
16420SOL    HW151219   6.048   3.717   7.256
16420SOL    HW251220   6.024   3.843   7.358
16421SOL     OW51221   6.159   4.594   6.615
16421SOL    HW151222   6.203   4.683   6.606
16421SOL    HW251223   6.096   4.594   6.692
16422SOL     OW51224   6.946   4.586   6.631
16422SOL    HW151225   6.871   4.586   6.565
16422SOL    HW251226   6.983   4.494   6.640
16423SOL     OW51227   6.795   4.249   5.861
16423SOL    HW151228   6.808   4.165   5.915
16423SOL    HW251229   6.766   4.323   5.921
16424SOL     OW51230   5.893   3.937   6.817
16424SOL    HW151231   5.870   3.974   6.907
16424SOL    HW251232   5.863   3.842   6.811
16425SOL     OW51233   5.623   5.034   6.868
16425SOL    HW151234   5.676   4.985   6.936
16425SOL    HW251235   5.645   5.132   6.873
16426SOL     OW51236   6.318   4.358   6.650
16426SOL    HW151237   6.377   4.332   6.574
16426SOL    HW251238   6.290   4.454   6.639
16427SOL     OW51239   7.314   4.659   7.440
16427SOL    HW151240   7.268   4.652   7.351
16427SOL    HW251241   7.252   4.703   7.506
16428SOL     OW51242   5.893   3.787   6.204
16428SOL    HW151243   5.882   3.881   6.237
16428SOL    HW251244   5.888   3.724   6.281
16429SOL     OW51245   6.609   4.490   6.552
16429SOL    HW151246   6.624   4.511   6.648
16429SOL    HW251247   6.579   4.395   6.543
16430SOL     OW51248   6.566   5.297   7.286
16430SOL    HW151249   6.546   5.341   7.198
16430SOL    HW251250   6.605   5.206   7.270
16431SOL     OW51251   7.445   5.242   7.191
16431SOL    HW151252   7.459   5.269   7.096
16431SOL    HW251253   7.528   5.264   7.244
16432SOL     OW51254   5.936   4.622   7.390
16432SOL    HW151255   6.012   4.666   7.438
16432SOL    HW251256   5.971   4.575   7.308
16433SOL     OW51257   6.889   4.562   5.628
16433SOL    HW151258   6.923   4.469   5.643
16433SOL    HW251259   6.907   4.589   5.533
16434SOL     OW51260   6.654   5.057   6.435
16434SOL    HW151261   6.661   4.973   6.380
16434SOL    HW251262   6.716   5.126   6.399
16435SOL     OW51263   5.905   4.534   6.535
16435SOL    HW151264   5.998   4.570   6.540
16435SOL    HW251265   5.899   4.449   6.587
16436SOL     OW51266   5.925   4.233   6.592
16436SOL    HW151267   5.873   4.150   6.575
16436SOL    HW251268   6.002   4.238   6.528
16437SOL     OW51269   6.097   4.139   7.394
16437SOL    HW151270   6.079   4.184   7.482
16437SOL    HW251271   6.139   4.204   7.331
16438SOL     OW51272   6.724   4.104   7.264
16438SOL    HW151273   6.679   4.167   7.328
16438SOL    HW251274   6.817   4.135   7.247
16439SOL     OW51275   6.746   3.931   7.063
16439SOL    HW151276   6.746   3.995   7.140
16439SOL    HW251277   6.774   3.979   6.980
16440SOL     OW51278   5.594   5.050   5.786
16440SOL    HW151279   5.501   5.071   5.755
16440SOL    HW251280   5.604   4.951   5.799
16441SOL     OW51281   5.674   5.525   6.513
16441SOL    HW151282   5.632   5.439   6.486
16441SOL    HW251283   5.768   5.528   6.479
16442SOL     OW51284   6.090   5.292   6.496
16442SOL    HW151285   6.156   5.366   6.505
16442SOL    HW251286   6.134   5.213   6.454
16443SOL     OW51287   6.588   4.520   6.824
16443SOL    HW151288   6.629   4.488   6.910
16443SOL    HW251289   6.492   4.493   6.821
16444SOL     OW51290   5.626   4.268   6.700
16444SOL    HW151291   5.711   4.235   6.659
16444SOL    HW251292   5.639   4.283   6.798
16445SOL     OW51293   5.775   4.244   7.308
16445SOL    HW151294   5.834   4.204   7.238
16445SOL    HW251295   5.717   4.315   7.267
16446SOL     OW51296   6.955   4.674   7.246
16446SOL    HW151297   6.994   4.763   7.266
16446SOL    HW251298   6.965   4.654   7.149
16447SOL     OW51299   7.243   4.328   6.792
16447SOL    HW151300   7.205   4.259   6.854
16447SOL    HW251301   7.325   4.292   6.748
16448SOL     OW51302   5.838   5.288   7.330
16448SOL    HW151303   5.808   5.345   7.406
16448SOL    HW251304   5.831   5.191   7.356
16449SOL     OW51305   6.257   4.188   6.855
16449SOL    HW151306   6.223   4.099   6.825
16449SOL    HW251307   6.283   4.242   6.775
16450SOL     OW51308   6.516   5.402   7.051
16450SOL    HW151309   6.492   5.384   6.956
16450SOL    HW251310   6.546   5.496   7.061
16451SOL     OW51311   6.059   4.224   5.777
16451SOL    HW151312   6.120   4.304   5.781
16451SOL    HW251313   5.964   4.255   5.784
16452SOL     OW51314   5.745   4.861   7.052
16452SOL    HW151315   5.767   4.800   7.128
16452SOL    HW251316   5.755   4.812   6.966
16453SOL     OW51317   6.933   4.783   6.820
16453SOL    HW151318   6.957   4.720   6.746
16453SOL    HW251319   6.843   4.823   6.802
16454SOL     OW51320   6.888   4.579   5.895
16454SOL    HW151321   6.802   4.548   5.937
16454SOL    HW251322   6.884   4.565   5.796
16455SOL     OW51323   7.345   5.471   6.740
16455SOL    HW151324   7.406   5.501   6.667
16455SOL    HW251325   7.307   5.382   6.718
16456SOL     OW51326   6.838   5.455   6.714
16456SOL    HW151327   6.922   5.460   6.660
16456SOL    HW251328   6.815   5.359   6.732
16457SOL     OW51329   5.669   4.982   6.608
16457SOL    HW151330   5.664   4.981   6.708
16457SOL    HW251331   5.586   4.941   6.570
16458SOL     OW51332   6.274   5.386   7.302
16458SOL    HW151333   6.218   5.467   7.311
16458SOL    HW251334   6.326   5.390   7.216
16459SOL     OW51335   6.489   3.810   5.719
16459SOL    HW151336   6.540   3.811   5.633
16459SOL    HW251337   6.545   3.768   5.790
16460SOL     OW51338   6.974   5.297   6.063
16460SOL    HW151339   7.041   5.309   5.989
16460SOL    HW251340   6.934   5.386   6.086
16461SOL     OW51341   5.716   5.518   7.437
16461SOL    HW151342   5.675   5.444   7.490
16461SOL    HW251343   5.780   5.569   7.495
16462SOL     OW51344   6.866   4.651   6.258
16462SOL    HW151345   6.926   4.570   6.260
16462SOL    HW251346   6.906   4.720   6.198
16463SOL     OW51347   6.416   4.997   7.008
16463SOL    HW151348   6.411   5.030   7.103
16463SOL    HW251349   6.330   5.016   6.962
16464SOL     OW51350   6.258   5.340   5.740
16464SOL    HW151351   6.267   5.350   5.641
16464SOL    HW251352   6.218   5.251   5.761
16465SOL     OW51353   7.236   5.444   6.980
16465SOL    HW151354   7.289   5.454   6.896
16465SOL    HW251355   7.209   5.534   7.014
16466SOL     OW51356   7.427   3.899   6.549
16466SOL    HW151357   7.466   3.814   6.513
16466SOL    HW251358   7.329   3.901   6.530
16467SOL     OW51359   5.849   4.050   6.306
16467SOL    HW151360   5.770   4.101   6.272
16467SOL    HW251361   5.840   4.035   6.404
16468SOL     OW51362   6.780   5.336   5.617
16468SOL    HW151363   6.786   5.243   5.654
16468SOL    HW251364   6.721   5.336   5.537
16469SOL     OW51365   6.408   4.726   6.958
16469SOL    HW151366   6.448   4.725   6.866
16469SOL    HW251367   6.418   4.818   6.998
16470SOL     OW51368   6.502   4.634   5.877
16470SOL    HW151369   6.565   4.672   5.809
16470SOL    HW251370   6.542   4.551   5.916
16471SOL     OW51371   7.090   5.331   5.630
16471SOL    HW151372   6.998   5.368   5.637
16471SOL    HW251373   7.128   5.351   5.540
16472SOL     OW51374   5.958   5.012   7.076
16472SOL    HW151375   5.945   5.105   7.042
16472SOL    HW251376   5.874   4.960   7.063
16473SOL     OW51377   7.200   5.016   6.875
16473SOL    HW151378   7.260   5.019   6.955
16473SOL    HW251379   7.125   5.080   6.888
16474SOL     OW51380   6.625   4.822   6.282
16474SOL    HW151381   6.555   4.775   6.336
16474SOL    HW251382   6.684   4.754   6.239
16475SOL     OW51383   6.176   5.211   6.077
16475SOL    HW151384   6.218   5.153   6.007
16475SOL    HW251385   6.132   5.290   6.033
16476SOL     OW51386   7.295   4.109   6.967
16476SOL    HW151387   7.368   4.178   6.971
16476SOL    HW251388   7.323   4.034   6.908
16477SOL     OW51389   5.841   5.072   5.876
16477SOL    HW151390   5.745   5.073   5.849
16477SOL    HW251391   5.853   5.125   5.960
16478SOL     OW51392   5.691   4.737   7.312
16478SOL    HW151393   5.614   4.704   7.366
16478SOL    HW251394   5.776   4.707   7.354
16479SOL     OW51395   6.258   3.927   7.075
16479SOL    HW151396   6.348   3.911   7.035
16479SOL    HW251397   6.266   3.932   7.174
16480SOL     OW51398   5.661   4.069   5.619
16480SOL    HW151399   5.569   4.041   5.590
16480SOL    HW251400   5.692   4.146   5.563
16481SOL     OW51401   7.026   4.580   6.984
16481SOL    HW151402   6.969   4.632   6.921
16481SOL    HW251403   7.122   4.592   6.960
16482SOL     OW51404   5.658   3.890   5.904
16482SOL    HW151405   5.641   3.973   5.850
16482SOL    HW251406   5.748   3.853   5.882
16483SOL     OW51407   6.769   5.059   5.705
16483SOL    HW151408   6.670   5.048   5.707
16483SOL    HW251409   6.803   5.074   5.798
16484SOL     OW51410   6.199   4.566   7.017
16484SOL    HW151411   6.255   4.647   7.000
16484SOL    HW251412   6.258   4.486   7.020
16485SOL     OW51413   7.079   5.491   6.545
16485SOL    HW151414   7.112   5.555   6.476
16485SOL    HW251415   7.145   5.485   6.620
16486SOL     OW51416   6.302   4.289   7.294
16486SOL    HW151417   6.321   4.354   7.368
16486SOL    HW251418   6.362   4.209   7.303
16487SOL     OW51419   7.036   4.944   7.219
16487SOL    HW151420   7.027   4.934   7.318
16487SOL    HW251421   7.132   4.937   7.193
16488SOL     OW51422   5.976   5.465   7.146
16488SOL    HW151423   5.885   5.506   7.144
16488SOL    HW251424   5.969   5.371   7.178
16489SOL     OW51425   7.260   4.607   6.840
16489SOL    HW151426   7.233   4.518   6.803
16489SOL    HW251427   7.261   4.675   6.767
16490SOL     OW51428   6.811   4.049   6.035
16490SOL    HW151429   6.876   3.975   6.024
16490SOL    HW251430   6.831   4.099   6.119
16491SOL     OW51431   6.180   4.469   6.238
16491SOL    HW151432   6.230   4.554   6.219
16491SOL    HW251433   6.092   4.471   6.190
16492SOL     OW51434   7.363   4.066   7.228
16492SOL    HW151435   7.346   4.097   7.134
16492SOL    HW251436   7.279   4.029   7.266
16493SOL     OW51437   7.316   4.658   7.103
16493SOL    HW151438   7.354   4.749   7.118
16493SOL    HW251439   7.308   4.641   7.004
16494SOL     OW51440   6.445   5.098   5.602
16494SOL    HW151441   6.399   5.113   5.690
16494SOL    HW251442   6.489   5.183   5.572
16495SOL     OW51443   6.247   5.514   6.539
16495SOL    HW151444   6.201   5.602   6.526
16495SOL    HW251445   6.346   5.526   6.532
16496SOL     OW51446   6.994   5.575   7.306
16496SOL    HW151447   6.898   5.564   7.279
16496SOL    HW251448   7.050   5.508   7.258
16497SOL     OW51449   6.445   4.680   6.447
16497SOL    HW151450   6.499   4.611   6.495
16497SOL    HW251451   6.413   4.749   6.513
16498SOL     OW51452   6.669   4.708   5.673
16498SOL    HW151453   6.646   4.761   5.591
16498SOL    HW251454   6.750   4.652   5.654
16499SOL     OW51455   7.447   5.293   6.437
16499SOL    HW151456   7.376   5.281   6.367
16499SOL    HW251457   7.448   5.214   6.497
16500SOL     OW51458   5.807   5.038   7.430
16500SOL    HW151459   5.742   4.965   7.409
16500SOL    HW251460   5.811   5.052   7.528
16501SOL     OW51461   5.665   4.964   6.239
16501SOL    HW151462   5.664   4.917   6.327
16501SOL    HW251463   5.747   4.936   6.188
16502SOL     OW51464   6.258   5.115   7.210
16502SOL    HW151465   6.180   5.065   7.248
16502SOL    HW251466   6.255   5.210   7.241
16503SOL     OW51467   7.410   3.916   6.813
16503SOL    HW151468   7.406   3.826   6.857
16503SOL    HW251469   7.413   3.905   6.714
16504SOL     OW51470   6.014   4.148   6.106
16504SOL    HW151471   6.044   4.076   6.044
16504SOL    HW251472   5.975   4.108   6.189
16505SOL     OW51473   7.291   5.211   6.690
16505SOL    HW151474   7.198   5.186   6.663
16505SOL    HW251475   7.317   5.161   6.772
16506SOL     OW51476   5.903   4.271   6.866
16506SOL    HW151477   5.941   4.212   6.938
16506SOL    HW251478   5.943   4.245   6.778
16507SOL     OW51479   6.398   5.310   6.273
16507SOL    HW151480   6.430   5.320   6.179
16507SOL    HW251481   6.319   5.248   6.275
16508SOL     OW51482   7.010   3.938   6.698
16508SOL    HW151483   7.062   3.873   6.753
16508SOL    HW251484   6.961   4.001   6.759
16509SOL     OW51485   6.356   5.054   5.887
16509SOL    HW151486   6.310   4.967   5.904
16509SOL    HW251487   6.447   5.051   5.928
16510SOL     OW51488   6.204   5.291   6.870
16510SOL    HW151489   6.199   5.373   6.927
16510SOL    HW251490   6.293   5.288   6.825
16511SOL     OW51491   6.886   4.177   6.277
16511SOL    HW151492   6.827   4.257   6.281
16511SOL    HW251493   6.901   4.142   6.370
16512SOL     OW51494   5.625   4.801   5.886
16512SOL    HW151495   5.724   4.790   5.877
16512SOL    HW251496   5.585   4.715   5.918
16513SOL     OW51497   6.461   5.370   5.923
16513SOL    HW151498   6.384   5.335   5.869
16513SOL    HW251499   6.429   5.441   5.985
16514SOL     OW51500   5.816   4.352   7.561
16514SOL    HW151501   5.723   4.350   7.598
16514SOL    HW251502   5.817   4.313   7.469
16515SOL     OW51503   5.811   3.999   8.444
16515SOL    HW151504   5.846   3.982   8.536
16515SOL    HW251505   5.723   3.954   8.432
16516SOL     OW51506   5.605   4.092   8.095
16516SOL    HW151507   5.523   4.135   8.134
16516SOL    HW251508   5.577   4.019   8.032
16517SOL     OW51509   6.155   4.999   8.613
16517SOL    HW151510   6.062   4.992   8.576
16517SOL    HW251511   6.166   5.088   8.657
16518SOL     OW51512   7.141   5.235   8.151
16518SOL    HW151513   7.084   5.219   8.232
16518SOL    HW251514   7.082   5.245   8.071
16519SOL     OW51515   7.329   4.342   8.304
16519SOL    HW151516   7.362   4.436   8.304
16519SOL    HW251517   7.380   4.288   8.370
16520SOL     OW51518   6.721   4.427   8.165
16520SOL    HW151519   6.778   4.505   8.140
16520SOL    HW251520   6.661   4.453   8.241
16521SOL     OW51521   7.341   4.331   7.679
16521SOL    HW151522   7.329   4.318   7.580
16521SOL    HW251523   7.311   4.250   7.728
16522SOL     OW51524   6.354   4.868   8.471
16522SOL    HW151525   6.276   4.885   8.531
16522SOL    HW251526   6.388   4.955   8.435
16523SOL     OW51527   6.271   4.736   8.113
16523SOL    HW151528   6.340   4.720   8.183
16523SOL    HW251529   6.198   4.793   8.151
16524SOL     OW51530   5.921   5.159   8.509
16524SOL    HW151531   5.843   5.128   8.456
16524SOL    HW251532   5.979   5.217   8.452
16525SOL     OW51533   7.046   5.229   8.787
16525SOL    HW151534   7.070   5.323   8.813
16525SOL    HW251535   7.030   5.175   8.869
16526SOL     OW51536   6.024   4.116   8.947
16526SOL    HW151537   6.106   4.060   8.956
16526SOL    HW251538   5.943   4.058   8.951
16527SOL     OW51539   7.189   4.171   8.185
16527SOL    HW151540   7.115   4.217   8.135
16527SOL    HW251541   7.240   4.239   8.238
16528SOL     OW51542   5.817   5.437   7.931
16528SOL    HW151543   5.851   5.514   7.985
16528SOL    HW251544   5.861   5.437   7.841
16529SOL     OW51545   5.816   5.158   7.986
16529SOL    HW151546   5.790   5.254   7.986
16529SOL    HW251547   5.745   5.104   8.031
16530SOL     OW51548   5.826   4.815   8.334
16530SOL    HW151549   5.840   4.731   8.386
16530SOL    HW251550   5.771   4.879   8.389
16531SOL     OW51551   6.206   5.510   8.887
16531SOL    HW151552   6.114   5.493   8.922
16531SOL    HW251553   6.234   5.602   8.913
16532SOL     OW51554   6.192   4.688   7.571
16532SOL    HW151555   6.199   4.772   7.517
16532SOL    HW251556   6.238   4.701   7.659
16533SOL     OW51557   7.180   3.838   8.928
16533SOL    HW151558   7.162   3.905   8.856
16533SOL    HW251559   7.177   3.884   9.017
16534SOL     OW51560   5.708   4.367   8.011
16534SOL    HW151561   5.663   4.279   8.028
16534SOL    HW251562   5.707   4.421   8.095
16535SOL     OW51563   7.428   5.491   7.807
16535SOL    HW151564   7.482   5.462   7.887
16535SOL    HW251565   7.458   5.581   7.778
16536SOL     OW51566   5.613   5.320   7.565
16536SOL    HW151567   5.594   5.224   7.586
16536SOL    HW251568   5.580   5.378   7.640
16537SOL     OW51569   7.275   4.646   8.060
16537SOL    HW151570   7.370   4.617   8.068
16537SOL    HW251571   7.267   4.711   7.985
16538SOL     OW51572   7.227   4.832   7.880
16538SOL    HW151573   7.313   4.834   7.828
16538SOL    HW251574   7.241   4.879   7.968
16539SOL     OW51575   6.199   5.089   8.174
16539SOL    HW151576   6.150   5.002   8.183
16539SOL    HW251577   6.176   5.132   8.087
16540SOL     OW51578   6.395   3.728   7.950
16540SOL    HW151579   6.435   3.819   7.941
16540SOL    HW251580   6.295   3.736   7.956
16541SOL     OW51581   5.783   4.700   8.712
16541SOL    HW151582   5.872   4.655   8.698
16541SOL    HW251583   5.710   4.635   8.693
16542SOL     OW51584   7.111   4.723   7.638
16542SOL    HW151585   7.048   4.647   7.651
16542SOL    HW251586   7.159   4.741   7.724
16543SOL     OW51587   7.052   5.141   8.401
16543SOL    HW151588   6.993   5.147   8.481
16543SOL    HW251589   7.037   5.053   8.355
16544SOL     OW51590   7.253   5.438   8.020
16544SOL    HW151591   7.212   5.415   7.932
16544SOL    HW251592   7.235   5.364   8.085
16545SOL     OW51593   6.184   4.453   7.718
16545SOL    HW151594   6.208   4.522   7.650
16545SOL    HW251595   6.106   4.486   7.772
16546SOL     OW51596   6.867   4.069   8.392
16546SOL    HW151597   6.781   4.019   8.379
16546SOL    HW251598   6.929   4.015   8.448
16547SOL     OW51599   7.162   5.386   7.755
16547SOL    HW151600   7.251   5.432   7.758
16547SOL    HW251601   7.141   5.362   7.660
16548SOL     OW51602   6.393   4.329   8.913
16548SOL    HW151603   6.346   4.326   9.002
16548SOL    HW251604   6.342   4.274   8.847
16549SOL     OW51605   6.577   4.134   8.690
16549SOL    HW151606   6.500   4.168   8.744
16549SOL    HW251607   6.543   4.083   8.611
16550SOL     OW51608   6.627   4.425   7.877
16550SOL    HW151609   6.653   4.421   7.973
16550SOL    HW251610   6.542   4.374   7.863
16551SOL     OW51611   5.662   4.535   8.237
16551SOL    HW151612   5.761   4.523   8.246
16551SOL    HW251613   5.638   4.630   8.258
16552SOL     OW51614   5.716   5.545   0.019
16552SOL    HW151615   5.706   5.530   0.118
16552SOL    HW251616   5.630   5.581  -0.017
16553SOL     OW51617   6.451   4.072   7.643
16553SOL    HW151618   6.510   4.135   7.594
16553SOL    HW251619   6.470   3.978   7.614
16554SOL     OW51620   6.948   4.868   7.993
16554SOL    HW151621   7.031   4.839   7.945
16554SOL    HW251622   6.899   4.935   7.937
16555SOL     OW51623   6.136   3.920   8.333
16555SOL    HW151624   6.131   3.915   8.433
16555SOL    HW251625   6.138   4.016   8.304
16556SOL     OW51626   6.594   5.180   7.925
16556SOL    HW151627   6.548   5.252   7.873
16556SOL    HW251628   6.590   5.200   8.023
16557SOL     OW51629   5.937   5.525   8.301
16557SOL    HW151630   5.987   5.439   8.307
16557SOL    HW251631   6.002   5.602   8.298
16558SOL     OW51632   7.381   4.790   8.321
16558SOL    HW151633   7.319   4.775   8.245
16558SOL    HW251634   7.329   4.801   8.406
16559SOL     OW51635   5.907   4.667   7.690
16559SOL    HW151636   5.989   4.706   7.648
16559SOL    HW251637   5.880   4.585   7.641
16560SOL     OW51638   7.044   4.459   8.176
16560SOL    HW151639   7.039   4.394   8.251
16560SOL    HW251640   7.124   4.518   8.189
16561SOL     OW51641   6.697   5.500   7.685
16561SOL    HW151642   6.637   5.438   7.735
16561SOL    HW251643   6.728   5.456   7.600
16562SOL     OW51644   5.788   4.009   8.946
16562SOL    HW151645   5.708   4.069   8.933
16562SOL    HW251646   5.778   3.960   9.032
16563SOL     OW51647   7.218   5.101   7.529
16563SOL    HW151648   7.186   5.195   7.519
16563SOL    HW251649   7.142   5.038   7.517
16564SOL     OW51650   6.050   5.467   7.771
16564SOL    HW151651   6.083   5.506   7.857
16564SOL    HW251652   6.126   5.460   7.706
16565SOL     OW51653   6.986   3.831   7.874
16565SOL    HW151654   6.962   3.794   7.784
16565SOL    HW251655   7.085   3.847   7.878
16566SOL     OW51656   5.835   5.509   8.689
16566SOL    HW151657   5.892   5.444   8.739
16566SOL    HW251658   5.819   5.476   8.596
16567SOL     OW51659   6.526   5.422   8.352
16567SOL    HW151660   6.606   5.365   8.373
16567SOL    HW251661   6.477   5.382   8.275
16568SOL     OW51662   5.968   4.424   7.928
16568SOL    HW151663   6.013   4.334   7.925
16568SOL    HW251664   5.874   4.413   7.961
16569SOL     OW51665   6.200   3.846   7.565
16569SOL    HW151666   6.298   3.824   7.572
16569SOL    HW251667   6.169   3.829   7.472
16570SOL     OW51668   6.474   5.238   8.643
16570SOL    HW151669   6.451   5.213   8.549
16570SOL    HW251670   6.535   5.169   8.682
16571SOL     OW51671   6.389   5.126   8.372
16571SOL    HW151672   6.479   5.140   8.330
16571SOL    HW251673   6.318   5.128   8.301
16572SOL     OW51674   6.508   4.227   8.347
16572SOL    HW151675   6.483   4.218   8.251
16572SOL    HW251676   6.556   4.145   8.378
16573SOL     OW51677   6.125   3.788   7.960
16573SOL    HW151678   6.044   3.789   8.018
16573SOL    HW251679   6.128   3.871   7.905
16574SOL     OW51680   7.020   4.912   7.489
16574SOL    HW151681   7.052   4.836   7.546
16574SOL    HW251682   6.928   4.939   7.519
16575SOL     OW51683   5.883   3.759   7.619
16575SOL    HW151684   5.932   3.843   7.598
16575SOL    HW251685   5.945   3.694   7.664
16576SOL     OW51686   6.521   3.960   7.928
16576SOL    HW151687   6.473   4.001   7.850
16576SOL    HW251688   6.620   3.958   7.909
16577SOL     OW51689   6.813   5.294   8.241
16577SOL    HW151690   6.834   5.368   8.176
16577SOL    HW251691   6.881   5.294   8.314
16578SOL     OW51692   6.045   4.876   8.189
16578SOL    HW151693   5.974   4.849   8.254
16578SOL    HW251694   6.019   4.848   8.096
16579SOL     OW51695   6.857   5.521   8.039
16579SOL    HW151696   6.901   5.585   7.975
16579SOL    HW251697   6.807   5.573   8.109
16580SOL     OW51698   6.618   4.273   7.464
16580SOL    HW151699   6.577   4.355   7.425
16580SOL    HW251700   6.682   4.299   7.537
16581SOL     OW51701   5.664   4.280   8.834
16581SOL    HW151702   5.756   4.279   8.793
16581SOL    HW251703   5.658   4.354   8.901
16582SOL     OW51704   6.147   3.946   8.595
16582SOL    HW151705   6.185   3.862   8.632
16582SOL    HW251706   6.059   3.965   8.639
16583SOL     OW51707   6.452   4.178   8.090
16583SOL    HW151708   6.420   4.250   8.028
16583SOL    HW251709   6.476   4.097   8.037
16584SOL     OW51710   6.603   3.763   8.201
16584SOL    HW151711   6.531   3.768   8.132
16584SOL    HW251712   6.579   3.694   8.270
16585SOL     OW51713   7.015   4.897   8.315
16585SOL    HW151714   6.960   4.813   8.308
16585SOL    HW251715   7.041   4.926   8.223
16586SOL     OW51716   7.052   4.314   8.440
16586SOL    HW151717   7.022   4.219   8.447
16586SOL    HW251718   7.125   4.330   8.506
16587SOL     OW51719   7.443   4.557   7.825
16587SOL    HW151720   7.485   4.493   7.889
16587SOL    HW251721   7.405   4.506   7.747
16588SOL     OW51722   6.074   5.109   7.622
16588SOL    HW151723   5.987   5.094   7.669
16588SOL    HW251724   6.057   5.135   7.527
16589SOL     OW51725   7.250   5.004   8.105
16589SOL    HW151726   7.349   5.012   8.119
16589SOL    HW251727   7.205   5.088   8.136
16590SOL     OW51728   6.976   4.299   7.526
16590SOL    HW151729   6.922   4.278   7.607
16590SOL    HW251730   7.067   4.258   7.535
16591SOL     OW51731   6.113   3.980   7.776
16591SOL    HW151732   6.140   3.921   7.701
16591SOL    HW251733   6.113   4.075   7.745
16592SOL     OW51734   6.650   5.071   8.788
16592SOL    HW151735   6.570   5.048   8.843
16592SOL    HW251736   6.733   5.045   8.837
16593SOL     OW51737   6.697   4.919   8.548
16593SOL    HW151738   6.657   4.963   8.629
16593SOL    HW251739   6.656   4.956   8.465
16594SOL     OW51740   7.224   4.823   8.527
16594SOL    HW151741   7.229   4.904   8.586
16594SOL    HW251742   7.138   4.825   8.476
16595SOL     OW51743   6.501   3.813   8.850
16595SOL    HW151744   6.526   3.793   8.755
16595SOL    HW251745   6.573   3.869   8.892
16596SOL     OW51746   6.291   4.774   7.816
16596SOL    HW151747   6.277   4.781   7.915
16596SOL    HW251748   6.375   4.723   7.798
16597SOL     OW51749   5.996   4.537   8.699
16597SOL    HW151750   6.082   4.549   8.749
16597SOL    HW251751   5.954   4.450   8.726
16598SOL     OW51752   6.860   4.110   8.710
16598SOL    HW151753   6.881   4.184   8.774
16598SOL    HW251754   6.771   4.127   8.667
16599SOL     OW51755   5.650   5.288   8.779
16599SOL    HW151756   5.604   5.370   8.745
16599SOL    HW251757   5.748   5.307   8.788
16600SOL     OW51758   5.953   4.824   7.949
16600SOL    HW151759   5.946   4.907   7.893
16600SOL    HW251760   5.957   4.744   7.889
16601SOL     OW51761   6.152   4.261   8.313
16601SOL    HW151762   6.164   4.327   8.239
16601SOL    HW251763   6.198   4.295   8.396
16602SOL     OW51764   6.838   5.072   7.836
16602SOL    HW151765   6.888   5.149   7.876
16602SOL    HW251766   6.743   5.074   7.868
16603SOL     OW51767   6.858   5.169   8.590
16603SOL    HW151768   6.905   5.182   8.677
16603SOL    HW251769   6.792   5.095   8.599
16604SOL     OW51770   7.168   4.363   7.920
16604SOL    HW151771   7.137   4.424   7.993
16604SOL    HW251772   7.218   4.415   7.851
16605SOL     OW51773   5.940   5.234   8.777
16605SOL    HW151774   5.919   5.190   8.690
16605SOL    HW251775   6.037   5.260   8.780
16606SOL     OW51776   5.988   4.475   0.046
16606SOL    HW151777   6.056   4.530  -0.001
16606SOL    HW251778   6.028   4.387   0.073
16607SOL     OW51779   7.173   4.503   0.118
16607SOL    HW151780   7.081   4.541   0.113
16607SOL    HW251781   7.233   4.550   0.053
16608SOL     OW51782   6.159   4.594   8.477
16608SOL    HW151783   6.203   4.683   8.468
16608SOL    HW251784   6.096   4.594   8.554
16609SOL     OW51785   6.946   4.586   8.493
16609SOL    HW151786   6.871   4.586   8.427
16609SOL    HW251787   6.983   4.494   8.502
16610SOL     OW51788   6.795   4.249   7.723
16610SOL    HW151789   6.808   4.165   7.777
16610SOL    HW251790   6.766   4.323   7.783
16611SOL     OW51791   5.893   3.937   8.679
16611SOL    HW151792   5.870   3.974   8.769
16611SOL    HW251793   5.863   3.842   8.673
16612SOL     OW51794   5.623   5.034   8.730
16612SOL    HW151795   5.676   4.985   8.798
16612SOL    HW251796   5.645   5.132   8.735
16613SOL     OW51797   6.318   4.358   8.512
16613SOL    HW151798   6.377   4.332   8.436
16613SOL    HW251799   6.290   4.454   8.501
16614SOL     OW51800   7.208   4.091   7.822
16614SOL    HW151801   7.210   4.015   7.886
16614SOL    HW251802   7.160   4.168   7.862
16615SOL     OW51803   6.609   4.490   8.414
16615SOL    HW151804   6.624   4.511   8.510
16615SOL    HW251805   6.579   4.395   8.405
16616SOL     OW51806   6.566   5.297   0.148
16616SOL    HW151807   6.546   5.341   0.060
16616SOL    HW251808   6.605   5.206   0.132
16617SOL     OW51809   7.445   5.242   0.053
16617SOL    HW151810   7.459   5.269  -0.042
16617SOL    HW251811   7.528   5.264   0.106
16618SOL     OW51812   7.126   3.998   7.573
16618SOL    HW151813   7.065   3.923   7.596
16618SOL    HW251814   7.148   4.050   7.656
16619SOL     OW51815   6.889   4.562   7.490
16619SOL    HW151816   6.923   4.469   7.505
16619SOL    HW251817   6.907   4.589   7.395
16620SOL     OW51818   6.654   5.057   8.297
16620SOL    HW151819   6.661   4.973   8.242
16620SOL    HW251820   6.716   5.126   8.261
16621SOL     OW51821   5.905   4.534   8.397
16621SOL    HW151822   5.998   4.570   8.402
16621SOL    HW251823   5.899   4.449   8.449
16622SOL     OW51824   5.925   4.233   8.454
16622SOL    HW151825   5.873   4.150   8.437
16622SOL    HW251826   6.002   4.238   8.390
16623SOL     OW51827   6.724   4.104   0.126
16623SOL    HW151828   6.679   4.167   0.190
16623SOL    HW251829   6.817   4.135   0.109
16624SOL     OW51830   6.746   3.931   8.925
16624SOL    HW151831   6.746   3.995   9.002
16624SOL    HW251832   6.774   3.979   8.842
16625SOL     OW51833   5.594   5.050   7.648
16625SOL    HW151834   5.501   5.071   7.617
16625SOL    HW251835   5.604   4.951   7.661
16626SOL     OW51836   5.674   5.525   8.375
16626SOL    HW151837   5.632   5.439   8.348
16626SOL    HW251838   5.768   5.528   8.341
16627SOL     OW51839   6.090   5.292   8.358
16627SOL    HW151840   6.156   5.366   8.367
16627SOL    HW251841   6.134   5.213   8.316
16628SOL     OW51842   6.588   4.520   8.686
16628SOL    HW151843   6.629   4.488   8.772
16628SOL    HW251844   6.492   4.493   8.683
16629SOL     OW51845   5.626   4.268   8.562
16629SOL    HW151846   5.711   4.235   8.521
16629SOL    HW251847   5.639   4.283   8.660
16630SOL     OW51848   6.401   4.296   7.773
16630SOL    HW151849   6.408   4.207   7.727
16630SOL    HW251850   6.307   4.330   7.765
16631SOL     OW51851   7.243   4.328   8.654
16631SOL    HW151852   7.205   4.259   8.716
16631SOL    HW251853   7.325   4.292   8.610
16632SOL     OW51854   6.257   4.188   8.717
16632SOL    HW151855   6.223   4.099   8.687
16632SOL    HW251856   6.283   4.242   8.637
16633SOL     OW51857   6.516   5.402   8.913
16633SOL    HW151858   6.492   5.384   8.818
16633SOL    HW251859   6.546   5.496   8.923
16634SOL     OW51860   6.059   4.224   7.639
16634SOL    HW151861   6.120   4.304   7.643
16634SOL    HW251862   5.964   4.255   7.646
16635SOL     OW51863   5.745   4.861   8.914
16635SOL    HW151864   5.767   4.800   8.990
16635SOL    HW251865   5.755   4.812   8.828
16636SOL     OW51866   6.933   4.783   8.682
16636SOL    HW151867   6.957   4.720   8.608
16636SOL    HW251868   6.843   4.823   8.664
16637SOL     OW51869   6.888   4.579   7.757
16637SOL    HW151870   6.802   4.548   7.799
16637SOL    HW251871   6.884   4.565   7.658
16638SOL     OW51872   7.345   5.471   8.602
16638SOL    HW151873   7.406   5.501   8.529
16638SOL    HW251874   7.307   5.382   8.580
16639SOL     OW51875   6.838   5.455   8.576
16639SOL    HW151876   6.922   5.460   8.522
16639SOL    HW251877   6.815   5.359   8.594
16640SOL     OW51878   5.669   4.982   8.470
16640SOL    HW151879   5.664   4.981   8.570
16640SOL    HW251880   5.586   4.941   8.432
16641SOL     OW51881   6.489   3.810   7.581
16641SOL    HW151882   6.540   3.811   7.495
16641SOL    HW251883   6.545   3.768   7.652
16642SOL     OW51884   7.312   3.859   7.971
16642SOL    HW151885   7.385   3.842   7.904
16642SOL    HW251886   7.281   3.772   8.009
16643SOL     OW51887   6.974   5.297   7.925
16643SOL    HW151888   7.041   5.309   7.851
16643SOL    HW251889   6.934   5.386   7.948
16644SOL     OW51890   6.866   4.651   8.120
16644SOL    HW151891   6.926   4.570   8.122
16644SOL    HW251892   6.906   4.720   8.060
16645SOL     OW51893   6.258   5.340   7.602
16645SOL    HW151894   6.267   5.350   7.503
16645SOL    HW251895   6.218   5.251   7.623
16646SOL     OW51896   7.236   5.444   8.842
16646SOL    HW151897   7.289   5.454   8.758
16646SOL    HW251898   7.209   5.534   8.876
16647SOL     OW51899   7.427   3.899   8.411
16647SOL    HW151900   7.466   3.814   8.375
16647SOL    HW251901   7.329   3.901   8.392
16648SOL     OW51902   5.849   4.050   8.168
16648SOL    HW151903   5.770   4.101   8.134
16648SOL    HW251904   5.840   4.035   8.266
16649SOL     OW51905   6.780   5.336   7.479
16649SOL    HW151906   6.786   5.243   7.516
16649SOL    HW251907   6.721   5.336   7.399
16650SOL     OW51908   6.408   4.726   8.820
16650SOL    HW151909   6.448   4.725   8.728
16650SOL    HW251910   6.418   4.818   8.860
16651SOL     OW51911   6.502   4.634   7.739
16651SOL    HW151912   6.565   4.672   7.671
16651SOL    HW251913   6.542   4.551   7.778
16652SOL     OW51914   7.090   5.331   7.492
16652SOL    HW151915   6.998   5.368   7.499
16652SOL    HW251916   7.128   5.351   7.402
16653SOL     OW51917   5.958   5.012   8.938
16653SOL    HW151918   5.945   5.105   8.904
16653SOL    HW251919   5.874   4.960   8.925
16654SOL     OW51920   7.200   5.016   8.737
16654SOL    HW151921   7.260   5.019   8.817
16654SOL    HW251922   7.125   5.080   8.750
16655SOL     OW51923   6.625   4.822   8.144
16655SOL    HW151924   6.555   4.775   8.198
16655SOL    HW251925   6.684   4.754   8.101
16656SOL     OW51926   6.600   3.960   8.419
16656SOL    HW151927   6.592   3.924   8.326
16656SOL    HW251928   6.598   3.884   8.484
16657SOL     OW51929   6.176   5.211   7.939
16657SOL    HW151930   6.218   5.153   7.869
16657SOL    HW251931   6.132   5.290   7.895
16658SOL     OW51932   7.295   4.109   8.829
16658SOL    HW151933   7.368   4.178   8.833
16658SOL    HW251934   7.323   4.034   8.770
16659SOL     OW51935   5.841   5.072   7.738
16659SOL    HW151936   5.745   5.073   7.711
16659SOL    HW251937   5.853   5.125   7.822
16660SOL     OW51938   5.661   4.069   7.481
16660SOL    HW151939   5.569   4.041   7.452
16660SOL    HW251940   5.692   4.146   7.425
16661SOL     OW51941   7.026   4.580   8.846
16661SOL    HW151942   6.969   4.632   8.783
16661SOL    HW251943   7.122   4.592   8.822
16662SOL     OW51944   5.658   3.890   7.766
16662SOL    HW151945   5.641   3.973   7.712
16662SOL    HW251946   5.748   3.853   7.744
16663SOL     OW51947   6.769   5.059   7.567
16663SOL    HW151948   6.670   5.048   7.569
16663SOL    HW251949   6.803   5.074   7.660
16664SOL     OW51950   6.199   4.566   8.879
16664SOL    HW151951   6.255   4.647   8.862
16664SOL    HW251952   6.258   4.486   8.882
16665SOL     OW51953   7.079   5.491   8.407
16665SOL    HW151954   7.112   5.555   8.338
16665SOL    HW251955   7.145   5.485   8.482
16666SOL     OW51956   5.976   5.465   0.008
16666SOL    HW151957   5.885   5.506   0.006
16666SOL    HW251958   5.969   5.371   0.040
16667SOL     OW51959   7.260   4.607   8.702
16667SOL    HW151960   7.233   4.518   8.665
16667SOL    HW251961   7.261   4.675   8.629
16668SOL     OW51962   6.811   4.049   7.897
16668SOL    HW151963   6.876   3.975   7.886
16668SOL    HW251964   6.831   4.099   7.981
16669SOL     OW51965   6.180   4.469   8.100
16669SOL    HW151966   6.230   4.554   8.081
16669SOL    HW251967   6.092   4.471   8.052
16670SOL     OW51968   7.363   4.066   0.090
16670SOL    HW151969   7.346   4.097  -0.004
16670SOL    HW251970   7.279   4.029   0.128
16671SOL     OW51971   7.316   4.658   8.965
16671SOL    HW151972   7.354   4.749   8.980
16671SOL    HW251973   7.308   4.641   8.866
16672SOL     OW51974   6.445   5.098   7.464
16672SOL    HW151975   6.399   5.113   7.552
16672SOL    HW251976   6.489   5.183   7.434
16673SOL     OW51977   6.247   5.514   8.401
16673SOL    HW151978   6.201   5.602   8.388
16673SOL    HW251979   6.346   5.526   8.394
16674SOL     OW51980   6.994   5.575   0.168
16674SOL    HW151981   6.898   5.564   0.141
16674SOL    HW251982   7.050   5.508   0.120
16675SOL     OW51983   6.445   4.680   8.309
16675SOL    HW151984   6.499   4.611   8.357
16675SOL    HW251985   6.413   4.749   8.375
16676SOL     OW51986   6.669   4.708   7.535
16676SOL    HW151987   6.646   4.761   7.453
16676SOL    HW251988   6.750   4.652   7.516
16677SOL     OW51989   7.447   5.293   8.299
16677SOL    HW151990   7.376   5.281   8.229
16677SOL    HW251991   7.448   5.214   8.359
16678SOL     OW51992   5.665   4.964   8.101
16678SOL    HW151993   5.664   4.917   8.189
16678SOL    HW251994   5.747   4.936   8.050
16679SOL     OW51995   7.410   3.916   8.675
16679SOL    HW151996   7.406   3.826   8.719
16679SOL    HW251997   7.413   3.905   8.576
16680SOL     OW51998   6.014   4.148   7.968
16680SOL    HW151999   6.044   4.076   7.906
16680SOL    HW252000   5.975   4.108   8.051
16681SOL     OW52001   7.291   5.211   8.552
16681SOL    HW152002   7.198   5.186   8.525
16681SOL    HW252003   7.317   5.161   8.634
16682SOL     OW52004   5.903   4.271   8.728
16682SOL    HW152005   5.941   4.212   8.800
16682SOL    HW252006   5.943   4.245   8.640
16683SOL     OW52007   6.398   5.310   8.135
16683SOL    HW152008   6.430   5.320   8.041
16683SOL    HW252009   6.319   5.248   8.137
16684SOL     OW52010   7.010   3.938   8.560
16684SOL    HW152011   7.062   3.873   8.615
16684SOL    HW252012   6.961   4.001   8.621
16685SOL     OW52013   6.587   3.758   8.602
16685SOL    HW152014   6.524   3.686   8.571
16685SOL    HW252015   6.680   3.722   8.602
16686SOL     OW52016   6.356   5.054   7.749
16686SOL    HW152017   6.310   4.967   7.766
16686SOL    HW252018   6.447   5.051   7.790
16687SOL     OW52019   6.204   5.291   8.732
16687SOL    HW152020   6.199   5.373   8.789
16687SOL    HW252021   6.293   5.288   8.687
16688SOL     OW52022   6.938   3.776   7.616
16688SOL    HW152023   6.973   3.735   7.532
16688SOL    HW252024   6.848   3.738   7.636
16689SOL     OW52025   6.886   4.177   8.139
16689SOL    HW152026   6.827   4.257   8.143
16689SOL    HW252027   6.901   4.142   8.232
16690SOL     OW52028   7.179   3.945   8.330
16690SOL    HW152029   7.095   3.944   8.384
16690SOL    HW252030   7.181   4.028   8.274
16691SOL     OW52031   5.625   4.801   7.748
16691SOL    HW152032   5.724   4.790   7.739
16691SOL    HW252033   5.585   4.715   7.780
16692SOL     OW52034   6.461   5.370   7.785
16692SOL    HW152035   6.384   5.335   7.731
16692SOL    HW252036   6.429   5.441   7.847
16693SOL     OW52037   5.816   6.214   0.113
16693SOL    HW152038   5.723   6.212   0.150
16693SOL    HW252039   5.817   6.175   0.021
16694SOL     OW52040   5.811   5.861   0.996
16694SOL    HW152041   5.846   5.844   1.088
16694SOL    HW252042   5.723   5.816   0.984
16695SOL     OW52043   5.605   5.954   0.647
16695SOL    HW152044   5.523   5.997   0.686
16695SOL    HW252045   5.577   5.881   0.584
16696SOL     OW52046   6.155   6.861   1.165
16696SOL    HW152047   6.062   6.854   1.128
16696SOL    HW252048   6.166   6.950   1.209
16697SOL     OW52049   7.141   7.097   0.703
16697SOL    HW152050   7.084   7.081   0.784
16697SOL    HW252051   7.082   7.107   0.623
16698SOL     OW52052   7.329   6.204   0.856
16698SOL    HW152053   7.362   6.298   0.856
16698SOL    HW252054   7.380   6.150   0.922
16699SOL     OW52055   6.721   6.289   0.717
16699SOL    HW152056   6.778   6.367   0.692
16699SOL    HW252057   6.661   6.315   0.793
16700SOL     OW52058   7.341   6.193   0.231
16700SOL    HW152059   7.329   6.180   0.132
16700SOL    HW252060   7.311   6.112   0.280
16701SOL     OW52061   6.354   6.730   1.023
16701SOL    HW152062   6.276   6.747   1.083
16701SOL    HW252063   6.388   6.817   0.987
16702SOL     OW52064   6.436   6.384   1.823
16702SOL    HW152065   6.432   6.460   1.888
16702SOL    HW252066   6.458   6.420   1.732
16703SOL     OW52067   6.271   6.598   0.665
16703SOL    HW152068   6.340   6.582   0.735
16703SOL    HW252069   6.198   6.655   0.703
16704SOL     OW52070   6.272   6.747   1.803
16704SOL    HW152071   6.332   6.826   1.817
16704SOL    HW252072   6.186   6.778   1.762
16705SOL     OW52073   5.921   7.021   1.061
16705SOL    HW152074   5.843   6.990   1.008
16705SOL    HW252075   5.979   7.079   1.004
16706SOL     OW52076   7.046   7.091   1.339
16706SOL    HW152077   7.070   7.185   1.365
16706SOL    HW252078   7.030   7.037   1.421
16707SOL     OW52079   6.024   5.978   1.499
16707SOL    HW152080   6.106   5.922   1.508
16707SOL    HW252081   5.943   5.920   1.503
16708SOL     OW52082   7.189   6.033   0.737
16708SOL    HW152083   7.115   6.079   0.687
16708SOL    HW252084   7.240   6.101   0.790
16709SOL     OW52085   5.817   7.299   0.483
16709SOL    HW152086   5.851   7.376   0.537
16709SOL    HW252087   5.861   7.299   0.393
16710SOL     OW52088   6.713   6.927   1.690
16710SOL    HW152089   6.760   6.927   1.778
16710SOL    HW252090   6.665   6.840   1.679
16711SOL     OW52091   5.816   7.020   0.538
16711SOL    HW152092   5.790   7.116   0.538
16711SOL    HW252093   5.745   6.966   0.583
16712SOL     OW52094   5.826   6.677   0.886
16712SOL    HW152095   5.840   6.593   0.938
16712SOL    HW252096   5.771   6.741   0.941
16713SOL     OW52097   6.206   7.372   1.439
16713SOL    HW152098   6.114   7.355   1.474
16713SOL    HW252099   6.234   7.464   1.465
16714SOL     OW52100   6.192   6.550   0.123
16714SOL    HW152101   6.199   6.634   0.069
16714SOL    HW252102   6.238   6.563   0.211
16715SOL     OW52103   7.180   5.700   1.480
16715SOL    HW152104   7.162   5.767   1.408
16715SOL    HW252105   7.177   5.746   1.569
16716SOL     OW52106   5.708   6.229   0.563
16716SOL    HW152107   5.663   6.141   0.580
16716SOL    HW252108   5.707   6.283   0.647
16717SOL     OW52109   7.428   7.353   0.359
16717SOL    HW152110   7.482   7.324   0.439
16717SOL    HW252111   7.458   7.443   0.330
16718SOL     OW52112   7.275   6.508   0.612
16718SOL    HW152113   7.370   6.479   0.620
16718SOL    HW252114   7.267   6.573   0.537
16719SOL     OW52115   7.227   6.694   0.432
16719SOL    HW152116   7.313   6.696   0.380
16719SOL    HW252117   7.241   6.741   0.520
16720SOL     OW52118   5.699   6.323   1.597
16720SOL    HW152119   5.787   6.310   1.642
16720SOL    HW252120   5.686   6.420   1.575
16721SOL     OW52121   6.199   6.951   0.726
16721SOL    HW152122   6.150   6.864   0.735
16721SOL    HW252123   6.176   6.994   0.639
16722SOL     OW52124   6.879   6.814   1.423
16722SOL    HW152125   6.916   6.741   1.365
16722SOL    HW252126   6.931   6.819   1.508
16723SOL     OW52127   6.395   5.590   0.502
16723SOL    HW152128   6.435   5.681   0.493
16723SOL    HW252129   6.295   5.598   0.508
16724SOL     OW52130   5.783   6.562   1.264
16724SOL    HW152131   5.872   6.517   1.250
16724SOL    HW252132   5.710   6.497   1.245
16725SOL     OW52133   7.111   6.585   0.190
16725SOL    HW152134   7.048   6.509   0.203
16725SOL    HW252135   7.159   6.603   0.276
16726SOL     OW52136   6.773   7.378   1.616
16726SOL    HW152137   6.797   7.438   1.540
16726SOL    HW252138   6.780   7.283   1.586
16727SOL     OW52139   5.903   5.837   1.801
16727SOL    HW152140   5.974   5.908   1.807
16727SOL    HW252141   5.815   5.876   1.829
16728SOL     OW52142   7.052   7.003   0.953
16728SOL    HW152143   6.993   7.009   1.033
16728SOL    HW252144   7.037   6.915   0.907
16729SOL     OW52145   7.253   7.300   0.572
16729SOL    HW152146   7.212   7.277   0.484
16729SOL    HW252147   7.235   7.226   0.637
16730SOL     OW52148   6.184   6.315   0.270
16730SOL    HW152149   6.208   6.384   0.202
16730SOL    HW252150   6.106   6.348   0.324
16731SOL     OW52151   6.867   5.931   0.944
16731SOL    HW152152   6.781   5.881   0.931
16731SOL    HW252153   6.929   5.877   1.000
16732SOL     OW52154   7.162   7.248   0.307
16732SOL    HW152155   7.251   7.294   0.310
16732SOL    HW252156   7.141   7.224   0.212
16733SOL     OW52157   6.393   6.191   1.465
16733SOL    HW152158   6.346   6.188   1.554
16733SOL    HW252159   6.342   6.136   1.399
16734SOL     OW52160   6.980   6.055   1.674
16734SOL    HW152161   6.960   6.098   1.762
16734SOL    HW252162   7.058   5.993   1.683
16735SOL     OW52163   6.559   6.476   1.572
16735SOL    HW152164   6.605   6.392   1.543
16735SOL    HW252165   6.503   6.510   1.497
16736SOL     OW52166   6.577   5.996   1.242
16736SOL    HW152167   6.500   6.030   1.296
16736SOL    HW252168   6.543   5.945   1.163
16737SOL     OW52169   6.627   6.287   0.429
16737SOL    HW152170   6.653   6.283   0.525
16737SOL    HW252171   6.542   6.236   0.415
16738SOL     OW52172   5.662   6.397   0.789
16738SOL    HW152173   5.761   6.385   0.798
16738SOL    HW252174   5.638   6.492   0.810
16739SOL     OW52175   5.716   7.407   1.571
16739SOL    HW152176   5.706   7.392   1.670
16739SOL    HW252177   5.630   7.443   1.535
16740SOL     OW52178   6.451   5.934   0.195
16740SOL    HW152179   6.510   5.997   0.146
16740SOL    HW252180   6.470   5.840   0.166
16741SOL     OW52181   7.305   6.171   1.831
16741SOL    HW152182   7.279   6.260   1.795
16741SOL    HW252183   7.303   6.103   1.758
16742SOL     OW52184   6.948   6.730   0.545
16742SOL    HW152185   7.031   6.701   0.497
16742SOL    HW252186   6.899   6.797   0.489
16743SOL     OW52187   6.136   5.782   0.885
16743SOL    HW152188   6.131   5.777   0.985
16743SOL    HW252189   6.138   5.878   0.856
16744SOL     OW52190   6.594   7.042   0.477
16744SOL    HW152191   6.548   7.114   0.425
16744SOL    HW252192   6.590   7.062   0.575
16745SOL     OW52193   5.937   7.387   0.853
16745SOL    HW152194   5.987   7.301   0.859
16745SOL    HW252195   6.002   7.464   0.850
16746SOL     OW52196   7.381   6.652   0.873
16746SOL    HW152197   7.319   6.637   0.797
16746SOL    HW252198   7.329   6.663   0.958
16747SOL     OW52199   6.813   7.136   1.506
16747SOL    HW152200   6.819   7.059   1.570
16747SOL    HW252201   6.761   7.110   1.426
16748SOL     OW52202   5.907   6.529   0.242
16748SOL    HW152203   5.989   6.568   0.200
16748SOL    HW252204   5.880   6.447   0.193
16749SOL     OW52205   7.044   6.321   0.728
16749SOL    HW152206   7.039   6.256   0.803
16749SOL    HW252207   7.124   6.380   0.741
16750SOL     OW52208   6.047   6.852   1.727
16750SOL    HW152209   5.997   6.853   1.641
16750SOL    HW252210   5.984   6.834   1.803
16751SOL     OW52211   6.697   7.362   0.237
16751SOL    HW152212   6.637   7.300   0.287
16751SOL    HW252213   6.728   7.318   0.152
16752SOL     OW52214   5.788   5.871   1.498
16752SOL    HW152215   5.708   5.931   1.485
16752SOL    HW252216   5.778   5.822   1.584
16753SOL     OW52217   7.218   6.963   0.081
16753SOL    HW152218   7.186   7.057   0.071
16753SOL    HW252219   7.142   6.900   0.069
16754SOL     OW52220   6.050   7.329   0.323
16754SOL    HW152221   6.083   7.368   0.409
16754SOL    HW252222   6.126   7.322   0.258
16755SOL     OW52223   6.986   5.693   0.426
16755SOL    HW152224   6.962   5.656   0.336
16755SOL    HW252225   7.085   5.709   0.430
16756SOL     OW52226   5.835   7.371   1.241
16756SOL    HW152227   5.892   7.306   1.291
16756SOL    HW252228   5.819   7.338   1.148
16757SOL     OW52229   6.526   7.284   0.904
16757SOL    HW152230   6.606   7.227   0.925
16757SOL    HW252231   6.477   7.244   0.827
16758SOL     OW52232   5.968   6.286   0.480
16758SOL    HW152233   6.013   6.196   0.477
16758SOL    HW252234   5.874   6.275   0.513
16759SOL     OW52235   7.133   5.808   1.729
16759SOL    HW152236   7.128   5.845   1.821
16759SOL    HW252237   7.061   5.739   1.717
16760SOL     OW52238   6.200   5.708   0.117
16760SOL    HW152239   6.298   5.686   0.124
16760SOL    HW252240   6.169   5.691   0.024
16761SOL     OW52241   6.367   5.850   1.749
16761SOL    HW152242   6.434   5.789   1.792
16761SOL    HW252243   6.294   5.869   1.814
16762SOL     OW52244   6.474   7.100   1.195
16762SOL    HW152245   6.451   7.075   1.101
16762SOL    HW252246   6.535   7.031   1.234
16763SOL     OW52247   6.937   6.176   1.433
16763SOL    HW152248   6.965   6.133   1.518
16763SOL    HW252249   6.962   6.272   1.434
16764SOL     OW52250   6.389   6.988   0.924
16764SOL    HW152251   6.479   7.002   0.882
16764SOL    HW252252   6.318   6.990   0.853
16765SOL     OW52253   6.508   6.089   0.899
16765SOL    HW152254   6.483   6.080   0.803
16765SOL    HW252255   6.556   6.007   0.930
16766SOL     OW52256   6.125   5.650   0.512
16766SOL    HW152257   6.044   5.651   0.570
16766SOL    HW252258   6.128   5.733   0.457
16767SOL     OW52259   7.020   6.774   0.041
16767SOL    HW152260   7.052   6.698   0.098
16767SOL    HW252261   6.928   6.801   0.071
16768SOL     OW52262   5.883   5.621   0.171
16768SOL    HW152263   5.932   5.705   0.150
16768SOL    HW252264   5.945   5.556   0.216
16769SOL     OW52265   6.521   5.822   0.480
16769SOL    HW152266   6.473   5.863   0.402
16769SOL    HW252267   6.620   5.820   0.461
16770SOL     OW52268   6.662   6.269   1.464
16770SOL    HW152269   6.582   6.208   1.467
16770SOL    HW252270   6.743   6.216   1.440
16771SOL     OW52271   6.813   7.156   0.793
16771SOL    HW152272   6.834   7.230   0.728
16771SOL    HW252273   6.881   7.156   0.866
16772SOL     OW52274   6.045   6.738   0.741
16772SOL    HW152275   5.974   6.711   0.806
16772SOL    HW252276   6.019   6.710   0.648
16773SOL     OW52277   6.857   7.383   0.591
16773SOL    HW152278   6.901   7.447   0.527
16773SOL    HW252279   6.807   7.435   0.661
16774SOL     OW52280   6.618   6.135   0.016
16774SOL    HW152281   6.577   6.217  -0.023
16774SOL    HW252282   6.682   6.161   0.089
16775SOL     OW52283   5.664   6.142   1.386
16775SOL    HW152284   5.756   6.141   1.345
16775SOL    HW252285   5.658   6.216   1.453
16776SOL     OW52286   6.147   5.808   1.147
16776SOL    HW152287   6.185   5.724   1.184
16776SOL    HW252288   6.059   5.827   1.191
16777SOL     OW52289   6.452   6.040   0.642
16777SOL    HW152290   6.420   6.112   0.580
16777SOL    HW252291   6.476   5.959   0.589
16778SOL     OW52292   6.603   5.625   0.753
16778SOL    HW152293   6.531   5.630   0.684
16778SOL    HW252294   6.579   5.556   0.822
16779SOL     OW52295   7.015   6.759   0.867
16779SOL    HW152296   6.960   6.675   0.860
16779SOL    HW252297   7.041   6.788   0.775
16780SOL     OW52298   7.052   6.176   0.992
16780SOL    HW152299   7.022   6.081   0.999
16780SOL    HW252300   7.125   6.192   1.058
16781SOL     OW52301   7.443   6.419   0.377
16781SOL    HW152302   7.485   6.355   0.441
16781SOL    HW252303   7.405   6.368   0.299
16782SOL     OW52304   6.074   6.971   0.174
16782SOL    HW152305   5.987   6.956   0.221
16782SOL    HW252306   6.057   6.997   0.079
16783SOL     OW52307   7.250   6.866   0.657
16783SOL    HW152308   7.349   6.874   0.671
16783SOL    HW252309   7.205   6.950   0.688
16784SOL     OW52310   6.976   6.161   0.078
16784SOL    HW152311   6.922   6.140   0.159
16784SOL    HW252312   7.067   6.120   0.087
16785SOL     OW52313   6.113   5.842   0.328
16785SOL    HW152314   6.140   5.783   0.253
16785SOL    HW252315   6.113   5.937   0.297
16786SOL     OW52316   7.340   6.809   1.588
16786SOL    HW152317   7.431   6.770   1.575
16786SOL    HW252318   7.348   6.905   1.612
16787SOL     OW52319   6.650   6.933   1.340
16787SOL    HW152320   6.570   6.910   1.395
16787SOL    HW252321   6.733   6.907   1.389
16788SOL     OW52322   7.178   7.215   1.625
16788SOL    HW152323   7.205   7.249   1.535
16788SOL    HW252324   7.257   7.177   1.671
16789SOL     OW52325   6.697   6.781   1.100
16789SOL    HW152326   6.657   6.825   1.181
16789SOL    HW252327   6.656   6.818   1.017
16790SOL     OW52328   7.224   6.685   1.079
16790SOL    HW152329   7.229   6.766   1.138
16790SOL    HW252330   7.138   6.687   1.028
16791SOL     OW52331   6.501   5.675   1.402
16791SOL    HW152332   6.526   5.655   1.307
16791SOL    HW252333   6.573   5.731   1.444
16792SOL     OW52334   6.566   6.702   1.719
16792SOL    HW152335   6.467   6.708   1.729
16792SOL    HW252336   6.589   6.622   1.663
16793SOL     OW52337   6.291   6.636   0.368
16793SOL    HW152338   6.277   6.643   0.467
16793SOL    HW252339   6.375   6.585   0.350
16794SOL     OW52340   5.996   6.399   1.251
16794SOL    HW152341   6.082   6.411   1.301
16794SOL    HW252342   5.954   6.312   1.278
16795SOL     OW52343   6.860   5.972   1.262
16795SOL    HW152344   6.881   6.046   1.326
16795SOL    HW252345   6.771   5.989   1.219
16796SOL     OW52346   5.650   7.150   1.331
16796SOL    HW152347   5.604   7.232   1.297
16796SOL    HW252348   5.748   7.169   1.340
16797SOL     OW52349   5.953   6.686   0.501
16797SOL    HW152350   5.946   6.769   0.445
16797SOL    HW252351   5.957   6.606   0.441
16798SOL     OW52352   6.152   6.123   0.865
16798SOL    HW152353   6.164   6.189   0.791
16798SOL    HW252354   6.198   6.157   0.948
16799SOL     OW52355   6.838   6.934   0.388
16799SOL    HW152356   6.888   7.011   0.428
16799SOL    HW252357   6.743   6.936   0.420
16800SOL     OW52358   6.858   7.031   1.142
16800SOL    HW152359   6.905   7.044   1.229
16800SOL    HW252360   6.792   6.957   1.151
16801SOL     OW52361   7.168   6.225   0.472
16801SOL    HW152362   7.137   6.286   0.545
16801SOL    HW252363   7.218   6.277   0.403
16802SOL     OW52364   5.940   7.096   1.329
16802SOL    HW152365   5.919   7.052   1.242
16802SOL    HW252366   6.037   7.122   1.332
16803SOL     OW52367   5.988   6.337   1.598
16803SOL    HW152368   6.056   6.392   1.551
16803SOL    HW252369   6.028   6.249   1.625
16804SOL     OW52370   7.173   6.365   1.670
16804SOL    HW152371   7.081   6.403   1.665
16804SOL    HW252372   7.233   6.412   1.605
16805SOL     OW52373   6.599   5.691   1.770
16805SOL    HW152374   6.605   5.776   1.718
16805SOL    HW252375   6.631   5.615   1.713
16806SOL     OW52376   6.090   5.636   1.740
16806SOL    HW152377   6.048   5.579   1.670
16806SOL    HW252378   6.024   5.705   1.772
16807SOL     OW52379   6.159   6.456   1.029
16807SOL    HW152380   6.203   6.545   1.020
16807SOL    HW252381   6.096   6.456   1.106
16808SOL     OW52382   6.946   6.448   1.045
16808SOL    HW152383   6.871   6.448   0.979
16808SOL    HW252384   6.983   6.356   1.054
16809SOL     OW52385   6.795   6.111   0.275
16809SOL    HW152386   6.808   6.027   0.329
16809SOL    HW252387   6.766   6.185   0.335
16810SOL     OW52388   5.893   5.799   1.231
16810SOL    HW152389   5.870   5.836   1.321
16810SOL    HW252390   5.863   5.704   1.225
16811SOL     OW52391   5.623   6.896   1.282
16811SOL    HW152392   5.676   6.847   1.350
16811SOL    HW252393   5.645   6.994   1.287
16812SOL     OW52394   6.318   6.220   1.064
16812SOL    HW152395   6.377   6.194   0.988
16812SOL    HW252396   6.290   6.316   1.053
16813SOL     OW52397   7.314   6.521   1.854
16813SOL    HW152398   7.268   6.514   1.765
16813SOL    HW252399   7.252   6.565   1.920
16814SOL     OW52400   5.893   5.649   0.618
16814SOL    HW152401   5.882   5.743   0.651
16814SOL    HW252402   5.888   5.586   0.695
16815SOL     OW52403   7.208   5.953   0.374
16815SOL    HW152404   7.210   5.877   0.438
16815SOL    HW252405   7.160   6.030   0.414
16816SOL     OW52406   6.609   6.352   0.966
16816SOL    HW152407   6.624   6.373   1.062
16816SOL    HW252408   6.579   6.257   0.957
16817SOL     OW52409   6.566   7.159   1.700
16817SOL    HW152410   6.546   7.203   1.612
16817SOL    HW252411   6.605   7.068   1.684
16818SOL     OW52412   7.445   7.104   1.605
16818SOL    HW152413   7.459   7.131   1.510
16818SOL    HW252414   7.528   7.126   1.658
16819SOL     OW52415   5.936   6.484   1.804
16819SOL    HW152416   6.012   6.528   1.852
16819SOL    HW252417   5.971   6.437   1.722
16820SOL     OW52418   7.126   5.860   0.125
16820SOL    HW152419   7.065   5.785   0.148
16820SOL    HW252420   7.148   5.912   0.208
16821SOL     OW52421   6.889   6.424   0.042
16821SOL    HW152422   6.923   6.331   0.057
16821SOL    HW252423   6.907   6.451  -0.053
16822SOL     OW52424   6.654   6.919   0.849
16822SOL    HW152425   6.661   6.835   0.794
16822SOL    HW252426   6.716   6.988   0.813
16823SOL     OW52427   5.905   6.396   0.949
16823SOL    HW152428   5.998   6.432   0.954
16823SOL    HW252429   5.899   6.311   1.001
16824SOL     OW52430   5.925   6.095   1.006
16824SOL    HW152431   5.873   6.012   0.989
16824SOL    HW252432   6.002   6.100   0.942
16825SOL     OW52433   6.097   6.001   1.808
16825SOL    HW152434   6.079   6.046   1.896
16825SOL    HW252435   6.139   6.066   1.745
16826SOL     OW52436   6.724   5.966   1.678
16826SOL    HW152437   6.679   6.029   1.742
16826SOL    HW252438   6.817   5.997   1.661
16827SOL     OW52439   6.746   5.793   1.477
16827SOL    HW152440   6.746   5.857   1.554
16827SOL    HW252441   6.774   5.841   1.394
16828SOL     OW52442   5.594   6.912   0.200
16828SOL    HW152443   5.501   6.933   0.169
16828SOL    HW252444   5.604   6.813   0.213
16829SOL     OW52445   5.674   7.387   0.927
16829SOL    HW152446   5.632   7.301   0.900
16829SOL    HW252447   5.768   7.390   0.893
16830SOL     OW52448   6.090   7.154   0.910
16830SOL    HW152449   6.156   7.228   0.919
16830SOL    HW252450   6.134   7.075   0.868
16831SOL     OW52451   6.588   6.382   1.238
16831SOL    HW152452   6.629   6.350   1.324
16831SOL    HW252453   6.492   6.355   1.235
16832SOL     OW52454   5.626   6.130   1.114
16832SOL    HW152455   5.711   6.097   1.073
16832SOL    HW252456   5.639   6.145   1.212
16833SOL     OW52457   5.775   6.106   1.722
16833SOL    HW152458   5.834   6.066   1.652
16833SOL    HW252459   5.717   6.177   1.681
16834SOL     OW52460   6.955   6.536   1.660
16834SOL    HW152461   6.994   6.625   1.680
16834SOL    HW252462   6.965   6.516   1.563
16835SOL     OW52463   6.401   6.158   0.325
16835SOL    HW152464   6.408   6.069   0.279
16835SOL    HW252465   6.307   6.192   0.317
16836SOL     OW52466   7.243   6.190   1.206
16836SOL    HW152467   7.205   6.121   1.268
16836SOL    HW252468   7.325   6.154   1.162
16837SOL     OW52469   5.838   7.150   1.744
16837SOL    HW152470   5.808   7.207   1.820
16837SOL    HW252471   5.831   7.053   1.770
16838SOL     OW52472   6.257   6.050   1.269
16838SOL    HW152473   6.223   5.961   1.239
16838SOL    HW252474   6.283   6.104   1.189
16839SOL     OW52475   6.516   7.264   1.465
16839SOL    HW152476   6.492   7.246   1.370
16839SOL    HW252477   6.546   7.358   1.475
16840SOL     OW52478   6.059   6.086   0.191
16840SOL    HW152479   6.120   6.166   0.195
16840SOL    HW252480   5.964   6.117   0.198
16841SOL     OW52481   5.745   6.723   1.466
16841SOL    HW152482   5.767   6.662   1.542
16841SOL    HW252483   5.755   6.674   1.380
16842SOL     OW52484   6.933   6.645   1.234
16842SOL    HW152485   6.957   6.582   1.160
16842SOL    HW252486   6.843   6.685   1.216
16843SOL     OW52487   6.888   6.441   0.309
16843SOL    HW152488   6.802   6.410   0.351
16843SOL    HW252489   6.884   6.427   0.210
16844SOL     OW52490   7.345   7.333   1.154
16844SOL    HW152491   7.406   7.363   1.081
16844SOL    HW252492   7.307   7.244   1.132
16845SOL     OW52493   6.838   7.317   1.128
16845SOL    HW152494   6.922   7.322   1.074
16845SOL    HW252495   6.815   7.221   1.146
16846SOL     OW52496   5.669   6.844   1.022
16846SOL    HW152497   5.664   6.843   1.122
16846SOL    HW252498   5.586   6.803   0.984
16847SOL     OW52499   6.274   7.248   1.716
16847SOL    HW152500   6.218   7.329   1.725
16847SOL    HW252501   6.326   7.252   1.630
16848SOL     OW52502   6.489   5.672   0.133
16848SOL    HW152503   6.540   5.673   0.047
16848SOL    HW252504   6.545   5.630   0.204
16849SOL     OW52505   7.312   5.721   0.523
16849SOL    HW152506   7.385   5.704   0.456
16849SOL    HW252507   7.281   5.634   0.561
16850SOL     OW52508   6.974   7.159   0.477
16850SOL    HW152509   7.041   7.171   0.403
16850SOL    HW252510   6.934   7.248   0.500
16851SOL     OW52511   5.716   7.380   1.851
16851SOL    HW152512   5.675   7.306   1.904
16851SOL    HW252513   5.780   7.431   1.909
16852SOL     OW52514   6.866   6.513   0.672
16852SOL    HW152515   6.926   6.432   0.674
16852SOL    HW252516   6.906   6.582   0.612
16853SOL     OW52517   6.416   6.859   1.422
16853SOL    HW152518   6.411   6.892   1.517
16853SOL    HW252519   6.330   6.878   1.376
16854SOL     OW52520   6.258   7.202   0.154
16854SOL    HW152521   6.267   7.212   0.055
16854SOL    HW252522   6.218   7.113   0.175
16855SOL     OW52523   7.236   7.306   1.394
16855SOL    HW152524   7.289   7.316   1.310
16855SOL    HW252525   7.209   7.396   1.428
16856SOL     OW52526   7.427   5.761   0.963
16856SOL    HW152527   7.466   5.676   0.927
16856SOL    HW252528   7.329   5.763   0.944
16857SOL     OW52529   5.849   5.912   0.720
16857SOL    HW152530   5.770   5.963   0.686
16857SOL    HW252531   5.840   5.897   0.818
16858SOL     OW52532   6.780   7.198   0.031
16858SOL    HW152533   6.786   7.105   0.068
16858SOL    HW252534   6.721   7.198  -0.049
16859SOL     OW52535   6.408   6.588   1.372
16859SOL    HW152536   6.448   6.587   1.280
16859SOL    HW252537   6.418   6.680   1.412
16860SOL     OW52538   6.502   6.496   0.291
16860SOL    HW152539   6.565   6.534   0.223
16860SOL    HW252540   6.542   6.413   0.330
16861SOL     OW52541   7.090   7.193   0.044
16861SOL    HW152542   6.998   7.230   0.051
16861SOL    HW252543   7.128   7.213  -0.046
16862SOL     OW52544   5.958   6.874   1.490
16862SOL    HW152545   5.945   6.967   1.456
16862SOL    HW252546   5.874   6.822   1.477
16863SOL     OW52547   7.200   6.878   1.289
16863SOL    HW152548   7.260   6.881   1.369
16863SOL    HW252549   7.125   6.942   1.302
16864SOL     OW52550   6.625   6.684   0.696
16864SOL    HW152551   6.555   6.637   0.750
16864SOL    HW252552   6.684   6.616   0.653
16865SOL     OW52553   6.600   5.822   0.971
16865SOL    HW152554   6.592   5.786   0.878
16865SOL    HW252555   6.598   5.746   1.036
16866SOL     OW52556   6.176   7.073   0.491
16866SOL    HW152557   6.218   7.015   0.421
16866SOL    HW252558   6.132   7.152   0.447
16867SOL     OW52559   7.295   5.971   1.381
16867SOL    HW152560   7.368   6.040   1.385
16867SOL    HW252561   7.323   5.896   1.322
16868SOL     OW52562   5.841   6.934   0.290
16868SOL    HW152563   5.745   6.935   0.263
16868SOL    HW252564   5.853   6.987   0.374
16869SOL     OW52565   5.691   6.599   1.726
16869SOL    HW152566   5.614   6.566   1.780
16869SOL    HW252567   5.776   6.569   1.768
16870SOL     OW52568   6.258   5.789   1.489
16870SOL    HW152569   6.348   5.773   1.449
16870SOL    HW252570   6.266   5.794   1.588
16871SOL     OW52571   7.026   6.442   1.398
16871SOL    HW152572   6.969   6.494   1.335
16871SOL    HW252573   7.122   6.454   1.374
16872SOL     OW52574   5.658   5.752   0.318
16872SOL    HW152575   5.641   5.835   0.264
16872SOL    HW252576   5.748   5.715   0.296
16873SOL     OW52577   6.769   6.921   0.119
16873SOL    HW152578   6.670   6.910   0.121
16873SOL    HW252579   6.803   6.936   0.212
16874SOL     OW52580   6.199   6.428   1.431
16874SOL    HW152581   6.255   6.509   1.414
16874SOL    HW252582   6.258   6.348   1.434
16875SOL     OW52583   7.079   7.353   0.959
16875SOL    HW152584   7.112   7.417   0.890
16875SOL    HW252585   7.145   7.347   1.034
16876SOL     OW52586   6.302   6.151   1.708
16876SOL    HW152587   6.321   6.216   1.782
16876SOL    HW252588   6.362   6.071   1.717
16877SOL     OW52589   7.036   6.806   1.633
16877SOL    HW152590   7.027   6.796   1.732
16877SOL    HW252591   7.132   6.799   1.607
16878SOL     OW52592   5.976   7.327   1.560
16878SOL    HW152593   5.885   7.368   1.558
16878SOL    HW252594   5.969   7.233   1.592
16879SOL     OW52595   7.260   6.469   1.254
16879SOL    HW152596   7.233   6.380   1.217
16879SOL    HW252597   7.261   6.537   1.181
16880SOL     OW52598   6.811   5.911   0.449
16880SOL    HW152599   6.876   5.837   0.438
16880SOL    HW252600   6.831   5.961   0.533
16881SOL     OW52601   6.180   6.331   0.652
16881SOL    HW152602   6.230   6.416   0.633
16881SOL    HW252603   6.092   6.333   0.604
16882SOL     OW52604   7.363   5.928   1.642
16882SOL    HW152605   7.346   5.959   1.548
16882SOL    HW252606   7.279   5.891   1.680
16883SOL     OW52607   7.316   6.520   1.517
16883SOL    HW152608   7.354   6.611   1.532
16883SOL    HW252609   7.308   6.503   1.418
16884SOL     OW52610   6.445   6.960   0.016
16884SOL    HW152611   6.399   6.975   0.104
16884SOL    HW252612   6.489   7.045  -0.014
16885SOL     OW52613   6.247   7.376   0.953
16885SOL    HW152614   6.201   7.464   0.940
16885SOL    HW252615   6.346   7.388   0.946
16886SOL     OW52616   6.994   7.437   1.720
16886SOL    HW152617   6.898   7.426   1.693
16886SOL    HW252618   7.050   7.370   1.672
16887SOL     OW52619   6.445   6.542   0.861
16887SOL    HW152620   6.499   6.473   0.909
16887SOL    HW252621   6.413   6.611   0.927
16888SOL     OW52622   6.669   6.570   0.087
16888SOL    HW152623   6.646   6.623   0.005
16888SOL    HW252624   6.750   6.514   0.068
16889SOL     OW52625   7.447   7.155   0.851
16889SOL    HW152626   7.376   7.143   0.781
16889SOL    HW252627   7.448   7.076   0.911
16890SOL     OW52628   5.807   6.900   1.844
16890SOL    HW152629   5.742   6.827   1.823
16890SOL    HW252630   5.811   6.914   1.942
16891SOL     OW52631   5.665   6.826   0.653
16891SOL    HW152632   5.664   6.779   0.741
16891SOL    HW252633   5.747   6.798   0.602
16892SOL     OW52634   6.258   6.977   1.624
16892SOL    HW152635   6.180   6.927   1.662
16892SOL    HW252636   6.255   7.072   1.655
16893SOL     OW52637   7.410   5.778   1.227
16893SOL    HW152638   7.406   5.688   1.271
16893SOL    HW252639   7.413   5.767   1.128
16894SOL     OW52640   6.014   6.010   0.520
16894SOL    HW152641   6.044   5.938   0.458
16894SOL    HW252642   5.975   5.970   0.603
16895SOL     OW52643   7.291   7.073   1.104
16895SOL    HW152644   7.198   7.048   1.077
16895SOL    HW252645   7.317   7.023   1.186
16896SOL     OW52646   5.903   6.133   1.280
16896SOL    HW152647   5.941   6.074   1.352
16896SOL    HW252648   5.943   6.107   1.192
16897SOL     OW52649   6.398   7.172   0.687
16897SOL    HW152650   6.430   7.182   0.593
16897SOL    HW252651   6.319   7.110   0.689
16898SOL     OW52652   7.010   5.800   1.112
16898SOL    HW152653   7.062   5.735   1.167
16898SOL    HW252654   6.961   5.863   1.173
16899SOL     OW52655   6.587   5.620   1.154
16899SOL    HW152656   6.524   5.548   1.123
16899SOL    HW252657   6.680   5.584   1.154
16900SOL     OW52658   6.356   6.916   0.301
16900SOL    HW152659   6.310   6.829   0.318
16900SOL    HW252660   6.447   6.913   0.342
16901SOL     OW52661   6.204   7.153   1.284
16901SOL    HW152662   6.199   7.235   1.341
16901SOL    HW252663   6.293   7.150   1.239
16902SOL     OW52664   6.886   6.039   0.691
16902SOL    HW152665   6.827   6.119   0.695
16902SOL    HW252666   6.901   6.004   0.784
16903SOL     OW52667   7.179   5.807   0.882
16903SOL    HW152668   7.095   5.806   0.936
16903SOL    HW252669   7.181   5.890   0.826
16904SOL     OW52670   5.625   6.663   0.300
16904SOL    HW152671   5.724   6.652   0.291
16904SOL    HW252672   5.585   6.577   0.332
16905SOL     OW52673   6.461   7.232   0.337
16905SOL    HW152674   6.384   7.197   0.283
16905SOL    HW252675   6.429   7.303   0.399
16906SOL     OW52676   5.816   6.214   1.975
16906SOL    HW152677   5.723   6.212   2.012
16906SOL    HW252678   5.817   6.175   1.883
16907SOL     OW52679   5.811   5.861   2.858
16907SOL    HW152680   5.846   5.844   2.950
16907SOL    HW252681   5.723   5.816   2.846
16908SOL     OW52682   5.605   5.954   2.509
16908SOL    HW152683   5.523   5.997   2.548
16908SOL    HW252684   5.577   5.881   2.446
16909SOL     OW52685   6.155   6.861   3.027
16909SOL    HW152686   6.062   6.854   2.990
16909SOL    HW252687   6.166   6.950   3.071
16910SOL     OW52688   7.141   7.097   2.565
16910SOL    HW152689   7.084   7.081   2.646
16910SOL    HW252690   7.082   7.107   2.485
16911SOL     OW52691   7.329   6.204   2.718
16911SOL    HW152692   7.362   6.298   2.718
16911SOL    HW252693   7.380   6.150   2.784
16912SOL     OW52694   6.721   6.289   2.579
16912SOL    HW152695   6.778   6.367   2.554
16912SOL    HW252696   6.661   6.315   2.655
16913SOL     OW52697   7.341   6.193   2.093
16913SOL    HW152698   7.329   6.180   1.994
16913SOL    HW252699   7.311   6.112   2.142
16914SOL     OW52700   6.354   6.730   2.885
16914SOL    HW152701   6.276   6.747   2.945
16914SOL    HW252702   6.388   6.817   2.849
16915SOL     OW52703   6.436   6.384   3.685
16915SOL    HW152704   6.432   6.460   3.750
16915SOL    HW252705   6.458   6.420   3.594
16916SOL     OW52706   6.271   6.598   2.527
16916SOL    HW152707   6.340   6.582   2.597
16916SOL    HW252708   6.198   6.655   2.565
16917SOL     OW52709   6.272   6.747   3.665
16917SOL    HW152710   6.332   6.826   3.679
16917SOL    HW252711   6.186   6.778   3.624
16918SOL     OW52712   5.921   7.021   2.923
16918SOL    HW152713   5.843   6.990   2.870
16918SOL    HW252714   5.979   7.079   2.866
16919SOL     OW52715   7.046   7.091   3.201
16919SOL    HW152716   7.070   7.185   3.227
16919SOL    HW252717   7.030   7.037   3.283
16920SOL     OW52718   6.024   5.978   3.361
16920SOL    HW152719   6.106   5.922   3.370
16920SOL    HW252720   5.943   5.920   3.365
16921SOL     OW52721   7.189   6.033   2.599
16921SOL    HW152722   7.115   6.079   2.549
16921SOL    HW252723   7.240   6.101   2.652
16922SOL     OW52724   5.817   7.299   2.345
16922SOL    HW152725   5.851   7.376   2.399
16922SOL    HW252726   5.861   7.299   2.255
16923SOL     OW52727   6.713   6.927   3.552
16923SOL    HW152728   6.760   6.927   3.640
16923SOL    HW252729   6.665   6.840   3.541
16924SOL     OW52730   5.816   7.020   2.400
16924SOL    HW152731   5.790   7.116   2.400
16924SOL    HW252732   5.745   6.966   2.445
16925SOL     OW52733   5.826   6.677   2.748
16925SOL    HW152734   5.840   6.593   2.800
16925SOL    HW252735   5.771   6.741   2.803
16926SOL     OW52736   6.206   7.372   3.301
16926SOL    HW152737   6.114   7.355   3.336
16926SOL    HW252738   6.234   7.464   3.327
16927SOL     OW52739   6.192   6.550   1.985
16927SOL    HW152740   6.199   6.634   1.931
16927SOL    HW252741   6.238   6.563   2.073
16928SOL     OW52742   7.180   5.700   3.342
16928SOL    HW152743   7.162   5.767   3.270
16928SOL    HW252744   7.177   5.746   3.431
16929SOL     OW52745   5.708   6.229   2.425
16929SOL    HW152746   5.663   6.141   2.442
16929SOL    HW252747   5.707   6.283   2.509
16930SOL     OW52748   7.428   7.353   2.221
16930SOL    HW152749   7.482   7.324   2.301
16930SOL    HW252750   7.458   7.443   2.192
16931SOL     OW52751   5.613   7.182   1.979
16931SOL    HW152752   5.594   7.086   2.000
16931SOL    HW252753   5.580   7.240   2.054
16932SOL     OW52754   7.275   6.508   2.474
16932SOL    HW152755   7.370   6.479   2.482
16932SOL    HW252756   7.267   6.573   2.399
16933SOL     OW52757   7.227   6.694   2.294
16933SOL    HW152758   7.313   6.696   2.242
16933SOL    HW252759   7.241   6.741   2.382
16934SOL     OW52760   5.699   6.323   3.459
16934SOL    HW152761   5.787   6.310   3.504
16934SOL    HW252762   5.686   6.420   3.437
16935SOL     OW52763   6.199   6.951   2.588
16935SOL    HW152764   6.150   6.864   2.597
16935SOL    HW252765   6.176   6.994   2.501
16936SOL     OW52766   6.879   6.814   3.285
16936SOL    HW152767   6.916   6.741   3.227
16936SOL    HW252768   6.931   6.819   3.370
16937SOL     OW52769   6.395   5.590   2.364
16937SOL    HW152770   6.435   5.681   2.355
16937SOL    HW252771   6.295   5.598   2.370
16938SOL     OW52772   5.783   6.562   3.126
16938SOL    HW152773   5.872   6.517   3.112
16938SOL    HW252774   5.710   6.497   3.107
16939SOL     OW52775   7.111   6.585   2.052
16939SOL    HW152776   7.048   6.509   2.065
16939SOL    HW252777   7.159   6.603   2.138
16940SOL     OW52778   6.773   7.378   3.478
16940SOL    HW152779   6.797   7.438   3.402
16940SOL    HW252780   6.780   7.283   3.448
16941SOL     OW52781   5.903   5.837   3.663
16941SOL    HW152782   5.974   5.908   3.669
16941SOL    HW252783   5.815   5.876   3.691
16942SOL     OW52784   7.052   7.003   2.815
16942SOL    HW152785   6.993   7.009   2.895
16942SOL    HW252786   7.037   6.915   2.769
16943SOL     OW52787   7.253   7.300   2.434
16943SOL    HW152788   7.212   7.277   2.346
16943SOL    HW252789   7.235   7.226   2.499
16944SOL     OW52790   6.184   6.315   2.132
16944SOL    HW152791   6.208   6.384   2.064
16944SOL    HW252792   6.106   6.348   2.186
16945SOL     OW52793   6.867   5.931   2.806
16945SOL    HW152794   6.781   5.881   2.793
16945SOL    HW252795   6.929   5.877   2.862
16946SOL     OW52796   7.162   7.248   2.169
16946SOL    HW152797   7.251   7.294   2.172
16946SOL    HW252798   7.141   7.224   2.074
16947SOL     OW52799   6.393   6.191   3.327
16947SOL    HW152800   6.346   6.188   3.416
16947SOL    HW252801   6.342   6.136   3.261
16948SOL     OW52802   6.980   6.055   3.536
16948SOL    HW152803   6.960   6.098   3.624
16948SOL    HW252804   7.058   5.993   3.545
16949SOL     OW52805   6.559   6.476   3.434
16949SOL    HW152806   6.605   6.392   3.405
16949SOL    HW252807   6.503   6.510   3.359
16950SOL     OW52808   6.577   5.996   3.104
16950SOL    HW152809   6.500   6.030   3.158
16950SOL    HW252810   6.543   5.945   3.025
16951SOL     OW52811   6.627   6.287   2.291
16951SOL    HW152812   6.653   6.283   2.387
16951SOL    HW252813   6.542   6.236   2.277
16952SOL     OW52814   5.662   6.397   2.651
16952SOL    HW152815   5.761   6.385   2.660
16952SOL    HW252816   5.638   6.492   2.672
16953SOL     OW52817   5.716   7.407   3.433
16953SOL    HW152818   5.706   7.392   3.532
16953SOL    HW252819   5.630   7.443   3.397
16954SOL     OW52820   6.451   5.934   2.057
16954SOL    HW152821   6.510   5.997   2.008
16954SOL    HW252822   6.470   5.840   2.028
16955SOL     OW52823   7.305   6.171   3.693
16955SOL    HW152824   7.279   6.260   3.657
16955SOL    HW252825   7.303   6.103   3.620
16956SOL     OW52826   6.948   6.730   2.407
16956SOL    HW152827   7.031   6.701   2.359
16956SOL    HW252828   6.899   6.797   2.351
16957SOL     OW52829   6.136   5.782   2.747
16957SOL    HW152830   6.131   5.777   2.847
16957SOL    HW252831   6.138   5.878   2.718
16958SOL     OW52832   6.594   7.042   2.339
16958SOL    HW152833   6.548   7.114   2.287
16958SOL    HW252834   6.590   7.062   2.437
16959SOL     OW52835   5.937   7.387   2.715
16959SOL    HW152836   5.987   7.301   2.721
16959SOL    HW252837   6.002   7.464   2.712
16960SOL     OW52838   7.381   6.652   2.735
16960SOL    HW152839   7.319   6.637   2.659
16960SOL    HW252840   7.329   6.663   2.820
16961SOL     OW52841   6.813   7.136   3.368
16961SOL    HW152842   6.819   7.059   3.432
16961SOL    HW252843   6.761   7.110   3.288
16962SOL     OW52844   5.907   6.529   2.104
16962SOL    HW152845   5.989   6.568   2.062
16962SOL    HW252846   5.880   6.447   2.055
16963SOL     OW52847   7.044   6.321   2.590
16963SOL    HW152848   7.039   6.256   2.665
16963SOL    HW252849   7.124   6.380   2.603
16964SOL     OW52850   6.047   6.852   3.589
16964SOL    HW152851   5.997   6.853   3.503
16964SOL    HW252852   5.984   6.834   3.665
16965SOL     OW52853   6.697   7.362   2.099
16965SOL    HW152854   6.637   7.300   2.149
16965SOL    HW252855   6.728   7.318   2.014
16966SOL     OW52856   5.788   5.871   3.360
16966SOL    HW152857   5.708   5.931   3.347
16966SOL    HW252858   5.778   5.822   3.446
16967SOL     OW52859   7.218   6.963   1.943
16967SOL    HW152860   7.186   7.057   1.933
16967SOL    HW252861   7.142   6.900   1.931
16968SOL     OW52862   6.050   7.329   2.185
16968SOL    HW152863   6.083   7.368   2.271
16968SOL    HW252864   6.126   7.322   2.120
16969SOL     OW52865   5.835   7.371   3.103
16969SOL    HW152866   5.892   7.306   3.153
16969SOL    HW252867   5.819   7.338   3.010
16970SOL     OW52868   6.526   7.284   2.766
16970SOL    HW152869   6.606   7.227   2.787
16970SOL    HW252870   6.477   7.244   2.689
16971SOL     OW52871   5.968   6.286   2.342
16971SOL    HW152872   6.013   6.196   2.339
16971SOL    HW252873   5.874   6.275   2.375
16972SOL     OW52874   7.133   5.808   3.591
16972SOL    HW152875   7.128   5.845   3.683
16972SOL    HW252876   7.061   5.739   3.579
16973SOL     OW52877   6.367   5.850   3.611
16973SOL    HW152878   6.434   5.789   3.654
16973SOL    HW252879   6.294   5.869   3.676
16974SOL     OW52880   6.474   7.100   3.057
16974SOL    HW152881   6.451   7.075   2.963
16974SOL    HW252882   6.535   7.031   3.096
16975SOL     OW52883   6.937   6.176   3.295
16975SOL    HW152884   6.965   6.133   3.380
16975SOL    HW252885   6.962   6.272   3.296
16976SOL     OW52886   6.389   6.988   2.786
16976SOL    HW152887   6.479   7.002   2.744
16976SOL    HW252888   6.318   6.990   2.715
16977SOL     OW52889   6.508   6.089   2.761
16977SOL    HW152890   6.483   6.080   2.665
16977SOL    HW252891   6.556   6.007   2.792
16978SOL     OW52892   7.020   6.774   1.903
16978SOL    HW152893   7.052   6.698   1.960
16978SOL    HW252894   6.928   6.801   1.933
16979SOL     OW52895   5.883   5.621   2.033
16979SOL    HW152896   5.932   5.705   2.012
16979SOL    HW252897   5.945   5.556   2.078
16980SOL     OW52898   6.521   5.822   2.342
16980SOL    HW152899   6.473   5.863   2.264
16980SOL    HW252900   6.620   5.820   2.323
16981SOL     OW52901   6.662   6.269   3.326
16981SOL    HW152902   6.582   6.208   3.329
16981SOL    HW252903   6.743   6.216   3.302
16982SOL     OW52904   6.813   7.156   2.655
16982SOL    HW152905   6.834   7.230   2.590
16982SOL    HW252906   6.881   7.156   2.728
16983SOL     OW52907   6.045   6.738   2.603
16983SOL    HW152908   5.974   6.711   2.668
16983SOL    HW252909   6.019   6.710   2.510
16984SOL     OW52910   6.857   7.383   2.453
16984SOL    HW152911   6.901   7.447   2.389
16984SOL    HW252912   6.807   7.435   2.523
16985SOL     OW52913   6.618   6.135   1.878
16985SOL    HW152914   6.577   6.217   1.839
16985SOL    HW252915   6.682   6.161   1.951
16986SOL     OW52916   5.664   6.142   3.248
16986SOL    HW152917   5.756   6.141   3.207
16986SOL    HW252918   5.658   6.216   3.315
16987SOL     OW52919   6.147   5.808   3.009
16987SOL    HW152920   6.185   5.724   3.046
16987SOL    HW252921   6.059   5.827   3.053
16988SOL     OW52922   6.452   6.040   2.504
16988SOL    HW152923   6.420   6.112   2.442
16988SOL    HW252924   6.476   5.959   2.451
16989SOL     OW52925   6.603   5.625   2.615
16989SOL    HW152926   6.531   5.630   2.546
16989SOL    HW252927   6.579   5.556   2.684
16990SOL     OW52928   7.015   6.759   2.729
16990SOL    HW152929   6.960   6.675   2.722
16990SOL    HW252930   7.041   6.788   2.637
16991SOL     OW52931   7.052   6.176   2.854
16991SOL    HW152932   7.022   6.081   2.861
16991SOL    HW252933   7.125   6.192   2.920
16992SOL     OW52934   7.443   6.419   2.239
16992SOL    HW152935   7.485   6.355   2.303
16992SOL    HW252936   7.405   6.368   2.161
16993SOL     OW52937   6.074   6.971   2.036
16993SOL    HW152938   5.987   6.956   2.083
16993SOL    HW252939   6.057   6.997   1.941
16994SOL     OW52940   7.250   6.866   2.519
16994SOL    HW152941   7.349   6.874   2.533
16994SOL    HW252942   7.205   6.950   2.550
16995SOL     OW52943   6.976   6.161   1.940
16995SOL    HW152944   6.922   6.140   2.021
16995SOL    HW252945   7.067   6.120   1.949
16996SOL     OW52946   6.113   5.842   2.190
16996SOL    HW152947   6.140   5.783   2.115
16996SOL    HW252948   6.113   5.937   2.159
16997SOL     OW52949   7.340   6.809   3.450
16997SOL    HW152950   7.431   6.770   3.437
16997SOL    HW252951   7.348   6.905   3.474
16998SOL     OW52952   6.650   6.933   3.202
16998SOL    HW152953   6.570   6.910   3.257
16998SOL    HW252954   6.733   6.907   3.251
16999SOL     OW52955   7.178   7.215   3.487
16999SOL    HW152956   7.205   7.249   3.397
16999SOL    HW252957   7.257   7.177   3.533
17000SOL     OW52958   6.697   6.781   2.962
17000SOL    HW152959   6.657   6.825   3.043
17000SOL    HW252960   6.656   6.818   2.879
17001SOL     OW52961   7.224   6.685   2.941
17001SOL    HW152962   7.229   6.766   3.000
17001SOL    HW252963   7.138   6.687   2.890
17002SOL     OW52964   6.501   5.675   3.264
17002SOL    HW152965   6.526   5.655   3.169
17002SOL    HW252966   6.573   5.731   3.306
17003SOL     OW52967   6.566   6.702   3.581
17003SOL    HW152968   6.467   6.708   3.591
17003SOL    HW252969   6.589   6.622   3.525
17004SOL     OW52970   6.291   6.636   2.230
17004SOL    HW152971   6.277   6.643   2.329
17004SOL    HW252972   6.375   6.585   2.212
17005SOL     OW52973   5.996   6.399   3.113
17005SOL    HW152974   6.082   6.411   3.163
17005SOL    HW252975   5.954   6.312   3.140
17006SOL     OW52976   6.860   5.972   3.124
17006SOL    HW152977   6.881   6.046   3.188
17006SOL    HW252978   6.771   5.989   3.081
17007SOL     OW52979   5.650   7.150   3.193
17007SOL    HW152980   5.604   7.232   3.159
17007SOL    HW252981   5.748   7.169   3.202
17008SOL     OW52982   5.953   6.686   2.363
17008SOL    HW152983   5.946   6.769   2.307
17008SOL    HW252984   5.957   6.606   2.303
17009SOL     OW52985   6.152   6.123   2.727
17009SOL    HW152986   6.164   6.189   2.653
17009SOL    HW252987   6.198   6.157   2.810
17010SOL     OW52988   6.838   6.934   2.250
17010SOL    HW152989   6.888   7.011   2.290
17010SOL    HW252990   6.743   6.936   2.282
17011SOL     OW52991   6.858   7.031   3.004
17011SOL    HW152992   6.905   7.044   3.091
17011SOL    HW252993   6.792   6.957   3.013
17012SOL     OW52994   7.168   6.225   2.334
17012SOL    HW152995   7.137   6.286   2.407
17012SOL    HW252996   7.218   6.277   2.265
17013SOL     OW52997   5.940   7.096   3.191
17013SOL    HW152998   5.919   7.052   3.104
17013SOL    HW252999   6.037   7.122   3.194
17014SOL     OW53000   5.988   6.337   3.460
17014SOL    HW153001   6.056   6.392   3.413
17014SOL    HW253002   6.028   6.249   3.487
17015SOL     OW53003   7.173   6.365   3.532
17015SOL    HW153004   7.081   6.403   3.527
17015SOL    HW253005   7.233   6.412   3.467
17016SOL     OW53006   6.599   5.691   3.632
17016SOL    HW153007   6.605   5.776   3.580
17016SOL    HW253008   6.631   5.615   3.575
17017SOL     OW53009   6.090   5.636   3.602
17017SOL    HW153010   6.048   5.579   3.532
17017SOL    HW253011   6.024   5.705   3.634
17018SOL     OW53012   6.159   6.456   2.891
17018SOL    HW153013   6.203   6.545   2.882
17018SOL    HW253014   6.096   6.456   2.968
17019SOL     OW53015   6.946   6.448   2.907
17019SOL    HW153016   6.871   6.448   2.841
17019SOL    HW253017   6.983   6.356   2.916
17020SOL     OW53018   6.795   6.111   2.137
17020SOL    HW153019   6.808   6.027   2.191
17020SOL    HW253020   6.766   6.185   2.197
17021SOL     OW53021   5.893   5.799   3.093
17021SOL    HW153022   5.870   5.836   3.183
17021SOL    HW253023   5.863   5.704   3.087
17022SOL     OW53024   5.623   6.896   3.144
17022SOL    HW153025   5.676   6.847   3.212
17022SOL    HW253026   5.645   6.994   3.149
17023SOL     OW53027   6.318   6.220   2.926
17023SOL    HW153028   6.377   6.194   2.850
17023SOL    HW253029   6.290   6.316   2.915
17024SOL     OW53030   7.314   6.521   3.716
17024SOL    HW153031   7.268   6.514   3.627
17024SOL    HW253032   7.252   6.565   3.782
17025SOL     OW53033   5.893   5.649   2.480
17025SOL    HW153034   5.882   5.743   2.513
17025SOL    HW253035   5.888   5.586   2.557
17026SOL     OW53036   7.208   5.953   2.236
17026SOL    HW153037   7.210   5.877   2.300
17026SOL    HW253038   7.160   6.030   2.276
17027SOL     OW53039   6.609   6.352   2.828
17027SOL    HW153040   6.624   6.373   2.924
17027SOL    HW253041   6.579   6.257   2.819
17028SOL     OW53042   6.566   7.159   3.562
17028SOL    HW153043   6.546   7.203   3.474
17028SOL    HW253044   6.605   7.068   3.546
17029SOL     OW53045   7.445   7.104   3.467
17029SOL    HW153046   7.459   7.131   3.372
17029SOL    HW253047   7.528   7.126   3.520
17030SOL     OW53048   5.936   6.484   3.666
17030SOL    HW153049   6.012   6.528   3.714
17030SOL    HW253050   5.971   6.437   3.584
17031SOL     OW53051   7.126   5.860   1.987
17031SOL    HW153052   7.065   5.785   2.010
17031SOL    HW253053   7.148   5.912   2.070
17032SOL     OW53054   6.889   6.424   1.904
17032SOL    HW153055   6.923   6.331   1.919
17032SOL    HW253056   6.907   6.451   1.809
17033SOL     OW53057   6.654   6.919   2.711
17033SOL    HW153058   6.661   6.835   2.656
17033SOL    HW253059   6.716   6.988   2.675
17034SOL     OW53060   5.905   6.396   2.811
17034SOL    HW153061   5.998   6.432   2.816
17034SOL    HW253062   5.899   6.311   2.863
17035SOL     OW53063   5.925   6.095   2.868
17035SOL    HW153064   5.873   6.012   2.851
17035SOL    HW253065   6.002   6.100   2.804
17036SOL     OW53066   6.097   6.001   3.670
17036SOL    HW153067   6.079   6.046   3.758
17036SOL    HW253068   6.139   6.066   3.607
17037SOL     OW53069   6.724   5.966   3.540
17037SOL    HW153070   6.679   6.029   3.604
17037SOL    HW253071   6.817   5.997   3.523
17038SOL     OW53072   6.746   5.793   3.339
17038SOL    HW153073   6.746   5.857   3.416
17038SOL    HW253074   6.774   5.841   3.256
17039SOL     OW53075   5.594   6.912   2.062
17039SOL    HW153076   5.501   6.933   2.031
17039SOL    HW253077   5.604   6.813   2.075
17040SOL     OW53078   5.674   7.387   2.789
17040SOL    HW153079   5.632   7.301   2.762
17040SOL    HW253080   5.768   7.390   2.755
17041SOL     OW53081   6.090   7.154   2.772
17041SOL    HW153082   6.156   7.228   2.781
17041SOL    HW253083   6.134   7.075   2.730
17042SOL     OW53084   6.588   6.382   3.100
17042SOL    HW153085   6.629   6.350   3.186
17042SOL    HW253086   6.492   6.355   3.097
17043SOL     OW53087   5.626   6.130   2.976
17043SOL    HW153088   5.711   6.097   2.935
17043SOL    HW253089   5.639   6.145   3.074
17044SOL     OW53090   5.775   6.106   3.584
17044SOL    HW153091   5.834   6.066   3.514
17044SOL    HW253092   5.717   6.177   3.543
17045SOL     OW53093   6.955   6.536   3.522
17045SOL    HW153094   6.994   6.625   3.542
17045SOL    HW253095   6.965   6.516   3.425
17046SOL     OW53096   6.401   6.158   2.187
17046SOL    HW153097   6.408   6.069   2.141
17046SOL    HW253098   6.307   6.192   2.179
17047SOL     OW53099   7.243   6.190   3.068
17047SOL    HW153100   7.205   6.121   3.130
17047SOL    HW253101   7.325   6.154   3.024
17048SOL     OW53102   5.838   7.150   3.606
17048SOL    HW153103   5.808   7.207   3.682
17048SOL    HW253104   5.831   7.053   3.632
17049SOL     OW53105   6.257   6.050   3.131
17049SOL    HW153106   6.223   5.961   3.101
17049SOL    HW253107   6.283   6.104   3.051
17050SOL     OW53108   6.516   7.264   3.327
17050SOL    HW153109   6.492   7.246   3.232
17050SOL    HW253110   6.546   7.358   3.337
17051SOL     OW53111   6.059   6.086   2.053
17051SOL    HW153112   6.120   6.166   2.057
17051SOL    HW253113   5.964   6.117   2.060
17052SOL     OW53114   5.745   6.723   3.328
17052SOL    HW153115   5.767   6.662   3.404
17052SOL    HW253116   5.755   6.674   3.242
17053SOL     OW53117   6.933   6.645   3.096
17053SOL    HW153118   6.957   6.582   3.022
17053SOL    HW253119   6.843   6.685   3.078
17054SOL     OW53120   6.888   6.441   2.171
17054SOL    HW153121   6.802   6.410   2.213
17054SOL    HW253122   6.884   6.427   2.072
17055SOL     OW53123   7.345   7.333   3.016
17055SOL    HW153124   7.406   7.363   2.943
17055SOL    HW253125   7.307   7.244   2.994
17056SOL     OW53126   6.838   7.317   2.990
17056SOL    HW153127   6.922   7.322   2.936
17056SOL    HW253128   6.815   7.221   3.008
17057SOL     OW53129   5.669   6.844   2.884
17057SOL    HW153130   5.664   6.843   2.984
17057SOL    HW253131   5.586   6.803   2.846
17058SOL     OW53132   6.274   7.248   3.578
17058SOL    HW153133   6.218   7.329   3.587
17058SOL    HW253134   6.326   7.252   3.492
17059SOL     OW53135   6.974   7.159   2.339
17059SOL    HW153136   7.041   7.171   2.265
17059SOL    HW253137   6.934   7.248   2.362
17060SOL     OW53138   5.716   7.380   3.713
17060SOL    HW153139   5.675   7.306   3.766
17060SOL    HW253140   5.780   7.431   3.771
17061SOL     OW53141   6.866   6.513   2.534
17061SOL    HW153142   6.926   6.432   2.536
17061SOL    HW253143   6.906   6.582   2.474
17062SOL     OW53144   6.416   6.859   3.284
17062SOL    HW153145   6.411   6.892   3.379
17062SOL    HW253146   6.330   6.878   3.238
17063SOL     OW53147   6.258   7.202   2.016
17063SOL    HW153148   6.267   7.212   1.917
17063SOL    HW253149   6.218   7.113   2.037
17064SOL     OW53150   7.236   7.306   3.256
17064SOL    HW153151   7.289   7.316   3.172
17064SOL    HW253152   7.209   7.396   3.290
17065SOL     OW53153   5.849   5.912   2.582
17065SOL    HW153154   5.770   5.963   2.548
17065SOL    HW253155   5.840   5.897   2.680
17066SOL     OW53156   6.780   7.198   1.893
17066SOL    HW153157   6.786   7.105   1.930
17066SOL    HW253158   6.721   7.198   1.813
17067SOL     OW53159   6.408   6.588   3.234
17067SOL    HW153160   6.448   6.587   3.142
17067SOL    HW253161   6.418   6.680   3.274
17068SOL     OW53162   6.502   6.496   2.153
17068SOL    HW153163   6.565   6.534   2.085
17068SOL    HW253164   6.542   6.413   2.192
17069SOL     OW53165   7.090   7.193   1.906
17069SOL    HW153166   6.998   7.230   1.913
17069SOL    HW253167   7.128   7.213   1.816
17070SOL     OW53168   5.958   6.874   3.352
17070SOL    HW153169   5.945   6.967   3.318
17070SOL    HW253170   5.874   6.822   3.339
17071SOL     OW53171   7.200   6.878   3.151
17071SOL    HW153172   7.260   6.881   3.231
17071SOL    HW253173   7.125   6.942   3.164
17072SOL     OW53174   6.625   6.684   2.558
17072SOL    HW153175   6.555   6.637   2.612
17072SOL    HW253176   6.684   6.616   2.515
17073SOL     OW53177   6.600   5.822   2.833
17073SOL    HW153178   6.592   5.786   2.740
17073SOL    HW253179   6.598   5.746   2.898
17074SOL     OW53180   6.176   7.073   2.353
17074SOL    HW153181   6.218   7.015   2.283
17074SOL    HW253182   6.132   7.152   2.309
17075SOL     OW53183   7.295   5.971   3.243
17075SOL    HW153184   7.368   6.040   3.247
17075SOL    HW253185   7.323   5.896   3.184
17076SOL     OW53186   5.841   6.934   2.152
17076SOL    HW153187   5.745   6.935   2.125
17076SOL    HW253188   5.853   6.987   2.236
17077SOL     OW53189   5.691   6.599   3.588
17077SOL    HW153190   5.614   6.566   3.642
17077SOL    HW253191   5.776   6.569   3.630
17078SOL     OW53192   6.258   5.789   3.351
17078SOL    HW153193   6.348   5.773   3.311
17078SOL    HW253194   6.266   5.794   3.450
17079SOL     OW53195   5.661   5.931   1.895
17079SOL    HW153196   5.569   5.903   1.866
17079SOL    HW253197   5.692   6.008   1.839
17080SOL     OW53198   7.026   6.442   3.260
17080SOL    HW153199   6.969   6.494   3.197
17080SOL    HW253200   7.122   6.454   3.236
17081SOL     OW53201   5.658   5.752   2.180
17081SOL    HW153202   5.641   5.835   2.126
17081SOL    HW253203   5.748   5.715   2.158
17082SOL     OW53204   6.769   6.921   1.981
17082SOL    HW153205   6.670   6.910   1.983
17082SOL    HW253206   6.803   6.936   2.074
17083SOL     OW53207   6.199   6.428   3.293
17083SOL    HW153208   6.255   6.509   3.276
17083SOL    HW253209   6.258   6.348   3.296
17084SOL     OW53210   7.079   7.353   2.821
17084SOL    HW153211   7.112   7.417   2.752
17084SOL    HW253212   7.145   7.347   2.896
17085SOL     OW53213   6.302   6.151   3.570
17085SOL    HW153214   6.321   6.216   3.644
17085SOL    HW253215   6.362   6.071   3.579
17086SOL     OW53216   7.036   6.806   3.495
17086SOL    HW153217   7.027   6.796   3.594
17086SOL    HW253218   7.132   6.799   3.469
17087SOL     OW53219   5.976   7.327   3.422
17087SOL    HW153220   5.885   7.368   3.420
17087SOL    HW253221   5.969   7.233   3.454
17088SOL     OW53222   7.260   6.469   3.116
17088SOL    HW153223   7.233   6.380   3.079
17088SOL    HW253224   7.261   6.537   3.043
17089SOL     OW53225   6.811   5.911   2.311
17089SOL    HW153226   6.876   5.837   2.300
17089SOL    HW253227   6.831   5.961   2.395
17090SOL     OW53228   6.180   6.331   2.514
17090SOL    HW153229   6.230   6.416   2.495
17090SOL    HW253230   6.092   6.333   2.466
17091SOL     OW53231   7.363   5.928   3.504
17091SOL    HW153232   7.346   5.959   3.410
17091SOL    HW253233   7.279   5.891   3.542
17092SOL     OW53234   7.316   6.520   3.379
17092SOL    HW153235   7.354   6.611   3.394
17092SOL    HW253236   7.308   6.503   3.280
17093SOL     OW53237   6.445   6.960   1.878
17093SOL    HW153238   6.399   6.975   1.966
17093SOL    HW253239   6.489   7.045   1.848
17094SOL     OW53240   6.247   7.376   2.815
17094SOL    HW153241   6.201   7.464   2.802
17094SOL    HW253242   6.346   7.388   2.808
17095SOL     OW53243   6.994   7.437   3.582
17095SOL    HW153244   6.898   7.426   3.555
17095SOL    HW253245   7.050   7.370   3.534
17096SOL     OW53246   6.445   6.542   2.723
17096SOL    HW153247   6.499   6.473   2.771
17096SOL    HW253248   6.413   6.611   2.789
17097SOL     OW53249   6.669   6.570   1.949
17097SOL    HW153250   6.646   6.623   1.867
17097SOL    HW253251   6.750   6.514   1.930
17098SOL     OW53252   7.447   7.155   2.713
17098SOL    HW153253   7.376   7.143   2.643
17098SOL    HW253254   7.448   7.076   2.773
17099SOL     OW53255   5.807   6.900   3.706
17099SOL    HW153256   5.742   6.827   3.685
17099SOL    HW253257   5.811   6.914   3.804
17100SOL     OW53258   5.665   6.826   2.515
17100SOL    HW153259   5.664   6.779   2.603
17100SOL    HW253260   5.747   6.798   2.464
17101SOL     OW53261   6.258   6.977   3.486
17101SOL    HW153262   6.180   6.927   3.524
17101SOL    HW253263   6.255   7.072   3.517
17102SOL     OW53264   6.014   6.010   2.382
17102SOL    HW153265   6.044   5.938   2.320
17102SOL    HW253266   5.975   5.970   2.465
17103SOL     OW53267   7.291   7.073   2.966
17103SOL    HW153268   7.198   7.048   2.939
17103SOL    HW253269   7.317   7.023   3.048
17104SOL     OW53270   5.903   6.133   3.142
17104SOL    HW153271   5.941   6.074   3.214
17104SOL    HW253272   5.943   6.107   3.054
17105SOL     OW53273   6.398   7.172   2.549
17105SOL    HW153274   6.430   7.182   2.455
17105SOL    HW253275   6.319   7.110   2.551
17106SOL     OW53276   6.587   5.620   3.016
17106SOL    HW153277   6.524   5.548   2.985
17106SOL    HW253278   6.680   5.584   3.016
17107SOL     OW53279   6.356   6.916   2.163
17107SOL    HW153280   6.310   6.829   2.180
17107SOL    HW253281   6.447   6.913   2.204
17108SOL     OW53282   6.204   7.153   3.146
17108SOL    HW153283   6.199   7.235   3.203
17108SOL    HW253284   6.293   7.150   3.101
17109SOL     OW53285   6.886   6.039   2.553
17109SOL    HW153286   6.827   6.119   2.557
17109SOL    HW253287   6.901   6.004   2.646
17110SOL     OW53288   5.625   6.663   2.162
17110SOL    HW153289   5.724   6.652   2.153
17110SOL    HW253290   5.585   6.577   2.194
17111SOL     OW53291   6.461   7.232   2.199
17111SOL    HW153292   6.384   7.197   2.145
17111SOL    HW253293   6.429   7.303   2.261
17112SOL     OW53294   5.816   6.214   3.837
17112SOL    HW153295   5.723   6.212   3.874
17112SOL    HW253296   5.817   6.175   3.745
17113SOL     OW53297   5.811   5.861   4.720
17113SOL    HW153298   5.846   5.844   4.812
17113SOL    HW253299   5.723   5.816   4.708
17114SOL     OW53300   5.605   5.954   4.371
17114SOL    HW153301   5.523   5.997   4.410
17114SOL    HW253302   5.577   5.881   4.308
17115SOL     OW53303   6.155   6.861   4.889
17115SOL    HW153304   6.062   6.854   4.852
17115SOL    HW253305   6.166   6.950   4.933
17116SOL     OW53306   7.141   7.097   4.427
17116SOL    HW153307   7.084   7.081   4.508
17116SOL    HW253308   7.082   7.107   4.347
17117SOL     OW53309   7.329   6.204   4.580
17117SOL    HW153310   7.362   6.298   4.580
17117SOL    HW253311   7.380   6.150   4.646
17118SOL     OW53312   6.721   6.289   4.441
17118SOL    HW153313   6.778   6.367   4.416
17118SOL    HW253314   6.661   6.315   4.517
17119SOL     OW53315   7.341   6.193   3.955
17119SOL    HW153316   7.329   6.180   3.856
17119SOL    HW253317   7.311   6.112   4.004
17120SOL     OW53318   6.354   6.730   4.747
17120SOL    HW153319   6.276   6.747   4.807
17120SOL    HW253320   6.388   6.817   4.711
17121SOL     OW53321   6.436   6.384   5.547
17121SOL    HW153322   6.432   6.460   5.612
17121SOL    HW253323   6.458   6.420   5.456
17122SOL     OW53324   6.271   6.598   4.389
17122SOL    HW153325   6.340   6.582   4.459
17122SOL    HW253326   6.198   6.655   4.427
17123SOL     OW53327   6.272   6.747   5.527
17123SOL    HW153328   6.332   6.826   5.541
17123SOL    HW253329   6.186   6.778   5.486
17124SOL     OW53330   5.921   7.021   4.785
17124SOL    HW153331   5.843   6.990   4.732
17124SOL    HW253332   5.979   7.079   4.728
17125SOL     OW53333   7.046   7.091   5.063
17125SOL    HW153334   7.070   7.185   5.089
17125SOL    HW253335   7.030   7.037   5.145
17126SOL     OW53336   6.024   5.978   5.223
17126SOL    HW153337   6.106   5.922   5.232
17126SOL    HW253338   5.943   5.920   5.227
17127SOL     OW53339   7.189   6.033   4.461
17127SOL    HW153340   7.115   6.079   4.411
17127SOL    HW253341   7.240   6.101   4.514
17128SOL     OW53342   5.817   7.299   4.207
17128SOL    HW153343   5.851   7.376   4.261
17128SOL    HW253344   5.861   7.299   4.117
17129SOL     OW53345   6.713   6.927   5.414
17129SOL    HW153346   6.760   6.927   5.502
17129SOL    HW253347   6.665   6.840   5.403
17130SOL     OW53348   5.816   7.020   4.262
17130SOL    HW153349   5.790   7.116   4.262
17130SOL    HW253350   5.745   6.966   4.307
17131SOL     OW53351   5.826   6.677   4.610
17131SOL    HW153352   5.840   6.593   4.662
17131SOL    HW253353   5.771   6.741   4.665
17132SOL     OW53354   6.206   7.372   5.163
17132SOL    HW153355   6.114   7.355   5.198
17132SOL    HW253356   6.234   7.464   5.189
17133SOL     OW53357   6.192   6.550   3.847
17133SOL    HW153358   6.199   6.634   3.793
17133SOL    HW253359   6.238   6.563   3.935
17134SOL     OW53360   7.180   5.700   5.204
17134SOL    HW153361   7.162   5.767   5.132
17134SOL    HW253362   7.177   5.746   5.293
17135SOL     OW53363   5.708   6.229   4.287
17135SOL    HW153364   5.663   6.141   4.304
17135SOL    HW253365   5.707   6.283   4.371
17136SOL     OW53366   7.428   7.353   4.083
17136SOL    HW153367   7.482   7.324   4.163
17136SOL    HW253368   7.458   7.443   4.054
17137SOL     OW53369   5.613   7.182   3.841
17137SOL    HW153370   5.594   7.086   3.862
17137SOL    HW253371   5.580   7.240   3.916
17138SOL     OW53372   7.275   6.508   4.336
17138SOL    HW153373   7.370   6.479   4.344
17138SOL    HW253374   7.267   6.573   4.261
17139SOL     OW53375   7.227   6.694   4.156
17139SOL    HW153376   7.313   6.696   4.104
17139SOL    HW253377   7.241   6.741   4.244
17140SOL     OW53378   5.699   6.323   5.321
17140SOL    HW153379   5.787   6.310   5.366
17140SOL    HW253380   5.686   6.420   5.299
17141SOL     OW53381   6.199   6.951   4.450
17141SOL    HW153382   6.150   6.864   4.459
17141SOL    HW253383   6.176   6.994   4.363
17142SOL     OW53384   6.879   6.814   5.147
17142SOL    HW153385   6.916   6.741   5.089
17142SOL    HW253386   6.931   6.819   5.232
17143SOL     OW53387   6.395   5.590   4.226
17143SOL    HW153388   6.435   5.681   4.217
17143SOL    HW253389   6.295   5.598   4.232
17144SOL     OW53390   5.783   6.562   4.988
17144SOL    HW153391   5.872   6.517   4.974
17144SOL    HW253392   5.710   6.497   4.969
17145SOL     OW53393   7.111   6.585   3.914
17145SOL    HW153394   7.048   6.509   3.927
17145SOL    HW253395   7.159   6.603   4.000
17146SOL     OW53396   6.773   7.378   5.340
17146SOL    HW153397   6.797   7.438   5.264
17146SOL    HW253398   6.780   7.283   5.310
17147SOL     OW53399   5.903   5.837   5.525
17147SOL    HW153400   5.974   5.908   5.531
17147SOL    HW253401   5.815   5.876   5.553
17148SOL     OW53402   7.052   7.003   4.677
17148SOL    HW153403   6.993   7.009   4.757
17148SOL    HW253404   7.037   6.915   4.631
17149SOL     OW53405   7.253   7.300   4.296
17149SOL    HW153406   7.212   7.277   4.208
17149SOL    HW253407   7.235   7.226   4.361
17150SOL     OW53408   6.184   6.315   3.994
17150SOL    HW153409   6.208   6.384   3.926
17150SOL    HW253410   6.106   6.348   4.048
17151SOL     OW53411   6.867   5.931   4.668
17151SOL    HW153412   6.781   5.881   4.655
17151SOL    HW253413   6.929   5.877   4.724
17152SOL     OW53414   7.162   7.248   4.031
17152SOL    HW153415   7.251   7.294   4.034
17152SOL    HW253416   7.141   7.224   3.936
17153SOL     OW53417   6.393   6.191   5.189
17153SOL    HW153418   6.346   6.188   5.278
17153SOL    HW253419   6.342   6.136   5.123
17154SOL     OW53420   6.980   6.055   5.398
17154SOL    HW153421   6.960   6.098   5.486
17154SOL    HW253422   7.058   5.993   5.407
17155SOL     OW53423   6.559   6.476   5.296
17155SOL    HW153424   6.605   6.392   5.267
17155SOL    HW253425   6.503   6.510   5.221
17156SOL     OW53426   6.577   5.996   4.966
17156SOL    HW153427   6.500   6.030   5.020
17156SOL    HW253428   6.543   5.945   4.887
17157SOL     OW53429   6.627   6.287   4.153
17157SOL    HW153430   6.653   6.283   4.249
17157SOL    HW253431   6.542   6.236   4.139
17158SOL     OW53432   5.662   6.397   4.513
17158SOL    HW153433   5.761   6.385   4.522
17158SOL    HW253434   5.638   6.492   4.534
17159SOL     OW53435   5.716   7.407   5.295
17159SOL    HW153436   5.706   7.392   5.394
17159SOL    HW253437   5.630   7.443   5.259
17160SOL     OW53438   6.451   5.934   3.919
17160SOL    HW153439   6.510   5.997   3.870
17160SOL    HW253440   6.470   5.840   3.890
17161SOL     OW53441   7.305   6.171   5.555
17161SOL    HW153442   7.279   6.260   5.519
17161SOL    HW253443   7.303   6.103   5.482
17162SOL     OW53444   6.948   6.730   4.269
17162SOL    HW153445   7.031   6.701   4.221
17162SOL    HW253446   6.899   6.797   4.213
17163SOL     OW53447   6.136   5.782   4.609
17163SOL    HW153448   6.131   5.777   4.709
17163SOL    HW253449   6.138   5.878   4.580
17164SOL     OW53450   6.594   7.042   4.201
17164SOL    HW153451   6.548   7.114   4.149
17164SOL    HW253452   6.590   7.062   4.299
17165SOL     OW53453   5.937   7.387   4.577
17165SOL    HW153454   5.987   7.301   4.583
17165SOL    HW253455   6.002   7.464   4.574
17166SOL     OW53456   7.381   6.652   4.597
17166SOL    HW153457   7.319   6.637   4.521
17166SOL    HW253458   7.329   6.663   4.682
17167SOL     OW53459   6.813   7.136   5.230
17167SOL    HW153460   6.819   7.059   5.294
17167SOL    HW253461   6.761   7.110   5.150
17168SOL     OW53462   5.907   6.529   3.966
17168SOL    HW153463   5.989   6.568   3.924
17168SOL    HW253464   5.880   6.447   3.917
17169SOL     OW53465   7.044   6.321   4.452
17169SOL    HW153466   7.039   6.256   4.527
17169SOL    HW253467   7.124   6.380   4.465
17170SOL     OW53468   6.047   6.852   5.451
17170SOL    HW153469   5.997   6.853   5.365
17170SOL    HW253470   5.984   6.834   5.527
17171SOL     OW53471   6.697   7.362   3.961
17171SOL    HW153472   6.637   7.300   4.011
17171SOL    HW253473   6.728   7.318   3.876
17172SOL     OW53474   5.788   5.871   5.222
17172SOL    HW153475   5.708   5.931   5.209
17172SOL    HW253476   5.778   5.822   5.308
17173SOL     OW53477   7.218   6.963   3.805
17173SOL    HW153478   7.186   7.057   3.795
17173SOL    HW253479   7.142   6.900   3.793
17174SOL     OW53480   6.050   7.329   4.047
17174SOL    HW153481   6.083   7.368   4.133
17174SOL    HW253482   6.126   7.322   3.982
17175SOL     OW53483   6.986   5.693   4.150
17175SOL    HW153484   6.962   5.656   4.060
17175SOL    HW253485   7.085   5.709   4.154
17176SOL     OW53486   5.835   7.371   4.965
17176SOL    HW153487   5.892   7.306   5.015
17176SOL    HW253488   5.819   7.338   4.872
17177SOL     OW53489   6.526   7.284   4.628
17177SOL    HW153490   6.606   7.227   4.649
17177SOL    HW253491   6.477   7.244   4.551
17178SOL     OW53492   5.968   6.286   4.204
17178SOL    HW153493   6.013   6.196   4.201
17178SOL    HW253494   5.874   6.275   4.237
17179SOL     OW53495   7.133   5.808   5.453
17179SOL    HW153496   7.128   5.845   5.545
17179SOL    HW253497   7.061   5.739   5.441
17180SOL     OW53498   6.200   5.708   3.841
17180SOL    HW153499   6.298   5.686   3.848
17180SOL    HW253500   6.169   5.691   3.748
17181SOL     OW53501   6.367   5.850   5.473
17181SOL    HW153502   6.434   5.789   5.516
17181SOL    HW253503   6.294   5.869   5.538
17182SOL     OW53504   6.474   7.100   4.919
17182SOL    HW153505   6.451   7.075   4.825
17182SOL    HW253506   6.535   7.031   4.958
17183SOL     OW53507   6.937   6.176   5.157
17183SOL    HW153508   6.965   6.133   5.242
17183SOL    HW253509   6.962   6.272   5.158
17184SOL     OW53510   6.389   6.988   4.648
17184SOL    HW153511   6.479   7.002   4.606
17184SOL    HW253512   6.318   6.990   4.577
17185SOL     OW53513   6.508   6.089   4.623
17185SOL    HW153514   6.483   6.080   4.527
17185SOL    HW253515   6.556   6.007   4.654
17186SOL     OW53516   6.125   5.650   4.236
17186SOL    HW153517   6.044   5.651   4.294
17186SOL    HW253518   6.128   5.733   4.181
17187SOL     OW53519   7.020   6.774   3.765
17187SOL    HW153520   7.052   6.698   3.822
17187SOL    HW253521   6.928   6.801   3.795
17188SOL     OW53522   5.883   5.621   3.895
17188SOL    HW153523   5.932   5.705   3.874
17188SOL    HW253524   5.945   5.556   3.940
17189SOL     OW53525   6.521   5.822   4.204
17189SOL    HW153526   6.473   5.863   4.126
17189SOL    HW253527   6.620   5.820   4.185
17190SOL     OW53528   6.662   6.269   5.188
17190SOL    HW153529   6.582   6.208   5.191
17190SOL    HW253530   6.743   6.216   5.164
17191SOL     OW53531   6.813   7.156   4.517
17191SOL    HW153532   6.834   7.230   4.452
17191SOL    HW253533   6.881   7.156   4.590
17192SOL     OW53534   6.045   6.738   4.465
17192SOL    HW153535   5.974   6.711   4.530
17192SOL    HW253536   6.019   6.710   4.372
17193SOL     OW53537   6.857   7.383   4.315
17193SOL    HW153538   6.901   7.447   4.251
17193SOL    HW253539   6.807   7.435   4.385
17194SOL     OW53540   6.618   6.135   3.740
17194SOL    HW153541   6.577   6.217   3.701
17194SOL    HW253542   6.682   6.161   3.813
17195SOL     OW53543   5.664   6.142   5.110
17195SOL    HW153544   5.756   6.141   5.069
17195SOL    HW253545   5.658   6.216   5.177
17196SOL     OW53546   6.147   5.808   4.871
17196SOL    HW153547   6.185   5.724   4.908
17196SOL    HW253548   6.059   5.827   4.915
17197SOL     OW53549   6.452   6.040   4.366
17197SOL    HW153550   6.420   6.112   4.304
17197SOL    HW253551   6.476   5.959   4.313
17198SOL     OW53552   6.603   5.625   4.477
17198SOL    HW153553   6.531   5.630   4.408
17198SOL    HW253554   6.579   5.556   4.546
17199SOL     OW53555   7.015   6.759   4.591
17199SOL    HW153556   6.960   6.675   4.584
17199SOL    HW253557   7.041   6.788   4.499
17200SOL     OW53558   7.052   6.176   4.716
17200SOL    HW153559   7.022   6.081   4.723
17200SOL    HW253560   7.125   6.192   4.782
17201SOL     OW53561   7.443   6.419   4.101
17201SOL    HW153562   7.485   6.355   4.165
17201SOL    HW253563   7.405   6.368   4.023
17202SOL     OW53564   6.074   6.971   3.898
17202SOL    HW153565   5.987   6.956   3.945
17202SOL    HW253566   6.057   6.997   3.803
17203SOL     OW53567   7.250   6.866   4.381
17203SOL    HW153568   7.349   6.874   4.395
17203SOL    HW253569   7.205   6.950   4.412
17204SOL     OW53570   6.976   6.161   3.802
17204SOL    HW153571   6.922   6.140   3.883
17204SOL    HW253572   7.067   6.120   3.811
17205SOL     OW53573   6.113   5.842   4.052
17205SOL    HW153574   6.140   5.783   3.977
17205SOL    HW253575   6.113   5.937   4.021
17206SOL     OW53576   7.340   6.809   5.312
17206SOL    HW153577   7.431   6.770   5.299
17206SOL    HW253578   7.348   6.905   5.336
17207SOL     OW53579   6.650   6.933   5.064
17207SOL    HW153580   6.570   6.910   5.119
17207SOL    HW253581   6.733   6.907   5.113
17208SOL     OW53582   7.178   7.215   5.349
17208SOL    HW153583   7.205   7.249   5.259
17208SOL    HW253584   7.257   7.177   5.395
17209SOL     OW53585   6.697   6.781   4.824
17209SOL    HW153586   6.657   6.825   4.905
17209SOL    HW253587   6.656   6.818   4.741
17210SOL     OW53588   7.224   6.685   4.803
17210SOL    HW153589   7.229   6.766   4.862
17210SOL    HW253590   7.138   6.687   4.752
17211SOL     OW53591   6.501   5.675   5.126
17211SOL    HW153592   6.526   5.655   5.031
17211SOL    HW253593   6.573   5.731   5.168
17212SOL     OW53594   6.566   6.702   5.443
17212SOL    HW153595   6.467   6.708   5.453
17212SOL    HW253596   6.589   6.622   5.387
17213SOL     OW53597   6.291   6.636   4.092
17213SOL    HW153598   6.277   6.643   4.191
17213SOL    HW253599   6.375   6.585   4.074
17214SOL     OW53600   5.996   6.399   4.975
17214SOL    HW153601   6.082   6.411   5.025
17214SOL    HW253602   5.954   6.312   5.002
17215SOL     OW53603   6.860   5.972   4.986
17215SOL    HW153604   6.881   6.046   5.050
17215SOL    HW253605   6.771   5.989   4.943
17216SOL     OW53606   5.650   7.150   5.055
17216SOL    HW153607   5.604   7.232   5.021
17216SOL    HW253608   5.748   7.169   5.064
17217SOL     OW53609   5.953   6.686   4.225
17217SOL    HW153610   5.946   6.769   4.169
17217SOL    HW253611   5.957   6.606   4.165
17218SOL     OW53612   6.152   6.123   4.589
17218SOL    HW153613   6.164   6.189   4.515
17218SOL    HW253614   6.198   6.157   4.672
17219SOL     OW53615   6.838   6.934   4.112
17219SOL    HW153616   6.888   7.011   4.152
17219SOL    HW253617   6.743   6.936   4.144
17220SOL     OW53618   6.858   7.031   4.866
17220SOL    HW153619   6.905   7.044   4.953
17220SOL    HW253620   6.792   6.957   4.875
17221SOL     OW53621   7.168   6.225   4.196
17221SOL    HW153622   7.137   6.286   4.269
17221SOL    HW253623   7.218   6.277   4.127
17222SOL     OW53624   5.940   7.096   5.053
17222SOL    HW153625   5.919   7.052   4.966
17222SOL    HW253626   6.037   7.122   5.056
17223SOL     OW53627   5.988   6.337   5.322
17223SOL    HW153628   6.056   6.392   5.275
17223SOL    HW253629   6.028   6.249   5.349
17224SOL     OW53630   7.173   6.365   5.394
17224SOL    HW153631   7.081   6.403   5.389
17224SOL    HW253632   7.233   6.412   5.329
17225SOL     OW53633   6.599   5.691   5.494
17225SOL    HW153634   6.605   5.776   5.442
17225SOL    HW253635   6.631   5.615   5.437
17226SOL     OW53636   6.090   5.636   5.464
17226SOL    HW153637   6.048   5.579   5.394
17226SOL    HW253638   6.024   5.705   5.496
17227SOL     OW53639   6.159   6.456   4.753
17227SOL    HW153640   6.203   6.545   4.744
17227SOL    HW253641   6.096   6.456   4.830
17228SOL     OW53642   6.946   6.448   4.769
17228SOL    HW153643   6.871   6.448   4.703
17228SOL    HW253644   6.983   6.356   4.778
17229SOL     OW53645   6.795   6.111   3.999
17229SOL    HW153646   6.808   6.027   4.053
17229SOL    HW253647   6.766   6.185   4.059
17230SOL     OW53648   5.893   5.799   4.955
17230SOL    HW153649   5.870   5.836   5.045
17230SOL    HW253650   5.863   5.704   4.949
17231SOL     OW53651   5.623   6.896   5.006
17231SOL    HW153652   5.676   6.847   5.074
17231SOL    HW253653   5.645   6.994   5.011
17232SOL     OW53654   6.318   6.220   4.788
17232SOL    HW153655   6.377   6.194   4.712
17232SOL    HW253656   6.290   6.316   4.777
17233SOL     OW53657   7.314   6.521   5.578
17233SOL    HW153658   7.268   6.514   5.489
17233SOL    HW253659   7.252   6.565   5.644
17234SOL     OW53660   5.893   5.649   4.342
17234SOL    HW153661   5.882   5.743   4.375
17234SOL    HW253662   5.888   5.586   4.419
17235SOL     OW53663   7.208   5.953   4.098
17235SOL    HW153664   7.210   5.877   4.162
17235SOL    HW253665   7.160   6.030   4.138
17236SOL     OW53666   6.609   6.352   4.690
17236SOL    HW153667   6.624   6.373   4.786
17236SOL    HW253668   6.579   6.257   4.681
17237SOL     OW53669   6.566   7.159   5.424
17237SOL    HW153670   6.546   7.203   5.336
17237SOL    HW253671   6.605   7.068   5.408
17238SOL     OW53672   7.445   7.104   5.329
17238SOL    HW153673   7.459   7.131   5.234
17238SOL    HW253674   7.528   7.126   5.382
17239SOL     OW53675   5.936   6.484   5.528
17239SOL    HW153676   6.012   6.528   5.576
17239SOL    HW253677   5.971   6.437   5.446
17240SOL     OW53678   7.126   5.860   3.849
17240SOL    HW153679   7.065   5.785   3.872
17240SOL    HW253680   7.148   5.912   3.932
17241SOL     OW53681   6.889   6.424   3.766
17241SOL    HW153682   6.923   6.331   3.781
17241SOL    HW253683   6.907   6.451   3.671
17242SOL     OW53684   6.654   6.919   4.573
17242SOL    HW153685   6.661   6.835   4.518
17242SOL    HW253686   6.716   6.988   4.537
17243SOL     OW53687   5.905   6.396   4.673
17243SOL    HW153688   5.998   6.432   4.678
17243SOL    HW253689   5.899   6.311   4.725
17244SOL     OW53690   5.925   6.095   4.730
17244SOL    HW153691   5.873   6.012   4.713
17244SOL    HW253692   6.002   6.100   4.666
17245SOL     OW53693   6.097   6.001   5.532
17245SOL    HW153694   6.079   6.046   5.620
17245SOL    HW253695   6.139   6.066   5.469
17246SOL     OW53696   6.724   5.966   5.402
17246SOL    HW153697   6.679   6.029   5.466
17246SOL    HW253698   6.817   5.997   5.385
17247SOL     OW53699   6.746   5.793   5.201
17247SOL    HW153700   6.746   5.857   5.278
17247SOL    HW253701   6.774   5.841   5.118
17248SOL     OW53702   5.594   6.912   3.924
17248SOL    HW153703   5.501   6.933   3.893
17248SOL    HW253704   5.604   6.813   3.937
17249SOL     OW53705   5.674   7.387   4.651
17249SOL    HW153706   5.632   7.301   4.624
17249SOL    HW253707   5.768   7.390   4.617
17250SOL     OW53708   6.090   7.154   4.634
17250SOL    HW153709   6.156   7.228   4.643
17250SOL    HW253710   6.134   7.075   4.592
17251SOL     OW53711   6.588   6.382   4.962
17251SOL    HW153712   6.629   6.350   5.048
17251SOL    HW253713   6.492   6.355   4.959
17252SOL     OW53714   5.626   6.130   4.838
17252SOL    HW153715   5.711   6.097   4.797
17252SOL    HW253716   5.639   6.145   4.936
17253SOL     OW53717   5.775   6.106   5.446
17253SOL    HW153718   5.834   6.066   5.376
17253SOL    HW253719   5.717   6.177   5.405
17254SOL     OW53720   6.955   6.536   5.384
17254SOL    HW153721   6.994   6.625   5.404
17254SOL    HW253722   6.965   6.516   5.287
17255SOL     OW53723   6.401   6.158   4.049
17255SOL    HW153724   6.408   6.069   4.003
17255SOL    HW253725   6.307   6.192   4.041
17256SOL     OW53726   7.243   6.190   4.930
17256SOL    HW153727   7.205   6.121   4.992
17256SOL    HW253728   7.325   6.154   4.886
17257SOL     OW53729   5.838   7.150   5.468
17257SOL    HW153730   5.808   7.207   5.544
17257SOL    HW253731   5.831   7.053   5.494
17258SOL     OW53732   6.257   6.050   4.993
17258SOL    HW153733   6.223   5.961   4.963
17258SOL    HW253734   6.283   6.104   4.913
17259SOL     OW53735   6.516   7.264   5.189
17259SOL    HW153736   6.492   7.246   5.094
17259SOL    HW253737   6.546   7.358   5.199
17260SOL     OW53738   6.059   6.086   3.915
17260SOL    HW153739   6.120   6.166   3.919
17260SOL    HW253740   5.964   6.117   3.922
17261SOL     OW53741   5.745   6.723   5.190
17261SOL    HW153742   5.767   6.662   5.266
17261SOL    HW253743   5.755   6.674   5.104
17262SOL     OW53744   6.933   6.645   4.958
17262SOL    HW153745   6.957   6.582   4.884
17262SOL    HW253746   6.843   6.685   4.940
17263SOL     OW53747   6.888   6.441   4.033
17263SOL    HW153748   6.802   6.410   4.075
17263SOL    HW253749   6.884   6.427   3.934
17264SOL     OW53750   7.345   7.333   4.878
17264SOL    HW153751   7.406   7.363   4.805
17264SOL    HW253752   7.307   7.244   4.856
17265SOL     OW53753   6.838   7.317   4.852
17265SOL    HW153754   6.922   7.322   4.798
17265SOL    HW253755   6.815   7.221   4.870
17266SOL     OW53756   5.669   6.844   4.746
17266SOL    HW153757   5.664   6.843   4.846
17266SOL    HW253758   5.586   6.803   4.708
17267SOL     OW53759   6.274   7.248   5.440
17267SOL    HW153760   6.218   7.329   5.449
17267SOL    HW253761   6.326   7.252   5.354
17268SOL     OW53762   6.489   5.672   3.857
17268SOL    HW153763   6.540   5.673   3.771
17268SOL    HW253764   6.545   5.630   3.928
17269SOL     OW53765   7.312   5.721   4.247
17269SOL    HW153766   7.385   5.704   4.180
17269SOL    HW253767   7.281   5.634   4.285
17270SOL     OW53768   6.974   7.159   4.201
17270SOL    HW153769   7.041   7.171   4.127
17270SOL    HW253770   6.934   7.248   4.224
17271SOL     OW53771   5.716   7.380   5.575
17271SOL    HW153772   5.675   7.306   5.628
17271SOL    HW253773   5.780   7.431   5.633
17272SOL     OW53774   6.866   6.513   4.396
17272SOL    HW153775   6.926   6.432   4.398
17272SOL    HW253776   6.906   6.582   4.336
17273SOL     OW53777   6.416   6.859   5.146
17273SOL    HW153778   6.411   6.892   5.241
17273SOL    HW253779   6.330   6.878   5.100
17274SOL     OW53780   6.258   7.202   3.878
17274SOL    HW153781   6.267   7.212   3.779
17274SOL    HW253782   6.218   7.113   3.899
17275SOL     OW53783   7.236   7.306   5.118
17275SOL    HW153784   7.289   7.316   5.034
17275SOL    HW253785   7.209   7.396   5.152
17276SOL     OW53786   7.427   5.761   4.687
17276SOL    HW153787   7.466   5.676   4.651
17276SOL    HW253788   7.329   5.763   4.668
17277SOL     OW53789   5.849   5.912   4.444
17277SOL    HW153790   5.770   5.963   4.410
17277SOL    HW253791   5.840   5.897   4.542
17278SOL     OW53792   6.780   7.198   3.755
17278SOL    HW153793   6.786   7.105   3.792
17278SOL    HW253794   6.721   7.198   3.675
17279SOL     OW53795   6.408   6.588   5.096
17279SOL    HW153796   6.448   6.587   5.004
17279SOL    HW253797   6.418   6.680   5.136
17280SOL     OW53798   6.502   6.496   4.015
17280SOL    HW153799   6.565   6.534   3.947
17280SOL    HW253800   6.542   6.413   4.054
17281SOL     OW53801   7.090   7.193   3.768
17281SOL    HW153802   6.998   7.230   3.775
17281SOL    HW253803   7.128   7.213   3.678
17282SOL     OW53804   5.958   6.874   5.214
17282SOL    HW153805   5.945   6.967   5.180
17282SOL    HW253806   5.874   6.822   5.201
17283SOL     OW53807   7.200   6.878   5.013
17283SOL    HW153808   7.260   6.881   5.093
17283SOL    HW253809   7.125   6.942   5.026
17284SOL     OW53810   6.625   6.684   4.420
17284SOL    HW153811   6.555   6.637   4.474
17284SOL    HW253812   6.684   6.616   4.377
17285SOL     OW53813   6.600   5.822   4.695
17285SOL    HW153814   6.592   5.786   4.602
17285SOL    HW253815   6.598   5.746   4.760
17286SOL     OW53816   6.176   7.073   4.215
17286SOL    HW153817   6.218   7.015   4.145
17286SOL    HW253818   6.132   7.152   4.171
17287SOL     OW53819   7.295   5.971   5.105
17287SOL    HW153820   7.368   6.040   5.109
17287SOL    HW253821   7.323   5.896   5.046
17288SOL     OW53822   5.841   6.934   4.014
17288SOL    HW153823   5.745   6.935   3.987
17288SOL    HW253824   5.853   6.987   4.098
17289SOL     OW53825   5.691   6.599   5.450
17289SOL    HW153826   5.614   6.566   5.504
17289SOL    HW253827   5.776   6.569   5.492
17290SOL     OW53828   6.258   5.789   5.213
17290SOL    HW153829   6.348   5.773   5.173
17290SOL    HW253830   6.266   5.794   5.312
17291SOL     OW53831   5.661   5.931   3.757
17291SOL    HW153832   5.569   5.903   3.728
17291SOL    HW253833   5.692   6.008   3.701
17292SOL     OW53834   7.026   6.442   5.122
17292SOL    HW153835   6.969   6.494   5.059
17292SOL    HW253836   7.122   6.454   5.098
17293SOL     OW53837   5.658   5.752   4.042
17293SOL    HW153838   5.641   5.835   3.988
17293SOL    HW253839   5.748   5.715   4.020
17294SOL     OW53840   6.769   6.921   3.843
17294SOL    HW153841   6.670   6.910   3.845
17294SOL    HW253842   6.803   6.936   3.936
17295SOL     OW53843   6.199   6.428   5.155
17295SOL    HW153844   6.255   6.509   5.138
17295SOL    HW253845   6.258   6.348   5.158
17296SOL     OW53846   7.079   7.353   4.683
17296SOL    HW153847   7.112   7.417   4.614
17296SOL    HW253848   7.145   7.347   4.758
17297SOL     OW53849   6.302   6.151   5.432
17297SOL    HW153850   6.321   6.216   5.506
17297SOL    HW253851   6.362   6.071   5.441
17298SOL     OW53852   7.036   6.806   5.357
17298SOL    HW153853   7.027   6.796   5.456
17298SOL    HW253854   7.132   6.799   5.331
17299SOL     OW53855   5.976   7.327   5.284
17299SOL    HW153856   5.885   7.368   5.282
17299SOL    HW253857   5.969   7.233   5.316
17300SOL     OW53858   7.260   6.469   4.978
17300SOL    HW153859   7.233   6.380   4.941
17300SOL    HW253860   7.261   6.537   4.905
17301SOL     OW53861   6.811   5.911   4.173
17301SOL    HW153862   6.876   5.837   4.162
17301SOL    HW253863   6.831   5.961   4.257
17302SOL     OW53864   6.180   6.331   4.376
17302SOL    HW153865   6.230   6.416   4.357
17302SOL    HW253866   6.092   6.333   4.328
17303SOL     OW53867   7.363   5.928   5.366
17303SOL    HW153868   7.346   5.959   5.272
17303SOL    HW253869   7.279   5.891   5.404
17304SOL     OW53870   7.316   6.520   5.241
17304SOL    HW153871   7.354   6.611   5.256
17304SOL    HW253872   7.308   6.503   5.142
17305SOL     OW53873   6.445   6.960   3.740
17305SOL    HW153874   6.399   6.975   3.828
17305SOL    HW253875   6.489   7.045   3.710
17306SOL     OW53876   6.247   7.376   4.677
17306SOL    HW153877   6.201   7.464   4.664
17306SOL    HW253878   6.346   7.388   4.670
17307SOL     OW53879   6.994   7.437   5.444
17307SOL    HW153880   6.898   7.426   5.417
17307SOL    HW253881   7.050   7.370   5.396
17308SOL     OW53882   6.445   6.542   4.585
17308SOL    HW153883   6.499   6.473   4.633
17308SOL    HW253884   6.413   6.611   4.651
17309SOL     OW53885   6.669   6.570   3.811
17309SOL    HW153886   6.646   6.623   3.729
17309SOL    HW253887   6.750   6.514   3.792
17310SOL     OW53888   7.447   7.155   4.575
17310SOL    HW153889   7.376   7.143   4.505
17310SOL    HW253890   7.448   7.076   4.635
17311SOL     OW53891   5.807   6.900   5.568
17311SOL    HW153892   5.742   6.827   5.547
17311SOL    HW253893   5.811   6.914   5.666
17312SOL     OW53894   5.665   6.826   4.377
17312SOL    HW153895   5.664   6.779   4.465
17312SOL    HW253896   5.747   6.798   4.326
17313SOL     OW53897   6.258   6.977   5.348
17313SOL    HW153898   6.180   6.927   5.386
17313SOL    HW253899   6.255   7.072   5.379
17314SOL     OW53900   7.410   5.778   4.951
17314SOL    HW153901   7.406   5.688   4.995
17314SOL    HW253902   7.413   5.767   4.852
17315SOL     OW53903   6.014   6.010   4.244
17315SOL    HW153904   6.044   5.938   4.182
17315SOL    HW253905   5.975   5.970   4.327
17316SOL     OW53906   7.291   7.073   4.828
17316SOL    HW153907   7.198   7.048   4.801
17316SOL    HW253908   7.317   7.023   4.910
17317SOL     OW53909   5.903   6.133   5.004
17317SOL    HW153910   5.941   6.074   5.076
17317SOL    HW253911   5.943   6.107   4.916
17318SOL     OW53912   6.398   7.172   4.411
17318SOL    HW153913   6.430   7.182   4.317
17318SOL    HW253914   6.319   7.110   4.413
17319SOL     OW53915   7.010   5.800   4.836
17319SOL    HW153916   7.062   5.735   4.891
17319SOL    HW253917   6.961   5.863   4.897
17320SOL     OW53918   6.587   5.620   4.878
17320SOL    HW153919   6.524   5.548   4.847
17320SOL    HW253920   6.680   5.584   4.878
17321SOL     OW53921   6.356   6.916   4.025
17321SOL    HW153922   6.310   6.829   4.042
17321SOL    HW253923   6.447   6.913   4.066
17322SOL     OW53924   6.204   7.153   5.008
17322SOL    HW153925   6.199   7.235   5.065
17322SOL    HW253926   6.293   7.150   4.963
17323SOL     OW53927   6.938   5.638   3.892
17323SOL    HW153928   6.973   5.597   3.808
17323SOL    HW253929   6.848   5.600   3.912
17324SOL     OW53930   6.886   6.039   4.415
17324SOL    HW153931   6.827   6.119   4.419
17324SOL    HW253932   6.901   6.004   4.508
17325SOL     OW53933   7.179   5.807   4.606
17325SOL    HW153934   7.095   5.806   4.660
17325SOL    HW253935   7.181   5.890   4.550
17326SOL     OW53936   5.625   6.663   4.024
17326SOL    HW153937   5.724   6.652   4.015
17326SOL    HW253938   5.585   6.577   4.056
17327SOL     OW53939   6.461   7.232   4.061
17327SOL    HW153940   6.384   7.197   4.007
17327SOL    HW253941   6.429   7.303   4.123
17328SOL     OW53942   5.816   6.214   5.699
17328SOL    HW153943   5.723   6.212   5.736
17328SOL    HW253944   5.817   6.175   5.607
17329SOL     OW53945   5.811   5.861   6.582
17329SOL    HW153946   5.846   5.844   6.674
17329SOL    HW253947   5.723   5.816   6.570
17330SOL     OW53948   5.605   5.954   6.233
17330SOL    HW153949   5.523   5.997   6.272
17330SOL    HW253950   5.577   5.881   6.170
17331SOL     OW53951   6.155   6.861   6.751
17331SOL    HW153952   6.062   6.854   6.714
17331SOL    HW253953   6.166   6.950   6.795
17332SOL     OW53954   7.141   7.097   6.289
17332SOL    HW153955   7.084   7.081   6.370
17332SOL    HW253956   7.082   7.107   6.209
17333SOL     OW53957   7.329   6.204   6.442
17333SOL    HW153958   7.362   6.298   6.442
17333SOL    HW253959   7.380   6.150   6.508
17334SOL     OW53960   6.721   6.289   6.303
17334SOL    HW153961   6.778   6.367   6.278
17334SOL    HW253962   6.661   6.315   6.379
17335SOL     OW53963   7.341   6.193   5.817
17335SOL    HW153964   7.329   6.180   5.718
17335SOL    HW253965   7.311   6.112   5.866
17336SOL     OW53966   6.354   6.730   6.609
17336SOL    HW153967   6.276   6.747   6.669
17336SOL    HW253968   6.388   6.817   6.573
17337SOL     OW53969   6.436   6.384   7.409
17337SOL    HW153970   6.432   6.460   7.474
17337SOL    HW253971   6.458   6.420   7.318
17338SOL     OW53972   6.271   6.598   6.251
17338SOL    HW153973   6.340   6.582   6.321
17338SOL    HW253974   6.198   6.655   6.289
17339SOL     OW53975   6.272   6.747   7.389
17339SOL    HW153976   6.332   6.826   7.403
17339SOL    HW253977   6.186   6.778   7.348
17340SOL     OW53978   5.921   7.021   6.647
17340SOL    HW153979   5.843   6.990   6.594
17340SOL    HW253980   5.979   7.079   6.590
17341SOL     OW53981   7.046   7.091   6.925
17341SOL    HW153982   7.070   7.185   6.951
17341SOL    HW253983   7.030   7.037   7.007
17342SOL     OW53984   6.024   5.978   7.085
17342SOL    HW153985   6.106   5.922   7.094
17342SOL    HW253986   5.943   5.920   7.089
17343SOL     OW53987   7.189   6.033   6.323
17343SOL    HW153988   7.115   6.079   6.273
17343SOL    HW253989   7.240   6.101   6.376
17344SOL     OW53990   5.817   7.299   6.069
17344SOL    HW153991   5.851   7.376   6.123
17344SOL    HW253992   5.861   7.299   5.979
17345SOL     OW53993   6.713   6.927   7.276
17345SOL    HW153994   6.760   6.927   7.364
17345SOL    HW253995   6.665   6.840   7.265
17346SOL     OW53996   5.816   7.020   6.124
17346SOL    HW153997   5.790   7.116   6.124
17346SOL    HW253998   5.745   6.966   6.169
17347SOL     OW53999   5.826   6.677   6.472
17347SOL    HW154000   5.840   6.593   6.524
17347SOL    HW254001   5.771   6.741   6.527
17348SOL     OW54002   6.206   7.372   7.025
17348SOL    HW154003   6.114   7.355   7.060
17348SOL    HW254004   6.234   7.464   7.051
17349SOL     OW54005   6.192   6.550   5.709
17349SOL    HW154006   6.199   6.634   5.655
17349SOL    HW254007   6.238   6.563   5.797
17350SOL     OW54008   7.180   5.700   7.066
17350SOL    HW154009   7.162   5.767   6.994
17350SOL    HW254010   7.177   5.746   7.155
17351SOL     OW54011   5.708   6.229   6.149
17351SOL    HW154012   5.663   6.141   6.166
17351SOL    HW254013   5.707   6.283   6.233
17352SOL     OW54014   7.428   7.353   5.945
17352SOL    HW154015   7.482   7.324   6.025
17352SOL    HW254016   7.458   7.443   5.916
17353SOL     OW54017   5.613   7.182   5.703
17353SOL    HW154018   5.594   7.086   5.724
17353SOL    HW254019   5.580   7.240   5.778
17354SOL     OW54020   7.275   6.508   6.198
17354SOL    HW154021   7.370   6.479   6.206
17354SOL    HW254022   7.267   6.573   6.123
17355SOL     OW54023   7.227   6.694   6.018
17355SOL    HW154024   7.313   6.696   5.966
17355SOL    HW254025   7.241   6.741   6.106
17356SOL     OW54026   5.699   6.323   7.183
17356SOL    HW154027   5.787   6.310   7.228
17356SOL    HW254028   5.686   6.420   7.161
17357SOL     OW54029   6.199   6.951   6.312
17357SOL    HW154030   6.150   6.864   6.321
17357SOL    HW254031   6.176   6.994   6.225
17358SOL     OW54032   6.879   6.814   7.009
17358SOL    HW154033   6.916   6.741   6.951
17358SOL    HW254034   6.931   6.819   7.094
17359SOL     OW54035   6.395   5.590   6.088
17359SOL    HW154036   6.435   5.681   6.079
17359SOL    HW254037   6.295   5.598   6.094
17360SOL     OW54038   5.783   6.562   6.850
17360SOL    HW154039   5.872   6.517   6.836
17360SOL    HW254040   5.710   6.497   6.831
17361SOL     OW54041   7.111   6.585   5.776
17361SOL    HW154042   7.048   6.509   5.789
17361SOL    HW254043   7.159   6.603   5.862
17362SOL     OW54044   6.773   7.378   7.202
17362SOL    HW154045   6.797   7.438   7.126
17362SOL    HW254046   6.780   7.283   7.172
17363SOL     OW54047   5.903   5.837   7.387
17363SOL    HW154048   5.974   5.908   7.393
17363SOL    HW254049   5.815   5.876   7.415
17364SOL     OW54050   7.052   7.003   6.539
17364SOL    HW154051   6.993   7.009   6.619
17364SOL    HW254052   7.037   6.915   6.493
17365SOL     OW54053   7.253   7.300   6.158
17365SOL    HW154054   7.212   7.277   6.070
17365SOL    HW254055   7.235   7.226   6.223
17366SOL     OW54056   6.184   6.315   5.856
17366SOL    HW154057   6.208   6.384   5.788
17366SOL    HW254058   6.106   6.348   5.910
17367SOL     OW54059   6.867   5.931   6.530
17367SOL    HW154060   6.781   5.881   6.517
17367SOL    HW254061   6.929   5.877   6.586
17368SOL     OW54062   7.162   7.248   5.893
17368SOL    HW154063   7.251   7.294   5.896
17368SOL    HW254064   7.141   7.224   5.798
17369SOL     OW54065   6.393   6.191   7.051
17369SOL    HW154066   6.346   6.188   7.140
17369SOL    HW254067   6.342   6.136   6.985
17370SOL     OW54068   6.980   6.055   7.260
17370SOL    HW154069   6.960   6.098   7.348
17370SOL    HW254070   7.058   5.993   7.269
17371SOL     OW54071   6.559   6.476   7.158
17371SOL    HW154072   6.605   6.392   7.129
17371SOL    HW254073   6.503   6.510   7.083
17372SOL     OW54074   6.577   5.996   6.828
17372SOL    HW154075   6.500   6.030   6.882
17372SOL    HW254076   6.543   5.945   6.749
17373SOL     OW54077   6.627   6.287   6.015
17373SOL    HW154078   6.653   6.283   6.111
17373SOL    HW254079   6.542   6.236   6.001
17374SOL     OW54080   5.662   6.397   6.375
17374SOL    HW154081   5.761   6.385   6.384
17374SOL    HW254082   5.638   6.492   6.396
17375SOL     OW54083   5.716   7.407   7.157
17375SOL    HW154084   5.706   7.392   7.256
17375SOL    HW254085   5.630   7.443   7.121
17376SOL     OW54086   6.451   5.934   5.781
17376SOL    HW154087   6.510   5.997   5.732
17376SOL    HW254088   6.470   5.840   5.752
17377SOL     OW54089   7.305   6.171   7.417
17377SOL    HW154090   7.279   6.260   7.381
17377SOL    HW254091   7.303   6.103   7.344
17378SOL     OW54092   6.948   6.730   6.131
17378SOL    HW154093   7.031   6.701   6.083
17378SOL    HW254094   6.899   6.797   6.075
17379SOL     OW54095   6.136   5.782   6.471
17379SOL    HW154096   6.131   5.777   6.571
17379SOL    HW254097   6.138   5.878   6.442
17380SOL     OW54098   6.594   7.042   6.063
17380SOL    HW154099   6.548   7.114   6.011
17380SOL    HW254100   6.590   7.062   6.161
17381SOL     OW54101   5.937   7.387   6.439
17381SOL    HW154102   5.987   7.301   6.445
17381SOL    HW254103   6.002   7.464   6.436
17382SOL     OW54104   7.381   6.652   6.459
17382SOL    HW154105   7.319   6.637   6.383
17382SOL    HW254106   7.329   6.663   6.544
17383SOL     OW54107   6.813   7.136   7.092
17383SOL    HW154108   6.819   7.059   7.156
17383SOL    HW254109   6.761   7.110   7.012
17384SOL     OW54110   5.907   6.529   5.828
17384SOL    HW154111   5.989   6.568   5.786
17384SOL    HW254112   5.880   6.447   5.779
17385SOL     OW54113   7.044   6.321   6.314
17385SOL    HW154114   7.039   6.256   6.389
17385SOL    HW254115   7.124   6.380   6.327
17386SOL     OW54116   6.047   6.852   7.313
17386SOL    HW154117   5.997   6.853   7.227
17386SOL    HW254118   5.984   6.834   7.389
17387SOL     OW54119   6.697   7.362   5.823
17387SOL    HW154120   6.637   7.300   5.873
17387SOL    HW254121   6.728   7.318   5.738
17388SOL     OW54122   5.788   5.871   7.084
17388SOL    HW154123   5.708   5.931   7.071
17388SOL    HW254124   5.778   5.822   7.170
17389SOL     OW54125   7.218   6.963   5.667
17389SOL    HW154126   7.186   7.057   5.657
17389SOL    HW254127   7.142   6.900   5.655
17390SOL     OW54128   6.050   7.329   5.909
17390SOL    HW154129   6.083   7.368   5.995
17390SOL    HW254130   6.126   7.322   5.844
17391SOL     OW54131   6.986   5.693   6.012
17391SOL    HW154132   6.962   5.656   5.922
17391SOL    HW254133   7.085   5.709   6.016
17392SOL     OW54134   5.835   7.371   6.827
17392SOL    HW154135   5.892   7.306   6.877
17392SOL    HW254136   5.819   7.338   6.734
17393SOL     OW54137   6.526   7.284   6.490
17393SOL    HW154138   6.606   7.227   6.511
17393SOL    HW254139   6.477   7.244   6.413
17394SOL     OW54140   5.968   6.286   6.066
17394SOL    HW154141   6.013   6.196   6.063
17394SOL    HW254142   5.874   6.275   6.099
17395SOL     OW54143   7.133   5.808   7.315
17395SOL    HW154144   7.128   5.845   7.407
17395SOL    HW254145   7.061   5.739   7.303
17396SOL     OW54146   6.200   5.708   5.703
17396SOL    HW154147   6.298   5.686   5.710
17396SOL    HW254148   6.169   5.691   5.610
17397SOL     OW54149   6.367   5.850   7.335
17397SOL    HW154150   6.434   5.789   7.378
17397SOL    HW254151   6.294   5.869   7.400
17398SOL     OW54152   6.474   7.100   6.781
17398SOL    HW154153   6.451   7.075   6.687
17398SOL    HW254154   6.535   7.031   6.820
17399SOL     OW54155   6.937   6.176   7.019
17399SOL    HW154156   6.965   6.133   7.104
17399SOL    HW254157   6.962   6.272   7.020
17400SOL     OW54158   6.389   6.988   6.510
17400SOL    HW154159   6.479   7.002   6.468
17400SOL    HW254160   6.318   6.990   6.439
17401SOL     OW54161   6.508   6.089   6.485
17401SOL    HW154162   6.483   6.080   6.389
17401SOL    HW254163   6.556   6.007   6.516
17402SOL     OW54164   6.125   5.650   6.098
17402SOL    HW154165   6.044   5.651   6.156
17402SOL    HW254166   6.128   5.733   6.043
17403SOL     OW54167   7.020   6.774   5.627
17403SOL    HW154168   7.052   6.698   5.684
17403SOL    HW254169   6.928   6.801   5.657
17404SOL     OW54170   5.883   5.621   5.757
17404SOL    HW154171   5.932   5.705   5.736
17404SOL    HW254172   5.945   5.556   5.802
17405SOL     OW54173   6.521   5.822   6.066
17405SOL    HW154174   6.473   5.863   5.988
17405SOL    HW254175   6.620   5.820   6.047
17406SOL     OW54176   6.662   6.269   7.050
17406SOL    HW154177   6.582   6.208   7.053
17406SOL    HW254178   6.743   6.216   7.026
17407SOL     OW54179   6.813   7.156   6.379
17407SOL    HW154180   6.834   7.230   6.314
17407SOL    HW254181   6.881   7.156   6.452
17408SOL     OW54182   6.045   6.738   6.327
17408SOL    HW154183   5.974   6.711   6.392
17408SOL    HW254184   6.019   6.710   6.234
17409SOL     OW54185   6.857   7.383   6.177
17409SOL    HW154186   6.901   7.447   6.113
17409SOL    HW254187   6.807   7.435   6.247
17410SOL     OW54188   6.618   6.135   5.602
17410SOL    HW154189   6.577   6.217   5.563
17410SOL    HW254190   6.682   6.161   5.675
17411SOL     OW54191   5.664   6.142   6.972
17411SOL    HW154192   5.756   6.141   6.931
17411SOL    HW254193   5.658   6.216   7.039
17412SOL     OW54194   6.147   5.808   6.733
17412SOL    HW154195   6.185   5.724   6.770
17412SOL    HW254196   6.059   5.827   6.777
17413SOL     OW54197   6.452   6.040   6.228
17413SOL    HW154198   6.420   6.112   6.166
17413SOL    HW254199   6.476   5.959   6.175
17414SOL     OW54200   6.603   5.625   6.339
17414SOL    HW154201   6.531   5.630   6.270
17414SOL    HW254202   6.579   5.556   6.408
17415SOL     OW54203   7.015   6.759   6.453
17415SOL    HW154204   6.960   6.675   6.446
17415SOL    HW254205   7.041   6.788   6.361
17416SOL     OW54206   7.052   6.176   6.578
17416SOL    HW154207   7.022   6.081   6.585
17416SOL    HW254208   7.125   6.192   6.644
17417SOL     OW54209   7.443   6.419   5.963
17417SOL    HW154210   7.485   6.355   6.027
17417SOL    HW254211   7.405   6.368   5.885
17418SOL     OW54212   6.074   6.971   5.760
17418SOL    HW154213   5.987   6.956   5.807
17418SOL    HW254214   6.057   6.997   5.665
17419SOL     OW54215   7.250   6.866   6.243
17419SOL    HW154216   7.349   6.874   6.257
17419SOL    HW254217   7.205   6.950   6.274
17420SOL     OW54218   6.976   6.161   5.664
17420SOL    HW154219   6.922   6.140   5.745
17420SOL    HW254220   7.067   6.120   5.673
17421SOL     OW54221   6.113   5.842   5.914
17421SOL    HW154222   6.140   5.783   5.839
17421SOL    HW254223   6.113   5.937   5.883
17422SOL     OW54224   7.340   6.809   7.174
17422SOL    HW154225   7.431   6.770   7.161
17422SOL    HW254226   7.348   6.905   7.198
17423SOL     OW54227   6.650   6.933   6.926
17423SOL    HW154228   6.570   6.910   6.981
17423SOL    HW254229   6.733   6.907   6.975
17424SOL     OW54230   7.178   7.215   7.211
17424SOL    HW154231   7.205   7.249   7.121
17424SOL    HW254232   7.257   7.177   7.257
17425SOL     OW54233   6.697   6.781   6.686
17425SOL    HW154234   6.657   6.825   6.767
17425SOL    HW254235   6.656   6.818   6.603
17426SOL     OW54236   7.224   6.685   6.665
17426SOL    HW154237   7.229   6.766   6.724
17426SOL    HW254238   7.138   6.687   6.614
17427SOL     OW54239   6.501   5.675   6.988
17427SOL    HW154240   6.526   5.655   6.893
17427SOL    HW254241   6.573   5.731   7.030
17428SOL     OW54242   6.566   6.702   7.305
17428SOL    HW154243   6.467   6.708   7.315
17428SOL    HW254244   6.589   6.622   7.249
17429SOL     OW54245   6.291   6.636   5.954
17429SOL    HW154246   6.277   6.643   6.053
17429SOL    HW254247   6.375   6.585   5.936
17430SOL     OW54248   5.996   6.399   6.837
17430SOL    HW154249   6.082   6.411   6.887
17430SOL    HW254250   5.954   6.312   6.864
17431SOL     OW54251   6.860   5.972   6.848
17431SOL    HW154252   6.881   6.046   6.912
17431SOL    HW254253   6.771   5.989   6.805
17432SOL     OW54254   5.650   7.150   6.917
17432SOL    HW154255   5.604   7.232   6.883
17432SOL    HW254256   5.748   7.169   6.926
17433SOL     OW54257   5.953   6.686   6.087
17433SOL    HW154258   5.946   6.769   6.031
17433SOL    HW254259   5.957   6.606   6.027
17434SOL     OW54260   6.152   6.123   6.451
17434SOL    HW154261   6.164   6.189   6.377
17434SOL    HW254262   6.198   6.157   6.534
17435SOL     OW54263   6.838   6.934   5.974
17435SOL    HW154264   6.888   7.011   6.014
17435SOL    HW254265   6.743   6.936   6.006
17436SOL     OW54266   6.858   7.031   6.728
17436SOL    HW154267   6.905   7.044   6.815
17436SOL    HW254268   6.792   6.957   6.737
17437SOL     OW54269   7.168   6.225   6.058
17437SOL    HW154270   7.137   6.286   6.131
17437SOL    HW254271   7.218   6.277   5.989
17438SOL     OW54272   5.940   7.096   6.915
17438SOL    HW154273   5.919   7.052   6.828
17438SOL    HW254274   6.037   7.122   6.918
17439SOL     OW54275   5.988   6.337   7.184
17439SOL    HW154276   6.056   6.392   7.137
17439SOL    HW254277   6.028   6.249   7.211
17440SOL     OW54278   7.173   6.365   7.256
17440SOL    HW154279   7.081   6.403   7.251
17440SOL    HW254280   7.233   6.412   7.191
17441SOL     OW54281   6.599   5.691   7.356
17441SOL    HW154282   6.605   5.776   7.304
17441SOL    HW254283   6.631   5.615   7.299
17442SOL     OW54284   6.090   5.636   7.326
17442SOL    HW154285   6.048   5.579   7.256
17442SOL    HW254286   6.024   5.705   7.358
17443SOL     OW54287   6.159   6.456   6.615
17443SOL    HW154288   6.203   6.545   6.606
17443SOL    HW254289   6.096   6.456   6.692
17444SOL     OW54290   6.946   6.448   6.631
17444SOL    HW154291   6.871   6.448   6.565
17444SOL    HW254292   6.983   6.356   6.640
17445SOL     OW54293   6.795   6.111   5.861
17445SOL    HW154294   6.808   6.027   5.915
17445SOL    HW254295   6.766   6.185   5.921
17446SOL     OW54296   5.893   5.799   6.817
17446SOL    HW154297   5.870   5.836   6.907
17446SOL    HW254298   5.863   5.704   6.811
17447SOL     OW54299   5.623   6.896   6.868
17447SOL    HW154300   5.676   6.847   6.936
17447SOL    HW254301   5.645   6.994   6.873
17448SOL     OW54302   6.318   6.220   6.650
17448SOL    HW154303   6.377   6.194   6.574
17448SOL    HW254304   6.290   6.316   6.639
17449SOL     OW54305   7.314   6.521   7.440
17449SOL    HW154306   7.268   6.514   7.351
17449SOL    HW254307   7.252   6.565   7.506
17450SOL     OW54308   5.893   5.649   6.204
17450SOL    HW154309   5.882   5.743   6.237
17450SOL    HW254310   5.888   5.586   6.281
17451SOL     OW54311   7.208   5.953   5.960
17451SOL    HW154312   7.210   5.877   6.024
17451SOL    HW254313   7.160   6.030   6.000
17452SOL     OW54314   6.609   6.352   6.552
17452SOL    HW154315   6.624   6.373   6.648
17452SOL    HW254316   6.579   6.257   6.543
17453SOL     OW54317   6.566   7.159   7.286
17453SOL    HW154318   6.546   7.203   7.198
17453SOL    HW254319   6.605   7.068   7.270
17454SOL     OW54320   7.445   7.104   7.191
17454SOL    HW154321   7.459   7.131   7.096
17454SOL    HW254322   7.528   7.126   7.244
17455SOL     OW54323   5.936   6.484   7.390
17455SOL    HW154324   6.012   6.528   7.438
17455SOL    HW254325   5.971   6.437   7.308
17456SOL     OW54326   7.126   5.860   5.711
17456SOL    HW154327   7.065   5.785   5.734
17456SOL    HW254328   7.148   5.912   5.794
17457SOL     OW54329   6.889   6.424   5.628
17457SOL    HW154330   6.923   6.331   5.643
17457SOL    HW254331   6.907   6.451   5.533
17458SOL     OW54332   6.654   6.919   6.435
17458SOL    HW154333   6.661   6.835   6.380
17458SOL    HW254334   6.716   6.988   6.399
17459SOL     OW54335   5.905   6.396   6.535
17459SOL    HW154336   5.998   6.432   6.540
17459SOL    HW254337   5.899   6.311   6.587
17460SOL     OW54338   5.925   6.095   6.592
17460SOL    HW154339   5.873   6.012   6.575
17460SOL    HW254340   6.002   6.100   6.528
17461SOL     OW54341   6.097   6.001   7.394
17461SOL    HW154342   6.079   6.046   7.482
17461SOL    HW254343   6.139   6.066   7.331
17462SOL     OW54344   6.724   5.966   7.264
17462SOL    HW154345   6.679   6.029   7.328
17462SOL    HW254346   6.817   5.997   7.247
17463SOL     OW54347   6.746   5.793   7.063
17463SOL    HW154348   6.746   5.857   7.140
17463SOL    HW254349   6.774   5.841   6.980
17464SOL     OW54350   5.594   6.912   5.786
17464SOL    HW154351   5.501   6.933   5.755
17464SOL    HW254352   5.604   6.813   5.799
17465SOL     OW54353   5.674   7.387   6.513
17465SOL    HW154354   5.632   7.301   6.486
17465SOL    HW254355   5.768   7.390   6.479
17466SOL     OW54356   6.090   7.154   6.496
17466SOL    HW154357   6.156   7.228   6.505
17466SOL    HW254358   6.134   7.075   6.454
17467SOL     OW54359   6.588   6.382   6.824
17467SOL    HW154360   6.629   6.350   6.910
17467SOL    HW254361   6.492   6.355   6.821
17468SOL     OW54362   5.626   6.130   6.700
17468SOL    HW154363   5.711   6.097   6.659
17468SOL    HW254364   5.639   6.145   6.798
17469SOL     OW54365   5.775   6.106   7.308
17469SOL    HW154366   5.834   6.066   7.238
17469SOL    HW254367   5.717   6.177   7.267
17470SOL     OW54368   6.955   6.536   7.246
17470SOL    HW154369   6.994   6.625   7.266
17470SOL    HW254370   6.965   6.516   7.149
17471SOL     OW54371   6.401   6.158   5.911
17471SOL    HW154372   6.408   6.069   5.865
17471SOL    HW254373   6.307   6.192   5.903
17472SOL     OW54374   7.243   6.190   6.792
17472SOL    HW154375   7.205   6.121   6.854
17472SOL    HW254376   7.325   6.154   6.748
17473SOL     OW54377   5.838   7.150   7.330
17473SOL    HW154378   5.808   7.207   7.406
17473SOL    HW254379   5.831   7.053   7.356
17474SOL     OW54380   6.257   6.050   6.855
17474SOL    HW154381   6.223   5.961   6.825
17474SOL    HW254382   6.283   6.104   6.775
17475SOL     OW54383   6.516   7.264   7.051
17475SOL    HW154384   6.492   7.246   6.956
17475SOL    HW254385   6.546   7.358   7.061
17476SOL     OW54386   6.059   6.086   5.777
17476SOL    HW154387   6.120   6.166   5.781
17476SOL    HW254388   5.964   6.117   5.784
17477SOL     OW54389   5.745   6.723   7.052
17477SOL    HW154390   5.767   6.662   7.128
17477SOL    HW254391   5.755   6.674   6.966
17478SOL     OW54392   6.933   6.645   6.820
17478SOL    HW154393   6.957   6.582   6.746
17478SOL    HW254394   6.843   6.685   6.802
17479SOL     OW54395   6.888   6.441   5.895
17479SOL    HW154396   6.802   6.410   5.937
17479SOL    HW254397   6.884   6.427   5.796
17480SOL     OW54398   7.345   7.333   6.740
17480SOL    HW154399   7.406   7.363   6.667
17480SOL    HW254400   7.307   7.244   6.718
17481SOL     OW54401   6.838   7.317   6.714
17481SOL    HW154402   6.922   7.322   6.660
17481SOL    HW254403   6.815   7.221   6.732
17482SOL     OW54404   5.669   6.844   6.608
17482SOL    HW154405   5.664   6.843   6.708
17482SOL    HW254406   5.586   6.803   6.570
17483SOL     OW54407   6.274   7.248   7.302
17483SOL    HW154408   6.218   7.329   7.311
17483SOL    HW254409   6.326   7.252   7.216
17484SOL     OW54410   6.489   5.672   5.719
17484SOL    HW154411   6.540   5.673   5.633
17484SOL    HW254412   6.545   5.630   5.790
17485SOL     OW54413   7.312   5.721   6.109
17485SOL    HW154414   7.385   5.704   6.042
17485SOL    HW254415   7.281   5.634   6.147
17486SOL     OW54416   6.974   7.159   6.063
17486SOL    HW154417   7.041   7.171   5.989
17486SOL    HW254418   6.934   7.248   6.086
17487SOL     OW54419   5.716   7.380   7.437
17487SOL    HW154420   5.675   7.306   7.490
17487SOL    HW254421   5.780   7.431   7.495
17488SOL     OW54422   6.866   6.513   6.258
17488SOL    HW154423   6.926   6.432   6.260
17488SOL    HW254424   6.906   6.582   6.198
17489SOL     OW54425   6.416   6.859   7.008
17489SOL    HW154426   6.411   6.892   7.103
17489SOL    HW254427   6.330   6.878   6.962
17490SOL     OW54428   6.258   7.202   5.740
17490SOL    HW154429   6.267   7.212   5.641
17490SOL    HW254430   6.218   7.113   5.761
17491SOL     OW54431   7.236   7.306   6.980
17491SOL    HW154432   7.289   7.316   6.896
17491SOL    HW254433   7.209   7.396   7.014
17492SOL     OW54434   7.427   5.761   6.549
17492SOL    HW154435   7.466   5.676   6.513
17492SOL    HW254436   7.329   5.763   6.530
17493SOL     OW54437   5.849   5.912   6.306
17493SOL    HW154438   5.770   5.963   6.272
17493SOL    HW254439   5.840   5.897   6.404
17494SOL     OW54440   6.780   7.198   5.617
17494SOL    HW154441   6.786   7.105   5.654
17494SOL    HW254442   6.721   7.198   5.537
17495SOL     OW54443   6.408   6.588   6.958
17495SOL    HW154444   6.448   6.587   6.866
17495SOL    HW254445   6.418   6.680   6.998
17496SOL     OW54446   6.502   6.496   5.877
17496SOL    HW154447   6.565   6.534   5.809
17496SOL    HW254448   6.542   6.413   5.916
17497SOL     OW54449   7.090   7.193   5.630
17497SOL    HW154450   6.998   7.230   5.637
17497SOL    HW254451   7.128   7.213   5.540
17498SOL     OW54452   5.958   6.874   7.076
17498SOL    HW154453   5.945   6.967   7.042
17498SOL    HW254454   5.874   6.822   7.063
17499SOL     OW54455   7.200   6.878   6.875
17499SOL    HW154456   7.260   6.881   6.955
17499SOL    HW254457   7.125   6.942   6.888
17500SOL     OW54458   6.625   6.684   6.282
17500SOL    HW154459   6.555   6.637   6.336
17500SOL    HW254460   6.684   6.616   6.239
17501SOL     OW54461   6.600   5.822   6.557
17501SOL    HW154462   6.592   5.786   6.464
17501SOL    HW254463   6.598   5.746   6.622
17502SOL     OW54464   6.176   7.073   6.077
17502SOL    HW154465   6.218   7.015   6.007
17502SOL    HW254466   6.132   7.152   6.033
17503SOL     OW54467   7.295   5.971   6.967
17503SOL    HW154468   7.368   6.040   6.971
17503SOL    HW254469   7.323   5.896   6.908
17504SOL     OW54470   5.841   6.934   5.876
17504SOL    HW154471   5.745   6.935   5.849
17504SOL    HW254472   5.853   6.987   5.960
17505SOL     OW54473   5.691   6.599   7.312
17505SOL    HW154474   5.614   6.566   7.366
17505SOL    HW254475   5.776   6.569   7.354
17506SOL     OW54476   6.258   5.789   7.075
17506SOL    HW154477   6.348   5.773   7.035
17506SOL    HW254478   6.266   5.794   7.174
17507SOL     OW54479   5.661   5.931   5.619
17507SOL    HW154480   5.569   5.903   5.590
17507SOL    HW254481   5.692   6.008   5.563
17508SOL     OW54482   7.026   6.442   6.984
17508SOL    HW154483   6.969   6.494   6.921
17508SOL    HW254484   7.122   6.454   6.960
17509SOL     OW54485   5.658   5.752   5.904
17509SOL    HW154486   5.641   5.835   5.850
17509SOL    HW254487   5.748   5.715   5.882
17510SOL     OW54488   6.769   6.921   5.705
17510SOL    HW154489   6.670   6.910   5.707
17510SOL    HW254490   6.803   6.936   5.798
17511SOL     OW54491   6.199   6.428   7.017
17511SOL    HW154492   6.255   6.509   7.000
17511SOL    HW254493   6.258   6.348   7.020
17512SOL     OW54494   7.079   7.353   6.545
17512SOL    HW154495   7.112   7.417   6.476
17512SOL    HW254496   7.145   7.347   6.620
17513SOL     OW54497   6.302   6.151   7.294
17513SOL    HW154498   6.321   6.216   7.368
17513SOL    HW254499   6.362   6.071   7.303
17514SOL     OW54500   7.036   6.806   7.219
17514SOL    HW154501   7.027   6.796   7.318
17514SOL    HW254502   7.132   6.799   7.193
17515SOL     OW54503   5.976   7.327   7.146
17515SOL    HW154504   5.885   7.368   7.144
17515SOL    HW254505   5.969   7.233   7.178
17516SOL     OW54506   7.260   6.469   6.840
17516SOL    HW154507   7.233   6.380   6.803
17516SOL    HW254508   7.261   6.537   6.767
17517SOL     OW54509   6.811   5.911   6.035
17517SOL    HW154510   6.876   5.837   6.024
17517SOL    HW254511   6.831   5.961   6.119
17518SOL     OW54512   6.180   6.331   6.238
17518SOL    HW154513   6.230   6.416   6.219
17518SOL    HW254514   6.092   6.333   6.190
17519SOL     OW54515   7.363   5.928   7.228
17519SOL    HW154516   7.346   5.959   7.134
17519SOL    HW254517   7.279   5.891   7.266
17520SOL     OW54518   7.316   6.520   7.103
17520SOL    HW154519   7.354   6.611   7.118
17520SOL    HW254520   7.308   6.503   7.004
17521SOL     OW54521   6.445   6.960   5.602
17521SOL    HW154522   6.399   6.975   5.690
17521SOL    HW254523   6.489   7.045   5.572
17522SOL     OW54524   6.247   7.376   6.539
17522SOL    HW154525   6.201   7.464   6.526
17522SOL    HW254526   6.346   7.388   6.532
17523SOL     OW54527   6.994   7.437   7.306
17523SOL    HW154528   6.898   7.426   7.279
17523SOL    HW254529   7.050   7.370   7.258
17524SOL     OW54530   6.445   6.542   6.447
17524SOL    HW154531   6.499   6.473   6.495
17524SOL    HW254532   6.413   6.611   6.513
17525SOL     OW54533   6.669   6.570   5.673
17525SOL    HW154534   6.646   6.623   5.591
17525SOL    HW254535   6.750   6.514   5.654
17526SOL     OW54536   7.447   7.155   6.437
17526SOL    HW154537   7.376   7.143   6.367
17526SOL    HW254538   7.448   7.076   6.497
17527SOL     OW54539   5.807   6.900   7.430
17527SOL    HW154540   5.742   6.827   7.409
17527SOL    HW254541   5.811   6.914   7.528
17528SOL     OW54542   5.665   6.826   6.239
17528SOL    HW154543   5.664   6.779   6.327
17528SOL    HW254544   5.747   6.798   6.188
17529SOL     OW54545   6.258   6.977   7.210
17529SOL    HW154546   6.180   6.927   7.248
17529SOL    HW254547   6.255   7.072   7.241
17530SOL     OW54548   7.410   5.778   6.813
17530SOL    HW154549   7.406   5.688   6.857
17530SOL    HW254550   7.413   5.767   6.714
17531SOL     OW54551   6.014   6.010   6.106
17531SOL    HW154552   6.044   5.938   6.044
17531SOL    HW254553   5.975   5.970   6.189
17532SOL     OW54554   7.291   7.073   6.690
17532SOL    HW154555   7.198   7.048   6.663
17532SOL    HW254556   7.317   7.023   6.772
17533SOL     OW54557   5.903   6.133   6.866
17533SOL    HW154558   5.941   6.074   6.938
17533SOL    HW254559   5.943   6.107   6.778
17534SOL     OW54560   6.398   7.172   6.273
17534SOL    HW154561   6.430   7.182   6.179
17534SOL    HW254562   6.319   7.110   6.275
17535SOL     OW54563   7.010   5.800   6.698
17535SOL    HW154564   7.062   5.735   6.753
17535SOL    HW254565   6.961   5.863   6.759
17536SOL     OW54566   6.587   5.620   6.740
17536SOL    HW154567   6.524   5.548   6.709
17536SOL    HW254568   6.680   5.584   6.740
17537SOL     OW54569   6.356   6.916   5.887
17537SOL    HW154570   6.310   6.829   5.904
17537SOL    HW254571   6.447   6.913   5.928
17538SOL     OW54572   6.204   7.153   6.870
17538SOL    HW154573   6.199   7.235   6.927
17538SOL    HW254574   6.293   7.150   6.825
17539SOL     OW54575   6.938   5.638   5.754
17539SOL    HW154576   6.973   5.597   5.670
17539SOL    HW254577   6.848   5.600   5.774
17540SOL     OW54578   6.886   6.039   6.277
17540SOL    HW154579   6.827   6.119   6.281
17540SOL    HW254580   6.901   6.004   6.370
17541SOL     OW54581   7.179   5.807   6.468
17541SOL    HW154582   7.095   5.806   6.522
17541SOL    HW254583   7.181   5.890   6.412
17542SOL     OW54584   5.625   6.663   5.886
17542SOL    HW154585   5.724   6.652   5.877
17542SOL    HW254586   5.585   6.577   5.918
17543SOL     OW54587   6.461   7.232   5.923
17543SOL    HW154588   6.384   7.197   5.869
17543SOL    HW254589   6.429   7.303   5.985
17544SOL     OW54590   5.816   6.214   7.561
17544SOL    HW154591   5.723   6.212   7.598
17544SOL    HW254592   5.817   6.175   7.469
17545SOL     OW54593   5.811   5.861   8.444
17545SOL    HW154594   5.846   5.844   8.536
17545SOL    HW254595   5.723   5.816   8.432
17546SOL     OW54596   5.605   5.954   8.095
17546SOL    HW154597   5.523   5.997   8.134
17546SOL    HW254598   5.577   5.881   8.032
17547SOL     OW54599   6.155   6.861   8.613
17547SOL    HW154600   6.062   6.854   8.576
17547SOL    HW254601   6.166   6.950   8.657
17548SOL     OW54602   7.141   7.097   8.151
17548SOL    HW154603   7.084   7.081   8.232
17548SOL    HW254604   7.082   7.107   8.071
17549SOL     OW54605   7.329   6.204   8.304
17549SOL    HW154606   7.362   6.298   8.304
17549SOL    HW254607   7.380   6.150   8.370
17550SOL     OW54608   6.721   6.289   8.165
17550SOL    HW154609   6.778   6.367   8.140
17550SOL    HW254610   6.661   6.315   8.241
17551SOL     OW54611   7.341   6.193   7.679
17551SOL    HW154612   7.329   6.180   7.580
17551SOL    HW254613   7.311   6.112   7.728
17552SOL     OW54614   6.354   6.730   8.471
17552SOL    HW154615   6.276   6.747   8.531
17552SOL    HW254616   6.388   6.817   8.435
17553SOL     OW54617   6.271   6.598   8.113
17553SOL    HW154618   6.340   6.582   8.183
17553SOL    HW254619   6.198   6.655   8.151
17554SOL     OW54620   5.921   7.021   8.509
17554SOL    HW154621   5.843   6.990   8.456
17554SOL    HW254622   5.979   7.079   8.452
17555SOL     OW54623   7.046   7.091   8.787
17555SOL    HW154624   7.070   7.185   8.813
17555SOL    HW254625   7.030   7.037   8.869
17556SOL     OW54626   6.024   5.978   8.947
17556SOL    HW154627   6.106   5.922   8.956
17556SOL    HW254628   5.943   5.920   8.951
17557SOL     OW54629   7.189   6.033   8.185
17557SOL    HW154630   7.115   6.079   8.135
17557SOL    HW254631   7.240   6.101   8.238
17558SOL     OW54632   5.817   7.299   7.931
17558SOL    HW154633   5.851   7.376   7.985
17558SOL    HW254634   5.861   7.299   7.841
17559SOL     OW54635   5.816   7.020   7.986
17559SOL    HW154636   5.790   7.116   7.986
17559SOL    HW254637   5.745   6.966   8.031
17560SOL     OW54638   5.826   6.677   8.334
17560SOL    HW154639   5.840   6.593   8.386
17560SOL    HW254640   5.771   6.741   8.389
17561SOL     OW54641   6.206   7.372   8.887
17561SOL    HW154642   6.114   7.355   8.922
17561SOL    HW254643   6.234   7.464   8.913
17562SOL     OW54644   6.192   6.550   7.571
17562SOL    HW154645   6.199   6.634   7.517
17562SOL    HW254646   6.238   6.563   7.659
17563SOL     OW54647   7.180   5.700   8.928
17563SOL    HW154648   7.162   5.767   8.856
17563SOL    HW254649   7.177   5.746   9.017
17564SOL     OW54650   5.708   6.229   8.011
17564SOL    HW154651   5.663   6.141   8.028
17564SOL    HW254652   5.707   6.283   8.095
17565SOL     OW54653   7.428   7.353   7.807
17565SOL    HW154654   7.482   7.324   7.887
17565SOL    HW254655   7.458   7.443   7.778
17566SOL     OW54656   5.613   7.182   7.565
17566SOL    HW154657   5.594   7.086   7.586
17566SOL    HW254658   5.580   7.240   7.640
17567SOL     OW54659   7.275   6.508   8.060
17567SOL    HW154660   7.370   6.479   8.068
17567SOL    HW254661   7.267   6.573   7.985
17568SOL     OW54662   7.227   6.694   7.880
17568SOL    HW154663   7.313   6.696   7.828
17568SOL    HW254664   7.241   6.741   7.968
17569SOL     OW54665   6.199   6.951   8.174
17569SOL    HW154666   6.150   6.864   8.183
17569SOL    HW254667   6.176   6.994   8.087
17570SOL     OW54668   6.395   5.590   7.950
17570SOL    HW154669   6.435   5.681   7.941
17570SOL    HW254670   6.295   5.598   7.956
17571SOL     OW54671   5.783   6.562   8.712
17571SOL    HW154672   5.872   6.517   8.698
17571SOL    HW254673   5.710   6.497   8.693
17572SOL     OW54674   7.111   6.585   7.638
17572SOL    HW154675   7.048   6.509   7.651
17572SOL    HW254676   7.159   6.603   7.724
17573SOL     OW54677   7.052   7.003   8.401
17573SOL    HW154678   6.993   7.009   8.481
17573SOL    HW254679   7.037   6.915   8.355
17574SOL     OW54680   7.253   7.300   8.020
17574SOL    HW154681   7.212   7.277   7.932
17574SOL    HW254682   7.235   7.226   8.085
17575SOL     OW54683   6.184   6.315   7.718
17575SOL    HW154684   6.208   6.384   7.650
17575SOL    HW254685   6.106   6.348   7.772
17576SOL     OW54686   6.867   5.931   8.392
17576SOL    HW154687   6.781   5.881   8.379
17576SOL    HW254688   6.929   5.877   8.448
17577SOL     OW54689   7.162   7.248   7.755
17577SOL    HW154690   7.251   7.294   7.758
17577SOL    HW254691   7.141   7.224   7.660
17578SOL     OW54692   6.393   6.191   8.913
17578SOL    HW154693   6.346   6.188   9.002
17578SOL    HW254694   6.342   6.136   8.847
17579SOL     OW54695   6.577   5.996   8.690
17579SOL    HW154696   6.500   6.030   8.744
17579SOL    HW254697   6.543   5.945   8.611
17580SOL     OW54698   6.627   6.287   7.877
17580SOL    HW154699   6.653   6.283   7.973
17580SOL    HW254700   6.542   6.236   7.863
17581SOL     OW54701   5.662   6.397   8.237
17581SOL    HW154702   5.761   6.385   8.246
17581SOL    HW254703   5.638   6.492   8.258
17582SOL     OW54704   5.716   7.407   0.019
17582SOL    HW154705   5.706   7.392   0.118
17582SOL    HW254706   5.630   7.443  -0.017
17583SOL     OW54707   6.451   5.934   7.643
17583SOL    HW154708   6.510   5.997   7.594
17583SOL    HW254709   6.470   5.840   7.614
17584SOL     OW54710   6.948   6.730   7.993
17584SOL    HW154711   7.031   6.701   7.945
17584SOL    HW254712   6.899   6.797   7.937
17585SOL     OW54713   6.136   5.782   8.333
17585SOL    HW154714   6.131   5.777   8.433
17585SOL    HW254715   6.138   5.878   8.304
17586SOL     OW54716   6.594   7.042   7.925
17586SOL    HW154717   6.548   7.114   7.873
17586SOL    HW254718   6.590   7.062   8.023
17587SOL     OW54719   5.937   7.387   8.301
17587SOL    HW154720   5.987   7.301   8.307
17587SOL    HW254721   6.002   7.464   8.298
17588SOL     OW54722   7.381   6.652   8.321
17588SOL    HW154723   7.319   6.637   8.245
17588SOL    HW254724   7.329   6.663   8.406
17589SOL     OW54725   5.907   6.529   7.690
17589SOL    HW154726   5.989   6.568   7.648
17589SOL    HW254727   5.880   6.447   7.641
17590SOL     OW54728   7.044   6.321   8.176
17590SOL    HW154729   7.039   6.256   8.251
17590SOL    HW254730   7.124   6.380   8.189
17591SOL     OW54731   6.697   7.362   7.685
17591SOL    HW154732   6.637   7.300   7.735
17591SOL    HW254733   6.728   7.318   7.600
17592SOL     OW54734   5.788   5.871   8.946
17592SOL    HW154735   5.708   5.931   8.933
17592SOL    HW254736   5.778   5.822   9.032
17593SOL     OW54737   7.218   6.963   7.529
17593SOL    HW154738   7.186   7.057   7.519
17593SOL    HW254739   7.142   6.900   7.517
17594SOL     OW54740   6.050   7.329   7.771
17594SOL    HW154741   6.083   7.368   7.857
17594SOL    HW254742   6.126   7.322   7.706
17595SOL     OW54743   6.986   5.693   7.874
17595SOL    HW154744   6.962   5.656   7.784
17595SOL    HW254745   7.085   5.709   7.878
17596SOL     OW54746   5.835   7.371   8.689
17596SOL    HW154747   5.892   7.306   8.739
17596SOL    HW254748   5.819   7.338   8.596
17597SOL     OW54749   6.526   7.284   8.352
17597SOL    HW154750   6.606   7.227   8.373
17597SOL    HW254751   6.477   7.244   8.275
17598SOL     OW54752   5.968   6.286   7.928
17598SOL    HW154753   6.013   6.196   7.925
17598SOL    HW254754   5.874   6.275   7.961
17599SOL     OW54755   6.200   5.708   7.565
17599SOL    HW154756   6.298   5.686   7.572
17599SOL    HW254757   6.169   5.691   7.472
17600SOL     OW54758   6.474   7.100   8.643
17600SOL    HW154759   6.451   7.075   8.549
17600SOL    HW254760   6.535   7.031   8.682
17601SOL     OW54761   6.389   6.988   8.372
17601SOL    HW154762   6.479   7.002   8.330
17601SOL    HW254763   6.318   6.990   8.301
17602SOL     OW54764   6.508   6.089   8.347
17602SOL    HW154765   6.483   6.080   8.251
17602SOL    HW254766   6.556   6.007   8.378
17603SOL     OW54767   6.125   5.650   7.960
17603SOL    HW154768   6.044   5.651   8.018
17603SOL    HW254769   6.128   5.733   7.905
17604SOL     OW54770   7.020   6.774   7.489
17604SOL    HW154771   7.052   6.698   7.546
17604SOL    HW254772   6.928   6.801   7.519
17605SOL     OW54773   5.883   5.621   7.619
17605SOL    HW154774   5.932   5.705   7.598
17605SOL    HW254775   5.945   5.556   7.664
17606SOL     OW54776   6.521   5.822   7.928
17606SOL    HW154777   6.473   5.863   7.850
17606SOL    HW254778   6.620   5.820   7.909
17607SOL     OW54779   6.813   7.156   8.241
17607SOL    HW154780   6.834   7.230   8.176
17607SOL    HW254781   6.881   7.156   8.314
17608SOL     OW54782   6.045   6.738   8.189
17608SOL    HW154783   5.974   6.711   8.254
17608SOL    HW254784   6.019   6.710   8.096
17609SOL     OW54785   6.857   7.383   8.039
17609SOL    HW154786   6.901   7.447   7.975
17609SOL    HW254787   6.807   7.435   8.109
17610SOL     OW54788   6.618   6.135   7.464
17610SOL    HW154789   6.577   6.217   7.425
17610SOL    HW254790   6.682   6.161   7.537
17611SOL     OW54791   5.664   6.142   8.834
17611SOL    HW154792   5.756   6.141   8.793
17611SOL    HW254793   5.658   6.216   8.901
17612SOL     OW54794   6.147   5.808   8.595
17612SOL    HW154795   6.185   5.724   8.632
17612SOL    HW254796   6.059   5.827   8.639
17613SOL     OW54797   6.452   6.040   8.090
17613SOL    HW154798   6.420   6.112   8.028
17613SOL    HW254799   6.476   5.959   8.037
17614SOL     OW54800   6.603   5.625   8.201
17614SOL    HW154801   6.531   5.630   8.132
17614SOL    HW254802   6.579   5.556   8.270
17615SOL     OW54803   7.015   6.759   8.315
17615SOL    HW154804   6.960   6.675   8.308
17615SOL    HW254805   7.041   6.788   8.223
17616SOL     OW54806   7.052   6.176   8.440
17616SOL    HW154807   7.022   6.081   8.447
17616SOL    HW254808   7.125   6.192   8.506
17617SOL     OW54809   7.443   6.419   7.825
17617SOL    HW154810   7.485   6.355   7.889
17617SOL    HW254811   7.405   6.368   7.747
17618SOL     OW54812   6.074   6.971   7.622
17618SOL    HW154813   5.987   6.956   7.669
17618SOL    HW254814   6.057   6.997   7.527
17619SOL     OW54815   7.250   6.866   8.105
17619SOL    HW154816   7.349   6.874   8.119
17619SOL    HW254817   7.205   6.950   8.136
17620SOL     OW54818   6.976   6.161   7.526
17620SOL    HW154819   6.922   6.140   7.607
17620SOL    HW254820   7.067   6.120   7.535
17621SOL     OW54821   6.113   5.842   7.776
17621SOL    HW154822   6.140   5.783   7.701
17621SOL    HW254823   6.113   5.937   7.745
17622SOL     OW54824   6.650   6.933   8.788
17622SOL    HW154825   6.570   6.910   8.843
17622SOL    HW254826   6.733   6.907   8.837
17623SOL     OW54827   6.697   6.781   8.548
17623SOL    HW154828   6.657   6.825   8.629
17623SOL    HW254829   6.656   6.818   8.465
17624SOL     OW54830   7.224   6.685   8.527
17624SOL    HW154831   7.229   6.766   8.586
17624SOL    HW254832   7.138   6.687   8.476
17625SOL     OW54833   6.501   5.675   8.850
17625SOL    HW154834   6.526   5.655   8.755
17625SOL    HW254835   6.573   5.731   8.892
17626SOL     OW54836   6.291   6.636   7.816
17626SOL    HW154837   6.277   6.643   7.915
17626SOL    HW254838   6.375   6.585   7.798
17627SOL     OW54839   5.996   6.399   8.699
17627SOL    HW154840   6.082   6.411   8.749
17627SOL    HW254841   5.954   6.312   8.726
17628SOL     OW54842   6.860   5.972   8.710
17628SOL    HW154843   6.881   6.046   8.774
17628SOL    HW254844   6.771   5.989   8.667
17629SOL     OW54845   5.650   7.150   8.779
17629SOL    HW154846   5.604   7.232   8.745
17629SOL    HW254847   5.748   7.169   8.788
17630SOL     OW54848   5.953   6.686   7.949
17630SOL    HW154849   5.946   6.769   7.893
17630SOL    HW254850   5.957   6.606   7.889
17631SOL     OW54851   6.152   6.123   8.313
17631SOL    HW154852   6.164   6.189   8.239
17631SOL    HW254853   6.198   6.157   8.396
17632SOL     OW54854   6.838   6.934   7.836
17632SOL    HW154855   6.888   7.011   7.876
17632SOL    HW254856   6.743   6.936   7.868
17633SOL     OW54857   6.858   7.031   8.590
17633SOL    HW154858   6.905   7.044   8.677
17633SOL    HW254859   6.792   6.957   8.599
17634SOL     OW54860   7.168   6.225   7.920
17634SOL    HW154861   7.137   6.286   7.993
17634SOL    HW254862   7.218   6.277   7.851
17635SOL     OW54863   5.940   7.096   8.777
17635SOL    HW154864   5.919   7.052   8.690
17635SOL    HW254865   6.037   7.122   8.780
17636SOL     OW54866   5.988   6.337   0.046
17636SOL    HW154867   6.056   6.392  -0.001
17636SOL    HW254868   6.028   6.249   0.073
17637SOL     OW54869   7.173   6.365   0.118
17637SOL    HW154870   7.081   6.403   0.113
17637SOL    HW254871   7.233   6.412   0.053
17638SOL     OW54872   6.159   6.456   8.477
17638SOL    HW154873   6.203   6.545   8.468
17638SOL    HW254874   6.096   6.456   8.554
17639SOL     OW54875   6.946   6.448   8.493
17639SOL    HW154876   6.871   6.448   8.427
17639SOL    HW254877   6.983   6.356   8.502
17640SOL     OW54878   6.795   6.111   7.723
17640SOL    HW154879   6.808   6.027   7.777
17640SOL    HW254880   6.766   6.185   7.783
17641SOL     OW54881   5.893   5.799   8.679
17641SOL    HW154882   5.870   5.836   8.769
17641SOL    HW254883   5.863   5.704   8.673
17642SOL     OW54884   5.623   6.896   8.730
17642SOL    HW154885   5.676   6.847   8.798
17642SOL    HW254886   5.645   6.994   8.735
17643SOL     OW54887   6.318   6.220   8.512
17643SOL    HW154888   6.377   6.194   8.436
17643SOL    HW254889   6.290   6.316   8.501
17644SOL     OW54890   5.893   5.649   8.066
17644SOL    HW154891   5.882   5.743   8.099
17644SOL    HW254892   5.888   5.586   8.143
17645SOL     OW54893   7.208   5.953   7.822
17645SOL    HW154894   7.210   5.877   7.886
17645SOL    HW254895   7.160   6.030   7.862
17646SOL     OW54896   6.609   6.352   8.414
17646SOL    HW154897   6.624   6.373   8.510
17646SOL    HW254898   6.579   6.257   8.405
17647SOL     OW54899   6.566   7.159   0.148
17647SOL    HW154900   6.546   7.203   0.060
17647SOL    HW254901   6.605   7.068   0.132
17648SOL     OW54902   7.445   7.104   0.053
17648SOL    HW154903   7.459   7.131  -0.042
17648SOL    HW254904   7.528   7.126   0.106
17649SOL     OW54905   7.126   5.860   7.573
17649SOL    HW154906   7.065   5.785   7.596
17649SOL    HW254907   7.148   5.912   7.656
17650SOL     OW54908   6.889   6.424   7.490
17650SOL    HW154909   6.923   6.331   7.505
17650SOL    HW254910   6.907   6.451   7.395
17651SOL     OW54911   6.654   6.919   8.297
17651SOL    HW154912   6.661   6.835   8.242
17651SOL    HW254913   6.716   6.988   8.261
17652SOL     OW54914   5.905   6.396   8.397
17652SOL    HW154915   5.998   6.432   8.402
17652SOL    HW254916   5.899   6.311   8.449
17653SOL     OW54917   5.925   6.095   8.454
17653SOL    HW154918   5.873   6.012   8.437
17653SOL    HW254919   6.002   6.100   8.390
17654SOL     OW54920   6.724   5.966   0.126
17654SOL    HW154921   6.679   6.029   0.190
17654SOL    HW254922   6.817   5.997   0.109
17655SOL     OW54923   6.746   5.793   8.925
17655SOL    HW154924   6.746   5.857   9.002
17655SOL    HW254925   6.774   5.841   8.842
17656SOL     OW54926   5.594   6.912   7.648
17656SOL    HW154927   5.501   6.933   7.617
17656SOL    HW254928   5.604   6.813   7.661
17657SOL     OW54929   5.674   7.387   8.375
17657SOL    HW154930   5.632   7.301   8.348
17657SOL    HW254931   5.768   7.390   8.341
17658SOL     OW54932   6.090   7.154   8.358
17658SOL    HW154933   6.156   7.228   8.367
17658SOL    HW254934   6.134   7.075   8.316
17659SOL     OW54935   6.588   6.382   8.686
17659SOL    HW154936   6.629   6.350   8.772
17659SOL    HW254937   6.492   6.355   8.683
17660SOL     OW54938   5.626   6.130   8.562
17660SOL    HW154939   5.711   6.097   8.521
17660SOL    HW254940   5.639   6.145   8.660
17661SOL     OW54941   6.401   6.158   7.773
17661SOL    HW154942   6.408   6.069   7.727
17661SOL    HW254943   6.307   6.192   7.765
17662SOL     OW54944   7.243   6.190   8.654
17662SOL    HW154945   7.205   6.121   8.716
17662SOL    HW254946   7.325   6.154   8.610
17663SOL     OW54947   6.257   6.050   8.717
17663SOL    HW154948   6.223   5.961   8.687
17663SOL    HW254949   6.283   6.104   8.637
17664SOL     OW54950   6.516   7.264   8.913
17664SOL    HW154951   6.492   7.246   8.818
17664SOL    HW254952   6.546   7.358   8.923
17665SOL     OW54953   6.059   6.086   7.639
17665SOL    HW154954   6.120   6.166   7.643
17665SOL    HW254955   5.964   6.117   7.646
17666SOL     OW54956   5.745   6.723   8.914
17666SOL    HW154957   5.767   6.662   8.990
17666SOL    HW254958   5.755   6.674   8.828
17667SOL     OW54959   6.933   6.645   8.682
17667SOL    HW154960   6.957   6.582   8.608
17667SOL    HW254961   6.843   6.685   8.664
17668SOL     OW54962   6.888   6.441   7.757
17668SOL    HW154963   6.802   6.410   7.799
17668SOL    HW254964   6.884   6.427   7.658
17669SOL     OW54965   7.345   7.333   8.602
17669SOL    HW154966   7.406   7.363   8.529
17669SOL    HW254967   7.307   7.244   8.580
17670SOL     OW54968   6.838   7.317   8.576
17670SOL    HW154969   6.922   7.322   8.522
17670SOL    HW254970   6.815   7.221   8.594
17671SOL     OW54971   5.669   6.844   8.470
17671SOL    HW154972   5.664   6.843   8.570
17671SOL    HW254973   5.586   6.803   8.432
17672SOL     OW54974   6.489   5.672   7.581
17672SOL    HW154975   6.540   5.673   7.495
17672SOL    HW254976   6.545   5.630   7.652
17673SOL     OW54977   7.312   5.721   7.971
17673SOL    HW154978   7.385   5.704   7.904
17673SOL    HW254979   7.281   5.634   8.009
17674SOL     OW54980   6.974   7.159   7.925
17674SOL    HW154981   7.041   7.171   7.851
17674SOL    HW254982   6.934   7.248   7.948
17675SOL     OW54983   6.866   6.513   8.120
17675SOL    HW154984   6.926   6.432   8.122
17675SOL    HW254985   6.906   6.582   8.060
17676SOL     OW54986   6.258   7.202   7.602
17676SOL    HW154987   6.267   7.212   7.503
17676SOL    HW254988   6.218   7.113   7.623
17677SOL     OW54989   7.236   7.306   8.842
17677SOL    HW154990   7.289   7.316   8.758
17677SOL    HW254991   7.209   7.396   8.876
17678SOL     OW54992   7.427   5.761   8.411
17678SOL    HW154993   7.466   5.676   8.375
17678SOL    HW254994   7.329   5.763   8.392
17679SOL     OW54995   5.849   5.912   8.168
17679SOL    HW154996   5.770   5.963   8.134
17679SOL    HW254997   5.840   5.897   8.266
17680SOL     OW54998   6.780   7.198   7.479
17680SOL    HW154999   6.786   7.105   7.516
17680SOL    HW255000   6.721   7.198   7.399
17681SOL     OW55001   6.408   6.588   8.820
17681SOL    HW155002   6.448   6.587   8.728
17681SOL    HW255003   6.418   6.680   8.860
17682SOL     OW55004   6.502   6.496   7.739
17682SOL    HW155005   6.565   6.534   7.671
17682SOL    HW255006   6.542   6.413   7.778
17683SOL     OW55007   7.090   7.193   7.492
17683SOL    HW155008   6.998   7.230   7.499
17683SOL    HW255009   7.128   7.213   7.402
17684SOL     OW55010   5.958   6.874   8.938
17684SOL    HW155011   5.945   6.967   8.904
17684SOL    HW255012   5.874   6.822   8.925
17685SOL     OW55013   7.200   6.878   8.737
17685SOL    HW155014   7.260   6.881   8.817
17685SOL    HW255015   7.125   6.942   8.750
17686SOL     OW55016   6.625   6.684   8.144
17686SOL    HW155017   6.555   6.637   8.198
17686SOL    HW255018   6.684   6.616   8.101
17687SOL     OW55019   6.600   5.822   8.419
17687SOL    HW155020   6.592   5.786   8.326
17687SOL    HW255021   6.598   5.746   8.484
17688SOL     OW55022   6.176   7.073   7.939
17688SOL    HW155023   6.218   7.015   7.869
17688SOL    HW255024   6.132   7.152   7.895
17689SOL     OW55025   7.295   5.971   8.829
17689SOL    HW155026   7.368   6.040   8.833
17689SOL    HW255027   7.323   5.896   8.770
17690SOL     OW55028   5.841   6.934   7.738
17690SOL    HW155029   5.745   6.935   7.711
17690SOL    HW255030   5.853   6.987   7.822
17691SOL     OW55031   5.661   5.931   7.481
17691SOL    HW155032   5.569   5.903   7.452
17691SOL    HW255033   5.692   6.008   7.425
17692SOL     OW55034   7.026   6.442   8.846
17692SOL    HW155035   6.969   6.494   8.783
17692SOL    HW255036   7.122   6.454   8.822
17693SOL     OW55037   5.658   5.752   7.766
17693SOL    HW155038   5.641   5.835   7.712
17693SOL    HW255039   5.748   5.715   7.744
17694SOL     OW55040   6.769   6.921   7.567
17694SOL    HW155041   6.670   6.910   7.569
17694SOL    HW255042   6.803   6.936   7.660
17695SOL     OW55043   6.199   6.428   8.879
17695SOL    HW155044   6.255   6.509   8.862
17695SOL    HW255045   6.258   6.348   8.882
17696SOL     OW55046   7.079   7.353   8.407
17696SOL    HW155047   7.112   7.417   8.338
17696SOL    HW255048   7.145   7.347   8.482
17697SOL     OW55049   5.976   7.327   0.008
17697SOL    HW155050   5.885   7.368   0.006
17697SOL    HW255051   5.969   7.233   0.040
17698SOL     OW55052   7.260   6.469   8.702
17698SOL    HW155053   7.233   6.380   8.665
17698SOL    HW255054   7.261   6.537   8.629
17699SOL     OW55055   6.811   5.911   7.897
17699SOL    HW155056   6.876   5.837   7.886
17699SOL    HW255057   6.831   5.961   7.981
17700SOL     OW55058   6.180   6.331   8.100
17700SOL    HW155059   6.230   6.416   8.081
17700SOL    HW255060   6.092   6.333   8.052
17701SOL     OW55061   7.363   5.928   0.090
17701SOL    HW155062   7.346   5.959  -0.004
17701SOL    HW255063   7.279   5.891   0.128
17702SOL     OW55064   7.316   6.520   8.965
17702SOL    HW155065   7.354   6.611   8.980
17702SOL    HW255066   7.308   6.503   8.866
17703SOL     OW55067   6.445   6.960   7.464
17703SOL    HW155068   6.399   6.975   7.552
17703SOL    HW255069   6.489   7.045   7.434
17704SOL     OW55070   6.247   7.376   8.401
17704SOL    HW155071   6.201   7.464   8.388
17704SOL    HW255072   6.346   7.388   8.394
17705SOL     OW55073   6.994   7.437   0.168
17705SOL    HW155074   6.898   7.426   0.141
17705SOL    HW255075   7.050   7.370   0.120
17706SOL     OW55076   6.445   6.542   8.309
17706SOL    HW155077   6.499   6.473   8.357
17706SOL    HW255078   6.413   6.611   8.375
17707SOL     OW55079   6.669   6.570   7.535
17707SOL    HW155080   6.646   6.623   7.453
17707SOL    HW255081   6.750   6.514   7.516
17708SOL     OW55082   7.447   7.155   8.299
17708SOL    HW155083   7.376   7.143   8.229
17708SOL    HW255084   7.448   7.076   8.359
17709SOL     OW55085   5.665   6.826   8.101
17709SOL    HW155086   5.664   6.779   8.189
17709SOL    HW255087   5.747   6.798   8.050
17710SOL     OW55088   7.410   5.778   8.675
17710SOL    HW155089   7.406   5.688   8.719
17710SOL    HW255090   7.413   5.767   8.576
17711SOL     OW55091   6.014   6.010   7.968
17711SOL    HW155092   6.044   5.938   7.906
17711SOL    HW255093   5.975   5.970   8.051
17712SOL     OW55094   7.291   7.073   8.552
17712SOL    HW155095   7.198   7.048   8.525
17712SOL    HW255096   7.317   7.023   8.634
17713SOL     OW55097   5.903   6.133   8.728
17713SOL    HW155098   5.941   6.074   8.800
17713SOL    HW255099   5.943   6.107   8.640
17714SOL     OW55100   6.398   7.172   8.135
17714SOL    HW155101   6.430   7.182   8.041
17714SOL    HW255102   6.319   7.110   8.137
17715SOL     OW55103   7.010   5.800   8.560
17715SOL    HW155104   7.062   5.735   8.615
17715SOL    HW255105   6.961   5.863   8.621
17716SOL     OW55106   6.587   5.620   8.602
17716SOL    HW155107   6.524   5.548   8.571
17716SOL    HW255108   6.680   5.584   8.602
17717SOL     OW55109   6.356   6.916   7.749
17717SOL    HW155110   6.310   6.829   7.766
17717SOL    HW255111   6.447   6.913   7.790
17718SOL     OW55112   6.204   7.153   8.732
17718SOL    HW155113   6.199   7.235   8.789
17718SOL    HW255114   6.293   7.150   8.687
17719SOL     OW55115   6.938   5.638   7.616
17719SOL    HW155116   6.973   5.597   7.532
17719SOL    HW255117   6.848   5.600   7.636
17720SOL     OW55118   6.886   6.039   8.139
17720SOL    HW155119   6.827   6.119   8.143
17720SOL    HW255120   6.901   6.004   8.232
17721SOL     OW55121   7.179   5.807   8.330
17721SOL    HW155122   7.095   5.806   8.384
17721SOL    HW255123   7.181   5.890   8.274
17722SOL     OW55124   5.625   6.663   7.748
17722SOL    HW155125   5.724   6.652   7.739
17722SOL    HW255126   5.585   6.577   7.780
17723SOL     OW55127   6.461   7.232   7.785
17723SOL    HW155128   6.384   7.197   7.731
17723SOL    HW255129   6.429   7.303   7.847
17724SOL     OW55130   5.816   8.076   0.113
17724SOL    HW155131   5.723   8.074   0.150
17724SOL    HW255132   5.817   8.037   0.021
17725SOL     OW55133   5.811   7.723   0.996
17725SOL    HW155134   5.846   7.706   1.088
17725SOL    HW255135   5.723   7.678   0.984
17726SOL     OW55136   5.605   7.816   0.647
17726SOL    HW155137   5.523   7.859   0.686
17726SOL    HW255138   5.577   7.743   0.584
17727SOL     OW55139   6.155   8.723   1.165
17727SOL    HW155140   6.062   8.716   1.128
17727SOL    HW255141   6.166   8.812   1.209
17728SOL     OW55142   7.141   8.959   0.703
17728SOL    HW155143   7.084   8.943   0.784
17728SOL    HW255144   7.082   8.969   0.623
17729SOL     OW55145   7.329   8.066   0.856
17729SOL    HW155146   7.362   8.160   0.856
17729SOL    HW255147   7.380   8.012   0.922
17730SOL     OW55148   6.721   8.151   0.717
17730SOL    HW155149   6.778   8.229   0.692
17730SOL    HW255150   6.661   8.177   0.793
17731SOL     OW55151   7.341   8.055   0.231
17731SOL    HW155152   7.329   8.042   0.132
17731SOL    HW255153   7.311   7.974   0.280
17732SOL     OW55154   6.354   8.592   1.023
17732SOL    HW155155   6.276   8.609   1.083
17732SOL    HW255156   6.388   8.679   0.987
17733SOL     OW55157   6.436   8.246   1.823
17733SOL    HW155158   6.432   8.322   1.888
17733SOL    HW255159   6.458   8.282   1.732
17734SOL     OW55160   6.271   8.460   0.665
17734SOL    HW155161   6.340   8.444   0.735
17734SOL    HW255162   6.198   8.517   0.703
17735SOL     OW55163   6.272   8.609   1.803
17735SOL    HW155164   6.332   8.688   1.817
17735SOL    HW255165   6.186   8.640   1.762
17736SOL     OW55166   5.921   8.883   1.061
17736SOL    HW155167   5.843   8.852   1.008
17736SOL    HW255168   5.979   8.941   1.004
17737SOL     OW55169   7.046   8.953   1.339
17737SOL    HW155170   7.070   9.047   1.365
17737SOL    HW255171   7.030   8.899   1.421
17738SOL     OW55172   6.024   7.840   1.499
17738SOL    HW155173   6.106   7.784   1.508
17738SOL    HW255174   5.943   7.782   1.503
17739SOL     OW55175   7.189   7.895   0.737
17739SOL    HW155176   7.115   7.941   0.687
17739SOL    HW255177   7.240   7.963   0.790
17740SOL     OW55178   5.817   0.161   0.483
17740SOL    HW155179   5.851   0.238   0.537
17740SOL    HW255180   5.861   0.161   0.393
17741SOL     OW55181   6.713   8.789   1.690
17741SOL    HW155182   6.760   8.789   1.778
17741SOL    HW255183   6.665   8.702   1.679
17742SOL     OW55184   5.816   8.882   0.538
17742SOL    HW155185   5.790   8.978   0.538
17742SOL    HW255186   5.745   8.828   0.583
17743SOL     OW55187   5.826   8.539   0.886
17743SOL    HW155188   5.840   8.455   0.938
17743SOL    HW255189   5.771   8.603   0.941
17744SOL     OW55190   6.192   8.412   0.123
17744SOL    HW155191   6.199   8.496   0.069
17744SOL    HW255192   6.238   8.425   0.211
17745SOL     OW55193   7.180   7.562   1.480
17745SOL    HW155194   7.162   7.629   1.408
17745SOL    HW255195   7.177   7.608   1.569
17746SOL     OW55196   5.708   8.091   0.563
17746SOL    HW155197   5.663   8.003   0.580
17746SOL    HW255198   5.707   8.145   0.647
17747SOL     OW55199   7.275   8.370   0.612
17747SOL    HW155200   7.370   8.341   0.620
17747SOL    HW255201   7.267   8.435   0.537
17748SOL     OW55202   7.227   8.556   0.432
17748SOL    HW155203   7.313   8.558   0.380
17748SOL    HW255204   7.241   8.603   0.520
17749SOL     OW55205   5.699   8.185   1.597
17749SOL    HW155206   5.787   8.172   1.642
17749SOL    HW255207   5.686   8.282   1.575
17750SOL     OW55208   6.199   8.813   0.726
17750SOL    HW155209   6.150   8.726   0.735
17750SOL    HW255210   6.176   8.856   0.639
17751SOL     OW55211   6.879   8.676   1.423
17751SOL    HW155212   6.916   8.603   1.365
17751SOL    HW255213   6.931   8.681   1.508
17752SOL     OW55214   6.395   7.452   0.502
17752SOL    HW155215   6.435   7.543   0.493
17752SOL    HW255216   6.295   7.460   0.508
17753SOL     OW55217   5.783   8.424   1.264
17753SOL    HW155218   5.872   8.379   1.250
17753SOL    HW255219   5.710   8.359   1.245
17754SOL     OW55220   7.111   8.447   0.190
17754SOL    HW155221   7.048   8.371   0.203
17754SOL    HW255222   7.159   8.465   0.276
17755SOL     OW55223   5.903   7.699   1.801
17755SOL    HW155224   5.974   7.770   1.807
17755SOL    HW255225   5.815   7.738   1.829
17756SOL     OW55226   7.052   8.865   0.953
17756SOL    HW155227   6.993   8.871   1.033
17756SOL    HW255228   7.037   8.777   0.907
17757SOL     OW55229   6.184   8.177   0.270
17757SOL    HW155230   6.208   8.246   0.202
17757SOL    HW255231   6.106   8.210   0.324
17758SOL     OW55232   6.867   7.793   0.944
17758SOL    HW155233   6.781   7.743   0.931
17758SOL    HW255234   6.929   7.739   1.000
17759SOL     OW55235   6.393   8.053   1.465
17759SOL    HW155236   6.346   8.050   1.554
17759SOL    HW255237   6.342   7.998   1.399
17760SOL     OW55238   6.980   7.917   1.674
17760SOL    HW155239   6.960   7.960   1.762
17760SOL    HW255240   7.058   7.855   1.683
17761SOL     OW55241   6.559   8.338   1.572
17761SOL    HW155242   6.605   8.254   1.543
17761SOL    HW255243   6.503   8.372   1.497
17762SOL     OW55244   6.577   7.858   1.242
17762SOL    HW155245   6.500   7.892   1.296
17762SOL    HW255246   6.543   7.807   1.163
17763SOL     OW55247   6.627   8.149   0.429
17763SOL    HW155248   6.653   8.145   0.525
17763SOL    HW255249   6.542   8.098   0.415
17764SOL     OW55250   5.662   8.259   0.789
17764SOL    HW155251   5.761   8.247   0.798
17764SOL    HW255252   5.638   8.354   0.810
17765SOL     OW55253   6.451   7.796   0.195
17765SOL    HW155254   6.510   7.859   0.146
17765SOL    HW255255   6.470   7.702   0.166
17766SOL     OW55256   7.305   8.033   1.831
17766SOL    HW155257   7.279   8.122   1.795
17766SOL    HW255258   7.303   7.965   1.758
17767SOL     OW55259   6.948   8.592   0.545
17767SOL    HW155260   7.031   8.563   0.497
17767SOL    HW255261   6.899   8.659   0.489
17768SOL     OW55262   6.136   7.644   0.885
17768SOL    HW155263   6.131   7.639   0.985
17768SOL    HW255264   6.138   7.740   0.856
17769SOL     OW55265   6.594   8.904   0.477
17769SOL    HW155266   6.548   8.976   0.425
17769SOL    HW255267   6.590   8.924   0.575
17770SOL     OW55268   7.381   8.514   0.873
17770SOL    HW155269   7.319   8.499   0.797
17770SOL    HW255270   7.329   8.525   0.958
17771SOL     OW55271   6.813   8.998   1.506
17771SOL    HW155272   6.819   8.921   1.570
17771SOL    HW255273   6.761   8.972   1.426
17772SOL     OW55274   5.907   8.391   0.242
17772SOL    HW155275   5.989   8.430   0.200
17772SOL    HW255276   5.880   8.309   0.193
17773SOL     OW55277   7.044   8.183   0.728
17773SOL    HW155278   7.039   8.118   0.803
17773SOL    HW255279   7.124   8.242   0.741
17774SOL     OW55280   6.047   8.714   1.727
17774SOL    HW155281   5.997   8.715   1.641
17774SOL    HW255282   5.984   8.696   1.803
17775SOL     OW55283   6.697   0.224   0.237
17775SOL    HW155284   6.637   0.162   0.287
17775SOL    HW255285   6.728   0.180   0.152
17776SOL     OW55286   5.788   7.733   1.498
17776SOL    HW155287   5.708   7.793   1.485
17776SOL    HW255288   5.778   7.684   1.584
17777SOL     OW55289   7.218   8.825   0.081
17777SOL    HW155290   7.186   8.919   0.071
17777SOL    HW255291   7.142   8.762   0.069
17778SOL     OW55292   6.986   7.555   0.426
17778SOL    HW155293   6.962   7.518   0.336
17778SOL    HW255294   7.085   7.571   0.430
17779SOL     OW55295   5.968   8.148   0.480
17779SOL    HW155296   6.013   8.058   0.477
17779SOL    HW255297   5.874   8.137   0.513
17780SOL     OW55298   7.133   7.670   1.729
17780SOL    HW155299   7.128   7.707   1.821
17780SOL    HW255300   7.061   7.601   1.717
17781SOL     OW55301   6.200   7.570   0.117
17781SOL    HW155302   6.298   7.548   0.124
17781SOL    HW255303   6.169   7.553   0.024
17782SOL     OW55304   6.367   7.712   1.749
17782SOL    HW155305   6.434   7.651   1.792
17782SOL    HW255306   6.294   7.731   1.814
17783SOL     OW55307   6.937   8.038   1.433
17783SOL    HW155308   6.965   7.995   1.518
17783SOL    HW255309   6.962   8.134   1.434
17784SOL     OW55310   6.389   8.850   0.924
17784SOL    HW155311   6.479   8.864   0.882
17784SOL    HW255312   6.318   8.852   0.853
17785SOL     OW55313   6.508   7.951   0.899
17785SOL    HW155314   6.483   7.942   0.803
17785SOL    HW255315   6.556   7.869   0.930
17786SOL     OW55316   6.125   7.512   0.512
17786SOL    HW155317   6.044   7.513   0.570
17786SOL    HW255318   6.128   7.595   0.457
17787SOL     OW55319   7.020   8.636   0.041
17787SOL    HW155320   7.052   8.560   0.098
17787SOL    HW255321   6.928   8.663   0.071
17788SOL     OW55322   5.883   7.483   0.171
17788SOL    HW155323   5.932   7.567   0.150
17788SOL    HW255324   5.945   7.418   0.216
17789SOL     OW55325   6.521   7.684   0.480
17789SOL    HW155326   6.473   7.725   0.402
17789SOL    HW255327   6.620   7.682   0.461
17790SOL     OW55328   6.662   8.131   1.464
17790SOL    HW155329   6.582   8.070   1.467
17790SOL    HW255330   6.743   8.078   1.440
17791SOL     OW55331   6.813   0.018   0.793
17791SOL    HW155332   6.834   0.092   0.728
17791SOL    HW255333   6.881   0.018   0.866
17792SOL     OW55334   6.045   8.600   0.741
17792SOL    HW155335   5.974   8.573   0.806
17792SOL    HW255336   6.019   8.572   0.648
17793SOL     OW55337   6.618   7.997   0.016
17793SOL    HW155338   6.577   8.079  -0.023
17793SOL    HW255339   6.682   8.023   0.089
17794SOL     OW55340   5.664   8.004   1.386
17794SOL    HW155341   5.756   8.003   1.345
17794SOL    HW255342   5.658   8.078   1.453
17795SOL     OW55343   6.147   7.670   1.147
17795SOL    HW155344   6.185   7.586   1.184
17795SOL    HW255345   6.059   7.689   1.191
17796SOL     OW55346   6.452   7.902   0.642
17796SOL    HW155347   6.420   7.974   0.580
17796SOL    HW255348   6.476   7.821   0.589
17797SOL     OW55349   6.603   7.487   0.753
17797SOL    HW155350   6.531   7.492   0.684
17797SOL    HW255351   6.579   7.418   0.822
17798SOL     OW55352   7.015   8.621   0.867
17798SOL    HW155353   6.960   8.537   0.860
17798SOL    HW255354   7.041   8.650   0.775
17799SOL     OW55355   7.052   8.038   0.992
17799SOL    HW155356   7.022   7.943   0.999
17799SOL    HW255357   7.125   8.054   1.058
17800SOL     OW55358   7.443   8.281   0.377
17800SOL    HW155359   7.485   8.217   0.441
17800SOL    HW255360   7.405   8.230   0.299
17801SOL     OW55361   6.074   8.833   0.174
17801SOL    HW155362   5.987   8.818   0.221
17801SOL    HW255363   6.057   8.859   0.079
17802SOL     OW55364   7.250   8.728   0.657
17802SOL    HW155365   7.349   8.736   0.671
17802SOL    HW255366   7.205   8.812   0.688
17803SOL     OW55367   6.976   8.023   0.078
17803SOL    HW155368   6.922   8.002   0.159
17803SOL    HW255369   7.067   7.982   0.087
17804SOL     OW55370   6.113   7.704   0.328
17804SOL    HW155371   6.140   7.645   0.253
17804SOL    HW255372   6.113   7.799   0.297
17805SOL     OW55373   7.340   8.671   1.588
17805SOL    HW155374   7.431   8.632   1.575
17805SOL    HW255375   7.348   8.767   1.612
17806SOL     OW55376   6.650   8.795   1.340
17806SOL    HW155377   6.570   8.772   1.395
17806SOL    HW255378   6.733   8.769   1.389
17807SOL     OW55379   6.697   8.643   1.100
17807SOL    HW155380   6.657   8.687   1.181
17807SOL    HW255381   6.656   8.680   1.017
17808SOL     OW55382   7.224   8.547   1.079
17808SOL    HW155383   7.229   8.628   1.138
17808SOL    HW255384   7.138   8.549   1.028
17809SOL     OW55385   6.501   7.537   1.402
17809SOL    HW155386   6.526   7.517   1.307
17809SOL    HW255387   6.573   7.593   1.444
17810SOL     OW55388   6.566   8.564   1.719
17810SOL    HW155389   6.467   8.570   1.729
17810SOL    HW255390   6.589   8.484   1.663
17811SOL     OW55391   6.291   8.498   0.368
17811SOL    HW155392   6.277   8.505   0.467
17811SOL    HW255393   6.375   8.447   0.350
17812SOL     OW55394   5.996   8.261   1.251
17812SOL    HW155395   6.082   8.273   1.301
17812SOL    HW255396   5.954   8.174   1.278
17813SOL     OW55397   6.860   7.834   1.262
17813SOL    HW155398   6.881   7.908   1.326
17813SOL    HW255399   6.771   7.851   1.219
17814SOL     OW55400   5.953   8.548   0.501
17814SOL    HW155401   5.946   8.631   0.445
17814SOL    HW255402   5.957   8.468   0.441
17815SOL     OW55403   6.152   7.985   0.865
17815SOL    HW155404   6.164   8.051   0.791
17815SOL    HW255405   6.198   8.019   0.948
17816SOL     OW55406   6.838   8.796   0.388
17816SOL    HW155407   6.888   8.873   0.428
17816SOL    HW255408   6.743   8.798   0.420
17817SOL     OW55409   6.858   8.893   1.142
17817SOL    HW155410   6.905   8.906   1.229
17817SOL    HW255411   6.792   8.819   1.151
17818SOL     OW55412   7.168   8.087   0.472
17818SOL    HW155413   7.137   8.148   0.545
17818SOL    HW255414   7.218   8.139   0.403
17819SOL     OW55415   5.940   8.958   1.329
17819SOL    HW155416   5.919   8.914   1.242
17819SOL    HW255417   6.037   8.984   1.332
17820SOL     OW55418   5.988   8.199   1.598
17820SOL    HW155419   6.056   8.254   1.551
17820SOL    HW255420   6.028   8.111   1.625
17821SOL     OW55421   7.173   8.227   1.670
17821SOL    HW155422   7.081   8.265   1.665
17821SOL    HW255423   7.233   8.274   1.605
17822SOL     OW55424   6.599   7.553   1.770
17822SOL    HW155425   6.605   7.638   1.718
17822SOL    HW255426   6.631   7.477   1.713
17823SOL     OW55427   6.090   7.498   1.740
17823SOL    HW155428   6.048   7.441   1.670
17823SOL    HW255429   6.024   7.567   1.772
17824SOL     OW55430   6.159   8.318   1.029
17824SOL    HW155431   6.203   8.407   1.020
17824SOL    HW255432   6.096   8.318   1.106
17825SOL     OW55433   6.946   8.310   1.045
17825SOL    HW155434   6.871   8.310   0.979
17825SOL    HW255435   6.983   8.218   1.054
17826SOL     OW55436   6.795   7.973   0.275
17826SOL    HW155437   6.808   7.889   0.329
17826SOL    HW255438   6.766   8.047   0.335
17827SOL     OW55439   5.893   7.661   1.231
17827SOL    HW155440   5.870   7.698   1.321
17827SOL    HW255441   5.863   7.566   1.225
17828SOL     OW55442   5.623   8.758   1.282
17828SOL    HW155443   5.676   8.709   1.350
17828SOL    HW255444   5.645   8.856   1.287
17829SOL     OW55445   6.318   8.082   1.064
17829SOL    HW155446   6.377   8.056   0.988
17829SOL    HW255447   6.290   8.178   1.053
17830SOL     OW55448   7.314   8.383   1.854
17830SOL    HW155449   7.268   8.376   1.765
17830SOL    HW255450   7.252   8.427   1.920
17831SOL     OW55451   5.893   7.511   0.618
17831SOL    HW155452   5.882   7.605   0.651
17831SOL    HW255453   5.888   7.448   0.695
17832SOL     OW55454   7.208   7.815   0.374
17832SOL    HW155455   7.210   7.739   0.438
17832SOL    HW255456   7.160   7.892   0.414
17833SOL     OW55457   6.609   8.214   0.966
17833SOL    HW155458   6.624   8.235   1.062
17833SOL    HW255459   6.579   8.119   0.957
17834SOL     OW55460   7.445   8.966   1.605
17834SOL    HW155461   7.459   8.993   1.510
17834SOL    HW255462   7.528   8.988   1.658
17835SOL     OW55463   5.936   8.346   1.804
17835SOL    HW155464   6.012   8.390   1.852
17835SOL    HW255465   5.971   8.299   1.722
17836SOL     OW55466   7.126   7.722   0.125
17836SOL    HW155467   7.065   7.647   0.148
17836SOL    HW255468   7.148   7.774   0.208
17837SOL     OW55469   6.889   8.286   0.042
17837SOL    HW155470   6.923   8.193   0.057
17837SOL    HW255471   6.907   8.313  -0.053
17838SOL     OW55472   6.654   8.781   0.849
17838SOL    HW155473   6.661   8.697   0.794
17838SOL    HW255474   6.716   8.850   0.813
17839SOL     OW55475   5.905   8.258   0.949
17839SOL    HW155476   5.998   8.294   0.954
17839SOL    HW255477   5.899   8.173   1.001
17840SOL     OW55478   5.925   7.957   1.006
17840SOL    HW155479   5.873   7.874   0.989
17840SOL    HW255480   6.002   7.962   0.942
17841SOL     OW55481   6.097   7.863   1.808
17841SOL    HW155482   6.079   7.908   1.896
17841SOL    HW255483   6.139   7.928   1.745
17842SOL     OW55484   6.724   7.828   1.678
17842SOL    HW155485   6.679   7.891   1.742
17842SOL    HW255486   6.817   7.859   1.661
17843SOL     OW55487   6.746   7.655   1.477
17843SOL    HW155488   6.746   7.719   1.554
17843SOL    HW255489   6.774   7.703   1.394
17844SOL     OW55490   5.594   8.774   0.200
17844SOL    HW155491   5.501   8.795   0.169
17844SOL    HW255492   5.604   8.675   0.213
17845SOL     OW55493   6.588   8.244   1.238
17845SOL    HW155494   6.629   8.212   1.324
17845SOL    HW255495   6.492   8.217   1.235
17846SOL     OW55496   5.626   7.992   1.114
17846SOL    HW155497   5.711   7.959   1.073
17846SOL    HW255498   5.639   8.007   1.212
17847SOL     OW55499   5.775   7.968   1.722
17847SOL    HW155500   5.834   7.928   1.652
17847SOL    HW255501   5.717   8.039   1.681
17848SOL     OW55502   6.955   8.398   1.660
17848SOL    HW155503   6.994   8.487   1.680
17848SOL    HW255504   6.965   8.378   1.563
17849SOL     OW55505   6.401   8.020   0.325
17849SOL    HW155506   6.408   7.931   0.279
17849SOL    HW255507   6.307   8.054   0.317
17850SOL     OW55508   7.243   8.052   1.206
17850SOL    HW155509   7.205   7.983   1.268
17850SOL    HW255510   7.325   8.016   1.162
17851SOL     OW55511   5.838   0.012   1.744
17851SOL    HW155512   5.808   0.069   1.820
17851SOL    HW255513   5.831  -0.085   1.770
17852SOL     OW55514   6.257   7.912   1.269
17852SOL    HW155515   6.223   7.823   1.239
17852SOL    HW255516   6.283   7.966   1.189
17853SOL     OW55517   6.059   7.948   0.191
17853SOL    HW155518   6.120   8.028   0.195
17853SOL    HW255519   5.964   7.979   0.198
17854SOL     OW55520   5.745   8.585   1.466
17854SOL    HW155521   5.767   8.524   1.542
17854SOL    HW255522   5.755   8.536   1.380
17855SOL     OW55523   6.933   8.507   1.234
17855SOL    HW155524   6.957   8.444   1.160
17855SOL    HW255525   6.843   8.547   1.216
17856SOL     OW55526   6.888   8.303   0.309
17856SOL    HW155527   6.802   8.272   0.351
17856SOL    HW255528   6.884   8.289   0.210
17857SOL     OW55529   5.669   8.706   1.022
17857SOL    HW155530   5.664   8.705   1.122
17857SOL    HW255531   5.586   8.665   0.984
17858SOL     OW55532   6.489   7.534   0.133
17858SOL    HW155533   6.540   7.535   0.047
17858SOL    HW255534   6.545   7.492   0.204
17859SOL     OW55535   7.312   7.583   0.523
17859SOL    HW155536   7.385   7.566   0.456
17859SOL    HW255537   7.281   7.496   0.561
17860SOL     OW55538   6.866   8.375   0.672
17860SOL    HW155539   6.926   8.294   0.674
17860SOL    HW255540   6.906   8.444   0.612
17861SOL     OW55541   6.416   8.721   1.422
17861SOL    HW155542   6.411   8.754   1.517
17861SOL    HW255543   6.330   8.740   1.376
17862SOL     OW55544   7.427   7.623   0.963
17862SOL    HW155545   7.466   7.538   0.927
17862SOL    HW255546   7.329   7.625   0.944
17863SOL     OW55547   5.849   7.774   0.720
17863SOL    HW155548   5.770   7.825   0.686
17863SOL    HW255549   5.840   7.759   0.818
17864SOL     OW55550   6.408   8.450   1.372
17864SOL    HW155551   6.448   8.449   1.280
17864SOL    HW255552   6.418   8.542   1.412
17865SOL     OW55553   6.502   8.358   0.291
17865SOL    HW155554   6.565   8.396   0.223
17865SOL    HW255555   6.542   8.275   0.330
17866SOL     OW55556   5.958   8.736   1.490
17866SOL    HW155557   5.945   8.829   1.456
17866SOL    HW255558   5.874   8.684   1.477
17867SOL     OW55559   7.200   8.740   1.289
17867SOL    HW155560   7.260   8.743   1.369
17867SOL    HW255561   7.125   8.804   1.302
17868SOL     OW55562   6.625   8.546   0.696
17868SOL    HW155563   6.555   8.499   0.750
17868SOL    HW255564   6.684   8.478   0.653
17869SOL     OW55565   6.600   7.684   0.971
17869SOL    HW155566   6.592   7.648   0.878
17869SOL    HW255567   6.598   7.608   1.036
17870SOL     OW55568   7.295   7.833   1.381
17870SOL    HW155569   7.368   7.902   1.385
17870SOL    HW255570   7.323   7.758   1.322
17871SOL     OW55571   5.841   8.796   0.290
17871SOL    HW155572   5.745   8.797   0.263
17871SOL    HW255573   5.853   8.849   0.374
17872SOL     OW55574   5.691   8.461   1.726
17872SOL    HW155575   5.614   8.428   1.780
17872SOL    HW255576   5.776   8.431   1.768
17873SOL     OW55577   6.258   7.651   1.489
17873SOL    HW155578   6.348   7.635   1.449
17873SOL    HW255579   6.266   7.656   1.588
17874SOL     OW55580   7.026   8.304   1.398
17874SOL    HW155581   6.969   8.356   1.335
17874SOL    HW255582   7.122   8.316   1.374
17875SOL     OW55583   5.658   7.614   0.318
17875SOL    HW155584   5.641   7.697   0.264
17875SOL    HW255585   5.748   7.577   0.296
17876SOL     OW55586   6.769   8.783   0.119
17876SOL    HW155587   6.670   8.772   0.121
17876SOL    HW255588   6.803   8.798   0.212
17877SOL     OW55589   6.199   8.290   1.431
17877SOL    HW155590   6.255   8.371   1.414
17877SOL    HW255591   6.258   8.210   1.434
17878SOL     OW55592   6.302   8.013   1.708
17878SOL    HW155593   6.321   8.078   1.782
17878SOL    HW255594   6.362   7.933   1.717
17879SOL     OW55595   7.036   8.668   1.633
17879SOL    HW155596   7.027   8.658   1.732
17879SOL    HW255597   7.132   8.661   1.607
17880SOL     OW55598   7.260   8.331   1.254
17880SOL    HW155599   7.233   8.242   1.217
17880SOL    HW255600   7.261   8.399   1.181
17881SOL     OW55601   6.811   7.773   0.449
17881SOL    HW155602   6.876   7.699   0.438
17881SOL    HW255603   6.831   7.823   0.533
17882SOL     OW55604   6.180   8.193   0.652
17882SOL    HW155605   6.230   8.278   0.633
17882SOL    HW255606   6.092   8.195   0.604
17883SOL     OW55607   7.363   7.790   1.642
17883SOL    HW155608   7.346   7.821   1.548
17883SOL    HW255609   7.279   7.753   1.680
17884SOL     OW55610   7.316   8.382   1.517
17884SOL    HW155611   7.354   8.473   1.532
17884SOL    HW255612   7.308   8.365   1.418
17885SOL     OW55613   6.445   8.822   0.016
17885SOL    HW155614   6.399   8.837   0.104
17885SOL    HW255615   6.489   8.907  -0.014
17886SOL     OW55616   6.445   8.404   0.861
17886SOL    HW155617   6.499   8.335   0.909
17886SOL    HW255618   6.413   8.473   0.927
17887SOL     OW55619   6.669   8.432   0.087
17887SOL    HW155620   6.646   8.485   0.005
17887SOL    HW255621   6.750   8.376   0.068
17888SOL     OW55622   5.807   8.762   1.844
17888SOL    HW155623   5.742   8.689   1.823
17888SOL    HW255624   5.811   8.776   1.942
17889SOL     OW55625   5.665   8.688   0.653
17889SOL    HW155626   5.664   8.641   0.741
17889SOL    HW255627   5.747   8.660   0.602
17890SOL     OW55628   6.258   8.839   1.624
17890SOL    HW155629   6.180   8.789   1.662
17890SOL    HW255630   6.255   8.934   1.655
17891SOL     OW55631   7.410   7.640   1.227
17891SOL    HW155632   7.406   7.550   1.271
17891SOL    HW255633   7.413   7.629   1.128
17892SOL     OW55634   6.014   7.872   0.520
17892SOL    HW155635   6.044   7.800   0.458
17892SOL    HW255636   5.975   7.832   0.603
17893SOL     OW55637   7.291   8.935   1.104
17893SOL    HW155638   7.198   8.910   1.077
17893SOL    HW255639   7.317   8.885   1.186
17894SOL     OW55640   5.903   7.995   1.280
17894SOL    HW155641   5.941   7.936   1.352
17894SOL    HW255642   5.943   7.969   1.192
17895SOL     OW55643   7.010   7.662   1.112
17895SOL    HW155644   7.062   7.597   1.167
17895SOL    HW255645   6.961   7.725   1.173
17896SOL     OW55646   6.587   7.482   1.154
17896SOL    HW155647   6.524   7.410   1.123
17896SOL    HW255648   6.680   7.446   1.154
17897SOL     OW55649   6.356   8.778   0.301
17897SOL    HW155650   6.310   8.691   0.318
17897SOL    HW255651   6.447   8.775   0.342
17898SOL     OW55652   6.204   0.015   1.284
17898SOL    HW155653   6.199   0.097   1.341
17898SOL    HW255654   6.293   0.012   1.239
17899SOL     OW55655   6.886   7.901   0.691
17899SOL    HW155656   6.827   7.981   0.695
17899SOL    HW255657   6.901   7.866   0.784
17900SOL     OW55658   7.179   7.669   0.882
17900SOL    HW155659   7.095   7.668   0.936
17900SOL    HW255660   7.181   7.752   0.826
17901SOL     OW55661   5.625   8.525   0.300
17901SOL    HW155662   5.724   8.514   0.291
17901SOL    HW255663   5.585   8.439   0.332
17902SOL     OW55664   5.816   8.076   1.975
17902SOL    HW155665   5.723   8.074   2.012
17902SOL    HW255666   5.817   8.037   1.883
17903SOL     OW55667   5.811   7.723   2.858
17903SOL    HW155668   5.846   7.706   2.950
17903SOL    HW255669   5.723   7.678   2.846
17904SOL     OW55670   5.605   7.816   2.509
17904SOL    HW155671   5.523   7.859   2.548
17904SOL    HW255672   5.577   7.743   2.446
17905SOL     OW55673   6.155   8.723   3.027
17905SOL    HW155674   6.062   8.716   2.990
17905SOL    HW255675   6.166   8.812   3.071
17906SOL     OW55676   7.141   8.959   2.565
17906SOL    HW155677   7.084   8.943   2.646
17906SOL    HW255678   7.082   8.969   2.485
17907SOL     OW55679   7.329   8.066   2.718
17907SOL    HW155680   7.362   8.160   2.718
17907SOL    HW255681   7.380   8.012   2.784
17908SOL     OW55682   6.721   8.151   2.579
17908SOL    HW155683   6.778   8.229   2.554
17908SOL    HW255684   6.661   8.177   2.655
17909SOL     OW55685   7.341   8.055   2.093
17909SOL    HW155686   7.329   8.042   1.994
17909SOL    HW255687   7.311   7.974   2.142
17910SOL     OW55688   6.354   8.592   2.885
17910SOL    HW155689   6.276   8.609   2.945
17910SOL    HW255690   6.388   8.679   2.849
17911SOL     OW55691   6.436   8.246   3.685
17911SOL    HW155692   6.432   8.322   3.750
17911SOL    HW255693   6.458   8.282   3.594
17912SOL     OW55694   6.271   8.460   2.527
17912SOL    HW155695   6.340   8.444   2.597
17912SOL    HW255696   6.198   8.517   2.565
17913SOL     OW55697   6.272   8.609   3.665
17913SOL    HW155698   6.332   8.688   3.679
17913SOL    HW255699   6.186   8.640   3.624
17914SOL     OW55700   5.921   8.883   2.923
17914SOL    HW155701   5.843   8.852   2.870
17914SOL    HW255702   5.979   8.941   2.866
17915SOL     OW55703   7.046   8.953   3.201
17915SOL    HW155704   7.070   9.047   3.227
17915SOL    HW255705   7.030   8.899   3.283
17916SOL     OW55706   6.024   7.840   3.361
17916SOL    HW155707   6.106   7.784   3.370
17916SOL    HW255708   5.943   7.782   3.365
17917SOL     OW55709   7.189   7.895   2.599
17917SOL    HW155710   7.115   7.941   2.549
17917SOL    HW255711   7.240   7.963   2.652
17918SOL     OW55712   5.817   0.161   2.345
17918SOL    HW155713   5.851   0.238   2.399
17918SOL    HW255714   5.861   0.161   2.255
17919SOL     OW55715   6.713   8.789   3.552
17919SOL    HW155716   6.760   8.789   3.640
17919SOL    HW255717   6.665   8.702   3.541
17920SOL     OW55718   5.816   8.882   2.400
17920SOL    HW155719   5.790   8.978   2.400
17920SOL    HW255720   5.745   8.828   2.445
17921SOL     OW55721   5.826   8.539   2.748
17921SOL    HW155722   5.840   8.455   2.800
17921SOL    HW255723   5.771   8.603   2.803
17922SOL     OW55724   6.192   8.412   1.985
17922SOL    HW155725   6.199   8.496   1.931
17922SOL    HW255726   6.238   8.425   2.073
17923SOL     OW55727   7.180   7.562   3.342
17923SOL    HW155728   7.162   7.629   3.270
17923SOL    HW255729   7.177   7.608   3.431
17924SOL     OW55730   5.708   8.091   2.425
17924SOL    HW155731   5.663   8.003   2.442
17924SOL    HW255732   5.707   8.145   2.509
17925SOL     OW55733   5.613   0.044   1.979
17925SOL    HW155734   5.594  -0.052   2.000
17925SOL    HW255735   5.580   0.102   2.054
17926SOL     OW55736   7.275   8.370   2.474
17926SOL    HW155737   7.370   8.341   2.482
17926SOL    HW255738   7.267   8.435   2.399
17927SOL     OW55739   7.227   8.556   2.294
17927SOL    HW155740   7.313   8.558   2.242
17927SOL    HW255741   7.241   8.603   2.382
17928SOL     OW55742   5.699   8.185   3.459
17928SOL    HW155743   5.787   8.172   3.504
17928SOL    HW255744   5.686   8.282   3.437
17929SOL     OW55745   6.199   8.813   2.588
17929SOL    HW155746   6.150   8.726   2.597
17929SOL    HW255747   6.176   8.856   2.501
17930SOL     OW55748   6.879   8.676   3.285
17930SOL    HW155749   6.916   8.603   3.227
17930SOL    HW255750   6.931   8.681   3.370
17931SOL     OW55751   6.395   7.452   2.364
17931SOL    HW155752   6.435   7.543   2.355
17931SOL    HW255753   6.295   7.460   2.370
17932SOL     OW55754   5.783   8.424   3.126
17932SOL    HW155755   5.872   8.379   3.112
17932SOL    HW255756   5.710   8.359   3.107
17933SOL     OW55757   7.111   8.447   2.052
17933SOL    HW155758   7.048   8.371   2.065
17933SOL    HW255759   7.159   8.465   2.138
17934SOL     OW55760   5.903   7.699   3.663
17934SOL    HW155761   5.974   7.770   3.669
17934SOL    HW255762   5.815   7.738   3.691
17935SOL     OW55763   7.052   8.865   2.815
17935SOL    HW155764   6.993   8.871   2.895
17935SOL    HW255765   7.037   8.777   2.769
17936SOL     OW55766   6.184   8.177   2.132
17936SOL    HW155767   6.208   8.246   2.064
17936SOL    HW255768   6.106   8.210   2.186
17937SOL     OW55769   6.867   7.793   2.806
17937SOL    HW155770   6.781   7.743   2.793
17937SOL    HW255771   6.929   7.739   2.862
17938SOL     OW55772   6.393   8.053   3.327
17938SOL    HW155773   6.346   8.050   3.416
17938SOL    HW255774   6.342   7.998   3.261
17939SOL     OW55775   6.980   7.917   3.536
17939SOL    HW155776   6.960   7.960   3.624
17939SOL    HW255777   7.058   7.855   3.545
17940SOL     OW55778   6.559   8.338   3.434
17940SOL    HW155779   6.605   8.254   3.405
17940SOL    HW255780   6.503   8.372   3.359
17941SOL     OW55781   6.577   7.858   3.104
17941SOL    HW155782   6.500   7.892   3.158
17941SOL    HW255783   6.543   7.807   3.025
17942SOL     OW55784   6.627   8.149   2.291
17942SOL    HW155785   6.653   8.145   2.387
17942SOL    HW255786   6.542   8.098   2.277
17943SOL     OW55787   5.662   8.259   2.651
17943SOL    HW155788   5.761   8.247   2.660
17943SOL    HW255789   5.638   8.354   2.672
17944SOL     OW55790   6.451   7.796   2.057
17944SOL    HW155791   6.510   7.859   2.008
17944SOL    HW255792   6.470   7.702   2.028
17945SOL     OW55793   7.305   8.033   3.693
17945SOL    HW155794   7.279   8.122   3.657
17945SOL    HW255795   7.303   7.965   3.620
17946SOL     OW55796   6.948   8.592   2.407
17946SOL    HW155797   7.031   8.563   2.359
17946SOL    HW255798   6.899   8.659   2.351
17947SOL     OW55799   6.136   7.644   2.747
17947SOL    HW155800   6.131   7.639   2.847
17947SOL    HW255801   6.138   7.740   2.718
17948SOL     OW55802   6.594   8.904   2.339
17948SOL    HW155803   6.548   8.976   2.287
17948SOL    HW255804   6.590   8.924   2.437
17949SOL     OW55805   7.381   8.514   2.735
17949SOL    HW155806   7.319   8.499   2.659
17949SOL    HW255807   7.329   8.525   2.820
17950SOL     OW55808   6.813   8.998   3.368
17950SOL    HW155809   6.819   8.921   3.432
17950SOL    HW255810   6.761   8.972   3.288
17951SOL     OW55811   5.907   8.391   2.104
17951SOL    HW155812   5.989   8.430   2.062
17951SOL    HW255813   5.880   8.309   2.055
17952SOL     OW55814   7.044   8.183   2.590
17952SOL    HW155815   7.039   8.118   2.665
17952SOL    HW255816   7.124   8.242   2.603
17953SOL     OW55817   6.047   8.714   3.589
17953SOL    HW155818   5.997   8.715   3.503
17953SOL    HW255819   5.984   8.696   3.665
17954SOL     OW55820   6.697   0.224   2.099
17954SOL    HW155821   6.637   0.162   2.149
17954SOL    HW255822   6.728   0.180   2.014
17955SOL     OW55823   5.788   7.733   3.360
17955SOL    HW155824   5.708   7.793   3.347
17955SOL    HW255825   5.778   7.684   3.446
17956SOL     OW55826   7.218   8.825   1.943
17956SOL    HW155827   7.186   8.919   1.933
17956SOL    HW255828   7.142   8.762   1.931
17957SOL     OW55829   6.986   7.555   2.288
17957SOL    HW155830   6.962   7.518   2.198
17957SOL    HW255831   7.085   7.571   2.292
17958SOL     OW55832   5.968   8.148   2.342
17958SOL    HW155833   6.013   8.058   2.339
17958SOL    HW255834   5.874   8.137   2.375
17959SOL     OW55835   7.133   7.670   3.591
17959SOL    HW155836   7.128   7.707   3.683
17959SOL    HW255837   7.061   7.601   3.579
17960SOL     OW55838   6.200   7.570   1.979
17960SOL    HW155839   6.298   7.548   1.986
17960SOL    HW255840   6.169   7.553   1.886
17961SOL     OW55841   6.367   7.712   3.611
17961SOL    HW155842   6.434   7.651   3.654
17961SOL    HW255843   6.294   7.731   3.676
17962SOL     OW55844   6.937   8.038   3.295
17962SOL    HW155845   6.965   7.995   3.380
17962SOL    HW255846   6.962   8.134   3.296
17963SOL     OW55847   6.389   8.850   2.786
17963SOL    HW155848   6.479   8.864   2.744
17963SOL    HW255849   6.318   8.852   2.715
17964SOL     OW55850   6.508   7.951   2.761
17964SOL    HW155851   6.483   7.942   2.665
17964SOL    HW255852   6.556   7.869   2.792
17965SOL     OW55853   6.125   7.512   2.374
17965SOL    HW155854   6.044   7.513   2.432
17965SOL    HW255855   6.128   7.595   2.319
17966SOL     OW55856   7.020   8.636   1.903
17966SOL    HW155857   7.052   8.560   1.960
17966SOL    HW255858   6.928   8.663   1.933
17967SOL     OW55859   5.883   7.483   2.033
17967SOL    HW155860   5.932   7.567   2.012
17967SOL    HW255861   5.945   7.418   2.078
17968SOL     OW55862   6.521   7.684   2.342
17968SOL    HW155863   6.473   7.725   2.264
17968SOL    HW255864   6.620   7.682   2.323
17969SOL     OW55865   6.662   8.131   3.326
17969SOL    HW155866   6.582   8.070   3.329
17969SOL    HW255867   6.743   8.078   3.302
17970SOL     OW55868   6.813   0.018   2.655
17970SOL    HW155869   6.834   0.092   2.590
17970SOL    HW255870   6.881   0.018   2.728
17971SOL     OW55871   6.045   8.600   2.603
17971SOL    HW155872   5.974   8.573   2.668
17971SOL    HW255873   6.019   8.572   2.510
17972SOL     OW55874   6.618   7.997   1.878
17972SOL    HW155875   6.577   8.079   1.839
17972SOL    HW255876   6.682   8.023   1.951
17973SOL     OW55877   5.664   8.004   3.248
17973SOL    HW155878   5.756   8.003   3.207
17973SOL    HW255879   5.658   8.078   3.315
17974SOL     OW55880   6.147   7.670   3.009
17974SOL    HW155881   6.185   7.586   3.046
17974SOL    HW255882   6.059   7.689   3.053
17975SOL     OW55883   6.452   7.902   2.504
17975SOL    HW155884   6.420   7.974   2.442
17975SOL    HW255885   6.476   7.821   2.451
17976SOL     OW55886   6.603   7.487   2.615
17976SOL    HW155887   6.531   7.492   2.546
17976SOL    HW255888   6.579   7.418   2.684
17977SOL     OW55889   7.015   8.621   2.729
17977SOL    HW155890   6.960   8.537   2.722
17977SOL    HW255891   7.041   8.650   2.637
17978SOL     OW55892   7.052   8.038   2.854
17978SOL    HW155893   7.022   7.943   2.861
17978SOL    HW255894   7.125   8.054   2.920
17979SOL     OW55895   7.443   8.281   2.239
17979SOL    HW155896   7.485   8.217   2.303
17979SOL    HW255897   7.405   8.230   2.161
17980SOL     OW55898   6.074   8.833   2.036
17980SOL    HW155899   5.987   8.818   2.083
17980SOL    HW255900   6.057   8.859   1.941
17981SOL     OW55901   7.250   8.728   2.519
17981SOL    HW155902   7.349   8.736   2.533
17981SOL    HW255903   7.205   8.812   2.550
17982SOL     OW55904   6.976   8.023   1.940
17982SOL    HW155905   6.922   8.002   2.021
17982SOL    HW255906   7.067   7.982   1.949
17983SOL     OW55907   6.113   7.704   2.190
17983SOL    HW155908   6.140   7.645   2.115
17983SOL    HW255909   6.113   7.799   2.159
17984SOL     OW55910   7.340   8.671   3.450
17984SOL    HW155911   7.431   8.632   3.437
17984SOL    HW255912   7.348   8.767   3.474
17985SOL     OW55913   6.650   8.795   3.202
17985SOL    HW155914   6.570   8.772   3.257
17985SOL    HW255915   6.733   8.769   3.251
17986SOL     OW55916   6.697   8.643   2.962
17986SOL    HW155917   6.657   8.687   3.043
17986SOL    HW255918   6.656   8.680   2.879
17987SOL     OW55919   7.224   8.547   2.941
17987SOL    HW155920   7.229   8.628   3.000
17987SOL    HW255921   7.138   8.549   2.890
17988SOL     OW55922   6.501   7.537   3.264
17988SOL    HW155923   6.526   7.517   3.169
17988SOL    HW255924   6.573   7.593   3.306
17989SOL     OW55925   6.566   8.564   3.581
17989SOL    HW155926   6.467   8.570   3.591
17989SOL    HW255927   6.589   8.484   3.525
17990SOL     OW55928   6.291   8.498   2.230
17990SOL    HW155929   6.277   8.505   2.329
17990SOL    HW255930   6.375   8.447   2.212
17991SOL     OW55931   5.996   8.261   3.113
17991SOL    HW155932   6.082   8.273   3.163
17991SOL    HW255933   5.954   8.174   3.140
17992SOL     OW55934   6.860   7.834   3.124
17992SOL    HW155935   6.881   7.908   3.188
17992SOL    HW255936   6.771   7.851   3.081
17993SOL     OW55937   5.953   8.548   2.363
17993SOL    HW155938   5.946   8.631   2.307
17993SOL    HW255939   5.957   8.468   2.303
17994SOL     OW55940   6.152   7.985   2.727
17994SOL    HW155941   6.164   8.051   2.653
17994SOL    HW255942   6.198   8.019   2.810
17995SOL     OW55943   6.838   8.796   2.250
17995SOL    HW155944   6.888   8.873   2.290
17995SOL    HW255945   6.743   8.798   2.282
17996SOL     OW55946   6.858   8.893   3.004
17996SOL    HW155947   6.905   8.906   3.091
17996SOL    HW255948   6.792   8.819   3.013
17997SOL     OW55949   7.168   8.087   2.334
17997SOL    HW155950   7.137   8.148   2.407
17997SOL    HW255951   7.218   8.139   2.265
17998SOL     OW55952   5.940   8.958   3.191
17998SOL    HW155953   5.919   8.914   3.104
17998SOL    HW255954   6.037   8.984   3.194
17999SOL     OW55955   5.988   8.199   3.460
17999SOL    HW155956   6.056   8.254   3.413
17999SOL    HW255957   6.028   8.111   3.487
18000SOL     OW55958   7.173   8.227   3.532
18000SOL    HW155959   7.081   8.265   3.527
18000SOL    HW255960   7.233   8.274   3.467
18001SOL     OW55961   6.599   7.553   3.632
18001SOL    HW155962   6.605   7.638   3.580
18001SOL    HW255963   6.631   7.477   3.575
18002SOL     OW55964   6.090   7.498   3.602
18002SOL    HW155965   6.048   7.441   3.532
18002SOL    HW255966   6.024   7.567   3.634
18003SOL     OW55967   6.159   8.318   2.891
18003SOL    HW155968   6.203   8.407   2.882
18003SOL    HW255969   6.096   8.318   2.968
18004SOL     OW55970   6.946   8.310   2.907
18004SOL    HW155971   6.871   8.310   2.841
18004SOL    HW255972   6.983   8.218   2.916
18005SOL     OW55973   6.795   7.973   2.137
18005SOL    HW155974   6.808   7.889   2.191
18005SOL    HW255975   6.766   8.047   2.197
18006SOL     OW55976   5.893   7.661   3.093
18006SOL    HW155977   5.870   7.698   3.183
18006SOL    HW255978   5.863   7.566   3.087
18007SOL     OW55979   5.623   8.758   3.144
18007SOL    HW155980   5.676   8.709   3.212
18007SOL    HW255981   5.645   8.856   3.149
18008SOL     OW55982   6.318   8.082   2.926
18008SOL    HW155983   6.377   8.056   2.850
18008SOL    HW255984   6.290   8.178   2.915
18009SOL     OW55985   7.314   8.383   3.716
18009SOL    HW155986   7.268   8.376   3.627
18009SOL    HW255987   7.252   8.427   3.782
18010SOL     OW55988   5.893   7.511   2.480
18010SOL    HW155989   5.882   7.605   2.513
18010SOL    HW255990   5.888   7.448   2.557
18011SOL     OW55991   7.208   7.815   2.236
18011SOL    HW155992   7.210   7.739   2.300
18011SOL    HW255993   7.160   7.892   2.276
18012SOL     OW55994   6.609   8.214   2.828
18012SOL    HW155995   6.624   8.235   2.924
18012SOL    HW255996   6.579   8.119   2.819
18013SOL     OW55997   7.445   8.966   3.467
18013SOL    HW155998   7.459   8.993   3.372
18013SOL    HW255999   7.528   8.988   3.520
18014SOL     OW56000   5.936   8.346   3.666
18014SOL    HW156001   6.012   8.390   3.714
18014SOL    HW256002   5.971   8.299   3.584
18015SOL     OW56003   7.126   7.722   1.987
18015SOL    HW156004   7.065   7.647   2.010
18015SOL    HW256005   7.148   7.774   2.070
18016SOL     OW56006   6.889   8.286   1.904
18016SOL    HW156007   6.923   8.193   1.919
18016SOL    HW256008   6.907   8.313   1.809
18017SOL     OW56009   6.654   8.781   2.711
18017SOL    HW156010   6.661   8.697   2.656
18017SOL    HW256011   6.716   8.850   2.675
18018SOL     OW56012   5.905   8.258   2.811
18018SOL    HW156013   5.998   8.294   2.816
18018SOL    HW256014   5.899   8.173   2.863
18019SOL     OW56015   5.925   7.957   2.868
18019SOL    HW156016   5.873   7.874   2.851
18019SOL    HW256017   6.002   7.962   2.804
18020SOL     OW56018   6.097   7.863   3.670
18020SOL    HW156019   6.079   7.908   3.758
18020SOL    HW256020   6.139   7.928   3.607
18021SOL     OW56021   6.724   7.828   3.540
18021SOL    HW156022   6.679   7.891   3.604
18021SOL    HW256023   6.817   7.859   3.523
18022SOL     OW56024   6.746   7.655   3.339
18022SOL    HW156025   6.746   7.719   3.416
18022SOL    HW256026   6.774   7.703   3.256
18023SOL     OW56027   5.594   8.774   2.062
18023SOL    HW156028   5.501   8.795   2.031
18023SOL    HW256029   5.604   8.675   2.075
18024SOL     OW56030   6.588   8.244   3.100
18024SOL    HW156031   6.629   8.212   3.186
18024SOL    HW256032   6.492   8.217   3.097
18025SOL     OW56033   5.626   7.992   2.976
18025SOL    HW156034   5.711   7.959   2.935
18025SOL    HW256035   5.639   8.007   3.074
18026SOL     OW56036   5.775   7.968   3.584
18026SOL    HW156037   5.834   7.928   3.514
18026SOL    HW256038   5.717   8.039   3.543
18027SOL     OW56039   6.955   8.398   3.522
18027SOL    HW156040   6.994   8.487   3.542
18027SOL    HW256041   6.965   8.378   3.425
18028SOL     OW56042   6.401   8.020   2.187
18028SOL    HW156043   6.408   7.931   2.141
18028SOL    HW256044   6.307   8.054   2.179
18029SOL     OW56045   7.243   8.052   3.068
18029SOL    HW156046   7.205   7.983   3.130
18029SOL    HW256047   7.325   8.016   3.024
18030SOL     OW56048   5.838   0.012   3.606
18030SOL    HW156049   5.808   0.069   3.682
18030SOL    HW256050   5.831  -0.085   3.632
18031SOL     OW56051   6.257   7.912   3.131
18031SOL    HW156052   6.223   7.823   3.101
18031SOL    HW256053   6.283   7.966   3.051
18032SOL     OW56054   6.059   7.948   2.053
18032SOL    HW156055   6.120   8.028   2.057
18032SOL    HW256056   5.964   7.979   2.060
18033SOL     OW56057   5.745   8.585   3.328
18033SOL    HW156058   5.767   8.524   3.404
18033SOL    HW256059   5.755   8.536   3.242
18034SOL     OW56060   6.933   8.507   3.096
18034SOL    HW156061   6.957   8.444   3.022
18034SOL    HW256062   6.843   8.547   3.078
18035SOL     OW56063   6.888   8.303   2.171
18035SOL    HW156064   6.802   8.272   2.213
18035SOL    HW256065   6.884   8.289   2.072
18036SOL     OW56066   5.669   8.706   2.884
18036SOL    HW156067   5.664   8.705   2.984
18036SOL    HW256068   5.586   8.665   2.846
18037SOL     OW56069   6.489   7.534   1.995
18037SOL    HW156070   6.540   7.535   1.909
18037SOL    HW256071   6.545   7.492   2.066
18038SOL     OW56072   7.312   7.583   2.385
18038SOL    HW156073   7.385   7.566   2.318
18038SOL    HW256074   7.281   7.496   2.423
18039SOL     OW56075   6.866   8.375   2.534
18039SOL    HW156076   6.926   8.294   2.536
18039SOL    HW256077   6.906   8.444   2.474
18040SOL     OW56078   6.416   8.721   3.284
18040SOL    HW156079   6.411   8.754   3.379
18040SOL    HW256080   6.330   8.740   3.238
18041SOL     OW56081   7.427   7.623   2.825
18041SOL    HW156082   7.466   7.538   2.789
18041SOL    HW256083   7.329   7.625   2.806
18042SOL     OW56084   5.849   7.774   2.582
18042SOL    HW156085   5.770   7.825   2.548
18042SOL    HW256086   5.840   7.759   2.680
18043SOL     OW56087   6.408   8.450   3.234
18043SOL    HW156088   6.448   8.449   3.142
18043SOL    HW256089   6.418   8.542   3.274
18044SOL     OW56090   6.502   8.358   2.153
18044SOL    HW156091   6.565   8.396   2.085
18044SOL    HW256092   6.542   8.275   2.192
18045SOL     OW56093   5.958   8.736   3.352
18045SOL    HW156094   5.945   8.829   3.318
18045SOL    HW256095   5.874   8.684   3.339
18046SOL     OW56096   7.200   8.740   3.151
18046SOL    HW156097   7.260   8.743   3.231
18046SOL    HW256098   7.125   8.804   3.164
18047SOL     OW56099   6.625   8.546   2.558
18047SOL    HW156100   6.555   8.499   2.612
18047SOL    HW256101   6.684   8.478   2.515
18048SOL     OW56102   6.600   7.684   2.833
18048SOL    HW156103   6.592   7.648   2.740
18048SOL    HW256104   6.598   7.608   2.898
18049SOL     OW56105   7.295   7.833   3.243
18049SOL    HW156106   7.368   7.902   3.247
18049SOL    HW256107   7.323   7.758   3.184
18050SOL     OW56108   5.841   8.796   2.152
18050SOL    HW156109   5.745   8.797   2.125
18050SOL    HW256110   5.853   8.849   2.236
18051SOL     OW56111   5.691   8.461   3.588
18051SOL    HW156112   5.614   8.428   3.642
18051SOL    HW256113   5.776   8.431   3.630
18052SOL     OW56114   6.258   7.651   3.351
18052SOL    HW156115   6.348   7.635   3.311
18052SOL    HW256116   6.266   7.656   3.450
18053SOL     OW56117   5.661   7.793   1.895
18053SOL    HW156118   5.569   7.765   1.866
18053SOL    HW256119   5.692   7.870   1.839
18054SOL     OW56120   7.026   8.304   3.260
18054SOL    HW156121   6.969   8.356   3.197
18054SOL    HW256122   7.122   8.316   3.236
18055SOL     OW56123   5.658   7.614   2.180
18055SOL    HW156124   5.641   7.697   2.126
18055SOL    HW256125   5.748   7.577   2.158
18056SOL     OW56126   6.769   8.783   1.981
18056SOL    HW156127   6.670   8.772   1.983
18056SOL    HW256128   6.803   8.798   2.074
18057SOL     OW56129   6.199   8.290   3.293
18057SOL    HW156130   6.255   8.371   3.276
18057SOL    HW256131   6.258   8.210   3.296
18058SOL     OW56132   6.302   8.013   3.570
18058SOL    HW156133   6.321   8.078   3.644
18058SOL    HW256134   6.362   7.933   3.579
18059SOL     OW56135   7.036   8.668   3.495
18059SOL    HW156136   7.027   8.658   3.594
18059SOL    HW256137   7.132   8.661   3.469
18060SOL     OW56138   7.260   8.331   3.116
18060SOL    HW156139   7.233   8.242   3.079
18060SOL    HW256140   7.261   8.399   3.043
18061SOL     OW56141   6.811   7.773   2.311
18061SOL    HW156142   6.876   7.699   2.300
18061SOL    HW256143   6.831   7.823   2.395
18062SOL     OW56144   6.180   8.193   2.514
18062SOL    HW156145   6.230   8.278   2.495
18062SOL    HW256146   6.092   8.195   2.466
18063SOL     OW56147   7.363   7.790   3.504
18063SOL    HW156148   7.346   7.821   3.410
18063SOL    HW256149   7.279   7.753   3.542
18064SOL     OW56150   7.316   8.382   3.379
18064SOL    HW156151   7.354   8.473   3.394
18064SOL    HW256152   7.308   8.365   3.280
18065SOL     OW56153   6.445   8.822   1.878
18065SOL    HW156154   6.399   8.837   1.966
18065SOL    HW256155   6.489   8.907   1.848
18066SOL     OW56156   6.445   8.404   2.723
18066SOL    HW156157   6.499   8.335   2.771
18066SOL    HW256158   6.413   8.473   2.789
18067SOL     OW56159   6.669   8.432   1.949
18067SOL    HW156160   6.646   8.485   1.867
18067SOL    HW256161   6.750   8.376   1.930
18068SOL     OW56162   5.807   8.762   3.706
18068SOL    HW156163   5.742   8.689   3.685
18068SOL    HW256164   5.811   8.776   3.804
18069SOL     OW56165   5.665   8.688   2.515
18069SOL    HW156166   5.664   8.641   2.603
18069SOL    HW256167   5.747   8.660   2.464
18070SOL     OW56168   6.258   8.839   3.486
18070SOL    HW156169   6.180   8.789   3.524
18070SOL    HW256170   6.255   8.934   3.517
18071SOL     OW56171   7.410   7.640   3.089
18071SOL    HW156172   7.406   7.550   3.133
18071SOL    HW256173   7.413   7.629   2.990
18072SOL     OW56174   6.014   7.872   2.382
18072SOL    HW156175   6.044   7.800   2.320
18072SOL    HW256176   5.975   7.832   2.465
18073SOL     OW56177   7.291   8.935   2.966
18073SOL    HW156178   7.198   8.910   2.939
18073SOL    HW256179   7.317   8.885   3.048
18074SOL     OW56180   5.903   7.995   3.142
18074SOL    HW156181   5.941   7.936   3.214
18074SOL    HW256182   5.943   7.969   3.054
18075SOL     OW56183   7.010   7.662   2.974
18075SOL    HW156184   7.062   7.597   3.029
18075SOL    HW256185   6.961   7.725   3.035
18076SOL     OW56186   6.587   7.482   3.016
18076SOL    HW156187   6.524   7.410   2.985
18076SOL    HW256188   6.680   7.446   3.016
18077SOL     OW56189   6.356   8.778   2.163
18077SOL    HW156190   6.310   8.691   2.180
18077SOL    HW256191   6.447   8.775   2.204
18078SOL     OW56192   6.204   0.015   3.146
18078SOL    HW156193   6.199   0.097   3.203
18078SOL    HW256194   6.293   0.012   3.101
18079SOL     OW56195   6.938   7.500   2.030
18079SOL    HW156196   6.973   7.459   1.946
18079SOL    HW256197   6.848   7.462   2.050
18080SOL     OW56198   6.886   7.901   2.553
18080SOL    HW156199   6.827   7.981   2.557
18080SOL    HW256200   6.901   7.866   2.646
18081SOL     OW56201   7.179   7.669   2.744
18081SOL    HW156202   7.095   7.668   2.798
18081SOL    HW256203   7.181   7.752   2.688
18082SOL     OW56204   5.625   8.525   2.162
18082SOL    HW156205   5.724   8.514   2.153
18082SOL    HW256206   5.585   8.439   2.194
18083SOL     OW56207   5.816   8.076   3.837
18083SOL    HW156208   5.723   8.074   3.874
18083SOL    HW256209   5.817   8.037   3.745
18084SOL     OW56210   5.811   7.723   4.720
18084SOL    HW156211   5.846   7.706   4.812
18084SOL    HW256212   5.723   7.678   4.708
18085SOL     OW56213   5.605   7.816   4.371
18085SOL    HW156214   5.523   7.859   4.410
18085SOL    HW256215   5.577   7.743   4.308
18086SOL     OW56216   6.155   8.723   4.889
18086SOL    HW156217   6.062   8.716   4.852
18086SOL    HW256218   6.166   8.812   4.933
18087SOL     OW56219   7.141   8.959   4.427
18087SOL    HW156220   7.084   8.943   4.508
18087SOL    HW256221   7.082   8.969   4.347
18088SOL     OW56222   7.329   8.066   4.580
18088SOL    HW156223   7.362   8.160   4.580
18088SOL    HW256224   7.380   8.012   4.646
18089SOL     OW56225   6.721   8.151   4.441
18089SOL    HW156226   6.778   8.229   4.416
18089SOL    HW256227   6.661   8.177   4.517
18090SOL     OW56228   7.341   8.055   3.955
18090SOL    HW156229   7.329   8.042   3.856
18090SOL    HW256230   7.311   7.974   4.004
18091SOL     OW56231   6.354   8.592   4.747
18091SOL    HW156232   6.276   8.609   4.807
18091SOL    HW256233   6.388   8.679   4.711
18092SOL     OW56234   6.436   8.246   5.547
18092SOL    HW156235   6.432   8.322   5.612
18092SOL    HW256236   6.458   8.282   5.456
18093SOL     OW56237   6.271   8.460   4.389
18093SOL    HW156238   6.340   8.444   4.459
18093SOL    HW256239   6.198   8.517   4.427
18094SOL     OW56240   6.272   8.609   5.527
18094SOL    HW156241   6.332   8.688   5.541
18094SOL    HW256242   6.186   8.640   5.486
18095SOL     OW56243   5.921   8.883   4.785
18095SOL    HW156244   5.843   8.852   4.732
18095SOL    HW256245   5.979   8.941   4.728
18096SOL     OW56246   7.046   8.953   5.063
18096SOL    HW156247   7.070   9.047   5.089
18096SOL    HW256248   7.030   8.899   5.145
18097SOL     OW56249   6.024   7.840   5.223
18097SOL    HW156250   6.106   7.784   5.232
18097SOL    HW256251   5.943   7.782   5.227
18098SOL     OW56252   7.189   7.895   4.461
18098SOL    HW156253   7.115   7.941   4.411
18098SOL    HW256254   7.240   7.963   4.514
18099SOL     OW56255   5.817   0.161   4.207
18099SOL    HW156256   5.851   0.238   4.261
18099SOL    HW256257   5.861   0.161   4.117
18100SOL     OW56258   6.713   8.789   5.414
18100SOL    HW156259   6.760   8.789   5.502
18100SOL    HW256260   6.665   8.702   5.403
18101SOL     OW56261   5.816   8.882   4.262
18101SOL    HW156262   5.790   8.978   4.262
18101SOL    HW256263   5.745   8.828   4.307
18102SOL     OW56264   5.826   8.539   4.610
18102SOL    HW156265   5.840   8.455   4.662
18102SOL    HW256266   5.771   8.603   4.665
18103SOL     OW56267   6.192   8.412   3.847
18103SOL    HW156268   6.199   8.496   3.793
18103SOL    HW256269   6.238   8.425   3.935
18104SOL     OW56270   7.180   7.562   5.204
18104SOL    HW156271   7.162   7.629   5.132
18104SOL    HW256272   7.177   7.608   5.293
18105SOL     OW56273   5.708   8.091   4.287
18105SOL    HW156274   5.663   8.003   4.304
18105SOL    HW256275   5.707   8.145   4.371
18106SOL     OW56276   5.613   0.044   3.841
18106SOL    HW156277   5.594  -0.052   3.862
18106SOL    HW256278   5.580   0.102   3.916
18107SOL     OW56279   7.275   8.370   4.336
18107SOL    HW156280   7.370   8.341   4.344
18107SOL    HW256281   7.267   8.435   4.261
18108SOL     OW56282   7.227   8.556   4.156
18108SOL    HW156283   7.313   8.558   4.104
18108SOL    HW256284   7.241   8.603   4.244
18109SOL     OW56285   5.699   8.185   5.321
18109SOL    HW156286   5.787   8.172   5.366
18109SOL    HW256287   5.686   8.282   5.299
18110SOL     OW56288   6.199   8.813   4.450
18110SOL    HW156289   6.150   8.726   4.459
18110SOL    HW256290   6.176   8.856   4.363
18111SOL     OW56291   6.879   8.676   5.147
18111SOL    HW156292   6.916   8.603   5.089
18111SOL    HW256293   6.931   8.681   5.232
18112SOL     OW56294   6.395   7.452   4.226
18112SOL    HW156295   6.435   7.543   4.217
18112SOL    HW256296   6.295   7.460   4.232
18113SOL     OW56297   5.783   8.424   4.988
18113SOL    HW156298   5.872   8.379   4.974
18113SOL    HW256299   5.710   8.359   4.969
18114SOL     OW56300   7.111   8.447   3.914
18114SOL    HW156301   7.048   8.371   3.927
18114SOL    HW256302   7.159   8.465   4.000
18115SOL     OW56303   5.903   7.699   5.525
18115SOL    HW156304   5.974   7.770   5.531
18115SOL    HW256305   5.815   7.738   5.553
18116SOL     OW56306   7.052   8.865   4.677
18116SOL    HW156307   6.993   8.871   4.757
18116SOL    HW256308   7.037   8.777   4.631
18117SOL     OW56309   6.184   8.177   3.994
18117SOL    HW156310   6.208   8.246   3.926
18117SOL    HW256311   6.106   8.210   4.048
18118SOL     OW56312   6.867   7.793   4.668
18118SOL    HW156313   6.781   7.743   4.655
18118SOL    HW256314   6.929   7.739   4.724
18119SOL     OW56315   6.393   8.053   5.189
18119SOL    HW156316   6.346   8.050   5.278
18119SOL    HW256317   6.342   7.998   5.123
18120SOL     OW56318   6.980   7.917   5.398
18120SOL    HW156319   6.960   7.960   5.486
18120SOL    HW256320   7.058   7.855   5.407
18121SOL     OW56321   6.559   8.338   5.296
18121SOL    HW156322   6.605   8.254   5.267
18121SOL    HW256323   6.503   8.372   5.221
18122SOL     OW56324   6.577   7.858   4.966
18122SOL    HW156325   6.500   7.892   5.020
18122SOL    HW256326   6.543   7.807   4.887
18123SOL     OW56327   6.627   8.149   4.153
18123SOL    HW156328   6.653   8.145   4.249
18123SOL    HW256329   6.542   8.098   4.139
18124SOL     OW56330   5.662   8.259   4.513
18124SOL    HW156331   5.761   8.247   4.522
18124SOL    HW256332   5.638   8.354   4.534
18125SOL     OW56333   6.451   7.796   3.919
18125SOL    HW156334   6.510   7.859   3.870
18125SOL    HW256335   6.470   7.702   3.890
18126SOL     OW56336   7.305   8.033   5.555
18126SOL    HW156337   7.279   8.122   5.519
18126SOL    HW256338   7.303   7.965   5.482
18127SOL     OW56339   6.948   8.592   4.269
18127SOL    HW156340   7.031   8.563   4.221
18127SOL    HW256341   6.899   8.659   4.213
18128SOL     OW56342   6.136   7.644   4.609
18128SOL    HW156343   6.131   7.639   4.709
18128SOL    HW256344   6.138   7.740   4.580
18129SOL     OW56345   6.594   8.904   4.201
18129SOL    HW156346   6.548   8.976   4.149
18129SOL    HW256347   6.590   8.924   4.299
18130SOL     OW56348   7.381   8.514   4.597
18130SOL    HW156349   7.319   8.499   4.521
18130SOL    HW256350   7.329   8.525   4.682
18131SOL     OW56351   6.813   8.998   5.230
18131SOL    HW156352   6.819   8.921   5.294
18131SOL    HW256353   6.761   8.972   5.150
18132SOL     OW56354   5.907   8.391   3.966
18132SOL    HW156355   5.989   8.430   3.924
18132SOL    HW256356   5.880   8.309   3.917
18133SOL     OW56357   7.044   8.183   4.452
18133SOL    HW156358   7.039   8.118   4.527
18133SOL    HW256359   7.124   8.242   4.465
18134SOL     OW56360   6.047   8.714   5.451
18134SOL    HW156361   5.997   8.715   5.365
18134SOL    HW256362   5.984   8.696   5.527
18135SOL     OW56363   6.697   0.224   3.961
18135SOL    HW156364   6.637   0.162   4.011
18135SOL    HW256365   6.728   0.180   3.876
18136SOL     OW56366   5.788   7.733   5.222
18136SOL    HW156367   5.708   7.793   5.209
18136SOL    HW256368   5.778   7.684   5.308
18137SOL     OW56369   7.218   8.825   3.805
18137SOL    HW156370   7.186   8.919   3.795
18137SOL    HW256371   7.142   8.762   3.793
18138SOL     OW56372   6.986   7.555   4.150
18138SOL    HW156373   6.962   7.518   4.060
18138SOL    HW256374   7.085   7.571   4.154
18139SOL     OW56375   5.968   8.148   4.204
18139SOL    HW156376   6.013   8.058   4.201
18139SOL    HW256377   5.874   8.137   4.237
18140SOL     OW56378   7.133   7.670   5.453
18140SOL    HW156379   7.128   7.707   5.545
18140SOL    HW256380   7.061   7.601   5.441
18141SOL     OW56381   6.200   7.570   3.841
18141SOL    HW156382   6.298   7.548   3.848
18141SOL    HW256383   6.169   7.553   3.748
18142SOL     OW56384   6.367   7.712   5.473
18142SOL    HW156385   6.434   7.651   5.516
18142SOL    HW256386   6.294   7.731   5.538
18143SOL     OW56387   6.937   8.038   5.157
18143SOL    HW156388   6.965   7.995   5.242
18143SOL    HW256389   6.962   8.134   5.158
18144SOL     OW56390   6.389   8.850   4.648
18144SOL    HW156391   6.479   8.864   4.606
18144SOL    HW256392   6.318   8.852   4.577
18145SOL     OW56393   6.508   7.951   4.623
18145SOL    HW156394   6.483   7.942   4.527
18145SOL    HW256395   6.556   7.869   4.654
18146SOL     OW56396   6.125   7.512   4.236
18146SOL    HW156397   6.044   7.513   4.294
18146SOL    HW256398   6.128   7.595   4.181
18147SOL     OW56399   7.020   8.636   3.765
18147SOL    HW156400   7.052   8.560   3.822
18147SOL    HW256401   6.928   8.663   3.795
18148SOL     OW56402   5.883   7.483   3.895
18148SOL    HW156403   5.932   7.567   3.874
18148SOL    HW256404   5.945   7.418   3.940
18149SOL     OW56405   6.521   7.684   4.204
18149SOL    HW156406   6.473   7.725   4.126
18149SOL    HW256407   6.620   7.682   4.185
18150SOL     OW56408   6.662   8.131   5.188
18150SOL    HW156409   6.582   8.070   5.191
18150SOL    HW256410   6.743   8.078   5.164
18151SOL     OW56411   6.813   0.018   4.517
18151SOL    HW156412   6.834   0.092   4.452
18151SOL    HW256413   6.881   0.018   4.590
18152SOL     OW56414   6.045   8.600   4.465
18152SOL    HW156415   5.974   8.573   4.530
18152SOL    HW256416   6.019   8.572   4.372
18153SOL     OW56417   6.618   7.997   3.740
18153SOL    HW156418   6.577   8.079   3.701
18153SOL    HW256419   6.682   8.023   3.813
18154SOL     OW56420   5.664   8.004   5.110
18154SOL    HW156421   5.756   8.003   5.069
18154SOL    HW256422   5.658   8.078   5.177
18155SOL     OW56423   6.147   7.670   4.871
18155SOL    HW156424   6.185   7.586   4.908
18155SOL    HW256425   6.059   7.689   4.915
18156SOL     OW56426   6.452   7.902   4.366
18156SOL    HW156427   6.420   7.974   4.304
18156SOL    HW256428   6.476   7.821   4.313
18157SOL     OW56429   6.603   7.487   4.477
18157SOL    HW156430   6.531   7.492   4.408
18157SOL    HW256431   6.579   7.418   4.546
18158SOL     OW56432   7.015   8.621   4.591
18158SOL    HW156433   6.960   8.537   4.584
18158SOL    HW256434   7.041   8.650   4.499
18159SOL     OW56435   7.052   8.038   4.716
18159SOL    HW156436   7.022   7.943   4.723
18159SOL    HW256437   7.125   8.054   4.782
18160SOL     OW56438   7.443   8.281   4.101
18160SOL    HW156439   7.485   8.217   4.165
18160SOL    HW256440   7.405   8.230   4.023
18161SOL     OW56441   6.074   8.833   3.898
18161SOL    HW156442   5.987   8.818   3.945
18161SOL    HW256443   6.057   8.859   3.803
18162SOL     OW56444   7.250   8.728   4.381
18162SOL    HW156445   7.349   8.736   4.395
18162SOL    HW256446   7.205   8.812   4.412
18163SOL     OW56447   6.976   8.023   3.802
18163SOL    HW156448   6.922   8.002   3.883
18163SOL    HW256449   7.067   7.982   3.811
18164SOL     OW56450   6.113   7.704   4.052
18164SOL    HW156451   6.140   7.645   3.977
18164SOL    HW256452   6.113   7.799   4.021
18165SOL     OW56453   7.340   8.671   5.312
18165SOL    HW156454   7.431   8.632   5.299
18165SOL    HW256455   7.348   8.767   5.336
18166SOL     OW56456   6.650   8.795   5.064
18166SOL    HW156457   6.570   8.772   5.119
18166SOL    HW256458   6.733   8.769   5.113
18167SOL     OW56459   6.697   8.643   4.824
18167SOL    HW156460   6.657   8.687   4.905
18167SOL    HW256461   6.656   8.680   4.741
18168SOL     OW56462   7.224   8.547   4.803
18168SOL    HW156463   7.229   8.628   4.862
18168SOL    HW256464   7.138   8.549   4.752
18169SOL     OW56465   6.501   7.537   5.126
18169SOL    HW156466   6.526   7.517   5.031
18169SOL    HW256467   6.573   7.593   5.168
18170SOL     OW56468   6.566   8.564   5.443
18170SOL    HW156469   6.467   8.570   5.453
18170SOL    HW256470   6.589   8.484   5.387
18171SOL     OW56471   6.291   8.498   4.092
18171SOL    HW156472   6.277   8.505   4.191
18171SOL    HW256473   6.375   8.447   4.074
18172SOL     OW56474   5.996   8.261   4.975
18172SOL    HW156475   6.082   8.273   5.025
18172SOL    HW256476   5.954   8.174   5.002
18173SOL     OW56477   6.860   7.834   4.986
18173SOL    HW156478   6.881   7.908   5.050
18173SOL    HW256479   6.771   7.851   4.943
18174SOL     OW56480   5.953   8.548   4.225
18174SOL    HW156481   5.946   8.631   4.169
18174SOL    HW256482   5.957   8.468   4.165
18175SOL     OW56483   6.152   7.985   4.589
18175SOL    HW156484   6.164   8.051   4.515
18175SOL    HW256485   6.198   8.019   4.672
18176SOL     OW56486   6.838   8.796   4.112
18176SOL    HW156487   6.888   8.873   4.152
18176SOL    HW256488   6.743   8.798   4.144
18177SOL     OW56489   6.858   8.893   4.866
18177SOL    HW156490   6.905   8.906   4.953
18177SOL    HW256491   6.792   8.819   4.875
18178SOL     OW56492   7.168   8.087   4.196
18178SOL    HW156493   7.137   8.148   4.269
18178SOL    HW256494   7.218   8.139   4.127
18179SOL     OW56495   5.940   8.958   5.053
18179SOL    HW156496   5.919   8.914   4.966
18179SOL    HW256497   6.037   8.984   5.056
18180SOL     OW56498   5.988   8.199   5.322
18180SOL    HW156499   6.056   8.254   5.275
18180SOL    HW256500   6.028   8.111   5.349
18181SOL     OW56501   7.173   8.227   5.394
18181SOL    HW156502   7.081   8.265   5.389
18181SOL    HW256503   7.233   8.274   5.329
18182SOL     OW56504   6.599   7.553   5.494
18182SOL    HW156505   6.605   7.638   5.442
18182SOL    HW256506   6.631   7.477   5.437
18183SOL     OW56507   6.090   7.498   5.464
18183SOL    HW156508   6.048   7.441   5.394
18183SOL    HW256509   6.024   7.567   5.496
18184SOL     OW56510   6.159   8.318   4.753
18184SOL    HW156511   6.203   8.407   4.744
18184SOL    HW256512   6.096   8.318   4.830
18185SOL     OW56513   6.946   8.310   4.769
18185SOL    HW156514   6.871   8.310   4.703
18185SOL    HW256515   6.983   8.218   4.778
18186SOL     OW56516   6.795   7.973   3.999
18186SOL    HW156517   6.808   7.889   4.053
18186SOL    HW256518   6.766   8.047   4.059
18187SOL     OW56519   5.893   7.661   4.955
18187SOL    HW156520   5.870   7.698   5.045
18187SOL    HW256521   5.863   7.566   4.949
18188SOL     OW56522   5.623   8.758   5.006
18188SOL    HW156523   5.676   8.709   5.074
18188SOL    HW256524   5.645   8.856   5.011
18189SOL     OW56525   6.318   8.082   4.788
18189SOL    HW156526   6.377   8.056   4.712
18189SOL    HW256527   6.290   8.178   4.777
18190SOL     OW56528   7.314   8.383   5.578
18190SOL    HW156529   7.268   8.376   5.489
18190SOL    HW256530   7.252   8.427   5.644
18191SOL     OW56531   5.893   7.511   4.342
18191SOL    HW156532   5.882   7.605   4.375
18191SOL    HW256533   5.888   7.448   4.419
18192SOL     OW56534   7.208   7.815   4.098
18192SOL    HW156535   7.210   7.739   4.162
18192SOL    HW256536   7.160   7.892   4.138
18193SOL     OW56537   6.609   8.214   4.690
18193SOL    HW156538   6.624   8.235   4.786
18193SOL    HW256539   6.579   8.119   4.681
18194SOL     OW56540   7.445   8.966   5.329
18194SOL    HW156541   7.459   8.993   5.234
18194SOL    HW256542   7.528   8.988   5.382
18195SOL     OW56543   5.936   8.346   5.528
18195SOL    HW156544   6.012   8.390   5.576
18195SOL    HW256545   5.971   8.299   5.446
18196SOL     OW56546   7.126   7.722   3.849
18196SOL    HW156547   7.065   7.647   3.872
18196SOL    HW256548   7.148   7.774   3.932
18197SOL     OW56549   6.889   8.286   3.766
18197SOL    HW156550   6.923   8.193   3.781
18197SOL    HW256551   6.907   8.313   3.671
18198SOL     OW56552   6.654   8.781   4.573
18198SOL    HW156553   6.661   8.697   4.518
18198SOL    HW256554   6.716   8.850   4.537
18199SOL     OW56555   5.905   8.258   4.673
18199SOL    HW156556   5.998   8.294   4.678
18199SOL    HW256557   5.899   8.173   4.725
18200SOL     OW56558   5.925   7.957   4.730
18200SOL    HW156559   5.873   7.874   4.713
18200SOL    HW256560   6.002   7.962   4.666
18201SOL     OW56561   6.097   7.863   5.532
18201SOL    HW156562   6.079   7.908   5.620
18201SOL    HW256563   6.139   7.928   5.469
18202SOL     OW56564   6.724   7.828   5.402
18202SOL    HW156565   6.679   7.891   5.466
18202SOL    HW256566   6.817   7.859   5.385
18203SOL     OW56567   6.746   7.655   5.201
18203SOL    HW156568   6.746   7.719   5.278
18203SOL    HW256569   6.774   7.703   5.118
18204SOL     OW56570   5.594   8.774   3.924
18204SOL    HW156571   5.501   8.795   3.893
18204SOL    HW256572   5.604   8.675   3.937
18205SOL     OW56573   6.588   8.244   4.962
18205SOL    HW156574   6.629   8.212   5.048
18205SOL    HW256575   6.492   8.217   4.959
18206SOL     OW56576   5.626   7.992   4.838
18206SOL    HW156577   5.711   7.959   4.797
18206SOL    HW256578   5.639   8.007   4.936
18207SOL     OW56579   5.775   7.968   5.446
18207SOL    HW156580   5.834   7.928   5.376
18207SOL    HW256581   5.717   8.039   5.405
18208SOL     OW56582   6.955   8.398   5.384
18208SOL    HW156583   6.994   8.487   5.404
18208SOL    HW256584   6.965   8.378   5.287
18209SOL     OW56585   6.401   8.020   4.049
18209SOL    HW156586   6.408   7.931   4.003
18209SOL    HW256587   6.307   8.054   4.041
18210SOL     OW56588   7.243   8.052   4.930
18210SOL    HW156589   7.205   7.983   4.992
18210SOL    HW256590   7.325   8.016   4.886
18211SOL     OW56591   5.838   0.012   5.468
18211SOL    HW156592   5.808   0.069   5.544
18211SOL    HW256593   5.831  -0.085   5.494
18212SOL     OW56594   6.257   7.912   4.993
18212SOL    HW156595   6.223   7.823   4.963
18212SOL    HW256596   6.283   7.966   4.913
18213SOL     OW56597   6.059   7.948   3.915
18213SOL    HW156598   6.120   8.028   3.919
18213SOL    HW256599   5.964   7.979   3.922
18214SOL     OW56600   5.745   8.585   5.190
18214SOL    HW156601   5.767   8.524   5.266
18214SOL    HW256602   5.755   8.536   5.104
18215SOL     OW56603   6.933   8.507   4.958
18215SOL    HW156604   6.957   8.444   4.884
18215SOL    HW256605   6.843   8.547   4.940
18216SOL     OW56606   6.888   8.303   4.033
18216SOL    HW156607   6.802   8.272   4.075
18216SOL    HW256608   6.884   8.289   3.934
18217SOL     OW56609   5.669   8.706   4.746
18217SOL    HW156610   5.664   8.705   4.846
18217SOL    HW256611   5.586   8.665   4.708
18218SOL     OW56612   6.489   7.534   3.857
18218SOL    HW156613   6.540   7.535   3.771
18218SOL    HW256614   6.545   7.492   3.928
18219SOL     OW56615   7.312   7.583   4.247
18219SOL    HW156616   7.385   7.566   4.180
18219SOL    HW256617   7.281   7.496   4.285
18220SOL     OW56618   6.866   8.375   4.396
18220SOL    HW156619   6.926   8.294   4.398
18220SOL    HW256620   6.906   8.444   4.336
18221SOL     OW56621   6.416   8.721   5.146
18221SOL    HW156622   6.411   8.754   5.241
18221SOL    HW256623   6.330   8.740   5.100
18222SOL     OW56624   7.427   7.623   4.687
18222SOL    HW156625   7.466   7.538   4.651
18222SOL    HW256626   7.329   7.625   4.668
18223SOL     OW56627   5.849   7.774   4.444
18223SOL    HW156628   5.770   7.825   4.410
18223SOL    HW256629   5.840   7.759   4.542
18224SOL     OW56630   6.408   8.450   5.096
18224SOL    HW156631   6.448   8.449   5.004
18224SOL    HW256632   6.418   8.542   5.136
18225SOL     OW56633   6.502   8.358   4.015
18225SOL    HW156634   6.565   8.396   3.947
18225SOL    HW256635   6.542   8.275   4.054
18226SOL     OW56636   5.958   8.736   5.214
18226SOL    HW156637   5.945   8.829   5.180
18226SOL    HW256638   5.874   8.684   5.201
18227SOL     OW56639   7.200   8.740   5.013
18227SOL    HW156640   7.260   8.743   5.093
18227SOL    HW256641   7.125   8.804   5.026
18228SOL     OW56642   6.625   8.546   4.420
18228SOL    HW156643   6.555   8.499   4.474
18228SOL    HW256644   6.684   8.478   4.377
18229SOL     OW56645   6.600   7.684   4.695
18229SOL    HW156646   6.592   7.648   4.602
18229SOL    HW256647   6.598   7.608   4.760
18230SOL     OW56648   7.295   7.833   5.105
18230SOL    HW156649   7.368   7.902   5.109
18230SOL    HW256650   7.323   7.758   5.046
18231SOL     OW56651   5.841   8.796   4.014
18231SOL    HW156652   5.745   8.797   3.987
18231SOL    HW256653   5.853   8.849   4.098
18232SOL     OW56654   5.691   8.461   5.450
18232SOL    HW156655   5.614   8.428   5.504
18232SOL    HW256656   5.776   8.431   5.492
18233SOL     OW56657   6.258   7.651   5.213
18233SOL    HW156658   6.348   7.635   5.173
18233SOL    HW256659   6.266   7.656   5.312
18234SOL     OW56660   5.661   7.793   3.757
18234SOL    HW156661   5.569   7.765   3.728
18234SOL    HW256662   5.692   7.870   3.701
18235SOL     OW56663   7.026   8.304   5.122
18235SOL    HW156664   6.969   8.356   5.059
18235SOL    HW256665   7.122   8.316   5.098
18236SOL     OW56666   5.658   7.614   4.042
18236SOL    HW156667   5.641   7.697   3.988
18236SOL    HW256668   5.748   7.577   4.020
18237SOL     OW56669   6.769   8.783   3.843
18237SOL    HW156670   6.670   8.772   3.845
18237SOL    HW256671   6.803   8.798   3.936
18238SOL     OW56672   6.199   8.290   5.155
18238SOL    HW156673   6.255   8.371   5.138
18238SOL    HW256674   6.258   8.210   5.158
18239SOL     OW56675   6.302   8.013   5.432
18239SOL    HW156676   6.321   8.078   5.506
18239SOL    HW256677   6.362   7.933   5.441
18240SOL     OW56678   7.036   8.668   5.357
18240SOL    HW156679   7.027   8.658   5.456
18240SOL    HW256680   7.132   8.661   5.331
18241SOL     OW56681   7.260   8.331   4.978
18241SOL    HW156682   7.233   8.242   4.941
18241SOL    HW256683   7.261   8.399   4.905
18242SOL     OW56684   6.811   7.773   4.173
18242SOL    HW156685   6.876   7.699   4.162
18242SOL    HW256686   6.831   7.823   4.257
18243SOL     OW56687   6.180   8.193   4.376
18243SOL    HW156688   6.230   8.278   4.357
18243SOL    HW256689   6.092   8.195   4.328
18244SOL     OW56690   7.363   7.790   5.366
18244SOL    HW156691   7.346   7.821   5.272
18244SOL    HW256692   7.279   7.753   5.404
18245SOL     OW56693   7.316   8.382   5.241
18245SOL    HW156694   7.354   8.473   5.256
18245SOL    HW256695   7.308   8.365   5.142
18246SOL     OW56696   6.445   8.822   3.740
18246SOL    HW156697   6.399   8.837   3.828
18246SOL    HW256698   6.489   8.907   3.710
18247SOL     OW56699   6.445   8.404   4.585
18247SOL    HW156700   6.499   8.335   4.633
18247SOL    HW256701   6.413   8.473   4.651
18248SOL     OW56702   6.669   8.432   3.811
18248SOL    HW156703   6.646   8.485   3.729
18248SOL    HW256704   6.750   8.376   3.792
18249SOL     OW56705   5.807   8.762   5.568
18249SOL    HW156706   5.742   8.689   5.547
18249SOL    HW256707   5.811   8.776   5.666
18250SOL     OW56708   5.665   8.688   4.377
18250SOL    HW156709   5.664   8.641   4.465
18250SOL    HW256710   5.747   8.660   4.326
18251SOL     OW56711   6.258   8.839   5.348
18251SOL    HW156712   6.180   8.789   5.386
18251SOL    HW256713   6.255   8.934   5.379
18252SOL     OW56714   7.410   7.640   4.951
18252SOL    HW156715   7.406   7.550   4.995
18252SOL    HW256716   7.413   7.629   4.852
18253SOL     OW56717   6.014   7.872   4.244
18253SOL    HW156718   6.044   7.800   4.182
18253SOL    HW256719   5.975   7.832   4.327
18254SOL     OW56720   7.291   8.935   4.828
18254SOL    HW156721   7.198   8.910   4.801
18254SOL    HW256722   7.317   8.885   4.910
18255SOL     OW56723   5.903   7.995   5.004
18255SOL    HW156724   5.941   7.936   5.076
18255SOL    HW256725   5.943   7.969   4.916
18256SOL     OW56726   7.010   7.662   4.836
18256SOL    HW156727   7.062   7.597   4.891
18256SOL    HW256728   6.961   7.725   4.897
18257SOL     OW56729   6.587   7.482   4.878
18257SOL    HW156730   6.524   7.410   4.847
18257SOL    HW256731   6.680   7.446   4.878
18258SOL     OW56732   6.356   8.778   4.025
18258SOL    HW156733   6.310   8.691   4.042
18258SOL    HW256734   6.447   8.775   4.066
18259SOL     OW56735   6.204   0.015   5.008
18259SOL    HW156736   6.199   0.097   5.065
18259SOL    HW256737   6.293   0.012   4.963
18260SOL     OW56738   6.938   7.500   3.892
18260SOL    HW156739   6.973   7.459   3.808
18260SOL    HW256740   6.848   7.462   3.912
18261SOL     OW56741   6.886   7.901   4.415
18261SOL    HW156742   6.827   7.981   4.419
18261SOL    HW256743   6.901   7.866   4.508
18262SOL     OW56744   7.179   7.669   4.606
18262SOL    HW156745   7.095   7.668   4.660
18262SOL    HW256746   7.181   7.752   4.550
18263SOL     OW56747   5.625   8.525   4.024
18263SOL    HW156748   5.724   8.514   4.015
18263SOL    HW256749   5.585   8.439   4.056
18264SOL     OW56750   5.816   8.076   5.699
18264SOL    HW156751   5.723   8.074   5.736
18264SOL    HW256752   5.817   8.037   5.607
18265SOL     OW56753   5.811   7.723   6.582
18265SOL    HW156754   5.846   7.706   6.674
18265SOL    HW256755   5.723   7.678   6.570
18266SOL     OW56756   5.605   7.816   6.233
18266SOL    HW156757   5.523   7.859   6.272
18266SOL    HW256758   5.577   7.743   6.170
18267SOL     OW56759   6.155   8.723   6.751
18267SOL    HW156760   6.062   8.716   6.714
18267SOL    HW256761   6.166   8.812   6.795
18268SOL     OW56762   7.141   8.959   6.289
18268SOL    HW156763   7.084   8.943   6.370
18268SOL    HW256764   7.082   8.969   6.209
18269SOL     OW56765   7.329   8.066   6.442
18269SOL    HW156766   7.362   8.160   6.442
18269SOL    HW256767   7.380   8.012   6.508
18270SOL     OW56768   6.721   8.151   6.303
18270SOL    HW156769   6.778   8.229   6.278
18270SOL    HW256770   6.661   8.177   6.379
18271SOL     OW56771   7.341   8.055   5.817
18271SOL    HW156772   7.329   8.042   5.718
18271SOL    HW256773   7.311   7.974   5.866
18272SOL     OW56774   6.354   8.592   6.609
18272SOL    HW156775   6.276   8.609   6.669
18272SOL    HW256776   6.388   8.679   6.573
18273SOL     OW56777   6.436   8.246   7.409
18273SOL    HW156778   6.432   8.322   7.474
18273SOL    HW256779   6.458   8.282   7.318
18274SOL     OW56780   6.271   8.460   6.251
18274SOL    HW156781   6.340   8.444   6.321
18274SOL    HW256782   6.198   8.517   6.289
18275SOL     OW56783   6.272   8.609   7.389
18275SOL    HW156784   6.332   8.688   7.403
18275SOL    HW256785   6.186   8.640   7.348
18276SOL     OW56786   5.921   8.883   6.647
18276SOL    HW156787   5.843   8.852   6.594
18276SOL    HW256788   5.979   8.941   6.590
18277SOL     OW56789   7.046   8.953   6.925
18277SOL    HW156790   7.070   9.047   6.951
18277SOL    HW256791   7.030   8.899   7.007
18278SOL     OW56792   6.024   7.840   7.085
18278SOL    HW156793   6.106   7.784   7.094
18278SOL    HW256794   5.943   7.782   7.089
18279SOL     OW56795   7.189   7.895   6.323
18279SOL    HW156796   7.115   7.941   6.273
18279SOL    HW256797   7.240   7.963   6.376
18280SOL     OW56798   5.817   0.161   6.069
18280SOL    HW156799   5.851   0.238   6.123
18280SOL    HW256800   5.861   0.161   5.979
18281SOL     OW56801   6.713   8.789   7.276
18281SOL    HW156802   6.760   8.789   7.364
18281SOL    HW256803   6.665   8.702   7.265
18282SOL     OW56804   5.816   8.882   6.124
18282SOL    HW156805   5.790   8.978   6.124
18282SOL    HW256806   5.745   8.828   6.169
18283SOL     OW56807   5.826   8.539   6.472
18283SOL    HW156808   5.840   8.455   6.524
18283SOL    HW256809   5.771   8.603   6.527
18284SOL     OW56810   6.192   8.412   5.709
18284SOL    HW156811   6.199   8.496   5.655
18284SOL    HW256812   6.238   8.425   5.797
18285SOL     OW56813   7.180   7.562   7.066
18285SOL    HW156814   7.162   7.629   6.994
18285SOL    HW256815   7.177   7.608   7.155
18286SOL     OW56816   5.708   8.091   6.149
18286SOL    HW156817   5.663   8.003   6.166
18286SOL    HW256818   5.707   8.145   6.233
18287SOL     OW56819   5.613   0.044   5.703
18287SOL    HW156820   5.594  -0.052   5.724
18287SOL    HW256821   5.580   0.102   5.778
18288SOL     OW56822   7.275   8.370   6.198
18288SOL    HW156823   7.370   8.341   6.206
18288SOL    HW256824   7.267   8.435   6.123
18289SOL     OW56825   7.227   8.556   6.018
18289SOL    HW156826   7.313   8.558   5.966
18289SOL    HW256827   7.241   8.603   6.106
18290SOL     OW56828   5.699   8.185   7.183
18290SOL    HW156829   5.787   8.172   7.228
18290SOL    HW256830   5.686   8.282   7.161
18291SOL     OW56831   6.199   8.813   6.312
18291SOL    HW156832   6.150   8.726   6.321
18291SOL    HW256833   6.176   8.856   6.225
18292SOL     OW56834   6.879   8.676   7.009
18292SOL    HW156835   6.916   8.603   6.951
18292SOL    HW256836   6.931   8.681   7.094
18293SOL     OW56837   6.395   7.452   6.088
18293SOL    HW156838   6.435   7.543   6.079
18293SOL    HW256839   6.295   7.460   6.094
18294SOL     OW56840   5.783   8.424   6.850
18294SOL    HW156841   5.872   8.379   6.836
18294SOL    HW256842   5.710   8.359   6.831
18295SOL     OW56843   7.111   8.447   5.776
18295SOL    HW156844   7.048   8.371   5.789
18295SOL    HW256845   7.159   8.465   5.862
18296SOL     OW56846   5.903   7.699   7.387
18296SOL    HW156847   5.974   7.770   7.393
18296SOL    HW256848   5.815   7.738   7.415
18297SOL     OW56849   7.052   8.865   6.539
18297SOL    HW156850   6.993   8.871   6.619
18297SOL    HW256851   7.037   8.777   6.493
18298SOL     OW56852   6.184   8.177   5.856
18298SOL    HW156853   6.208   8.246   5.788
18298SOL    HW256854   6.106   8.210   5.910
18299SOL     OW56855   6.867   7.793   6.530
18299SOL    HW156856   6.781   7.743   6.517
18299SOL    HW256857   6.929   7.739   6.586
18300SOL     OW56858   6.393   8.053   7.051
18300SOL    HW156859   6.346   8.050   7.140
18300SOL    HW256860   6.342   7.998   6.985
18301SOL     OW56861   6.980   7.917   7.260
18301SOL    HW156862   6.960   7.960   7.348
18301SOL    HW256863   7.058   7.855   7.269
18302SOL     OW56864   6.559   8.338   7.158
18302SOL    HW156865   6.605   8.254   7.129
18302SOL    HW256866   6.503   8.372   7.083
18303SOL     OW56867   6.577   7.858   6.828
18303SOL    HW156868   6.500   7.892   6.882
18303SOL    HW256869   6.543   7.807   6.749
18304SOL     OW56870   6.627   8.149   6.015
18304SOL    HW156871   6.653   8.145   6.111
18304SOL    HW256872   6.542   8.098   6.001
18305SOL     OW56873   5.662   8.259   6.375
18305SOL    HW156874   5.761   8.247   6.384
18305SOL    HW256875   5.638   8.354   6.396
18306SOL     OW56876   6.451   7.796   5.781
18306SOL    HW156877   6.510   7.859   5.732
18306SOL    HW256878   6.470   7.702   5.752
18307SOL     OW56879   7.305   8.033   7.417
18307SOL    HW156880   7.279   8.122   7.381
18307SOL    HW256881   7.303   7.965   7.344
18308SOL     OW56882   6.948   8.592   6.131
18308SOL    HW156883   7.031   8.563   6.083
18308SOL    HW256884   6.899   8.659   6.075
18309SOL     OW56885   6.136   7.644   6.471
18309SOL    HW156886   6.131   7.639   6.571
18309SOL    HW256887   6.138   7.740   6.442
18310SOL     OW56888   6.594   8.904   6.063
18310SOL    HW156889   6.548   8.976   6.011
18310SOL    HW256890   6.590   8.924   6.161
18311SOL     OW56891   7.381   8.514   6.459
18311SOL    HW156892   7.319   8.499   6.383
18311SOL    HW256893   7.329   8.525   6.544
18312SOL     OW56894   6.813   8.998   7.092
18312SOL    HW156895   6.819   8.921   7.156
18312SOL    HW256896   6.761   8.972   7.012
18313SOL     OW56897   5.907   8.391   5.828
18313SOL    HW156898   5.989   8.430   5.786
18313SOL    HW256899   5.880   8.309   5.779
18314SOL     OW56900   7.044   8.183   6.314
18314SOL    HW156901   7.039   8.118   6.389
18314SOL    HW256902   7.124   8.242   6.327
18315SOL     OW56903   6.047   8.714   7.313
18315SOL    HW156904   5.997   8.715   7.227
18315SOL    HW256905   5.984   8.696   7.389
18316SOL     OW56906   6.697   0.224   5.823
18316SOL    HW156907   6.637   0.162   5.873
18316SOL    HW256908   6.728   0.180   5.738
18317SOL     OW56909   5.788   7.733   7.084
18317SOL    HW156910   5.708   7.793   7.071
18317SOL    HW256911   5.778   7.684   7.170
18318SOL     OW56912   7.218   8.825   5.667
18318SOL    HW156913   7.186   8.919   5.657
18318SOL    HW256914   7.142   8.762   5.655
18319SOL     OW56915   6.986   7.555   6.012
18319SOL    HW156916   6.962   7.518   5.922
18319SOL    HW256917   7.085   7.571   6.016
18320SOL     OW56918   5.968   8.148   6.066
18320SOL    HW156919   6.013   8.058   6.063
18320SOL    HW256920   5.874   8.137   6.099
18321SOL     OW56921   7.133   7.670   7.315
18321SOL    HW156922   7.128   7.707   7.407
18321SOL    HW256923   7.061   7.601   7.303
18322SOL     OW56924   6.200   7.570   5.703
18322SOL    HW156925   6.298   7.548   5.710
18322SOL    HW256926   6.169   7.553   5.610
18323SOL     OW56927   6.367   7.712   7.335
18323SOL    HW156928   6.434   7.651   7.378
18323SOL    HW256929   6.294   7.731   7.400
18324SOL     OW56930   6.937   8.038   7.019
18324SOL    HW156931   6.965   7.995   7.104
18324SOL    HW256932   6.962   8.134   7.020
18325SOL     OW56933   6.389   8.850   6.510
18325SOL    HW156934   6.479   8.864   6.468
18325SOL    HW256935   6.318   8.852   6.439
18326SOL     OW56936   6.508   7.951   6.485
18326SOL    HW156937   6.483   7.942   6.389
18326SOL    HW256938   6.556   7.869   6.516
18327SOL     OW56939   6.125   7.512   6.098
18327SOL    HW156940   6.044   7.513   6.156
18327SOL    HW256941   6.128   7.595   6.043
18328SOL     OW56942   7.020   8.636   5.627
18328SOL    HW156943   7.052   8.560   5.684
18328SOL    HW256944   6.928   8.663   5.657
18329SOL     OW56945   5.883   7.483   5.757
18329SOL    HW156946   5.932   7.567   5.736
18329SOL    HW256947   5.945   7.418   5.802
18330SOL     OW56948   6.521   7.684   6.066
18330SOL    HW156949   6.473   7.725   5.988
18330SOL    HW256950   6.620   7.682   6.047
18331SOL     OW56951   6.662   8.131   7.050
18331SOL    HW156952   6.582   8.070   7.053
18331SOL    HW256953   6.743   8.078   7.026
18332SOL     OW56954   6.813   0.018   6.379
18332SOL    HW156955   6.834   0.092   6.314
18332SOL    HW256956   6.881   0.018   6.452
18333SOL     OW56957   6.045   8.600   6.327
18333SOL    HW156958   5.974   8.573   6.392
18333SOL    HW256959   6.019   8.572   6.234
18334SOL     OW56960   6.618   7.997   5.602
18334SOL    HW156961   6.577   8.079   5.563
18334SOL    HW256962   6.682   8.023   5.675
18335SOL     OW56963   5.664   8.004   6.972
18335SOL    HW156964   5.756   8.003   6.931
18335SOL    HW256965   5.658   8.078   7.039
18336SOL     OW56966   6.147   7.670   6.733
18336SOL    HW156967   6.185   7.586   6.770
18336SOL    HW256968   6.059   7.689   6.777
18337SOL     OW56969   6.452   7.902   6.228
18337SOL    HW156970   6.420   7.974   6.166
18337SOL    HW256971   6.476   7.821   6.175
18338SOL     OW56972   6.603   7.487   6.339
18338SOL    HW156973   6.531   7.492   6.270
18338SOL    HW256974   6.579   7.418   6.408
18339SOL     OW56975   7.015   8.621   6.453
18339SOL    HW156976   6.960   8.537   6.446
18339SOL    HW256977   7.041   8.650   6.361
18340SOL     OW56978   7.052   8.038   6.578
18340SOL    HW156979   7.022   7.943   6.585
18340SOL    HW256980   7.125   8.054   6.644
18341SOL     OW56981   7.443   8.281   5.963
18341SOL    HW156982   7.485   8.217   6.027
18341SOL    HW256983   7.405   8.230   5.885
18342SOL     OW56984   6.074   8.833   5.760
18342SOL    HW156985   5.987   8.818   5.807
18342SOL    HW256986   6.057   8.859   5.665
18343SOL     OW56987   7.250   8.728   6.243
18343SOL    HW156988   7.349   8.736   6.257
18343SOL    HW256989   7.205   8.812   6.274
18344SOL     OW56990   6.976   8.023   5.664
18344SOL    HW156991   6.922   8.002   5.745
18344SOL    HW256992   7.067   7.982   5.673
18345SOL     OW56993   6.113   7.704   5.914
18345SOL    HW156994   6.140   7.645   5.839
18345SOL    HW256995   6.113   7.799   5.883
18346SOL     OW56996   7.340   8.671   7.174
18346SOL    HW156997   7.431   8.632   7.161
18346SOL    HW256998   7.348   8.767   7.198
18347SOL     OW56999   6.650   8.795   6.926
18347SOL    HW157000   6.570   8.772   6.981
18347SOL    HW257001   6.733   8.769   6.975
18348SOL     OW57002   6.697   8.643   6.686
18348SOL    HW157003   6.657   8.687   6.767
18348SOL    HW257004   6.656   8.680   6.603
18349SOL     OW57005   7.224   8.547   6.665
18349SOL    HW157006   7.229   8.628   6.724
18349SOL    HW257007   7.138   8.549   6.614
18350SOL     OW57008   6.501   7.537   6.988
18350SOL    HW157009   6.526   7.517   6.893
18350SOL    HW257010   6.573   7.593   7.030
18351SOL     OW57011   6.566   8.564   7.305
18351SOL    HW157012   6.467   8.570   7.315
18351SOL    HW257013   6.589   8.484   7.249
18352SOL     OW57014   6.291   8.498   5.954
18352SOL    HW157015   6.277   8.505   6.053
18352SOL    HW257016   6.375   8.447   5.936
18353SOL     OW57017   5.996   8.261   6.837
18353SOL    HW157018   6.082   8.273   6.887
18353SOL    HW257019   5.954   8.174   6.864
18354SOL     OW57020   6.860   7.834   6.848
18354SOL    HW157021   6.881   7.908   6.912
18354SOL    HW257022   6.771   7.851   6.805
18355SOL     OW57023   5.953   8.548   6.087
18355SOL    HW157024   5.946   8.631   6.031
18355SOL    HW257025   5.957   8.468   6.027
18356SOL     OW57026   6.152   7.985   6.451
18356SOL    HW157027   6.164   8.051   6.377
18356SOL    HW257028   6.198   8.019   6.534
18357SOL     OW57029   6.838   8.796   5.974
18357SOL    HW157030   6.888   8.873   6.014
18357SOL    HW257031   6.743   8.798   6.006
18358SOL     OW57032   6.858   8.893   6.728
18358SOL    HW157033   6.905   8.906   6.815
18358SOL    HW257034   6.792   8.819   6.737
18359SOL     OW57035   7.168   8.087   6.058
18359SOL    HW157036   7.137   8.148   6.131
18359SOL    HW257037   7.218   8.139   5.989
18360SOL     OW57038   5.940   8.958   6.915
18360SOL    HW157039   5.919   8.914   6.828
18360SOL    HW257040   6.037   8.984   6.918
18361SOL     OW57041   5.988   8.199   7.184
18361SOL    HW157042   6.056   8.254   7.137
18361SOL    HW257043   6.028   8.111   7.211
18362SOL     OW57044   7.173   8.227   7.256
18362SOL    HW157045   7.081   8.265   7.251
18362SOL    HW257046   7.233   8.274   7.191
18363SOL     OW57047   6.599   7.553   7.356
18363SOL    HW157048   6.605   7.638   7.304
18363SOL    HW257049   6.631   7.477   7.299
18364SOL     OW57050   6.090   7.498   7.326
18364SOL    HW157051   6.048   7.441   7.256
18364SOL    HW257052   6.024   7.567   7.358
18365SOL     OW57053   6.159   8.318   6.615
18365SOL    HW157054   6.203   8.407   6.606
18365SOL    HW257055   6.096   8.318   6.692
18366SOL     OW57056   6.946   8.310   6.631
18366SOL    HW157057   6.871   8.310   6.565
18366SOL    HW257058   6.983   8.218   6.640
18367SOL     OW57059   6.795   7.973   5.861
18367SOL    HW157060   6.808   7.889   5.915
18367SOL    HW257061   6.766   8.047   5.921
18368SOL     OW57062   5.893   7.661   6.817
18368SOL    HW157063   5.870   7.698   6.907
18368SOL    HW257064   5.863   7.566   6.811
18369SOL     OW57065   5.623   8.758   6.868
18369SOL    HW157066   5.676   8.709   6.936
18369SOL    HW257067   5.645   8.856   6.873
18370SOL     OW57068   6.318   8.082   6.650
18370SOL    HW157069   6.377   8.056   6.574
18370SOL    HW257070   6.290   8.178   6.639
18371SOL     OW57071   7.314   8.383   7.440
18371SOL    HW157072   7.268   8.376   7.351
18371SOL    HW257073   7.252   8.427   7.506
18372SOL     OW57074   5.893   7.511   6.204
18372SOL    HW157075   5.882   7.605   6.237
18372SOL    HW257076   5.888   7.448   6.281
18373SOL     OW57077   7.208   7.815   5.960
18373SOL    HW157078   7.210   7.739   6.024
18373SOL    HW257079   7.160   7.892   6.000
18374SOL     OW57080   6.609   8.214   6.552
18374SOL    HW157081   6.624   8.235   6.648
18374SOL    HW257082   6.579   8.119   6.543
18375SOL     OW57083   7.445   8.966   7.191
18375SOL    HW157084   7.459   8.993   7.096
18375SOL    HW257085   7.528   8.988   7.244
18376SOL     OW57086   5.936   8.346   7.390
18376SOL    HW157087   6.012   8.390   7.438
18376SOL    HW257088   5.971   8.299   7.308
18377SOL     OW57089   7.126   7.722   5.711
18377SOL    HW157090   7.065   7.647   5.734
18377SOL    HW257091   7.148   7.774   5.794
18378SOL     OW57092   6.889   8.286   5.628
18378SOL    HW157093   6.923   8.193   5.643
18378SOL    HW257094   6.907   8.313   5.533
18379SOL     OW57095   6.654   8.781   6.435
18379SOL    HW157096   6.661   8.697   6.380
18379SOL    HW257097   6.716   8.850   6.399
18380SOL     OW57098   5.905   8.258   6.535
18380SOL    HW157099   5.998   8.294   6.540
18380SOL    HW257100   5.899   8.173   6.587
18381SOL     OW57101   5.925   7.957   6.592
18381SOL    HW157102   5.873   7.874   6.575
18381SOL    HW257103   6.002   7.962   6.528
18382SOL     OW57104   6.097   7.863   7.394
18382SOL    HW157105   6.079   7.908   7.482
18382SOL    HW257106   6.139   7.928   7.331
18383SOL     OW57107   6.724   7.828   7.264
18383SOL    HW157108   6.679   7.891   7.328
18383SOL    HW257109   6.817   7.859   7.247
18384SOL     OW57110   6.746   7.655   7.063
18384SOL    HW157111   6.746   7.719   7.140
18384SOL    HW257112   6.774   7.703   6.980
18385SOL     OW57113   5.594   8.774   5.786
18385SOL    HW157114   5.501   8.795   5.755
18385SOL    HW257115   5.604   8.675   5.799
18386SOL     OW57116   6.588   8.244   6.824
18386SOL    HW157117   6.629   8.212   6.910
18386SOL    HW257118   6.492   8.217   6.821
18387SOL     OW57119   5.626   7.992   6.700
18387SOL    HW157120   5.711   7.959   6.659
18387SOL    HW257121   5.639   8.007   6.798
18388SOL     OW57122   5.775   7.968   7.308
18388SOL    HW157123   5.834   7.928   7.238
18388SOL    HW257124   5.717   8.039   7.267
18389SOL     OW57125   6.955   8.398   7.246
18389SOL    HW157126   6.994   8.487   7.266
18389SOL    HW257127   6.965   8.378   7.149
18390SOL     OW57128   6.401   8.020   5.911
18390SOL    HW157129   6.408   7.931   5.865
18390SOL    HW257130   6.307   8.054   5.903
18391SOL     OW57131   7.243   8.052   6.792
18391SOL    HW157132   7.205   7.983   6.854
18391SOL    HW257133   7.325   8.016   6.748
18392SOL     OW57134   5.838   0.012   7.330
18392SOL    HW157135   5.808   0.069   7.406
18392SOL    HW257136   5.831  -0.085   7.356
18393SOL     OW57137   6.257   7.912   6.855
18393SOL    HW157138   6.223   7.823   6.825
18393SOL    HW257139   6.283   7.966   6.775
18394SOL     OW57140   6.059   7.948   5.777
18394SOL    HW157141   6.120   8.028   5.781
18394SOL    HW257142   5.964   7.979   5.784
18395SOL     OW57143   5.745   8.585   7.052
18395SOL    HW157144   5.767   8.524   7.128
18395SOL    HW257145   5.755   8.536   6.966
18396SOL     OW57146   6.933   8.507   6.820
18396SOL    HW157147   6.957   8.444   6.746
18396SOL    HW257148   6.843   8.547   6.802
18397SOL     OW57149   6.888   8.303   5.895
18397SOL    HW157150   6.802   8.272   5.937
18397SOL    HW257151   6.884   8.289   5.796
18398SOL     OW57152   5.669   8.706   6.608
18398SOL    HW157153   5.664   8.705   6.708
18398SOL    HW257154   5.586   8.665   6.570
18399SOL     OW57155   6.489   7.534   5.719
18399SOL    HW157156   6.540   7.535   5.633
18399SOL    HW257157   6.545   7.492   5.790
18400SOL     OW57158   7.312   7.583   6.109
18400SOL    HW157159   7.385   7.566   6.042
18400SOL    HW257160   7.281   7.496   6.147
18401SOL     OW57161   6.866   8.375   6.258
18401SOL    HW157162   6.926   8.294   6.260
18401SOL    HW257163   6.906   8.444   6.198
18402SOL     OW57164   6.416   8.721   7.008
18402SOL    HW157165   6.411   8.754   7.103
18402SOL    HW257166   6.330   8.740   6.962
18403SOL     OW57167   7.427   7.623   6.549
18403SOL    HW157168   7.466   7.538   6.513
18403SOL    HW257169   7.329   7.625   6.530
18404SOL     OW57170   5.849   7.774   6.306
18404SOL    HW157171   5.770   7.825   6.272
18404SOL    HW257172   5.840   7.759   6.404
18405SOL     OW57173   6.408   8.450   6.958
18405SOL    HW157174   6.448   8.449   6.866
18405SOL    HW257175   6.418   8.542   6.998
18406SOL     OW57176   6.502   8.358   5.877
18406SOL    HW157177   6.565   8.396   5.809
18406SOL    HW257178   6.542   8.275   5.916
18407SOL     OW57179   5.958   8.736   7.076
18407SOL    HW157180   5.945   8.829   7.042
18407SOL    HW257181   5.874   8.684   7.063
18408SOL     OW57182   7.200   8.740   6.875
18408SOL    HW157183   7.260   8.743   6.955
18408SOL    HW257184   7.125   8.804   6.888
18409SOL     OW57185   6.625   8.546   6.282
18409SOL    HW157186   6.555   8.499   6.336
18409SOL    HW257187   6.684   8.478   6.239
18410SOL     OW57188   6.600   7.684   6.557
18410SOL    HW157189   6.592   7.648   6.464
18410SOL    HW257190   6.598   7.608   6.622
18411SOL     OW57191   7.295   7.833   6.967
18411SOL    HW157192   7.368   7.902   6.971
18411SOL    HW257193   7.323   7.758   6.908
18412SOL     OW57194   5.841   8.796   5.876
18412SOL    HW157195   5.745   8.797   5.849
18412SOL    HW257196   5.853   8.849   5.960
18413SOL     OW57197   5.691   8.461   7.312
18413SOL    HW157198   5.614   8.428   7.366
18413SOL    HW257199   5.776   8.431   7.354
18414SOL     OW57200   6.258   7.651   7.075
18414SOL    HW157201   6.348   7.635   7.035
18414SOL    HW257202   6.266   7.656   7.174
18415SOL     OW57203   5.661   7.793   5.619
18415SOL    HW157204   5.569   7.765   5.590
18415SOL    HW257205   5.692   7.870   5.563
18416SOL     OW57206   7.026   8.304   6.984
18416SOL    HW157207   6.969   8.356   6.921
18416SOL    HW257208   7.122   8.316   6.960
18417SOL     OW57209   5.658   7.614   5.904
18417SOL    HW157210   5.641   7.697   5.850
18417SOL    HW257211   5.748   7.577   5.882
18418SOL     OW57212   6.769   8.783   5.705
18418SOL    HW157213   6.670   8.772   5.707
18418SOL    HW257214   6.803   8.798   5.798
18419SOL     OW57215   6.199   8.290   7.017
18419SOL    HW157216   6.255   8.371   7.000
18419SOL    HW257217   6.258   8.210   7.020
18420SOL     OW57218   6.302   8.013   7.294
18420SOL    HW157219   6.321   8.078   7.368
18420SOL    HW257220   6.362   7.933   7.303
18421SOL     OW57221   7.036   8.668   7.219
18421SOL    HW157222   7.027   8.658   7.318
18421SOL    HW257223   7.132   8.661   7.193
18422SOL     OW57224   7.260   8.331   6.840
18422SOL    HW157225   7.233   8.242   6.803
18422SOL    HW257226   7.261   8.399   6.767
18423SOL     OW57227   6.811   7.773   6.035
18423SOL    HW157228   6.876   7.699   6.024
18423SOL    HW257229   6.831   7.823   6.119
18424SOL     OW57230   6.180   8.193   6.238
18424SOL    HW157231   6.230   8.278   6.219
18424SOL    HW257232   6.092   8.195   6.190
18425SOL     OW57233   7.363   7.790   7.228
18425SOL    HW157234   7.346   7.821   7.134
18425SOL    HW257235   7.279   7.753   7.266
18426SOL     OW57236   7.316   8.382   7.103
18426SOL    HW157237   7.354   8.473   7.118
18426SOL    HW257238   7.308   8.365   7.004
18427SOL     OW57239   6.445   8.822   5.602
18427SOL    HW157240   6.399   8.837   5.690
18427SOL    HW257241   6.489   8.907   5.572
18428SOL     OW57242   6.445   8.404   6.447
18428SOL    HW157243   6.499   8.335   6.495
18428SOL    HW257244   6.413   8.473   6.513
18429SOL     OW57245   6.669   8.432   5.673
18429SOL    HW157246   6.646   8.485   5.591
18429SOL    HW257247   6.750   8.376   5.654
18430SOL     OW57248   5.807   8.762   7.430
18430SOL    HW157249   5.742   8.689   7.409
18430SOL    HW257250   5.811   8.776   7.528
18431SOL     OW57251   5.665   8.688   6.239
18431SOL    HW157252   5.664   8.641   6.327
18431SOL    HW257253   5.747   8.660   6.188
18432SOL     OW57254   6.258   8.839   7.210
18432SOL    HW157255   6.180   8.789   7.248
18432SOL    HW257256   6.255   8.934   7.241
18433SOL     OW57257   7.410   7.640   6.813
18433SOL    HW157258   7.406   7.550   6.857
18433SOL    HW257259   7.413   7.629   6.714
18434SOL     OW57260   6.014   7.872   6.106
18434SOL    HW157261   6.044   7.800   6.044
18434SOL    HW257262   5.975   7.832   6.189
18435SOL     OW57263   7.291   8.935   6.690
18435SOL    HW157264   7.198   8.910   6.663
18435SOL    HW257265   7.317   8.885   6.772
18436SOL     OW57266   5.903   7.995   6.866
18436SOL    HW157267   5.941   7.936   6.938
18436SOL    HW257268   5.943   7.969   6.778
18437SOL     OW57269   7.010   7.662   6.698
18437SOL    HW157270   7.062   7.597   6.753
18437SOL    HW257271   6.961   7.725   6.759
18438SOL     OW57272   6.587   7.482   6.740
18438SOL    HW157273   6.524   7.410   6.709
18438SOL    HW257274   6.680   7.446   6.740
18439SOL     OW57275   6.356   8.778   5.887
18439SOL    HW157276   6.310   8.691   5.904
18439SOL    HW257277   6.447   8.775   5.928
18440SOL     OW57278   6.204   0.015   6.870
18440SOL    HW157279   6.199   0.097   6.927
18440SOL    HW257280   6.293   0.012   6.825
18441SOL     OW57281   6.938   7.500   5.754
18441SOL    HW157282   6.973   7.459   5.670
18441SOL    HW257283   6.848   7.462   5.774
18442SOL     OW57284   6.886   7.901   6.277
18442SOL    HW157285   6.827   7.981   6.281
18442SOL    HW257286   6.901   7.866   6.370
18443SOL     OW57287   7.179   7.669   6.468
18443SOL    HW157288   7.095   7.668   6.522
18443SOL    HW257289   7.181   7.752   6.412
18444SOL     OW57290   5.625   8.525   5.886
18444SOL    HW157291   5.724   8.514   5.877
18444SOL    HW257292   5.585   8.439   5.918
18445SOL     OW57293   5.816   8.076   7.561
18445SOL    HW157294   5.723   8.074   7.598
18445SOL    HW257295   5.817   8.037   7.469
18446SOL     OW57296   5.811   7.723   8.444
18446SOL    HW157297   5.846   7.706   8.536
18446SOL    HW257298   5.723   7.678   8.432
18447SOL     OW57299   5.605   7.816   8.095
18447SOL    HW157300   5.523   7.859   8.134
18447SOL    HW257301   5.577   7.743   8.032
18448SOL     OW57302   6.155   8.723   8.613
18448SOL    HW157303   6.062   8.716   8.576
18448SOL    HW257304   6.166   8.812   8.657
18449SOL     OW57305   7.141   8.959   8.151
18449SOL    HW157306   7.084   8.943   8.232
18449SOL    HW257307   7.082   8.969   8.071
18450SOL     OW57308   7.329   8.066   8.304
18450SOL    HW157309   7.362   8.160   8.304
18450SOL    HW257310   7.380   8.012   8.370
18451SOL     OW57311   6.721   8.151   8.165
18451SOL    HW157312   6.778   8.229   8.140
18451SOL    HW257313   6.661   8.177   8.241
18452SOL     OW57314   7.341   8.055   7.679
18452SOL    HW157315   7.329   8.042   7.580
18452SOL    HW257316   7.311   7.974   7.728
18453SOL     OW57317   6.354   8.592   8.471
18453SOL    HW157318   6.276   8.609   8.531
18453SOL    HW257319   6.388   8.679   8.435
18454SOL     OW57320   6.271   8.460   8.113
18454SOL    HW157321   6.340   8.444   8.183
18454SOL    HW257322   6.198   8.517   8.151
18455SOL     OW57323   5.921   8.883   8.509
18455SOL    HW157324   5.843   8.852   8.456
18455SOL    HW257325   5.979   8.941   8.452
18456SOL     OW57326   7.046   8.953   8.787
18456SOL    HW157327   7.070   9.047   8.813
18456SOL    HW257328   7.030   8.899   8.869
18457SOL     OW57329   6.024   7.840   8.947
18457SOL    HW157330   6.106   7.784   8.956
18457SOL    HW257331   5.943   7.782   8.951
18458SOL     OW57332   7.189   7.895   8.185
18458SOL    HW157333   7.115   7.941   8.135
18458SOL    HW257334   7.240   7.963   8.238
18459SOL     OW57335   5.817   0.161   7.931
18459SOL    HW157336   5.851   0.238   7.985
18459SOL    HW257337   5.861   0.161   7.841
18460SOL     OW57338   5.816   8.882   7.986
18460SOL    HW157339   5.790   8.978   7.986
18460SOL    HW257340   5.745   8.828   8.031
18461SOL     OW57341   5.826   8.539   8.334
18461SOL    HW157342   5.840   8.455   8.386
18461SOL    HW257343   5.771   8.603   8.389
18462SOL     OW57344   6.192   8.412   7.571
18462SOL    HW157345   6.199   8.496   7.517
18462SOL    HW257346   6.238   8.425   7.659
18463SOL     OW57347   7.180   7.562   8.928
18463SOL    HW157348   7.162   7.629   8.856
18463SOL    HW257349   7.177   7.608   9.017
18464SOL     OW57350   5.708   8.091   8.011
18464SOL    HW157351   5.663   8.003   8.028
18464SOL    HW257352   5.707   8.145   8.095
18465SOL     OW57353   5.613   0.044   7.565
18465SOL    HW157354   5.594  -0.052   7.586
18465SOL    HW257355   5.580   0.102   7.640
18466SOL     OW57356   7.275   8.370   8.060
18466SOL    HW157357   7.370   8.341   8.068
18466SOL    HW257358   7.267   8.435   7.985
18467SOL     OW57359   7.227   8.556   7.880
18467SOL    HW157360   7.313   8.558   7.828
18467SOL    HW257361   7.241   8.603   7.968
18468SOL     OW57362   6.199   8.813   8.174
18468SOL    HW157363   6.150   8.726   8.183
18468SOL    HW257364   6.176   8.856   8.087
18469SOL     OW57365   6.395   7.452   7.950
18469SOL    HW157366   6.435   7.543   7.941
18469SOL    HW257367   6.295   7.460   7.956
18470SOL     OW57368   5.783   8.424   8.712
18470SOL    HW157369   5.872   8.379   8.698
18470SOL    HW257370   5.710   8.359   8.693
18471SOL     OW57371   7.111   8.447   7.638
18471SOL    HW157372   7.048   8.371   7.651
18471SOL    HW257373   7.159   8.465   7.724
18472SOL     OW57374   7.052   8.865   8.401
18472SOL    HW157375   6.993   8.871   8.481
18472SOL    HW257376   7.037   8.777   8.355
18473SOL     OW57377   6.184   8.177   7.718
18473SOL    HW157378   6.208   8.246   7.650
18473SOL    HW257379   6.106   8.210   7.772
18474SOL     OW57380   6.867   7.793   8.392
18474SOL    HW157381   6.781   7.743   8.379
18474SOL    HW257382   6.929   7.739   8.448
18475SOL     OW57383   6.393   8.053   8.913
18475SOL    HW157384   6.346   8.050   9.002
18475SOL    HW257385   6.342   7.998   8.847
18476SOL     OW57386   6.577   7.858   8.690
18476SOL    HW157387   6.500   7.892   8.744
18476SOL    HW257388   6.543   7.807   8.611
18477SOL     OW57389   6.627   8.149   7.877
18477SOL    HW157390   6.653   8.145   7.973
18477SOL    HW257391   6.542   8.098   7.863
18478SOL     OW57392   5.662   8.259   8.237
18478SOL    HW157393   5.761   8.247   8.246
18478SOL    HW257394   5.638   8.354   8.258
18479SOL     OW57395   6.451   7.796   7.643
18479SOL    HW157396   6.510   7.859   7.594
18479SOL    HW257397   6.470   7.702   7.614
18480SOL     OW57398   6.948   8.592   7.993
18480SOL    HW157399   7.031   8.563   7.945
18480SOL    HW257400   6.899   8.659   7.937
18481SOL     OW57401   6.136   7.644   8.333
18481SOL    HW157402   6.131   7.639   8.433
18481SOL    HW257403   6.138   7.740   8.304
18482SOL     OW57404   6.594   8.904   7.925
18482SOL    HW157405   6.548   8.976   7.873
18482SOL    HW257406   6.590   8.924   8.023
18483SOL     OW57407   7.381   8.514   8.321
18483SOL    HW157408   7.319   8.499   8.245
18483SOL    HW257409   7.329   8.525   8.406
18484SOL     OW57410   6.813   8.998   8.954
18484SOL    HW157411   6.819   8.921   9.018
18484SOL    HW257412   6.761   8.972   8.874
18485SOL     OW57413   5.907   8.391   7.690
18485SOL    HW157414   5.989   8.430   7.648
18485SOL    HW257415   5.880   8.309   7.641
18486SOL     OW57416   7.044   8.183   8.176
18486SOL    HW157417   7.039   8.118   8.251
18486SOL    HW257418   7.124   8.242   8.189
18487SOL     OW57419   6.697   0.224   7.685
18487SOL    HW157420   6.637   0.162   7.735
18487SOL    HW257421   6.728   0.180   7.600
18488SOL     OW57422   5.788   7.733   8.946
18488SOL    HW157423   5.708   7.793   8.933
18488SOL    HW257424   5.778   7.684   9.032
18489SOL     OW57425   7.218   8.825   7.529
18489SOL    HW157426   7.186   8.919   7.519
18489SOL    HW257427   7.142   8.762   7.517
18490SOL     OW57428   6.986   7.555   7.874
18490SOL    HW157429   6.962   7.518   7.784
18490SOL    HW257430   7.085   7.571   7.878
18491SOL     OW57431   5.968   8.148   7.928
18491SOL    HW157432   6.013   8.058   7.925
18491SOL    HW257433   5.874   8.137   7.961
18492SOL     OW57434   6.200   7.570   7.565
18492SOL    HW157435   6.298   7.548   7.572
18492SOL    HW257436   6.169   7.553   7.472
18493SOL     OW57437   6.389   8.850   8.372
18493SOL    HW157438   6.479   8.864   8.330
18493SOL    HW257439   6.318   8.852   8.301
18494SOL     OW57440   6.508   7.951   8.347
18494SOL    HW157441   6.483   7.942   8.251
18494SOL    HW257442   6.556   7.869   8.378
18495SOL     OW57443   6.125   7.512   7.960
18495SOL    HW157444   6.044   7.513   8.018
18495SOL    HW257445   6.128   7.595   7.905
18496SOL     OW57446   7.020   8.636   7.489
18496SOL    HW157447   7.052   8.560   7.546
18496SOL    HW257448   6.928   8.663   7.519
18497SOL     OW57449   5.883   7.483   7.619
18497SOL    HW157450   5.932   7.567   7.598
18497SOL    HW257451   5.945   7.418   7.664
18498SOL     OW57452   6.521   7.684   7.928
18498SOL    HW157453   6.473   7.725   7.850
18498SOL    HW257454   6.620   7.682   7.909
18499SOL     OW57455   6.813   0.018   8.241
18499SOL    HW157456   6.834   0.092   8.176
18499SOL    HW257457   6.881   0.018   8.314
18500SOL     OW57458   6.045   8.600   8.189
18500SOL    HW157459   5.974   8.573   8.254
18500SOL    HW257460   6.019   8.572   8.096
18501SOL     OW57461   6.618   7.997   7.464
18501SOL    HW157462   6.577   8.079   7.425
18501SOL    HW257463   6.682   8.023   7.537
18502SOL     OW57464   5.664   8.004   8.834
18502SOL    HW157465   5.756   8.003   8.793
18502SOL    HW257466   5.658   8.078   8.901
18503SOL     OW57467   6.147   7.670   8.595
18503SOL    HW157468   6.185   7.586   8.632
18503SOL    HW257469   6.059   7.689   8.639
18504SOL     OW57470   6.452   7.902   8.090
18504SOL    HW157471   6.420   7.974   8.028
18504SOL    HW257472   6.476   7.821   8.037
18505SOL     OW57473   6.603   7.487   8.201
18505SOL    HW157474   6.531   7.492   8.132
18505SOL    HW257475   6.579   7.418   8.270
18506SOL     OW57476   7.015   8.621   8.315
18506SOL    HW157477   6.960   8.537   8.308
18506SOL    HW257478   7.041   8.650   8.223
18507SOL     OW57479   7.052   8.038   8.440
18507SOL    HW157480   7.022   7.943   8.447
18507SOL    HW257481   7.125   8.054   8.506
18508SOL     OW57482   7.443   8.281   7.825
18508SOL    HW157483   7.485   8.217   7.889
18508SOL    HW257484   7.405   8.230   7.747
18509SOL     OW57485   6.074   8.833   7.622
18509SOL    HW157486   5.987   8.818   7.669
18509SOL    HW257487   6.057   8.859   7.527
18510SOL     OW57488   7.250   8.728   8.105
18510SOL    HW157489   7.349   8.736   8.119
18510SOL    HW257490   7.205   8.812   8.136
18511SOL     OW57491   6.976   8.023   7.526
18511SOL    HW157492   6.922   8.002   7.607
18511SOL    HW257493   7.067   7.982   7.535
18512SOL     OW57494   6.113   7.704   7.776
18512SOL    HW157495   6.140   7.645   7.701
18512SOL    HW257496   6.113   7.799   7.745
18513SOL     OW57497   6.650   8.795   8.788
18513SOL    HW157498   6.570   8.772   8.843
18513SOL    HW257499   6.733   8.769   8.837
18514SOL     OW57500   6.697   8.643   8.548
18514SOL    HW157501   6.657   8.687   8.629
18514SOL    HW257502   6.656   8.680   8.465
18515SOL     OW57503   7.224   8.547   8.527
18515SOL    HW157504   7.229   8.628   8.586
18515SOL    HW257505   7.138   8.549   8.476
18516SOL     OW57506   6.501   7.537   8.850
18516SOL    HW157507   6.526   7.517   8.755
18516SOL    HW257508   6.573   7.593   8.892
18517SOL     OW57509   6.291   8.498   7.816
18517SOL    HW157510   6.277   8.505   7.915
18517SOL    HW257511   6.375   8.447   7.798
18518SOL     OW57512   5.996   8.261   8.699
18518SOL    HW157513   6.082   8.273   8.749
18518SOL    HW257514   5.954   8.174   8.726
18519SOL     OW57515   6.860   7.834   8.710
18519SOL    HW157516   6.881   7.908   8.774
18519SOL    HW257517   6.771   7.851   8.667
18520SOL     OW57518   5.953   8.548   7.949
18520SOL    HW157519   5.946   8.631   7.893
18520SOL    HW257520   5.957   8.468   7.889
18521SOL     OW57521   6.152   7.985   8.313
18521SOL    HW157522   6.164   8.051   8.239
18521SOL    HW257523   6.198   8.019   8.396
18522SOL     OW57524   6.838   8.796   7.836
18522SOL    HW157525   6.888   8.873   7.876
18522SOL    HW257526   6.743   8.798   7.868
18523SOL     OW57527   6.858   8.893   8.590
18523SOL    HW157528   6.905   8.906   8.677
18523SOL    HW257529   6.792   8.819   8.599
18524SOL     OW57530   7.168   8.087   7.920
18524SOL    HW157531   7.137   8.148   7.993
18524SOL    HW257532   7.218   8.139   7.851
18525SOL     OW57533   5.940   8.958   8.777
18525SOL    HW157534   5.919   8.914   8.690
18525SOL    HW257535   6.037   8.984   8.780
18526SOL     OW57536   5.988   8.199   0.046
18526SOL    HW157537   6.056   8.254  -0.001
18526SOL    HW257538   6.028   8.111   0.073
18527SOL     OW57539   7.173   8.227   0.118
18527SOL    HW157540   7.081   8.265   0.113
18527SOL    HW257541   7.233   8.274   0.053
18528SOL     OW57542   6.159   8.318   8.477
18528SOL    HW157543   6.203   8.407   8.468
18528SOL    HW257544   6.096   8.318   8.554
18529SOL     OW57545   6.946   8.310   8.493
18529SOL    HW157546   6.871   8.310   8.427
18529SOL    HW257547   6.983   8.218   8.502
18530SOL     OW57548   6.795   7.973   7.723
18530SOL    HW157549   6.808   7.889   7.777
18530SOL    HW257550   6.766   8.047   7.783
18531SOL     OW57551   5.893   7.661   8.679
18531SOL    HW157552   5.870   7.698   8.769
18531SOL    HW257553   5.863   7.566   8.673
18532SOL     OW57554   5.623   8.758   8.730
18532SOL    HW157555   5.676   8.709   8.798
18532SOL    HW257556   5.645   8.856   8.735
18533SOL     OW57557   6.318   8.082   8.512
18533SOL    HW157558   6.377   8.056   8.436
18533SOL    HW257559   6.290   8.178   8.501
18534SOL     OW57560   5.893   7.511   8.066
18534SOL    HW157561   5.882   7.605   8.099
18534SOL    HW257562   5.888   7.448   8.143
18535SOL     OW57563   7.208   7.815   7.822
18535SOL    HW157564   7.210   7.739   7.886
18535SOL    HW257565   7.160   7.892   7.862
18536SOL     OW57566   6.609   8.214   8.414
18536SOL    HW157567   6.624   8.235   8.510
18536SOL    HW257568   6.579   8.119   8.405
18537SOL     OW57569   7.445   8.966   0.053
18537SOL    HW157570   7.459   8.993  -0.042
18537SOL    HW257571   7.528   8.988   0.106
18538SOL     OW57572   7.126   7.722   7.573
18538SOL    HW157573   7.065   7.647   7.596
18538SOL    HW257574   7.148   7.774   7.656
18539SOL     OW57575   6.889   8.286   7.490
18539SOL    HW157576   6.923   8.193   7.505
18539SOL    HW257577   6.907   8.313   7.395
18540SOL     OW57578   6.654   8.781   8.297
18540SOL    HW157579   6.661   8.697   8.242
18540SOL    HW257580   6.716   8.850   8.261
18541SOL     OW57581   5.905   8.258   8.397
18541SOL    HW157582   5.998   8.294   8.402
18541SOL    HW257583   5.899   8.173   8.449
18542SOL     OW57584   5.925   7.957   8.454
18542SOL    HW157585   5.873   7.874   8.437
18542SOL    HW257586   6.002   7.962   8.390
18543SOL     OW57587   6.724   7.828   0.126
18543SOL    HW157588   6.679   7.891   0.190
18543SOL    HW257589   6.817   7.859   0.109
18544SOL     OW57590   6.746   7.655   8.925
18544SOL    HW157591   6.746   7.719   9.002
18544SOL    HW257592   6.774   7.703   8.842
18545SOL     OW57593   5.594   8.774   7.648
18545SOL    HW157594   5.501   8.795   7.617
18545SOL    HW257595   5.604   8.675   7.661
18546SOL     OW57596   6.588   8.244   8.686
18546SOL    HW157597   6.629   8.212   8.772
18546SOL    HW257598   6.492   8.217   8.683
18547SOL     OW57599   5.626   7.992   8.562
18547SOL    HW157600   5.711   7.959   8.521
18547SOL    HW257601   5.639   8.007   8.660
18548SOL     OW57602   6.401   8.020   7.773
18548SOL    HW157603   6.408   7.931   7.727
18548SOL    HW257604   6.307   8.054   7.765
18549SOL     OW57605   7.243   8.052   8.654
18549SOL    HW157606   7.205   7.983   8.716
18549SOL    HW257607   7.325   8.016   8.610
18550SOL     OW57608   6.257   7.912   8.717
18550SOL    HW157609   6.223   7.823   8.687
18550SOL    HW257610   6.283   7.966   8.637
18551SOL     OW57611   6.059   7.948   7.639
18551SOL    HW157612   6.120   8.028   7.643
18551SOL    HW257613   5.964   7.979   7.646
18552SOL     OW57614   5.745   8.585   8.914
18552SOL    HW157615   5.767   8.524   8.990
18552SOL    HW257616   5.755   8.536   8.828
18553SOL     OW57617   6.933   8.507   8.682
18553SOL    HW157618   6.957   8.444   8.608
18553SOL    HW257619   6.843   8.547   8.664
18554SOL     OW57620   6.888   8.303   7.757
18554SOL    HW157621   6.802   8.272   7.799
18554SOL    HW257622   6.884   8.289   7.658
18555SOL     OW57623   5.669   8.706   8.470
18555SOL    HW157624   5.664   8.705   8.570
18555SOL    HW257625   5.586   8.665   8.432
18556SOL     OW57626   6.489   7.534   7.581
18556SOL    HW157627   6.540   7.535   7.495
18556SOL    HW257628   6.545   7.492   7.652
18557SOL     OW57629   7.312   7.583   7.971
18557SOL    HW157630   7.385   7.566   7.904
18557SOL    HW257631   7.281   7.496   8.009
18558SOL     OW57632   6.866   8.375   8.120
18558SOL    HW157633   6.926   8.294   8.122
18558SOL    HW257634   6.906   8.444   8.060
18559SOL     OW57635   7.427   7.623   8.411
18559SOL    HW157636   7.466   7.538   8.375
18559SOL    HW257637   7.329   7.625   8.392
18560SOL     OW57638   5.849   7.774   8.168
18560SOL    HW157639   5.770   7.825   8.134
18560SOL    HW257640   5.840   7.759   8.266
18561SOL     OW57641   6.408   8.450   8.820
18561SOL    HW157642   6.448   8.449   8.728
18561SOL    HW257643   6.418   8.542   8.860
18562SOL     OW57644   6.502   8.358   7.739
18562SOL    HW157645   6.565   8.396   7.671
18562SOL    HW257646   6.542   8.275   7.778
18563SOL     OW57647   5.958   8.736   8.938
18563SOL    HW157648   5.945   8.829   8.904
18563SOL    HW257649   5.874   8.684   8.925
18564SOL     OW57650   7.200   8.740   8.737
18564SOL    HW157651   7.260   8.743   8.817
18564SOL    HW257652   7.125   8.804   8.750
18565SOL     OW57653   6.625   8.546   8.144
18565SOL    HW157654   6.555   8.499   8.198
18565SOL    HW257655   6.684   8.478   8.101
18566SOL     OW57656   6.600   7.684   8.419
18566SOL    HW157657   6.592   7.648   8.326
18566SOL    HW257658   6.598   7.608   8.484
18567SOL     OW57659   7.295   7.833   8.829
18567SOL    HW157660   7.368   7.902   8.833
18567SOL    HW257661   7.323   7.758   8.770
18568SOL     OW57662   5.841   8.796   7.738
18568SOL    HW157663   5.745   8.797   7.711
18568SOL    HW257664   5.853   8.849   7.822
18569SOL     OW57665   5.661   7.793   7.481
18569SOL    HW157666   5.569   7.765   7.452
18569SOL    HW257667   5.692   7.870   7.425
18570SOL     OW57668   7.026   8.304   8.846
18570SOL    HW157669   6.969   8.356   8.783
18570SOL    HW257670   7.122   8.316   8.822
18571SOL     OW57671   5.658   7.614   7.766
18571SOL    HW157672   5.641   7.697   7.712
18571SOL    HW257673   5.748   7.577   7.744
18572SOL     OW57674   6.769   8.783   7.567
18572SOL    HW157675   6.670   8.772   7.569
18572SOL    HW257676   6.803   8.798   7.660
18573SOL     OW57677   6.199   8.290   8.879
18573SOL    HW157678   6.255   8.371   8.862
18573SOL    HW257679   6.258   8.210   8.882
18574SOL     OW57680   7.260   8.331   8.702
18574SOL    HW157681   7.233   8.242   8.665
18574SOL    HW257682   7.261   8.399   8.629
18575SOL     OW57683   6.811   7.773   7.897
18575SOL    HW157684   6.876   7.699   7.886
18575SOL    HW257685   6.831   7.823   7.981
18576SOL     OW57686   6.180   8.193   8.100
18576SOL    HW157687   6.230   8.278   8.081
18576SOL    HW257688   6.092   8.195   8.052
18577SOL     OW57689   7.363   7.790   0.090
18577SOL    HW157690   7.346   7.821  -0.004
18577SOL    HW257691   7.279   7.753   0.128
18578SOL     OW57692   7.316   8.382   8.965
18578SOL    HW157693   7.354   8.473   8.980
18578SOL    HW257694   7.308   8.365   8.866
18579SOL     OW57695   6.445   8.822   7.464
18579SOL    HW157696   6.399   8.837   7.552
18579SOL    HW257697   6.489   8.907   7.434
18580SOL     OW57698   6.445   8.404   8.309
18580SOL    HW157699   6.499   8.335   8.357
18580SOL    HW257700   6.413   8.473   8.375
18581SOL     OW57701   6.669   8.432   7.535
18581SOL    HW157702   6.646   8.485   7.453
18581SOL    HW257703   6.750   8.376   7.516
18582SOL     OW57704   5.665   8.688   8.101
18582SOL    HW157705   5.664   8.641   8.189
18582SOL    HW257706   5.747   8.660   8.050
18583SOL     OW57707   7.410   7.640   8.675
18583SOL    HW157708   7.406   7.550   8.719
18583SOL    HW257709   7.413   7.629   8.576
18584SOL     OW57710   6.014   7.872   7.968
18584SOL    HW157711   6.044   7.800   7.906
18584SOL    HW257712   5.975   7.832   8.051
18585SOL     OW57713   7.291   8.935   8.552
18585SOL    HW157714   7.198   8.910   8.525
18585SOL    HW257715   7.317   8.885   8.634
18586SOL     OW57716   5.903   7.995   8.728
18586SOL    HW157717   5.941   7.936   8.800
18586SOL    HW257718   5.943   7.969   8.640
18587SOL     OW57719   7.010   7.662   8.560
18587SOL    HW157720   7.062   7.597   8.615
18587SOL    HW257721   6.961   7.725   8.621
18588SOL     OW57722   6.587   7.482   8.602
18588SOL    HW157723   6.524   7.410   8.571
18588SOL    HW257724   6.680   7.446   8.602
18589SOL     OW57725   6.356   8.778   7.749
18589SOL    HW157726   6.310   8.691   7.766
18589SOL    HW257727   6.447   8.775   7.790
18590SOL     OW57728   6.204   0.015   8.732
18590SOL    HW157729   6.199   0.097   8.789
18590SOL    HW257730   6.293   0.012   8.687
18591SOL     OW57731   6.938   7.500   7.616
18591SOL    HW157732   6.973   7.459   7.532
18591SOL    HW257733   6.848   7.462   7.636
18592SOL     OW57734   6.886   7.901   8.139
18592SOL    HW157735   6.827   7.981   8.143
18592SOL    HW257736   6.901   7.866   8.232
18593SOL     OW57737   7.179   7.669   8.330
18593SOL    HW157738   7.095   7.668   8.384
18593SOL    HW257739   7.181   7.752   8.274
18594SOL     OW57740   5.625   8.525   7.748
18594SOL    HW157741   5.724   8.514   7.739
18594SOL    HW257742   5.585   8.439   7.780
18595SOL     OW57743   7.678   0.628   0.113
18595SOL    HW157744   7.585   0.626   0.150
18595SOL    HW257745   7.679   0.589   0.021
18596SOL     OW57746   7.673   0.275   0.996
18596SOL    HW157747   7.708   0.258   1.088
18596SOL    HW257748   7.585   0.230   0.984
18597SOL     OW57749   7.467   0.368   0.647
18597SOL    HW157750   7.385   0.411   0.686
18597SOL    HW257751   7.439   0.295   0.584
18598SOL     OW57752   8.017   1.275   1.165
18598SOL    HW157753   7.924   1.268   1.128
18598SOL    HW257754   8.028   1.364   1.209
18599SOL     OW57755   0.003   1.511   0.703
18599SOL    HW157756  -0.054   1.495   0.784
18599SOL    HW257757  -0.056   1.521   0.623
18600SOL     OW57758   0.191   0.618   0.856
18600SOL    HW157759   0.224   0.712   0.856
18600SOL    HW257760   0.242   0.564   0.922
18601SOL     OW57761   8.583   0.703   0.717
18601SOL    HW157762   8.640   0.781   0.692
18601SOL    HW257763   8.523   0.729   0.793
18602SOL     OW57764   0.203   0.607   0.231
18602SOL    HW157765   0.191   0.594   0.132
18602SOL    HW257766   0.173   0.526   0.280
18603SOL     OW57767   8.216   1.144   1.023
18603SOL    HW157768   8.138   1.161   1.083
18603SOL    HW257769   8.250   1.231   0.987
18604SOL     OW57770   8.298   0.798   1.823
18604SOL    HW157771   8.294   0.874   1.888
18604SOL    HW257772   8.320   0.834   1.732
18605SOL     OW57773   8.133   1.012   0.665
18605SOL    HW157774   8.202   0.996   0.735
18605SOL    HW257775   8.060   1.069   0.703
18606SOL     OW57776   8.134   1.161   1.803
18606SOL    HW157777   8.194   1.240   1.817
18606SOL    HW257778   8.048   1.192   1.762
18607SOL     OW57779   7.783   1.435   1.061
18607SOL    HW157780   7.705   1.404   1.008
18607SOL    HW257781   7.841   1.493   1.004
18608SOL     OW57782   8.908   1.505   1.339
18608SOL    HW157783   8.932   1.599   1.365
18608SOL    HW257784   8.892   1.451   1.421
18609SOL     OW57785   7.886   0.392   1.499
18609SOL    HW157786   7.968   0.336   1.508
18609SOL    HW257787   7.805   0.334   1.503
18610SOL     OW57788   7.679   1.713   0.483
18610SOL    HW157789   7.713   1.790   0.537
18610SOL    HW257790   7.723   1.713   0.393
18611SOL     OW57791   8.575   1.341   1.690
18611SOL    HW157792   8.622   1.341   1.778
18611SOL    HW257793   8.527   1.254   1.679
18612SOL     OW57794   7.678   1.434   0.538
18612SOL    HW157795   7.652   1.530   0.538
18612SOL    HW257796   7.607   1.380   0.583
18613SOL     OW57797   7.688   1.091   0.886
18613SOL    HW157798   7.702   1.007   0.938
18613SOL    HW257799   7.633   1.155   0.941
18614SOL     OW57800   8.068   1.786   1.439
18614SOL    HW157801   7.976   1.769   1.474
18614SOL    HW257802   8.096   1.878   1.465
18615SOL     OW57803   8.054   0.964   0.123
18615SOL    HW157804   8.061   1.048   0.069
18615SOL    HW257805   8.100   0.977   0.211
18616SOL     OW57806   0.042   0.114   1.480
18616SOL    HW157807   0.024   0.181   1.408
18616SOL    HW257808   0.039   0.160   1.569
18617SOL     OW57809   7.570   0.643   0.563
18617SOL    HW157810   7.525   0.555   0.580
18617SOL    HW257811   7.569   0.697   0.647
18618SOL     OW57812   0.137   0.922   0.612
18618SOL    HW157813   0.232   0.893   0.620
18618SOL    HW257814   0.129   0.987   0.537
18619SOL     OW57815   0.089   1.108   0.432
18619SOL    HW157816   0.175   1.110   0.380
18619SOL    HW257817   0.103   1.155   0.520
18620SOL     OW57818   7.561   0.737   1.597
18620SOL    HW157819   7.649   0.724   1.642
18620SOL    HW257820   7.548   0.834   1.575
18621SOL     OW57821   8.061   1.365   0.726
18621SOL    HW157822   8.012   1.278   0.735
18621SOL    HW257823   8.038   1.408   0.639
18622SOL     OW57824   8.741   1.228   1.423
18622SOL    HW157825   8.778   1.155   1.365
18622SOL    HW257826   8.793   1.233   1.508
18623SOL     OW57827   8.257   0.004   0.502
18623SOL    HW157828   8.297   0.095   0.493
18623SOL    HW257829   8.157   0.012   0.508
18624SOL     OW57830   7.645   0.976   1.264
18624SOL    HW157831   7.734   0.931   1.250
18624SOL    HW257832   7.572   0.911   1.245
18625SOL     OW57833   8.973   0.999   0.190
18625SOL    HW157834   8.910   0.923   0.203
18625SOL    HW257835   9.021   1.017   0.276
18626SOL     OW57836   8.635   1.792   1.616
18626SOL    HW157837   8.659   1.852   1.540
18626SOL    HW257838   8.642   1.697   1.586
18627SOL     OW57839   7.765   0.251   1.801
18627SOL    HW157840   7.836   0.322   1.807
18627SOL    HW257841   7.677   0.290   1.829
18628SOL     OW57842   8.914   1.417   0.953
18628SOL    HW157843   8.855   1.423   1.033
18628SOL    HW257844   8.899   1.329   0.907
18629SOL     OW57845   0.115   1.714   0.572
18629SOL    HW157846   0.074   1.691   0.484
18629SOL    HW257847   0.097   1.640   0.637
18630SOL     OW57848   8.046   0.729   0.270
18630SOL    HW157849   8.070   0.798   0.202
18630SOL    HW257850   7.968   0.762   0.324
18631SOL     OW57851   8.729   0.345   0.944
18631SOL    HW157852   8.643   0.295   0.931
18631SOL    HW257853   8.791   0.291   1.000
18632SOL     OW57854   0.024   1.662   0.307
18632SOL    HW157855   0.113   1.708   0.310
18632SOL    HW257856   0.003   1.638   0.212
18633SOL     OW57857   8.255   0.605   1.465
18633SOL    HW157858   8.208   0.602   1.554
18633SOL    HW257859   8.204   0.550   1.399
18634SOL     OW57860   8.842   0.469   1.674
18634SOL    HW157861   8.822   0.512   1.762
18634SOL    HW257862   8.920   0.407   1.683
18635SOL     OW57863   8.421   0.890   1.572
18635SOL    HW157864   8.467   0.806   1.543
18635SOL    HW257865   8.365   0.924   1.497
18636SOL     OW57866   8.439   0.410   1.242
18636SOL    HW157867   8.362   0.444   1.296
18636SOL    HW257868   8.405   0.359   1.163
18637SOL     OW57869   8.489   0.701   0.429
18637SOL    HW157870   8.515   0.697   0.525
18637SOL    HW257871   8.404   0.650   0.415
18638SOL     OW57872   7.524   0.811   0.789
18638SOL    HW157873   7.623   0.799   0.798
18638SOL    HW257874   7.500   0.906   0.810
18639SOL     OW57875   7.578   1.821   1.571
18639SOL    HW157876   7.568   1.806   1.670
18639SOL    HW257877   7.492   1.857   1.535
18640SOL     OW57878   8.313   0.348   0.195
18640SOL    HW157879   8.372   0.411   0.146
18640SOL    HW257880   8.332   0.254   0.166
18641SOL     OW57881   0.167   0.585   1.831
18641SOL    HW157882   0.141   0.674   1.795
18641SOL    HW257883   0.165   0.517   1.758
18642SOL     OW57884   8.810   1.144   0.545
18642SOL    HW157885   8.893   1.115   0.497
18642SOL    HW257886   8.761   1.211   0.489
18643SOL     OW57887   7.998   0.196   0.885
18643SOL    HW157888   7.993   0.191   0.985
18643SOL    HW257889   8.000   0.292   0.856
18644SOL     OW57890   8.456   1.456   0.477
18644SOL    HW157891   8.410   1.528   0.425
18644SOL    HW257892   8.452   1.476   0.575
18645SOL     OW57893   7.799   1.801   0.853
18645SOL    HW157894   7.849   1.715   0.859
18645SOL    HW257895   7.864   1.878   0.850
18646SOL     OW57896   0.243   1.066   0.873
18646SOL    HW157897   0.181   1.051   0.797
18646SOL    HW257898   0.191   1.077   0.958
18647SOL     OW57899   8.675   1.550   1.506
18647SOL    HW157900   8.681   1.473   1.570
18647SOL    HW257901   8.623   1.524   1.426
18648SOL     OW57902   7.769   0.943   0.242
18648SOL    HW157903   7.851   0.982   0.200
18648SOL    HW257904   7.742   0.861   0.193
18649SOL     OW57905   8.906   0.735   0.728
18649SOL    HW157906   8.901   0.670   0.803
18649SOL    HW257907   8.986   0.794   0.741
18650SOL     OW57908   7.909   1.266   1.727
18650SOL    HW157909   7.859   1.267   1.641
18650SOL    HW257910   7.846   1.248   1.803
18651SOL     OW57911   8.559   1.776   0.237
18651SOL    HW157912   8.499   1.714   0.287
18651SOL    HW257913   8.590   1.732   0.152
18652SOL     OW57914   7.650   0.285   1.498
18652SOL    HW157915   7.570   0.345   1.485
18652SOL    HW257916   7.640   0.236   1.584
18653SOL     OW57917   0.080   1.377   0.081
18653SOL    HW157918   0.048   1.471   0.071
18653SOL    HW257919   0.004   1.314   0.069
18654SOL     OW57920   7.912   1.743   0.323
18654SOL    HW157921   7.945   1.782   0.409
18654SOL    HW257922   7.988   1.736   0.258
18655SOL     OW57923   8.848   0.107   0.426
18655SOL    HW157924   8.824   0.070   0.336
18655SOL    HW257925   8.947   0.123   0.430
18656SOL     OW57926   7.697   1.785   1.241
18656SOL    HW157927   7.754   1.720   1.291
18656SOL    HW257928   7.681   1.752   1.148
18657SOL     OW57929   8.388   1.698   0.904
18657SOL    HW157930   8.468   1.641   0.925
18657SOL    HW257931   8.339   1.658   0.827
18658SOL     OW57932   7.830   0.700   0.480
18658SOL    HW157933   7.875   0.610   0.477
18658SOL    HW257934   7.736   0.689   0.513
18659SOL     OW57935   8.995   0.222   1.729
18659SOL    HW157936   8.990   0.259   1.821
18659SOL    HW257937   8.923   0.153   1.717
18660SOL     OW57938   8.062   0.122   0.117
18660SOL    HW157939   8.160   0.100   0.124
18660SOL    HW257940   8.031   0.105   0.024
18661SOL     OW57941   8.229   0.264   1.749
18661SOL    HW157942   8.296   0.203   1.792
18661SOL    HW257943   8.156   0.283   1.814
18662SOL     OW57944   8.336   1.514   1.195
18662SOL    HW157945   8.313   1.489   1.101
18662SOL    HW257946   8.397   1.445   1.234
18663SOL     OW57947   8.799   0.590   1.433
18663SOL    HW157948   8.827   0.547   1.518
18663SOL    HW257949   8.824   0.686   1.434
18664SOL     OW57950   8.251   1.402   0.924
18664SOL    HW157951   8.341   1.416   0.882
18664SOL    HW257952   8.180   1.404   0.853
18665SOL     OW57953   8.370   0.503   0.899
18665SOL    HW157954   8.345   0.494   0.803
18665SOL    HW257955   8.418   0.421   0.930
18666SOL     OW57956   7.987   0.064   0.512
18666SOL    HW157957   7.906   0.065   0.570
18666SOL    HW257958   7.990   0.147   0.457
18667SOL     OW57959   8.882   1.188   0.041
18667SOL    HW157960   8.914   1.112   0.098
18667SOL    HW257961   8.790   1.215   0.071
18668SOL     OW57962   7.745   0.035   0.171
18668SOL    HW157963   7.794   0.119   0.150
18668SOL    HW257964   7.807  -0.030   0.216
18669SOL     OW57965   8.383   0.236   0.480
18669SOL    HW157966   8.335   0.277   0.402
18669SOL    HW257967   8.482   0.234   0.461
18670SOL     OW57968   8.524   0.683   1.464
18670SOL    HW157969   8.444   0.622   1.467
18670SOL    HW257970   8.605   0.630   1.440
18671SOL     OW57971   8.675   1.570   0.793
18671SOL    HW157972   8.696   1.644   0.728
18671SOL    HW257973   8.743   1.570   0.866
18672SOL     OW57974   7.907   1.152   0.741
18672SOL    HW157975   7.836   1.125   0.806
18672SOL    HW257976   7.881   1.124   0.648
18673SOL     OW57977   8.719   1.797   0.591
18673SOL    HW157978   8.763   1.861   0.527
18673SOL    HW257979   8.669   1.849   0.661
18674SOL     OW57980   8.480   0.549   0.016
18674SOL    HW157981   8.439   0.631  -0.023
18674SOL    HW257982   8.544   0.575   0.089
18675SOL     OW57983   7.526   0.556   1.386
18675SOL    HW157984   7.618   0.555   1.345
18675SOL    HW257985   7.520   0.630   1.453
18676SOL     OW57986   8.009   0.222   1.147
18676SOL    HW157987   8.047   0.138   1.184
18676SOL    HW257988   7.921   0.241   1.191
18677SOL     OW57989   8.314   0.454   0.642
18677SOL    HW157990   8.282   0.526   0.580
18677SOL    HW257991   8.338   0.373   0.589
18678SOL     OW57992   8.465   0.039   0.753
18678SOL    HW157993   8.393   0.044   0.684
18678SOL    HW257994   8.441  -0.030   0.822
18679SOL     OW57995   8.877   1.173   0.867
18679SOL    HW157996   8.822   1.089   0.860
18679SOL    HW257997   8.903   1.202   0.775
18680SOL     OW57998   8.914   0.590   0.992
18680SOL    HW157999   8.884   0.495   0.999
18680SOL    HW258000   8.987   0.606   1.058
18681SOL     OW58001   7.936   1.385   0.174
18681SOL    HW158002   7.849   1.370   0.221
18681SOL    HW258003   7.919   1.411   0.079
18682SOL     OW58004   0.112   1.280   0.657
18682SOL    HW158005   0.211   1.288   0.671
18682SOL    HW258006   0.067   1.364   0.688
18683SOL     OW58007   8.838   0.575   0.078
18683SOL    HW158008   8.784   0.554   0.159
18683SOL    HW258009   8.929   0.534   0.087
18684SOL     OW58010   7.975   0.256   0.328
18684SOL    HW158011   8.002   0.197   0.253
18684SOL    HW258012   7.975   0.351   0.297
18685SOL     OW58013   8.512   1.347   1.340
18685SOL    HW158014   8.432   1.324   1.395
18685SOL    HW258015   8.595   1.321   1.389
18686SOL     OW58016   0.040   1.629   1.625
18686SOL    HW158017   0.067   1.663   1.535
18686SOL    HW258018   0.119   1.591   1.671
18687SOL     OW58019   8.559   1.195   1.100
18687SOL    HW158020   8.519   1.239   1.181
18687SOL    HW258021   8.518   1.232   1.017
18688SOL     OW58022   0.086   1.099   1.079
18688SOL    HW158023   0.091   1.180   1.138
18688SOL    HW258024   0.000   1.101   1.028
18689SOL     OW58025   8.363   0.089   1.402
18689SOL    HW158026   8.388   0.069   1.307
18689SOL    HW258027   8.435   0.145   1.444
18690SOL     OW58028   8.428   1.116   1.719
18690SOL    HW158029   8.329   1.122   1.729
18690SOL    HW258030   8.451   1.036   1.663
18691SOL     OW58031   8.153   1.050   0.368
18691SOL    HW158032   8.139   1.057   0.467
18691SOL    HW258033   8.237   0.999   0.350
18692SOL     OW58034   7.858   0.813   1.251
18692SOL    HW158035   7.944   0.825   1.301
18692SOL    HW258036   7.816   0.726   1.278
18693SOL     OW58037   8.722   0.386   1.262
18693SOL    HW158038   8.743   0.460   1.326
18693SOL    HW258039   8.633   0.403   1.219
18694SOL     OW58040   7.512   1.564   1.331
18694SOL    HW158041   7.466   1.646   1.297
18694SOL    HW258042   7.610   1.583   1.340
18695SOL     OW58043   7.815   1.100   0.501
18695SOL    HW158044   7.808   1.183   0.445
18695SOL    HW258045   7.819   1.020   0.441
18696SOL     OW58046   8.014   0.537   0.865
18696SOL    HW158047   8.026   0.603   0.791
18696SOL    HW258048   8.060   0.571   0.948
18697SOL     OW58049   8.700   1.348   0.388
18697SOL    HW158050   8.750   1.425   0.428
18697SOL    HW258051   8.605   1.350   0.420
18698SOL     OW58052   8.720   1.445   1.142
18698SOL    HW158053   8.767   1.458   1.229
18698SOL    HW258054   8.654   1.371   1.151
18699SOL     OW58055   0.030   0.639   0.472
18699SOL    HW158056  -0.001   0.700   0.545
18699SOL    HW258057   0.080   0.691   0.403
18700SOL     OW58058   7.802   1.510   1.329
18700SOL    HW158059   7.781   1.466   1.242
18700SOL    HW258060   7.899   1.536   1.332
18701SOL     OW58061   7.850   0.751   1.598
18701SOL    HW158062   7.918   0.806   1.551
18701SOL    HW258063   7.890   0.663   1.625
18702SOL     OW58064   0.035   0.779   1.670
18702SOL    HW158065  -0.057   0.817   1.665
18702SOL    HW258066   0.095   0.826   1.605
18703SOL     OW58067   8.461   0.105   1.770
18703SOL    HW158068   8.467   0.190   1.718
18703SOL    HW258069   8.493   0.029   1.713
18704SOL     OW58070   7.952   0.050   1.740
18704SOL    HW158071   7.910  -0.007   1.670
18704SOL    HW258072   7.886   0.119   1.772
18705SOL     OW58073   8.021   0.870   1.029
18705SOL    HW158074   8.065   0.959   1.020
18705SOL    HW258075   7.958   0.870   1.106
18706SOL     OW58076   8.808   0.862   1.045
18706SOL    HW158077   8.733   0.862   0.979
18706SOL    HW258078   8.845   0.770   1.054
18707SOL     OW58079   8.657   0.525   0.275
18707SOL    HW158080   8.670   0.441   0.329
18707SOL    HW258081   8.628   0.599   0.335
18708SOL     OW58082   7.755   0.213   1.231
18708SOL    HW158083   7.732   0.250   1.321
18708SOL    HW258084   7.725   0.118   1.225
18709SOL     OW58085   7.485   1.310   1.282
18709SOL    HW158086   7.538   1.261   1.350
18709SOL    HW258087   7.507   1.408   1.287
18710SOL     OW58088   8.180   0.634   1.064
18710SOL    HW158089   8.239   0.608   0.988
18710SOL    HW258090   8.152   0.730   1.053
18711SOL     OW58091   0.176   0.935   1.854
18711SOL    HW158092   0.130   0.928   1.765
18711SOL    HW258093   0.114   0.979   1.920
18712SOL     OW58094   7.755   0.063   0.618
18712SOL    HW158095   7.744   0.157   0.651
18712SOL    HW258096   7.750   0.000   0.695
18713SOL     OW58097   0.070   0.367   0.374
18713SOL    HW158098   0.072   0.291   0.438
18713SOL    HW258099   0.022   0.444   0.414
18714SOL     OW58100   8.471   0.766   0.966
18714SOL    HW158101   8.486   0.787   1.062
18714SOL    HW258102   8.441   0.671   0.957
18715SOL     OW58103   8.428   1.573   1.700
18715SOL    HW158104   8.408   1.617   1.612
18715SOL    HW258105   8.467   1.482   1.684
18716SOL     OW58106   7.798   0.898   1.804
18716SOL    HW158107   7.874   0.942   1.852
18716SOL    HW258108   7.833   0.851   1.722
18717SOL     OW58109   8.988   0.274   0.125
18717SOL    HW158110   8.927   0.199   0.148
18717SOL    HW258111   9.010   0.326   0.208
18718SOL     OW58112   8.751   0.838   0.042
18718SOL    HW158113   8.785   0.745   0.057
18718SOL    HW258114   8.769   0.865  -0.053
18719SOL     OW58115   8.516   1.333   0.849
18719SOL    HW158116   8.523   1.249   0.794
18719SOL    HW258117   8.578   1.402   0.813
18720SOL     OW58118   7.767   0.810   0.949
18720SOL    HW158119   7.860   0.846   0.954
18720SOL    HW258120   7.761   0.725   1.001
18721SOL     OW58121   7.787   0.509   1.006
18721SOL    HW158122   7.735   0.426   0.989
18721SOL    HW258123   7.864   0.514   0.942
18722SOL     OW58124   8.586   0.380   1.678
18722SOL    HW158125   8.541   0.443   1.742
18722SOL    HW258126   8.679   0.411   1.661
18723SOL     OW58127   8.608   0.207   1.477
18723SOL    HW158128   8.608   0.271   1.554
18723SOL    HW258129   8.636   0.255   1.394
18724SOL     OW58130   7.456   1.326   0.200
18724SOL    HW158131   7.363   1.347   0.169
18724SOL    HW258132   7.466   1.227   0.213
18725SOL     OW58133   7.536   1.801   0.927
18725SOL    HW158134   7.494   1.715   0.900
18725SOL    HW258135   7.630   1.804   0.893
18726SOL     OW58136   7.952   1.568   0.910
18726SOL    HW158137   8.018   1.642   0.919
18726SOL    HW258138   7.996   1.489   0.868
18727SOL     OW58139   8.450   0.796   1.238
18727SOL    HW158140   8.491   0.764   1.324
18727SOL    HW258141   8.354   0.769   1.235
18728SOL     OW58142   7.488   0.544   1.114
18728SOL    HW158143   7.573   0.511   1.073
18728SOL    HW258144   7.501   0.559   1.212
18729SOL     OW58145   7.637   0.520   1.722
18729SOL    HW158146   7.696   0.480   1.652
18729SOL    HW258147   7.579   0.591   1.681
18730SOL     OW58148   8.817   0.950   1.660
18730SOL    HW158149   8.856   1.039   1.680
18730SOL    HW258150   8.827   0.930   1.563
18731SOL     OW58151   8.263   0.572   0.325
18731SOL    HW158152   8.270   0.483   0.279
18731SOL    HW258153   8.169   0.606   0.317
18732SOL     OW58154   0.105   0.604   1.206
18732SOL    HW158155   0.067   0.535   1.268
18732SOL    HW258156   0.187   0.568   1.162
18733SOL     OW58157   7.700   1.564   1.744
18733SOL    HW158158   7.670   1.621   1.820
18733SOL    HW258159   7.693   1.467   1.770
18734SOL     OW58160   8.119   0.464   1.269
18734SOL    HW158161   8.085   0.375   1.239
18734SOL    HW258162   8.145   0.518   1.189
18735SOL     OW58163   8.378   1.678   1.465
18735SOL    HW158164   8.354   1.660   1.370
18735SOL    HW258165   8.408   1.772   1.475
18736SOL     OW58166   7.921   0.500   0.191
18736SOL    HW158167   7.982   0.580   0.195
18736SOL    HW258168   7.826   0.531   0.198
18737SOL     OW58169   7.607   1.137   1.466
18737SOL    HW158170   7.629   1.076   1.542
18737SOL    HW258171   7.617   1.088   1.380
18738SOL     OW58172   8.795   1.059   1.234
18738SOL    HW158173   8.819   0.996   1.160
18738SOL    HW258174   8.705   1.099   1.216
18739SOL     OW58175   8.750   0.855   0.309
18739SOL    HW158176   8.664   0.824   0.351
18739SOL    HW258177   8.746   0.841   0.210
18740SOL     OW58178   8.700   1.731   1.128
18740SOL    HW158179   8.784   1.736   1.074
18740SOL    HW258180   8.677   1.635   1.146
18741SOL     OW58181   7.531   1.258   1.022
18741SOL    HW158182   7.526   1.257   1.122
18741SOL    HW258183   7.448   1.217   0.984
18742SOL     OW58184   8.136   1.662   1.716
18742SOL    HW158185   8.080   1.743   1.725
18742SOL    HW258186   8.188   1.666   1.630
18743SOL     OW58187   8.351   0.086   0.133
18743SOL    HW158188   8.402   0.087   0.047
18743SOL    HW258189   8.407   0.044   0.204
18744SOL     OW58190   0.174   0.135   0.523
18744SOL    HW158191   0.247   0.118   0.456
18744SOL    HW258192   0.143   0.048   0.561
18745SOL     OW58193   8.836   1.573   0.477
18745SOL    HW158194   8.903   1.585   0.403
18745SOL    HW258195   8.796   1.662   0.500
18746SOL     OW58196   7.578   1.794   1.851
18746SOL    HW158197   7.537   1.720   1.904
18746SOL    HW258198   7.642   1.845   1.909
18747SOL     OW58199   8.728   0.927   0.672
18747SOL    HW158200   8.788   0.846   0.674
18747SOL    HW258201   8.768   0.996   0.612
18748SOL     OW58202   8.278   1.273   1.422
18748SOL    HW158203   8.273   1.306   1.517
18748SOL    HW258204   8.192   1.292   1.376
18749SOL     OW58205   8.120   1.616   0.154
18749SOL    HW158206   8.129   1.626   0.055
18749SOL    HW258207   8.080   1.527   0.175
18750SOL     OW58208   0.098   1.720   1.394
18750SOL    HW158209   0.151   1.730   1.310
18750SOL    HW258210   0.071   1.810   1.428
18751SOL     OW58211   7.711   0.326   0.720
18751SOL    HW158212   7.632   0.377   0.686
18751SOL    HW258213   7.702   0.311   0.818
18752SOL     OW58214   8.642   1.612   0.031
18752SOL    HW158215   8.648   1.519   0.068
18752SOL    HW258216   8.583   1.612  -0.049
18753SOL     OW58217   8.270   1.002   1.372
18753SOL    HW158218   8.310   1.001   1.280
18753SOL    HW258219   8.280   1.094   1.412
18754SOL     OW58220   8.364   0.910   0.291
18754SOL    HW158221   8.427   0.948   0.223
18754SOL    HW258222   8.404   0.827   0.330
18755SOL     OW58223   8.952   1.607   0.044
18755SOL    HW158224   8.860   1.644   0.051
18755SOL    HW258225   8.990   1.627  -0.046
18756SOL     OW58226   7.820   1.288   1.490
18756SOL    HW158227   7.807   1.381   1.456
18756SOL    HW258228   7.736   1.236   1.477
18757SOL     OW58229   0.062   1.292   1.289
18757SOL    HW158230   0.122   1.295   1.369
18757SOL    HW258231  -0.013   1.356   1.302
18758SOL     OW58232   8.487   1.098   0.696
18758SOL    HW158233   8.417   1.051   0.750
18758SOL    HW258234   8.546   1.030   0.653
18759SOL     OW58235   8.462   0.236   0.971
18759SOL    HW158236   8.454   0.200   0.878
18759SOL    HW258237   8.460   0.160   1.036
18760SOL     OW58238   8.038   1.487   0.491
18760SOL    HW158239   8.080   1.429   0.421
18760SOL    HW258240   7.994   1.566   0.447
18761SOL     OW58241   0.157   0.385   1.381
18761SOL    HW158242   0.230   0.454   1.385
18761SOL    HW258243   0.185   0.310   1.322
18762SOL     OW58244   7.703   1.348   0.290
18762SOL    HW158245   7.607   1.349   0.263
18762SOL    HW258246   7.715   1.401   0.374
18763SOL     OW58247   7.553   1.013   1.726
18763SOL    HW158248   7.476   0.980   1.780
18763SOL    HW258249   7.638   0.983   1.768
18764SOL     OW58250   8.120   0.203   1.489
18764SOL    HW158251   8.210   0.187   1.449
18764SOL    HW258252   8.128   0.208   1.588
18765SOL     OW58253   8.888   0.856   1.398
18765SOL    HW158254   8.831   0.908   1.335
18765SOL    HW258255   8.984   0.868   1.374
18766SOL     OW58256   7.520   0.166   0.318
18766SOL    HW158257   7.503   0.249   0.264
18766SOL    HW258258   7.610   0.129   0.296
18767SOL     OW58259   8.631   1.335   0.119
18767SOL    HW158260   8.532   1.324   0.121
18767SOL    HW258261   8.665   1.350   0.212
18768SOL     OW58262   8.061   0.842   1.431
18768SOL    HW158263   8.117   0.923   1.414
18768SOL    HW258264   8.120   0.762   1.434
18769SOL     OW58265   8.941   1.767   0.959
18769SOL    HW158266   8.974   1.831   0.890
18769SOL    HW258267   9.007   1.761   1.034
18770SOL     OW58268   8.164   0.565   1.708
18770SOL    HW158269   8.183   0.630   1.782
18770SOL    HW258270   8.224   0.485   1.717
18771SOL     OW58271   8.898   1.220   1.633
18771SOL    HW158272   8.889   1.210   1.732
18771SOL    HW258273   8.994   1.213   1.607
18772SOL     OW58274   7.838   1.741   1.560
18772SOL    HW158275   7.747   1.782   1.558
18772SOL    HW258276   7.831   1.647   1.592
18773SOL     OW58277   0.122   0.883   1.254
18773SOL    HW158278   0.095   0.794   1.217
18773SOL    HW258279   0.123   0.951   1.181
18774SOL     OW58280   8.673   0.325   0.449
18774SOL    HW158281   8.738   0.251   0.438
18774SOL    HW258282   8.693   0.375   0.533
18775SOL     OW58283   8.042   0.745   0.652
18775SOL    HW158284   8.092   0.830   0.633
18775SOL    HW258285   7.954   0.747   0.604
18776SOL     OW58286   0.225   0.342   1.642
18776SOL    HW158287   0.208   0.373   1.548
18776SOL    HW258288   0.141   0.305   1.680
18777SOL     OW58289   0.178   0.934   1.517
18777SOL    HW158290   0.216   1.025   1.532
18777SOL    HW258291   0.170   0.917   1.418
18778SOL     OW58292   8.307   1.374   0.016
18778SOL    HW158293   8.261   1.389   0.104
18778SOL    HW258294   8.351   1.459  -0.014
18779SOL     OW58295   8.109   1.790   0.953
18779SOL    HW158296   8.063   1.878   0.940
18779SOL    HW258297   8.208   1.802   0.946
18780SOL     OW58298   8.307   0.956   0.861
18780SOL    HW158299   8.361   0.887   0.909
18780SOL    HW258300   8.275   1.025   0.927
18781SOL     OW58301   8.531   0.984   0.087
18781SOL    HW158302   8.508   1.037   0.005
18781SOL    HW258303   8.612   0.928   0.068
18782SOL     OW58304   7.669   1.314   1.844
18782SOL    HW158305   7.604   1.241   1.823
18782SOL    HW258306   7.673   1.328   1.942
18783SOL     OW58307   7.527   1.240   0.653
18783SOL    HW158308   7.526   1.193   0.741
18783SOL    HW258309   7.609   1.212   0.602
18784SOL     OW58310   8.120   1.391   1.624
18784SOL    HW158311   8.042   1.341   1.662
18784SOL    HW258312   8.117   1.486   1.655
18785SOL     OW58313   7.876   0.424   0.520
18785SOL    HW158314   7.906   0.352   0.458
18785SOL    HW258315   7.837   0.384   0.603
18786SOL     OW58316   0.153   1.487   1.104
18786SOL    HW158317   0.060   1.462   1.077
18786SOL    HW258318   0.179   1.437   1.186
18787SOL     OW58319   7.765   0.547   1.280
18787SOL    HW158320   7.803   0.488   1.352
18787SOL    HW258321   7.805   0.521   1.192
18788SOL     OW58322   8.260   1.586   0.687
18788SOL    HW158323   8.292   1.596   0.593
18788SOL    HW258324   8.181   1.524   0.689
18789SOL     OW58325   8.872   0.214   1.112
18789SOL    HW158326   8.924   0.149   1.167
18789SOL    HW258327   8.823   0.277   1.173
18790SOL     OW58328   8.449   0.034   1.154
18790SOL    HW158329   8.386  -0.038   1.123
18790SOL    HW258330   8.542  -0.002   1.154
18791SOL     OW58331   8.218   1.330   0.301
18791SOL    HW158332   8.172   1.243   0.318
18791SOL    HW258333   8.309   1.327   0.342
18792SOL     OW58334   8.066   1.567   1.284
18792SOL    HW158335   8.061   1.649   1.341
18792SOL    HW258336   8.155   1.564   1.239
18793SOL     OW58337   8.800   0.052   0.168
18793SOL    HW158338   8.835   0.011   0.084
18793SOL    HW258339   8.710   0.014   0.188
18794SOL     OW58340   8.748   0.453   0.691
18794SOL    HW158341   8.689   0.533   0.695
18794SOL    HW258342   8.763   0.418   0.784
18795SOL     OW58343   0.041   0.221   0.882
18795SOL    HW158344  -0.043   0.220   0.936
18795SOL    HW258345   0.043   0.304   0.826
18796SOL     OW58346   7.487   1.077   0.300
18796SOL    HW158347   7.586   1.066   0.291
18796SOL    HW258348   7.447   0.991   0.332
18797SOL     OW58349   8.323   1.646   0.337
18797SOL    HW158350   8.246   1.611   0.283
18797SOL    HW258351   8.291   1.717   0.399
18798SOL     OW58352   7.678   0.628   1.975
18798SOL    HW158353   7.585   0.626   2.012
18798SOL    HW258354   7.679   0.589   1.883
18799SOL     OW58355   7.673   0.275   2.858
18799SOL    HW158356   7.708   0.258   2.950
18799SOL    HW258357   7.585   0.230   2.846
18800SOL     OW58358   7.467   0.368   2.509
18800SOL    HW158359   7.385   0.411   2.548
18800SOL    HW258360   7.439   0.295   2.446
18801SOL     OW58361   8.017   1.275   3.027
18801SOL    HW158362   7.924   1.268   2.990
18801SOL    HW258363   8.028   1.364   3.071
18802SOL     OW58364   0.003   1.511   2.565
18802SOL    HW158365  -0.054   1.495   2.646
18802SOL    HW258366  -0.056   1.521   2.485
18803SOL     OW58367   0.191   0.618   2.718
18803SOL    HW158368   0.224   0.712   2.718
18803SOL    HW258369   0.242   0.564   2.784
18804SOL     OW58370   8.583   0.703   2.579
18804SOL    HW158371   8.640   0.781   2.554
18804SOL    HW258372   8.523   0.729   2.655
18805SOL     OW58373   0.203   0.607   2.093
18805SOL    HW158374   0.191   0.594   1.994
18805SOL    HW258375   0.173   0.526   2.142
18806SOL     OW58376   8.216   1.144   2.885
18806SOL    HW158377   8.138   1.161   2.945
18806SOL    HW258378   8.250   1.231   2.849
18807SOL     OW58379   8.298   0.798   3.685
18807SOL    HW158380   8.294   0.874   3.750
18807SOL    HW258381   8.320   0.834   3.594
18808SOL     OW58382   8.133   1.012   2.527
18808SOL    HW158383   8.202   0.996   2.597
18808SOL    HW258384   8.060   1.069   2.565
18809SOL     OW58385   8.134   1.161   3.665
18809SOL    HW158386   8.194   1.240   3.679
18809SOL    HW258387   8.048   1.192   3.624
18810SOL     OW58388   7.783   1.435   2.923
18810SOL    HW158389   7.705   1.404   2.870
18810SOL    HW258390   7.841   1.493   2.866
18811SOL     OW58391   8.908   1.505   3.201
18811SOL    HW158392   8.932   1.599   3.227
18811SOL    HW258393   8.892   1.451   3.283
18812SOL     OW58394   7.886   0.392   3.361
18812SOL    HW158395   7.968   0.336   3.370
18812SOL    HW258396   7.805   0.334   3.365
18813SOL     OW58397   7.679   1.713   2.345
18813SOL    HW158398   7.713   1.790   2.399
18813SOL    HW258399   7.723   1.713   2.255
18814SOL     OW58400   8.575   1.341   3.552
18814SOL    HW158401   8.622   1.341   3.640
18814SOL    HW258402   8.527   1.254   3.541
18815SOL     OW58403   7.678   1.434   2.400
18815SOL    HW158404   7.652   1.530   2.400
18815SOL    HW258405   7.607   1.380   2.445
18816SOL     OW58406   7.688   1.091   2.748
18816SOL    HW158407   7.702   1.007   2.800
18816SOL    HW258408   7.633   1.155   2.803
18817SOL     OW58409   8.068   1.786   3.301
18817SOL    HW158410   7.976   1.769   3.336
18817SOL    HW258411   8.096   1.878   3.327
18818SOL     OW58412   8.054   0.964   1.985
18818SOL    HW158413   8.061   1.048   1.931
18818SOL    HW258414   8.100   0.977   2.073
18819SOL     OW58415   0.042   0.114   3.342
18819SOL    HW158416   0.024   0.181   3.270
18819SOL    HW258417   0.039   0.160   3.431
18820SOL     OW58418   7.570   0.643   2.425
18820SOL    HW158419   7.525   0.555   2.442
18820SOL    HW258420   7.569   0.697   2.509
18821SOL     OW58421   7.475   1.596   1.979
18821SOL    HW158422   7.456   1.500   2.000
18821SOL    HW258423   7.442   1.654   2.054
18822SOL     OW58424   0.137   0.922   2.474
18822SOL    HW158425   0.232   0.893   2.482
18822SOL    HW258426   0.129   0.987   2.399
18823SOL     OW58427   0.089   1.108   2.294
18823SOL    HW158428   0.175   1.110   2.242
18823SOL    HW258429   0.103   1.155   2.382
18824SOL     OW58430   7.561   0.737   3.459
18824SOL    HW158431   7.649   0.724   3.504
18824SOL    HW258432   7.548   0.834   3.437
18825SOL     OW58433   8.061   1.365   2.588
18825SOL    HW158434   8.012   1.278   2.597
18825SOL    HW258435   8.038   1.408   2.501
18826SOL     OW58436   8.741   1.228   3.285
18826SOL    HW158437   8.778   1.155   3.227
18826SOL    HW258438   8.793   1.233   3.370
18827SOL     OW58439   8.257   0.004   2.364
18827SOL    HW158440   8.297   0.095   2.355
18827SOL    HW258441   8.157   0.012   2.370
18828SOL     OW58442   7.645   0.976   3.126
18828SOL    HW158443   7.734   0.931   3.112
18828SOL    HW258444   7.572   0.911   3.107
18829SOL     OW58445   8.973   0.999   2.052
18829SOL    HW158446   8.910   0.923   2.065
18829SOL    HW258447   9.021   1.017   2.138
18830SOL     OW58448   8.635   1.792   3.478
18830SOL    HW158449   8.659   1.852   3.402
18830SOL    HW258450   8.642   1.697   3.448
18831SOL     OW58451   7.765   0.251   3.663
18831SOL    HW158452   7.836   0.322   3.669
18831SOL    HW258453   7.677   0.290   3.691
18832SOL     OW58454   8.914   1.417   2.815
18832SOL    HW158455   8.855   1.423   2.895
18832SOL    HW258456   8.899   1.329   2.769
18833SOL     OW58457   0.115   1.714   2.434
18833SOL    HW158458   0.074   1.691   2.346
18833SOL    HW258459   0.097   1.640   2.499
18834SOL     OW58460   8.046   0.729   2.132
18834SOL    HW158461   8.070   0.798   2.064
18834SOL    HW258462   7.968   0.762   2.186
18835SOL     OW58463   8.729   0.345   2.806
18835SOL    HW158464   8.643   0.295   2.793
18835SOL    HW258465   8.791   0.291   2.862
18836SOL     OW58466   0.024   1.662   2.169
18836SOL    HW158467   0.113   1.708   2.172
18836SOL    HW258468   0.003   1.638   2.074
18837SOL     OW58469   8.255   0.605   3.327
18837SOL    HW158470   8.208   0.602   3.416
18837SOL    HW258471   8.204   0.550   3.261
18838SOL     OW58472   8.842   0.469   3.536
18838SOL    HW158473   8.822   0.512   3.624
18838SOL    HW258474   8.920   0.407   3.545
18839SOL     OW58475   8.421   0.890   3.434
18839SOL    HW158476   8.467   0.806   3.405
18839SOL    HW258477   8.365   0.924   3.359
18840SOL     OW58478   8.439   0.410   3.104
18840SOL    HW158479   8.362   0.444   3.158
18840SOL    HW258480   8.405   0.359   3.025
18841SOL     OW58481   8.489   0.701   2.291
18841SOL    HW158482   8.515   0.697   2.387
18841SOL    HW258483   8.404   0.650   2.277
18842SOL     OW58484   7.524   0.811   2.651
18842SOL    HW158485   7.623   0.799   2.660
18842SOL    HW258486   7.500   0.906   2.672
18843SOL     OW58487   7.578   1.821   3.433
18843SOL    HW158488   7.568   1.806   3.532
18843SOL    HW258489   7.492   1.857   3.397
18844SOL     OW58490   8.313   0.348   2.057
18844SOL    HW158491   8.372   0.411   2.008
18844SOL    HW258492   8.332   0.254   2.028
18845SOL     OW58493   0.167   0.585   3.693
18845SOL    HW158494   0.141   0.674   3.657
18845SOL    HW258495   0.165   0.517   3.620
18846SOL     OW58496   8.810   1.144   2.407
18846SOL    HW158497   8.893   1.115   2.359
18846SOL    HW258498   8.761   1.211   2.351
18847SOL     OW58499   7.998   0.196   2.747
18847SOL    HW158500   7.993   0.191   2.847
18847SOL    HW258501   8.000   0.292   2.718
18848SOL     OW58502   8.456   1.456   2.339
18848SOL    HW158503   8.410   1.528   2.287
18848SOL    HW258504   8.452   1.476   2.437
18849SOL     OW58505   7.799   1.801   2.715
18849SOL    HW158506   7.849   1.715   2.721
18849SOL    HW258507   7.864   1.878   2.712
18850SOL     OW58508   0.243   1.066   2.735
18850SOL    HW158509   0.181   1.051   2.659
18850SOL    HW258510   0.191   1.077   2.820
18851SOL     OW58511   8.675   1.550   3.368
18851SOL    HW158512   8.681   1.473   3.432
18851SOL    HW258513   8.623   1.524   3.288
18852SOL     OW58514   7.769   0.943   2.104
18852SOL    HW158515   7.851   0.982   2.062
18852SOL    HW258516   7.742   0.861   2.055
18853SOL     OW58517   8.906   0.735   2.590
18853SOL    HW158518   8.901   0.670   2.665
18853SOL    HW258519   8.986   0.794   2.603
18854SOL     OW58520   7.909   1.266   3.589
18854SOL    HW158521   7.859   1.267   3.503
18854SOL    HW258522   7.846   1.248   3.665
18855SOL     OW58523   8.559   1.776   2.099
18855SOL    HW158524   8.499   1.714   2.149
18855SOL    HW258525   8.590   1.732   2.014
18856SOL     OW58526   7.650   0.285   3.360
18856SOL    HW158527   7.570   0.345   3.347
18856SOL    HW258528   7.640   0.236   3.446
18857SOL     OW58529   0.080   1.377   1.943
18857SOL    HW158530   0.048   1.471   1.933
18857SOL    HW258531   0.004   1.314   1.931
18858SOL     OW58532   7.912   1.743   2.185
18858SOL    HW158533   7.945   1.782   2.271
18858SOL    HW258534   7.988   1.736   2.120
18859SOL     OW58535   8.848   0.107   2.288
18859SOL    HW158536   8.824   0.070   2.198
18859SOL    HW258537   8.947   0.123   2.292
18860SOL     OW58538   7.697   1.785   3.103
18860SOL    HW158539   7.754   1.720   3.153
18860SOL    HW258540   7.681   1.752   3.010
18861SOL     OW58541   8.388   1.698   2.766
18861SOL    HW158542   8.468   1.641   2.787
18861SOL    HW258543   8.339   1.658   2.689
18862SOL     OW58544   7.830   0.700   2.342
18862SOL    HW158545   7.875   0.610   2.339
18862SOL    HW258546   7.736   0.689   2.375
18863SOL     OW58547   8.995   0.222   3.591
18863SOL    HW158548   8.990   0.259   3.683
18863SOL    HW258549   8.923   0.153   3.579
18864SOL     OW58550   8.062   0.122   1.979
18864SOL    HW158551   8.160   0.100   1.986
18864SOL    HW258552   8.031   0.105   1.886
18865SOL     OW58553   8.229   0.264   3.611
18865SOL    HW158554   8.296   0.203   3.654
18865SOL    HW258555   8.156   0.283   3.676
18866SOL     OW58556   8.336   1.514   3.057
18866SOL    HW158557   8.313   1.489   2.963
18866SOL    HW258558   8.397   1.445   3.096
18867SOL     OW58559   8.799   0.590   3.295
18867SOL    HW158560   8.827   0.547   3.380
18867SOL    HW258561   8.824   0.686   3.296
18868SOL     OW58562   8.251   1.402   2.786
18868SOL    HW158563   8.341   1.416   2.744
18868SOL    HW258564   8.180   1.404   2.715
18869SOL     OW58565   8.370   0.503   2.761
18869SOL    HW158566   8.345   0.494   2.665
18869SOL    HW258567   8.418   0.421   2.792
18870SOL     OW58568   7.987   0.064   2.374
18870SOL    HW158569   7.906   0.065   2.432
18870SOL    HW258570   7.990   0.147   2.319
18871SOL     OW58571   8.882   1.188   1.903
18871SOL    HW158572   8.914   1.112   1.960
18871SOL    HW258573   8.790   1.215   1.933
18872SOL     OW58574   7.745   0.035   2.033
18872SOL    HW158575   7.794   0.119   2.012
18872SOL    HW258576   7.807  -0.030   2.078
18873SOL     OW58577   8.383   0.236   2.342
18873SOL    HW158578   8.335   0.277   2.264
18873SOL    HW258579   8.482   0.234   2.323
18874SOL     OW58580   8.524   0.683   3.326
18874SOL    HW158581   8.444   0.622   3.329
18874SOL    HW258582   8.605   0.630   3.302
18875SOL     OW58583   8.675   1.570   2.655
18875SOL    HW158584   8.696   1.644   2.590
18875SOL    HW258585   8.743   1.570   2.728
18876SOL     OW58586   7.907   1.152   2.603
18876SOL    HW158587   7.836   1.125   2.668
18876SOL    HW258588   7.881   1.124   2.510
18877SOL     OW58589   8.719   1.797   2.453
18877SOL    HW158590   8.763   1.861   2.389
18877SOL    HW258591   8.669   1.849   2.523
18878SOL     OW58592   8.480   0.549   1.878
18878SOL    HW158593   8.439   0.631   1.839
18878SOL    HW258594   8.544   0.575   1.951
18879SOL     OW58595   7.526   0.556   3.248
18879SOL    HW158596   7.618   0.555   3.207
18879SOL    HW258597   7.520   0.630   3.315
18880SOL     OW58598   8.009   0.222   3.009
18880SOL    HW158599   8.047   0.138   3.046
18880SOL    HW258600   7.921   0.241   3.053
18881SOL     OW58601   8.314   0.454   2.504
18881SOL    HW158602   8.282   0.526   2.442
18881SOL    HW258603   8.338   0.373   2.451
18882SOL     OW58604   8.465   0.039   2.615
18882SOL    HW158605   8.393   0.044   2.546
18882SOL    HW258606   8.441  -0.030   2.684
18883SOL     OW58607   8.877   1.173   2.729
18883SOL    HW158608   8.822   1.089   2.722
18883SOL    HW258609   8.903   1.202   2.637
18884SOL     OW58610   8.914   0.590   2.854
18884SOL    HW158611   8.884   0.495   2.861
18884SOL    HW258612   8.987   0.606   2.920
18885SOL     OW58613   7.936   1.385   2.036
18885SOL    HW158614   7.849   1.370   2.083
18885SOL    HW258615   7.919   1.411   1.941
18886SOL     OW58616   0.112   1.280   2.519
18886SOL    HW158617   0.211   1.288   2.533
18886SOL    HW258618   0.067   1.364   2.550
18887SOL     OW58619   8.838   0.575   1.940
18887SOL    HW158620   8.784   0.554   2.021
18887SOL    HW258621   8.929   0.534   1.949
18888SOL     OW58622   7.975   0.256   2.190
18888SOL    HW158623   8.002   0.197   2.115
18888SOL    HW258624   7.975   0.351   2.159
18889SOL     OW58625   8.512   1.347   3.202
18889SOL    HW158626   8.432   1.324   3.257
18889SOL    HW258627   8.595   1.321   3.251
18890SOL     OW58628   0.040   1.629   3.487
18890SOL    HW158629   0.067   1.663   3.397
18890SOL    HW258630   0.119   1.591   3.533
18891SOL     OW58631   8.559   1.195   2.962
18891SOL    HW158632   8.519   1.239   3.043
18891SOL    HW258633   8.518   1.232   2.879
18892SOL     OW58634   0.086   1.099   2.941
18892SOL    HW158635   0.091   1.180   3.000
18892SOL    HW258636   0.000   1.101   2.890
18893SOL     OW58637   8.363   0.089   3.264
18893SOL    HW158638   8.388   0.069   3.169
18893SOL    HW258639   8.435   0.145   3.306
18894SOL     OW58640   8.428   1.116   3.581
18894SOL    HW158641   8.329   1.122   3.591
18894SOL    HW258642   8.451   1.036   3.525
18895SOL     OW58643   8.153   1.050   2.230
18895SOL    HW158644   8.139   1.057   2.329
18895SOL    HW258645   8.237   0.999   2.212
18896SOL     OW58646   7.858   0.813   3.113
18896SOL    HW158647   7.944   0.825   3.163
18896SOL    HW258648   7.816   0.726   3.140
18897SOL     OW58649   8.722   0.386   3.124
18897SOL    HW158650   8.743   0.460   3.188
18897SOL    HW258651   8.633   0.403   3.081
18898SOL     OW58652   7.512   1.564   3.193
18898SOL    HW158653   7.466   1.646   3.159
18898SOL    HW258654   7.610   1.583   3.202
18899SOL     OW58655   7.815   1.100   2.363
18899SOL    HW158656   7.808   1.183   2.307
18899SOL    HW258657   7.819   1.020   2.303
18900SOL     OW58658   8.014   0.537   2.727
18900SOL    HW158659   8.026   0.603   2.653
18900SOL    HW258660   8.060   0.571   2.810
18901SOL     OW58661   8.700   1.348   2.250
18901SOL    HW158662   8.750   1.425   2.290
18901SOL    HW258663   8.605   1.350   2.282
18902SOL     OW58664   8.720   1.445   3.004
18902SOL    HW158665   8.767   1.458   3.091
18902SOL    HW258666   8.654   1.371   3.013
18903SOL     OW58667   0.030   0.639   2.334
18903SOL    HW158668  -0.001   0.700   2.407
18903SOL    HW258669   0.080   0.691   2.265
18904SOL     OW58670   7.802   1.510   3.191
18904SOL    HW158671   7.781   1.466   3.104
18904SOL    HW258672   7.899   1.536   3.194
18905SOL     OW58673   7.850   0.751   3.460
18905SOL    HW158674   7.918   0.806   3.413
18905SOL    HW258675   7.890   0.663   3.487
18906SOL     OW58676   0.035   0.779   3.532
18906SOL    HW158677  -0.057   0.817   3.527
18906SOL    HW258678   0.095   0.826   3.467
18907SOL     OW58679   8.461   0.105   3.632
18907SOL    HW158680   8.467   0.190   3.580
18907SOL    HW258681   8.493   0.029   3.575
18908SOL     OW58682   7.952   0.050   3.602
18908SOL    HW158683   7.910  -0.007   3.532
18908SOL    HW258684   7.886   0.119   3.634
18909SOL     OW58685   8.021   0.870   2.891
18909SOL    HW158686   8.065   0.959   2.882
18909SOL    HW258687   7.958   0.870   2.968
18910SOL     OW58688   8.808   0.862   2.907
18910SOL    HW158689   8.733   0.862   2.841
18910SOL    HW258690   8.845   0.770   2.916
18911SOL     OW58691   8.657   0.525   2.137
18911SOL    HW158692   8.670   0.441   2.191
18911SOL    HW258693   8.628   0.599   2.197
18912SOL     OW58694   7.755   0.213   3.093
18912SOL    HW158695   7.732   0.250   3.183
18912SOL    HW258696   7.725   0.118   3.087
18913SOL     OW58697   7.485   1.310   3.144
18913SOL    HW158698   7.538   1.261   3.212
18913SOL    HW258699   7.507   1.408   3.149
18914SOL     OW58700   8.180   0.634   2.926
18914SOL    HW158701   8.239   0.608   2.850
18914SOL    HW258702   8.152   0.730   2.915
18915SOL     OW58703   0.176   0.935   3.716
18915SOL    HW158704   0.130   0.928   3.627
18915SOL    HW258705   0.114   0.979   3.782
18916SOL     OW58706   7.755   0.063   2.480
18916SOL    HW158707   7.744   0.157   2.513
18916SOL    HW258708   7.750   0.000   2.557
18917SOL     OW58709   0.070   0.367   2.236
18917SOL    HW158710   0.072   0.291   2.300
18917SOL    HW258711   0.022   0.444   2.276
18918SOL     OW58712   8.471   0.766   2.828
18918SOL    HW158713   8.486   0.787   2.924
18918SOL    HW258714   8.441   0.671   2.819
18919SOL     OW58715   8.428   1.573   3.562
18919SOL    HW158716   8.408   1.617   3.474
18919SOL    HW258717   8.467   1.482   3.546
18920SOL     OW58718   7.798   0.898   3.666
18920SOL    HW158719   7.874   0.942   3.714
18920SOL    HW258720   7.833   0.851   3.584
18921SOL     OW58721   8.988   0.274   1.987
18921SOL    HW158722   8.927   0.199   2.010
18921SOL    HW258723   9.010   0.326   2.070
18922SOL     OW58724   8.751   0.838   1.904
18922SOL    HW158725   8.785   0.745   1.919
18922SOL    HW258726   8.769   0.865   1.809
18923SOL     OW58727   8.516   1.333   2.711
18923SOL    HW158728   8.523   1.249   2.656
18923SOL    HW258729   8.578   1.402   2.675
18924SOL     OW58730   7.767   0.810   2.811
18924SOL    HW158731   7.860   0.846   2.816
18924SOL    HW258732   7.761   0.725   2.863
18925SOL     OW58733   7.787   0.509   2.868
18925SOL    HW158734   7.735   0.426   2.851
18925SOL    HW258735   7.864   0.514   2.804
18926SOL     OW58736   8.586   0.380   3.540
18926SOL    HW158737   8.541   0.443   3.604
18926SOL    HW258738   8.679   0.411   3.523
18927SOL     OW58739   8.608   0.207   3.339
18927SOL    HW158740   8.608   0.271   3.416
18927SOL    HW258741   8.636   0.255   3.256
18928SOL     OW58742   7.456   1.326   2.062
18928SOL    HW158743   7.363   1.347   2.031
18928SOL    HW258744   7.466   1.227   2.075
18929SOL     OW58745   7.536   1.801   2.789
18929SOL    HW158746   7.494   1.715   2.762
18929SOL    HW258747   7.630   1.804   2.755
18930SOL     OW58748   7.952   1.568   2.772
18930SOL    HW158749   8.018   1.642   2.781
18930SOL    HW258750   7.996   1.489   2.730
18931SOL     OW58751   8.450   0.796   3.100
18931SOL    HW158752   8.491   0.764   3.186
18931SOL    HW258753   8.354   0.769   3.097
18932SOL     OW58754   7.488   0.544   2.976
18932SOL    HW158755   7.573   0.511   2.935
18932SOL    HW258756   7.501   0.559   3.074
18933SOL     OW58757   7.637   0.520   3.584
18933SOL    HW158758   7.696   0.480   3.514
18933SOL    HW258759   7.579   0.591   3.543
18934SOL     OW58760   8.817   0.950   3.522
18934SOL    HW158761   8.856   1.039   3.542
18934SOL    HW258762   8.827   0.930   3.425
18935SOL     OW58763   8.263   0.572   2.187
18935SOL    HW158764   8.270   0.483   2.141
18935SOL    HW258765   8.169   0.606   2.179
18936SOL     OW58766   0.105   0.604   3.068
18936SOL    HW158767   0.067   0.535   3.130
18936SOL    HW258768   0.187   0.568   3.024
18937SOL     OW58769   7.700   1.564   3.606
18937SOL    HW158770   7.670   1.621   3.682
18937SOL    HW258771   7.693   1.467   3.632
18938SOL     OW58772   8.119   0.464   3.131
18938SOL    HW158773   8.085   0.375   3.101
18938SOL    HW258774   8.145   0.518   3.051
18939SOL     OW58775   8.378   1.678   3.327
18939SOL    HW158776   8.354   1.660   3.232
18939SOL    HW258777   8.408   1.772   3.337
18940SOL     OW58778   7.921   0.500   2.053
18940SOL    HW158779   7.982   0.580   2.057
18940SOL    HW258780   7.826   0.531   2.060
18941SOL     OW58781   7.607   1.137   3.328
18941SOL    HW158782   7.629   1.076   3.404
18941SOL    HW258783   7.617   1.088   3.242
18942SOL     OW58784   8.795   1.059   3.096
18942SOL    HW158785   8.819   0.996   3.022
18942SOL    HW258786   8.705   1.099   3.078
18943SOL     OW58787   8.750   0.855   2.171
18943SOL    HW158788   8.664   0.824   2.213
18943SOL    HW258789   8.746   0.841   2.072
18944SOL     OW58790   8.700   1.731   2.990
18944SOL    HW158791   8.784   1.736   2.936
18944SOL    HW258792   8.677   1.635   3.008
18945SOL     OW58793   7.531   1.258   2.884
18945SOL    HW158794   7.526   1.257   2.984
18945SOL    HW258795   7.448   1.217   2.846
18946SOL     OW58796   8.136   1.662   3.578
18946SOL    HW158797   8.080   1.743   3.587
18946SOL    HW258798   8.188   1.666   3.492
18947SOL     OW58799   0.174   0.135   2.385
18947SOL    HW158800   0.247   0.118   2.318
18947SOL    HW258801   0.143   0.048   2.423
18948SOL     OW58802   8.836   1.573   2.339
18948SOL    HW158803   8.903   1.585   2.265
18948SOL    HW258804   8.796   1.662   2.362
18949SOL     OW58805   7.578   1.794   3.713
18949SOL    HW158806   7.537   1.720   3.766
18949SOL    HW258807   7.642   1.845   3.771
18950SOL     OW58808   8.728   0.927   2.534
18950SOL    HW158809   8.788   0.846   2.536
18950SOL    HW258810   8.768   0.996   2.474
18951SOL     OW58811   8.278   1.273   3.284
18951SOL    HW158812   8.273   1.306   3.379
18951SOL    HW258813   8.192   1.292   3.238
18952SOL     OW58814   8.120   1.616   2.016
18952SOL    HW158815   8.129   1.626   1.917
18952SOL    HW258816   8.080   1.527   2.037
18953SOL     OW58817   0.098   1.720   3.256
18953SOL    HW158818   0.151   1.730   3.172
18953SOL    HW258819   0.071   1.810   3.290
18954SOL     OW58820   7.711   0.326   2.582
18954SOL    HW158821   7.632   0.377   2.548
18954SOL    HW258822   7.702   0.311   2.680
18955SOL     OW58823   8.642   1.612   1.893
18955SOL    HW158824   8.648   1.519   1.930
18955SOL    HW258825   8.583   1.612   1.813
18956SOL     OW58826   8.270   1.002   3.234
18956SOL    HW158827   8.310   1.001   3.142
18956SOL    HW258828   8.280   1.094   3.274
18957SOL     OW58829   8.364   0.910   2.153
18957SOL    HW158830   8.427   0.948   2.085
18957SOL    HW258831   8.404   0.827   2.192
18958SOL     OW58832   8.952   1.607   1.906
18958SOL    HW158833   8.860   1.644   1.913
18958SOL    HW258834   8.990   1.627   1.816
18959SOL     OW58835   7.820   1.288   3.352
18959SOL    HW158836   7.807   1.381   3.318
18959SOL    HW258837   7.736   1.236   3.339
18960SOL     OW58838   0.062   1.292   3.151
18960SOL    HW158839   0.122   1.295   3.231
18960SOL    HW258840  -0.013   1.356   3.164
18961SOL     OW58841   8.487   1.098   2.558
18961SOL    HW158842   8.417   1.051   2.612
18961SOL    HW258843   8.546   1.030   2.515
18962SOL     OW58844   8.462   0.236   2.833
18962SOL    HW158845   8.454   0.200   2.740
18962SOL    HW258846   8.460   0.160   2.898
18963SOL     OW58847   8.038   1.487   2.353
18963SOL    HW158848   8.080   1.429   2.283
18963SOL    HW258849   7.994   1.566   2.309
18964SOL     OW58850   0.157   0.385   3.243
18964SOL    HW158851   0.230   0.454   3.247
18964SOL    HW258852   0.185   0.310   3.184
18965SOL     OW58853   7.703   1.348   2.152
18965SOL    HW158854   7.607   1.349   2.125
18965SOL    HW258855   7.715   1.401   2.236
18966SOL     OW58856   7.553   1.013   3.588
18966SOL    HW158857   7.476   0.980   3.642
18966SOL    HW258858   7.638   0.983   3.630
18967SOL     OW58859   8.120   0.203   3.351
18967SOL    HW158860   8.210   0.187   3.311
18967SOL    HW258861   8.128   0.208   3.450
18968SOL     OW58862   7.523   0.345   1.895
18968SOL    HW158863   7.431   0.317   1.866
18968SOL    HW258864   7.554   0.422   1.839
18969SOL     OW58865   8.888   0.856   3.260
18969SOL    HW158866   8.831   0.908   3.197
18969SOL    HW258867   8.984   0.868   3.236
18970SOL     OW58868   7.520   0.166   2.180
18970SOL    HW158869   7.503   0.249   2.126
18970SOL    HW258870   7.610   0.129   2.158
18971SOL     OW58871   8.631   1.335   1.981
18971SOL    HW158872   8.532   1.324   1.983
18971SOL    HW258873   8.665   1.350   2.074
18972SOL     OW58874   8.061   0.842   3.293
18972SOL    HW158875   8.117   0.923   3.276
18972SOL    HW258876   8.120   0.762   3.296
18973SOL     OW58877   8.941   1.767   2.821
18973SOL    HW158878   8.974   1.831   2.752
18973SOL    HW258879   9.007   1.761   2.896
18974SOL     OW58880   8.164   0.565   3.570
18974SOL    HW158881   8.183   0.630   3.644
18974SOL    HW258882   8.224   0.485   3.579
18975SOL     OW58883   8.898   1.220   3.495
18975SOL    HW158884   8.889   1.210   3.594
18975SOL    HW258885   8.994   1.213   3.469
18976SOL     OW58886   7.838   1.741   3.422
18976SOL    HW158887   7.747   1.782   3.420
18976SOL    HW258888   7.831   1.647   3.454
18977SOL     OW58889   0.122   0.883   3.116
18977SOL    HW158890   0.095   0.794   3.079
18977SOL    HW258891   0.123   0.951   3.043
18978SOL     OW58892   8.673   0.325   2.311
18978SOL    HW158893   8.738   0.251   2.300
18978SOL    HW258894   8.693   0.375   2.395
18979SOL     OW58895   8.042   0.745   2.514
18979SOL    HW158896   8.092   0.830   2.495
18979SOL    HW258897   7.954   0.747   2.466
18980SOL     OW58898   0.225   0.342   3.504
18980SOL    HW158899   0.208   0.373   3.410
18980SOL    HW258900   0.141   0.305   3.542
18981SOL     OW58901   0.178   0.934   3.379
18981SOL    HW158902   0.216   1.025   3.394
18981SOL    HW258903   0.170   0.917   3.280
18982SOL     OW58904   8.307   1.374   1.878
18982SOL    HW158905   8.261   1.389   1.966
18982SOL    HW258906   8.351   1.459   1.848
18983SOL     OW58907   8.109   1.790   2.815
18983SOL    HW158908   8.063   1.878   2.802
18983SOL    HW258909   8.208   1.802   2.808
18984SOL     OW58910   8.307   0.956   2.723
18984SOL    HW158911   8.361   0.887   2.771
18984SOL    HW258912   8.275   1.025   2.789
18985SOL     OW58913   8.531   0.984   1.949
18985SOL    HW158914   8.508   1.037   1.867
18985SOL    HW258915   8.612   0.928   1.930
18986SOL     OW58916   7.669   1.314   3.706
18986SOL    HW158917   7.604   1.241   3.685
18986SOL    HW258918   7.673   1.328   3.804
18987SOL     OW58919   7.527   1.240   2.515
18987SOL    HW158920   7.526   1.193   2.603
18987SOL    HW258921   7.609   1.212   2.464
18988SOL     OW58922   8.120   1.391   3.486
18988SOL    HW158923   8.042   1.341   3.524
18988SOL    HW258924   8.117   1.486   3.517
18989SOL     OW58925   7.876   0.424   2.382
18989SOL    HW158926   7.906   0.352   2.320
18989SOL    HW258927   7.837   0.384   2.465
18990SOL     OW58928   0.153   1.487   2.966
18990SOL    HW158929   0.060   1.462   2.939
18990SOL    HW258930   0.179   1.437   3.048
18991SOL     OW58931   7.765   0.547   3.142
18991SOL    HW158932   7.803   0.488   3.214
18991SOL    HW258933   7.805   0.521   3.054
18992SOL     OW58934   8.260   1.586   2.549
18992SOL    HW158935   8.292   1.596   2.455
18992SOL    HW258936   8.181   1.524   2.551
18993SOL     OW58937   8.872   0.214   2.974
18993SOL    HW158938   8.924   0.149   3.029
18993SOL    HW258939   8.823   0.277   3.035
18994SOL     OW58940   8.449   0.034   3.016
18994SOL    HW158941   8.386  -0.038   2.985
18994SOL    HW258942   8.542  -0.002   3.016
18995SOL     OW58943   8.218   1.330   2.163
18995SOL    HW158944   8.172   1.243   2.180
18995SOL    HW258945   8.309   1.327   2.204
18996SOL     OW58946   8.066   1.567   3.146
18996SOL    HW158947   8.061   1.649   3.203
18996SOL    HW258948   8.155   1.564   3.101
18997SOL     OW58949   8.800   0.052   2.030
18997SOL    HW158950   8.835   0.011   1.946
18997SOL    HW258951   8.710   0.014   2.050
18998SOL     OW58952   8.748   0.453   2.553
18998SOL    HW158953   8.689   0.533   2.557
18998SOL    HW258954   8.763   0.418   2.646
18999SOL     OW58955   0.041   0.221   2.744
18999SOL    HW158956  -0.043   0.220   2.798
18999SOL    HW258957   0.043   0.304   2.688
19000SOL     OW58958   7.487   1.077   2.162
19000SOL    HW158959   7.586   1.066   2.153
19000SOL    HW258960   7.447   0.991   2.194
19001SOL     OW58961   8.323   1.646   2.199
19001SOL    HW158962   8.246   1.611   2.145
19001SOL    HW258963   8.291   1.717   2.261
19002SOL     OW58964   7.678   0.628   3.837
19002SOL    HW158965   7.585   0.626   3.874
19002SOL    HW258966   7.679   0.589   3.745
19003SOL     OW58967   7.673   0.275   4.720
19003SOL    HW158968   7.708   0.258   4.812
19003SOL    HW258969   7.585   0.230   4.708
19004SOL     OW58970   7.467   0.368   4.371
19004SOL    HW158971   7.385   0.411   4.410
19004SOL    HW258972   7.439   0.295   4.308
19005SOL     OW58973   8.017   1.275   4.889
19005SOL    HW158974   7.924   1.268   4.852
19005SOL    HW258975   8.028   1.364   4.933
19006SOL     OW58976   0.003   1.511   4.427
19006SOL    HW158977  -0.054   1.495   4.508
19006SOL    HW258978  -0.056   1.521   4.347
19007SOL     OW58979   0.191   0.618   4.580
19007SOL    HW158980   0.224   0.712   4.580
19007SOL    HW258981   0.242   0.564   4.646
19008SOL     OW58982   8.583   0.703   4.441
19008SOL    HW158983   8.640   0.781   4.416
19008SOL    HW258984   8.523   0.729   4.517
19009SOL     OW58985   0.203   0.607   3.955
19009SOL    HW158986   0.191   0.594   3.856
19009SOL    HW258987   0.173   0.526   4.004
19010SOL     OW58988   8.216   1.144   4.747
19010SOL    HW158989   8.138   1.161   4.807
19010SOL    HW258990   8.250   1.231   4.711
19011SOL     OW58991   8.298   0.798   5.547
19011SOL    HW158992   8.294   0.874   5.612
19011SOL    HW258993   8.320   0.834   5.456
19012SOL     OW58994   8.133   1.012   4.389
19012SOL    HW158995   8.202   0.996   4.459
19012SOL    HW258996   8.060   1.069   4.427
19013SOL     OW58997   8.134   1.161   5.527
19013SOL    HW158998   8.194   1.240   5.541
19013SOL    HW258999   8.048   1.192   5.486
19014SOL     OW59000   7.783   1.435   4.785
19014SOL    HW159001   7.705   1.404   4.732
19014SOL    HW259002   7.841   1.493   4.728
19015SOL     OW59003   8.908   1.505   5.063
19015SOL    HW159004   8.932   1.599   5.089
19015SOL    HW259005   8.892   1.451   5.145
19016SOL     OW59006   7.886   0.392   5.223
19016SOL    HW159007   7.968   0.336   5.232
19016SOL    HW259008   7.805   0.334   5.227
19017SOL     OW59009   7.679   1.713   4.207
19017SOL    HW159010   7.713   1.790   4.261
19017SOL    HW259011   7.723   1.713   4.117
19018SOL     OW59012   8.575   1.341   5.414
19018SOL    HW159013   8.622   1.341   5.502
19018SOL    HW259014   8.527   1.254   5.403
19019SOL     OW59015   7.678   1.434   4.262
19019SOL    HW159016   7.652   1.530   4.262
19019SOL    HW259017   7.607   1.380   4.307
19020SOL     OW59018   7.688   1.091   4.610
19020SOL    HW159019   7.702   1.007   4.662
19020SOL    HW259020   7.633   1.155   4.665
19021SOL     OW59021   8.068   1.786   5.163
19021SOL    HW159022   7.976   1.769   5.198
19021SOL    HW259023   8.096   1.878   5.189
19022SOL     OW59024   8.054   0.964   3.847
19022SOL    HW159025   8.061   1.048   3.793
19022SOL    HW259026   8.100   0.977   3.935
19023SOL     OW59027   0.042   0.114   5.204
19023SOL    HW159028   0.024   0.181   5.132
19023SOL    HW259029   0.039   0.160   5.293
19024SOL     OW59030   7.570   0.643   4.287
19024SOL    HW159031   7.525   0.555   4.304
19024SOL    HW259032   7.569   0.697   4.371
19025SOL     OW59033   7.475   1.596   3.841
19025SOL    HW159034   7.456   1.500   3.862
19025SOL    HW259035   7.442   1.654   3.916
19026SOL     OW59036   0.137   0.922   4.336
19026SOL    HW159037   0.232   0.893   4.344
19026SOL    HW259038   0.129   0.987   4.261
19027SOL     OW59039   0.089   1.108   4.156
19027SOL    HW159040   0.175   1.110   4.104
19027SOL    HW259041   0.103   1.155   4.244
19028SOL     OW59042   7.561   0.737   5.321
19028SOL    HW159043   7.649   0.724   5.366
19028SOL    HW259044   7.548   0.834   5.299
19029SOL     OW59045   8.061   1.365   4.450
19029SOL    HW159046   8.012   1.278   4.459
19029SOL    HW259047   8.038   1.408   4.363
19030SOL     OW59048   8.741   1.228   5.147
19030SOL    HW159049   8.778   1.155   5.089
19030SOL    HW259050   8.793   1.233   5.232
19031SOL     OW59051   8.257   0.004   4.226
19031SOL    HW159052   8.297   0.095   4.217
19031SOL    HW259053   8.157   0.012   4.232
19032SOL     OW59054   7.645   0.976   4.988
19032SOL    HW159055   7.734   0.931   4.974
19032SOL    HW259056   7.572   0.911   4.969
19033SOL     OW59057   8.973   0.999   3.914
19033SOL    HW159058   8.910   0.923   3.927
19033SOL    HW259059   9.021   1.017   4.000
19034SOL     OW59060   8.635   1.792   5.340
19034SOL    HW159061   8.659   1.852   5.264
19034SOL    HW259062   8.642   1.697   5.310
19035SOL     OW59063   7.765   0.251   5.525
19035SOL    HW159064   7.836   0.322   5.531
19035SOL    HW259065   7.677   0.290   5.553
19036SOL     OW59066   8.914   1.417   4.677
19036SOL    HW159067   8.855   1.423   4.757
19036SOL    HW259068   8.899   1.329   4.631
19037SOL     OW59069   0.115   1.714   4.296
19037SOL    HW159070   0.074   1.691   4.208
19037SOL    HW259071   0.097   1.640   4.361
19038SOL     OW59072   8.046   0.729   3.994
19038SOL    HW159073   8.070   0.798   3.926
19038SOL    HW259074   7.968   0.762   4.048
19039SOL     OW59075   8.729   0.345   4.668
19039SOL    HW159076   8.643   0.295   4.655
19039SOL    HW259077   8.791   0.291   4.724
19040SOL     OW59078   0.024   1.662   4.031
19040SOL    HW159079   0.113   1.708   4.034
19040SOL    HW259080   0.003   1.638   3.936
19041SOL     OW59081   8.255   0.605   5.189
19041SOL    HW159082   8.208   0.602   5.278
19041SOL    HW259083   8.204   0.550   5.123
19042SOL     OW59084   8.842   0.469   5.398
19042SOL    HW159085   8.822   0.512   5.486
19042SOL    HW259086   8.920   0.407   5.407
19043SOL     OW59087   8.421   0.890   5.296
19043SOL    HW159088   8.467   0.806   5.267
19043SOL    HW259089   8.365   0.924   5.221
19044SOL     OW59090   8.439   0.410   4.966
19044SOL    HW159091   8.362   0.444   5.020
19044SOL    HW259092   8.405   0.359   4.887
19045SOL     OW59093   8.489   0.701   4.153
19045SOL    HW159094   8.515   0.697   4.249
19045SOL    HW259095   8.404   0.650   4.139
19046SOL     OW59096   7.524   0.811   4.513
19046SOL    HW159097   7.623   0.799   4.522
19046SOL    HW259098   7.500   0.906   4.534
19047SOL     OW59099   7.578   1.821   5.295
19047SOL    HW159100   7.568   1.806   5.394
19047SOL    HW259101   7.492   1.857   5.259
19048SOL     OW59102   8.313   0.348   3.919
19048SOL    HW159103   8.372   0.411   3.870
19048SOL    HW259104   8.332   0.254   3.890
19049SOL     OW59105   0.167   0.585   5.555
19049SOL    HW159106   0.141   0.674   5.519
19049SOL    HW259107   0.165   0.517   5.482
19050SOL     OW59108   8.810   1.144   4.269
19050SOL    HW159109   8.893   1.115   4.221
19050SOL    HW259110   8.761   1.211   4.213
19051SOL     OW59111   7.998   0.196   4.609
19051SOL    HW159112   7.993   0.191   4.709
19051SOL    HW259113   8.000   0.292   4.580
19052SOL     OW59114   8.456   1.456   4.201
19052SOL    HW159115   8.410   1.528   4.149
19052SOL    HW259116   8.452   1.476   4.299
19053SOL     OW59117   7.799   1.801   4.577
19053SOL    HW159118   7.849   1.715   4.583
19053SOL    HW259119   7.864   1.878   4.574
19054SOL     OW59120   0.243   1.066   4.597
19054SOL    HW159121   0.181   1.051   4.521
19054SOL    HW259122   0.191   1.077   4.682
19055SOL     OW59123   8.675   1.550   5.230
19055SOL    HW159124   8.681   1.473   5.294
19055SOL    HW259125   8.623   1.524   5.150
19056SOL     OW59126   7.769   0.943   3.966
19056SOL    HW159127   7.851   0.982   3.924
19056SOL    HW259128   7.742   0.861   3.917
19057SOL     OW59129   8.906   0.735   4.452
19057SOL    HW159130   8.901   0.670   4.527
19057SOL    HW259131   8.986   0.794   4.465
19058SOL     OW59132   7.909   1.266   5.451
19058SOL    HW159133   7.859   1.267   5.365
19058SOL    HW259134   7.846   1.248   5.527
19059SOL     OW59135   8.559   1.776   3.961
19059SOL    HW159136   8.499   1.714   4.011
19059SOL    HW259137   8.590   1.732   3.876
19060SOL     OW59138   7.650   0.285   5.222
19060SOL    HW159139   7.570   0.345   5.209
19060SOL    HW259140   7.640   0.236   5.308
19061SOL     OW59141   0.080   1.377   3.805
19061SOL    HW159142   0.048   1.471   3.795
19061SOL    HW259143   0.004   1.314   3.793
19062SOL     OW59144   7.912   1.743   4.047
19062SOL    HW159145   7.945   1.782   4.133
19062SOL    HW259146   7.988   1.736   3.982
19063SOL     OW59147   8.848   0.107   4.150
19063SOL    HW159148   8.824   0.070   4.060
19063SOL    HW259149   8.947   0.123   4.154
19064SOL     OW59150   7.697   1.785   4.965
19064SOL    HW159151   7.754   1.720   5.015
19064SOL    HW259152   7.681   1.752   4.872
19065SOL     OW59153   8.388   1.698   4.628
19065SOL    HW159154   8.468   1.641   4.649
19065SOL    HW259155   8.339   1.658   4.551
19066SOL     OW59156   7.830   0.700   4.204
19066SOL    HW159157   7.875   0.610   4.201
19066SOL    HW259158   7.736   0.689   4.237
19067SOL     OW59159   8.995   0.222   5.453
19067SOL    HW159160   8.990   0.259   5.545
19067SOL    HW259161   8.923   0.153   5.441
19068SOL     OW59162   8.062   0.122   3.841
19068SOL    HW159163   8.160   0.100   3.848
19068SOL    HW259164   8.031   0.105   3.748
19069SOL     OW59165   8.229   0.264   5.473
19069SOL    HW159166   8.296   0.203   5.516
19069SOL    HW259167   8.156   0.283   5.538
19070SOL     OW59168   8.336   1.514   4.919
19070SOL    HW159169   8.313   1.489   4.825
19070SOL    HW259170   8.397   1.445   4.958
19071SOL     OW59171   8.799   0.590   5.157
19071SOL    HW159172   8.827   0.547   5.242
19071SOL    HW259173   8.824   0.686   5.158
19072SOL     OW59174   8.251   1.402   4.648
19072SOL    HW159175   8.341   1.416   4.606
19072SOL    HW259176   8.180   1.404   4.577
19073SOL     OW59177   8.370   0.503   4.623
19073SOL    HW159178   8.345   0.494   4.527
19073SOL    HW259179   8.418   0.421   4.654
19074SOL     OW59180   7.987   0.064   4.236
19074SOL    HW159181   7.906   0.065   4.294
19074SOL    HW259182   7.990   0.147   4.181
19075SOL     OW59183   8.882   1.188   3.765
19075SOL    HW159184   8.914   1.112   3.822
19075SOL    HW259185   8.790   1.215   3.795
19076SOL     OW59186   7.745   0.035   3.895
19076SOL    HW159187   7.794   0.119   3.874
19076SOL    HW259188   7.807  -0.030   3.940
19077SOL     OW59189   8.383   0.236   4.204
19077SOL    HW159190   8.335   0.277   4.126
19077SOL    HW259191   8.482   0.234   4.185
19078SOL     OW59192   8.524   0.683   5.188
19078SOL    HW159193   8.444   0.622   5.191
19078SOL    HW259194   8.605   0.630   5.164
19079SOL     OW59195   8.675   1.570   4.517
19079SOL    HW159196   8.696   1.644   4.452
19079SOL    HW259197   8.743   1.570   4.590
19080SOL     OW59198   7.907   1.152   4.465
19080SOL    HW159199   7.836   1.125   4.530
19080SOL    HW259200   7.881   1.124   4.372
19081SOL     OW59201   8.719   1.797   4.315
19081SOL    HW159202   8.763   1.861   4.251
19081SOL    HW259203   8.669   1.849   4.385
19082SOL     OW59204   8.480   0.549   3.740
19082SOL    HW159205   8.439   0.631   3.701
19082SOL    HW259206   8.544   0.575   3.813
19083SOL     OW59207   7.526   0.556   5.110
19083SOL    HW159208   7.618   0.555   5.069
19083SOL    HW259209   7.520   0.630   5.177
19084SOL     OW59210   8.009   0.222   4.871
19084SOL    HW159211   8.047   0.138   4.908
19084SOL    HW259212   7.921   0.241   4.915
19085SOL     OW59213   8.314   0.454   4.366
19085SOL    HW159214   8.282   0.526   4.304
19085SOL    HW259215   8.338   0.373   4.313
19086SOL     OW59216   8.465   0.039   4.477
19086SOL    HW159217   8.393   0.044   4.408
19086SOL    HW259218   8.441  -0.030   4.546
19087SOL     OW59219   8.877   1.173   4.591
19087SOL    HW159220   8.822   1.089   4.584
19087SOL    HW259221   8.903   1.202   4.499
19088SOL     OW59222   8.914   0.590   4.716
19088SOL    HW159223   8.884   0.495   4.723
19088SOL    HW259224   8.987   0.606   4.782
19089SOL     OW59225   7.936   1.385   3.898
19089SOL    HW159226   7.849   1.370   3.945
19089SOL    HW259227   7.919   1.411   3.803
19090SOL     OW59228   0.112   1.280   4.381
19090SOL    HW159229   0.211   1.288   4.395
19090SOL    HW259230   0.067   1.364   4.412
19091SOL     OW59231   8.838   0.575   3.802
19091SOL    HW159232   8.784   0.554   3.883
19091SOL    HW259233   8.929   0.534   3.811
19092SOL     OW59234   7.975   0.256   4.052
19092SOL    HW159235   8.002   0.197   3.977
19092SOL    HW259236   7.975   0.351   4.021
19093SOL     OW59237   8.512   1.347   5.064
19093SOL    HW159238   8.432   1.324   5.119
19093SOL    HW259239   8.595   1.321   5.113
19094SOL     OW59240   0.040   1.629   5.349
19094SOL    HW159241   0.067   1.663   5.259
19094SOL    HW259242   0.119   1.591   5.395
19095SOL     OW59243   8.559   1.195   4.824
19095SOL    HW159244   8.519   1.239   4.905
19095SOL    HW259245   8.518   1.232   4.741
19096SOL     OW59246   0.086   1.099   4.803
19096SOL    HW159247   0.091   1.180   4.862
19096SOL    HW259248   0.000   1.101   4.752
19097SOL     OW59249   8.363   0.089   5.126
19097SOL    HW159250   8.388   0.069   5.031
19097SOL    HW259251   8.435   0.145   5.168
19098SOL     OW59252   8.428   1.116   5.443
19098SOL    HW159253   8.329   1.122   5.453
19098SOL    HW259254   8.451   1.036   5.387
19099SOL     OW59255   8.153   1.050   4.092
19099SOL    HW159256   8.139   1.057   4.191
19099SOL    HW259257   8.237   0.999   4.074
19100SOL     OW59258   7.858   0.813   4.975
19100SOL    HW159259   7.944   0.825   5.025
19100SOL    HW259260   7.816   0.726   5.002
19101SOL     OW59261   8.722   0.386   4.986
19101SOL    HW159262   8.743   0.460   5.050
19101SOL    HW259263   8.633   0.403   4.943
19102SOL     OW59264   7.512   1.564   5.055
19102SOL    HW159265   7.466   1.646   5.021
19102SOL    HW259266   7.610   1.583   5.064
19103SOL     OW59267   7.815   1.100   4.225
19103SOL    HW159268   7.808   1.183   4.169
19103SOL    HW259269   7.819   1.020   4.165
19104SOL     OW59270   8.014   0.537   4.589
19104SOL    HW159271   8.026   0.603   4.515
19104SOL    HW259272   8.060   0.571   4.672
19105SOL     OW59273   8.700   1.348   4.112
19105SOL    HW159274   8.750   1.425   4.152
19105SOL    HW259275   8.605   1.350   4.144
19106SOL     OW59276   8.720   1.445   4.866
19106SOL    HW159277   8.767   1.458   4.953
19106SOL    HW259278   8.654   1.371   4.875
19107SOL     OW59279   0.030   0.639   4.196
19107SOL    HW159280  -0.001   0.700   4.269
19107SOL    HW259281   0.080   0.691   4.127
19108SOL     OW59282   7.802   1.510   5.053
19108SOL    HW159283   7.781   1.466   4.966
19108SOL    HW259284   7.899   1.536   5.056
19109SOL     OW59285   7.850   0.751   5.322
19109SOL    HW159286   7.918   0.806   5.275
19109SOL    HW259287   7.890   0.663   5.349
19110SOL     OW59288   0.035   0.779   5.394
19110SOL    HW159289  -0.057   0.817   5.389
19110SOL    HW259290   0.095   0.826   5.329
19111SOL     OW59291   8.461   0.105   5.494
19111SOL    HW159292   8.467   0.190   5.442
19111SOL    HW259293   8.493   0.029   5.437
19112SOL     OW59294   7.952   0.050   5.464
19112SOL    HW159295   7.910  -0.007   5.394
19112SOL    HW259296   7.886   0.119   5.496
19113SOL     OW59297   8.021   0.870   4.753
19113SOL    HW159298   8.065   0.959   4.744
19113SOL    HW259299   7.958   0.870   4.830
19114SOL     OW59300   8.808   0.862   4.769
19114SOL    HW159301   8.733   0.862   4.703
19114SOL    HW259302   8.845   0.770   4.778
19115SOL     OW59303   8.657   0.525   3.999
19115SOL    HW159304   8.670   0.441   4.053
19115SOL    HW259305   8.628   0.599   4.059
19116SOL     OW59306   7.755   0.213   4.955
19116SOL    HW159307   7.732   0.250   5.045
19116SOL    HW259308   7.725   0.118   4.949
19117SOL     OW59309   7.485   1.310   5.006
19117SOL    HW159310   7.538   1.261   5.074
19117SOL    HW259311   7.507   1.408   5.011
19118SOL     OW59312   8.180   0.634   4.788
19118SOL    HW159313   8.239   0.608   4.712
19118SOL    HW259314   8.152   0.730   4.777
19119SOL     OW59315   0.176   0.935   5.578
19119SOL    HW159316   0.130   0.928   5.489
19119SOL    HW259317   0.114   0.979   5.644
19120SOL     OW59318   7.755   0.063   4.342
19120SOL    HW159319   7.744   0.157   4.375
19120SOL    HW259320   7.750   0.000   4.419
19121SOL     OW59321   0.070   0.367   4.098
19121SOL    HW159322   0.072   0.291   4.162
19121SOL    HW259323   0.022   0.444   4.138
19122SOL     OW59324   8.471   0.766   4.690
19122SOL    HW159325   8.486   0.787   4.786
19122SOL    HW259326   8.441   0.671   4.681
19123SOL     OW59327   8.428   1.573   5.424
19123SOL    HW159328   8.408   1.617   5.336
19123SOL    HW259329   8.467   1.482   5.408
19124SOL     OW59330   7.798   0.898   5.528
19124SOL    HW159331   7.874   0.942   5.576
19124SOL    HW259332   7.833   0.851   5.446
19125SOL     OW59333   8.988   0.274   3.849
19125SOL    HW159334   8.927   0.199   3.872
19125SOL    HW259335   9.010   0.326   3.932
19126SOL     OW59336   8.751   0.838   3.766
19126SOL    HW159337   8.785   0.745   3.781
19126SOL    HW259338   8.769   0.865   3.671
19127SOL     OW59339   8.516   1.333   4.573
19127SOL    HW159340   8.523   1.249   4.518
19127SOL    HW259341   8.578   1.402   4.537
19128SOL     OW59342   7.767   0.810   4.673
19128SOL    HW159343   7.860   0.846   4.678
19128SOL    HW259344   7.761   0.725   4.725
19129SOL     OW59345   7.787   0.509   4.730
19129SOL    HW159346   7.735   0.426   4.713
19129SOL    HW259347   7.864   0.514   4.666
19130SOL     OW59348   8.586   0.380   5.402
19130SOL    HW159349   8.541   0.443   5.466
19130SOL    HW259350   8.679   0.411   5.385
19131SOL     OW59351   8.608   0.207   5.201
19131SOL    HW159352   8.608   0.271   5.278
19131SOL    HW259353   8.636   0.255   5.118
19132SOL     OW59354   7.456   1.326   3.924
19132SOL    HW159355   7.363   1.347   3.893
19132SOL    HW259356   7.466   1.227   3.937
19133SOL     OW59357   7.536   1.801   4.651
19133SOL    HW159358   7.494   1.715   4.624
19133SOL    HW259359   7.630   1.804   4.617
19134SOL     OW59360   7.952   1.568   4.634
19134SOL    HW159361   8.018   1.642   4.643
19134SOL    HW259362   7.996   1.489   4.592
19135SOL     OW59363   8.450   0.796   4.962
19135SOL    HW159364   8.491   0.764   5.048
19135SOL    HW259365   8.354   0.769   4.959
19136SOL     OW59366   7.488   0.544   4.838
19136SOL    HW159367   7.573   0.511   4.797
19136SOL    HW259368   7.501   0.559   4.936
19137SOL     OW59369   7.637   0.520   5.446
19137SOL    HW159370   7.696   0.480   5.376
19137SOL    HW259371   7.579   0.591   5.405
19138SOL     OW59372   8.817   0.950   5.384
19138SOL    HW159373   8.856   1.039   5.404
19138SOL    HW259374   8.827   0.930   5.287
19139SOL     OW59375   8.263   0.572   4.049
19139SOL    HW159376   8.270   0.483   4.003
19139SOL    HW259377   8.169   0.606   4.041
19140SOL     OW59378   0.105   0.604   4.930
19140SOL    HW159379   0.067   0.535   4.992
19140SOL    HW259380   0.187   0.568   4.886
19141SOL     OW59381   7.700   1.564   5.468
19141SOL    HW159382   7.670   1.621   5.544
19141SOL    HW259383   7.693   1.467   5.494
19142SOL     OW59384   8.119   0.464   4.993
19142SOL    HW159385   8.085   0.375   4.963
19142SOL    HW259386   8.145   0.518   4.913
19143SOL     OW59387   8.378   1.678   5.189
19143SOL    HW159388   8.354   1.660   5.094
19143SOL    HW259389   8.408   1.772   5.199
19144SOL     OW59390   7.921   0.500   3.915
19144SOL    HW159391   7.982   0.580   3.919
19144SOL    HW259392   7.826   0.531   3.922
19145SOL     OW59393   7.607   1.137   5.190
19145SOL    HW159394   7.629   1.076   5.266
19145SOL    HW259395   7.617   1.088   5.104
19146SOL     OW59396   8.795   1.059   4.958
19146SOL    HW159397   8.819   0.996   4.884
19146SOL    HW259398   8.705   1.099   4.940
19147SOL     OW59399   8.750   0.855   4.033
19147SOL    HW159400   8.664   0.824   4.075
19147SOL    HW259401   8.746   0.841   3.934
19148SOL     OW59402   8.700   1.731   4.852
19148SOL    HW159403   8.784   1.736   4.798
19148SOL    HW259404   8.677   1.635   4.870
19149SOL     OW59405   7.531   1.258   4.746
19149SOL    HW159406   7.526   1.257   4.846
19149SOL    HW259407   7.448   1.217   4.708
19150SOL     OW59408   8.136   1.662   5.440
19150SOL    HW159409   8.080   1.743   5.449
19150SOL    HW259410   8.188   1.666   5.354
19151SOL     OW59411   0.174   0.135   4.247
19151SOL    HW159412   0.247   0.118   4.180
19151SOL    HW259413   0.143   0.048   4.285
19152SOL     OW59414   8.836   1.573   4.201
19152SOL    HW159415   8.903   1.585   4.127
19152SOL    HW259416   8.796   1.662   4.224
19153SOL     OW59417   7.578   1.794   5.575
19153SOL    HW159418   7.537   1.720   5.628
19153SOL    HW259419   7.642   1.845   5.633
19154SOL     OW59420   8.728   0.927   4.396
19154SOL    HW159421   8.788   0.846   4.398
19154SOL    HW259422   8.768   0.996   4.336
19155SOL     OW59423   8.278   1.273   5.146
19155SOL    HW159424   8.273   1.306   5.241
19155SOL    HW259425   8.192   1.292   5.100
19156SOL     OW59426   8.120   1.616   3.878
19156SOL    HW159427   8.129   1.626   3.779
19156SOL    HW259428   8.080   1.527   3.899
19157SOL     OW59429   0.098   1.720   5.118
19157SOL    HW159430   0.151   1.730   5.034
19157SOL    HW259431   0.071   1.810   5.152
19158SOL     OW59432   7.711   0.326   4.444
19158SOL    HW159433   7.632   0.377   4.410
19158SOL    HW259434   7.702   0.311   4.542
19159SOL     OW59435   8.642   1.612   3.755
19159SOL    HW159436   8.648   1.519   3.792
19159SOL    HW259437   8.583   1.612   3.675
19160SOL     OW59438   8.270   1.002   5.096
19160SOL    HW159439   8.310   1.001   5.004
19160SOL    HW259440   8.280   1.094   5.136
19161SOL     OW59441   8.364   0.910   4.015
19161SOL    HW159442   8.427   0.948   3.947
19161SOL    HW259443   8.404   0.827   4.054
19162SOL     OW59444   8.952   1.607   3.768
19162SOL    HW159445   8.860   1.644   3.775
19162SOL    HW259446   8.990   1.627   3.678
19163SOL     OW59447   7.820   1.288   5.214
19163SOL    HW159448   7.807   1.381   5.180
19163SOL    HW259449   7.736   1.236   5.201
19164SOL     OW59450   0.062   1.292   5.013
19164SOL    HW159451   0.122   1.295   5.093
19164SOL    HW259452  -0.013   1.356   5.026
19165SOL     OW59453   8.487   1.098   4.420
19165SOL    HW159454   8.417   1.051   4.474
19165SOL    HW259455   8.546   1.030   4.377
19166SOL     OW59456   8.462   0.236   4.695
19166SOL    HW159457   8.454   0.200   4.602
19166SOL    HW259458   8.460   0.160   4.760
19167SOL     OW59459   8.038   1.487   4.215
19167SOL    HW159460   8.080   1.429   4.145
19167SOL    HW259461   7.994   1.566   4.171
19168SOL     OW59462   0.157   0.385   5.105
19168SOL    HW159463   0.230   0.454   5.109
19168SOL    HW259464   0.185   0.310   5.046
19169SOL     OW59465   7.703   1.348   4.014
19169SOL    HW159466   7.607   1.349   3.987
19169SOL    HW259467   7.715   1.401   4.098
19170SOL     OW59468   7.553   1.013   5.450
19170SOL    HW159469   7.476   0.980   5.504
19170SOL    HW259470   7.638   0.983   5.492
19171SOL     OW59471   8.120   0.203   5.213
19171SOL    HW159472   8.210   0.187   5.173
19171SOL    HW259473   8.128   0.208   5.312
19172SOL     OW59474   7.523   0.345   3.757
19172SOL    HW159475   7.431   0.317   3.728
19172SOL    HW259476   7.554   0.422   3.701
19173SOL     OW59477   8.888   0.856   5.122
19173SOL    HW159478   8.831   0.908   5.059
19173SOL    HW259479   8.984   0.868   5.098
19174SOL     OW59480   7.520   0.166   4.042
19174SOL    HW159481   7.503   0.249   3.988
19174SOL    HW259482   7.610   0.129   4.020
19175SOL     OW59483   8.631   1.335   3.843
19175SOL    HW159484   8.532   1.324   3.845
19175SOL    HW259485   8.665   1.350   3.936
19176SOL     OW59486   8.061   0.842   5.155
19176SOL    HW159487   8.117   0.923   5.138
19176SOL    HW259488   8.120   0.762   5.158
19177SOL     OW59489   8.941   1.767   4.683
19177SOL    HW159490   8.974   1.831   4.614
19177SOL    HW259491   9.007   1.761   4.758
19178SOL     OW59492   8.164   0.565   5.432
19178SOL    HW159493   8.183   0.630   5.506
19178SOL    HW259494   8.224   0.485   5.441
19179SOL     OW59495   8.898   1.220   5.357
19179SOL    HW159496   8.889   1.210   5.456
19179SOL    HW259497   8.994   1.213   5.331
19180SOL     OW59498   7.838   1.741   5.284
19180SOL    HW159499   7.747   1.782   5.282
19180SOL    HW259500   7.831   1.647   5.316
19181SOL     OW59501   0.122   0.883   4.978
19181SOL    HW159502   0.095   0.794   4.941
19181SOL    HW259503   0.123   0.951   4.905
19182SOL     OW59504   8.673   0.325   4.173
19182SOL    HW159505   8.738   0.251   4.162
19182SOL    HW259506   8.693   0.375   4.257
19183SOL     OW59507   8.042   0.745   4.376
19183SOL    HW159508   8.092   0.830   4.357
19183SOL    HW259509   7.954   0.747   4.328
19184SOL     OW59510   0.225   0.342   5.366
19184SOL    HW159511   0.208   0.373   5.272
19184SOL    HW259512   0.141   0.305   5.404
19185SOL     OW59513   0.178   0.934   5.241
19185SOL    HW159514   0.216   1.025   5.256
19185SOL    HW259515   0.170   0.917   5.142
19186SOL     OW59516   8.307   1.374   3.740
19186SOL    HW159517   8.261   1.389   3.828
19186SOL    HW259518   8.351   1.459   3.710
19187SOL     OW59519   8.109   1.790   4.677
19187SOL    HW159520   8.063   1.878   4.664
19187SOL    HW259521   8.208   1.802   4.670
19188SOL     OW59522   8.307   0.956   4.585
19188SOL    HW159523   8.361   0.887   4.633
19188SOL    HW259524   8.275   1.025   4.651
19189SOL     OW59525   8.531   0.984   3.811
19189SOL    HW159526   8.508   1.037   3.729
19189SOL    HW259527   8.612   0.928   3.792
19190SOL     OW59528   7.669   1.314   5.568
19190SOL    HW159529   7.604   1.241   5.547
19190SOL    HW259530   7.673   1.328   5.666
19191SOL     OW59531   7.527   1.240   4.377
19191SOL    HW159532   7.526   1.193   4.465
19191SOL    HW259533   7.609   1.212   4.326
19192SOL     OW59534   8.120   1.391   5.348
19192SOL    HW159535   8.042   1.341   5.386
19192SOL    HW259536   8.117   1.486   5.379
19193SOL     OW59537   7.876   0.424   4.244
19193SOL    HW159538   7.906   0.352   4.182
19193SOL    HW259539   7.837   0.384   4.327
19194SOL     OW59540   0.153   1.487   4.828
19194SOL    HW159541   0.060   1.462   4.801
19194SOL    HW259542   0.179   1.437   4.910
19195SOL     OW59543   7.765   0.547   5.004
19195SOL    HW159544   7.803   0.488   5.076
19195SOL    HW259545   7.805   0.521   4.916
19196SOL     OW59546   8.260   1.586   4.411
19196SOL    HW159547   8.292   1.596   4.317
19196SOL    HW259548   8.181   1.524   4.413
19197SOL     OW59549   8.872   0.214   4.836
19197SOL    HW159550   8.924   0.149   4.891
19197SOL    HW259551   8.823   0.277   4.897
19198SOL     OW59552   8.449   0.034   4.878
19198SOL    HW159553   8.386  -0.038   4.847
19198SOL    HW259554   8.542  -0.002   4.878
19199SOL     OW59555   8.218   1.330   4.025
19199SOL    HW159556   8.172   1.243   4.042
19199SOL    HW259557   8.309   1.327   4.066
19200SOL     OW59558   8.066   1.567   5.008
19200SOL    HW159559   8.061   1.649   5.065
19200SOL    HW259560   8.155   1.564   4.963
19201SOL     OW59561   8.800   0.052   3.892
19201SOL    HW159562   8.835   0.011   3.808
19201SOL    HW259563   8.710   0.014   3.912
19202SOL     OW59564   8.748   0.453   4.415
19202SOL    HW159565   8.689   0.533   4.419
19202SOL    HW259566   8.763   0.418   4.508
19203SOL     OW59567   0.041   0.221   4.606
19203SOL    HW159568  -0.043   0.220   4.660
19203SOL    HW259569   0.043   0.304   4.550
19204SOL     OW59570   7.487   1.077   4.024
19204SOL    HW159571   7.586   1.066   4.015
19204SOL    HW259572   7.447   0.991   4.056
19205SOL     OW59573   8.323   1.646   4.061
19205SOL    HW159574   8.246   1.611   4.007
19205SOL    HW259575   8.291   1.717   4.123
19206SOL     OW59576   7.678   0.628   5.699
19206SOL    HW159577   7.585   0.626   5.736
19206SOL    HW259578   7.679   0.589   5.607
19207SOL     OW59579   7.673   0.275   6.582
19207SOL    HW159580   7.708   0.258   6.674
19207SOL    HW259581   7.585   0.230   6.570
19208SOL     OW59582   7.467   0.368   6.233
19208SOL    HW159583   7.385   0.411   6.272
19208SOL    HW259584   7.439   0.295   6.170
19209SOL     OW59585   8.017   1.275   6.751
19209SOL    HW159586   7.924   1.268   6.714
19209SOL    HW259587   8.028   1.364   6.795
19210SOL     OW59588   0.003   1.511   6.289
19210SOL    HW159589  -0.054   1.495   6.370
19210SOL    HW259590  -0.056   1.521   6.209
19211SOL     OW59591   0.191   0.618   6.442
19211SOL    HW159592   0.224   0.712   6.442
19211SOL    HW259593   0.242   0.564   6.508
19212SOL     OW59594   8.583   0.703   6.303
19212SOL    HW159595   8.640   0.781   6.278
19212SOL    HW259596   8.523   0.729   6.379
19213SOL     OW59597   0.203   0.607   5.817
19213SOL    HW159598   0.191   0.594   5.718
19213SOL    HW259599   0.173   0.526   5.866
19214SOL     OW59600   8.216   1.144   6.609
19214SOL    HW159601   8.138   1.161   6.669
19214SOL    HW259602   8.250   1.231   6.573
19215SOL     OW59603   8.298   0.798   7.409
19215SOL    HW159604   8.294   0.874   7.474
19215SOL    HW259605   8.320   0.834   7.318
19216SOL     OW59606   8.133   1.012   6.251
19216SOL    HW159607   8.202   0.996   6.321
19216SOL    HW259608   8.060   1.069   6.289
19217SOL     OW59609   8.134   1.161   7.389
19217SOL    HW159610   8.194   1.240   7.403
19217SOL    HW259611   8.048   1.192   7.348
19218SOL     OW59612   7.783   1.435   6.647
19218SOL    HW159613   7.705   1.404   6.594
19218SOL    HW259614   7.841   1.493   6.590
19219SOL     OW59615   8.908   1.505   6.925
19219SOL    HW159616   8.932   1.599   6.951
19219SOL    HW259617   8.892   1.451   7.007
19220SOL     OW59618   7.886   0.392   7.085
19220SOL    HW159619   7.968   0.336   7.094
19220SOL    HW259620   7.805   0.334   7.089
19221SOL     OW59621   7.679   1.713   6.069
19221SOL    HW159622   7.713   1.790   6.123
19221SOL    HW259623   7.723   1.713   5.979
19222SOL     OW59624   8.575   1.341   7.276
19222SOL    HW159625   8.622   1.341   7.364
19222SOL    HW259626   8.527   1.254   7.265
19223SOL     OW59627   7.678   1.434   6.124
19223SOL    HW159628   7.652   1.530   6.124
19223SOL    HW259629   7.607   1.380   6.169
19224SOL     OW59630   7.688   1.091   6.472
19224SOL    HW159631   7.702   1.007   6.524
19224SOL    HW259632   7.633   1.155   6.527
19225SOL     OW59633   8.068   1.786   7.025
19225SOL    HW159634   7.976   1.769   7.060
19225SOL    HW259635   8.096   1.878   7.051
19226SOL     OW59636   8.054   0.964   5.709
19226SOL    HW159637   8.061   1.048   5.655
19226SOL    HW259638   8.100   0.977   5.797
19227SOL     OW59639   0.042   0.114   7.066
19227SOL    HW159640   0.024   0.181   6.994
19227SOL    HW259641   0.039   0.160   7.155
19228SOL     OW59642   7.570   0.643   6.149
19228SOL    HW159643   7.525   0.555   6.166
19228SOL    HW259644   7.569   0.697   6.233
19229SOL     OW59645   7.475   1.596   5.703
19229SOL    HW159646   7.456   1.500   5.724
19229SOL    HW259647   7.442   1.654   5.778
19230SOL     OW59648   0.137   0.922   6.198
19230SOL    HW159649   0.232   0.893   6.206
19230SOL    HW259650   0.129   0.987   6.123
19231SOL     OW59651   0.089   1.108   6.018
19231SOL    HW159652   0.175   1.110   5.966
19231SOL    HW259653   0.103   1.155   6.106
19232SOL     OW59654   7.561   0.737   7.183
19232SOL    HW159655   7.649   0.724   7.228
19232SOL    HW259656   7.548   0.834   7.161
19233SOL     OW59657   8.061   1.365   6.312
19233SOL    HW159658   8.012   1.278   6.321
19233SOL    HW259659   8.038   1.408   6.225
19234SOL     OW59660   8.741   1.228   7.009
19234SOL    HW159661   8.778   1.155   6.951
19234SOL    HW259662   8.793   1.233   7.094
19235SOL     OW59663   8.257   0.004   6.088
19235SOL    HW159664   8.297   0.095   6.079
19235SOL    HW259665   8.157   0.012   6.094
19236SOL     OW59666   7.645   0.976   6.850
19236SOL    HW159667   7.734   0.931   6.836
19236SOL    HW259668   7.572   0.911   6.831
19237SOL     OW59669   8.973   0.999   5.776
19237SOL    HW159670   8.910   0.923   5.789
19237SOL    HW259671   9.021   1.017   5.862
19238SOL     OW59672   8.635   1.792   7.202
19238SOL    HW159673   8.659   1.852   7.126
19238SOL    HW259674   8.642   1.697   7.172
19239SOL     OW59675   7.765   0.251   7.387
19239SOL    HW159676   7.836   0.322   7.393
19239SOL    HW259677   7.677   0.290   7.415
19240SOL     OW59678   8.914   1.417   6.539
19240SOL    HW159679   8.855   1.423   6.619
19240SOL    HW259680   8.899   1.329   6.493
19241SOL     OW59681   0.115   1.714   6.158
19241SOL    HW159682   0.074   1.691   6.070
19241SOL    HW259683   0.097   1.640   6.223
19242SOL     OW59684   8.046   0.729   5.856
19242SOL    HW159685   8.070   0.798   5.788
19242SOL    HW259686   7.968   0.762   5.910
19243SOL     OW59687   8.729   0.345   6.530
19243SOL    HW159688   8.643   0.295   6.517
19243SOL    HW259689   8.791   0.291   6.586
19244SOL     OW59690   0.024   1.662   5.893
19244SOL    HW159691   0.113   1.708   5.896
19244SOL    HW259692   0.003   1.638   5.798
19245SOL     OW59693   8.255   0.605   7.051
19245SOL    HW159694   8.208   0.602   7.140
19245SOL    HW259695   8.204   0.550   6.985
19246SOL     OW59696   8.842   0.469   7.260
19246SOL    HW159697   8.822   0.512   7.348
19246SOL    HW259698   8.920   0.407   7.269
19247SOL     OW59699   8.421   0.890   7.158
19247SOL    HW159700   8.467   0.806   7.129
19247SOL    HW259701   8.365   0.924   7.083
19248SOL     OW59702   8.439   0.410   6.828
19248SOL    HW159703   8.362   0.444   6.882
19248SOL    HW259704   8.405   0.359   6.749
19249SOL     OW59705   8.489   0.701   6.015
19249SOL    HW159706   8.515   0.697   6.111
19249SOL    HW259707   8.404   0.650   6.001
19250SOL     OW59708   7.524   0.811   6.375
19250SOL    HW159709   7.623   0.799   6.384
19250SOL    HW259710   7.500   0.906   6.396
19251SOL     OW59711   7.578   1.821   7.157
19251SOL    HW159712   7.568   1.806   7.256
19251SOL    HW259713   7.492   1.857   7.121
19252SOL     OW59714   8.313   0.348   5.781
19252SOL    HW159715   8.372   0.411   5.732
19252SOL    HW259716   8.332   0.254   5.752
19253SOL     OW59717   0.167   0.585   7.417
19253SOL    HW159718   0.141   0.674   7.381
19253SOL    HW259719   0.165   0.517   7.344
19254SOL     OW59720   8.810   1.144   6.131
19254SOL    HW159721   8.893   1.115   6.083
19254SOL    HW259722   8.761   1.211   6.075
19255SOL     OW59723   7.998   0.196   6.471
19255SOL    HW159724   7.993   0.191   6.571
19255SOL    HW259725   8.000   0.292   6.442
19256SOL     OW59726   8.456   1.456   6.063
19256SOL    HW159727   8.410   1.528   6.011
19256SOL    HW259728   8.452   1.476   6.161
19257SOL     OW59729   7.799   1.801   6.439
19257SOL    HW159730   7.849   1.715   6.445
19257SOL    HW259731   7.864   1.878   6.436
19258SOL     OW59732   0.243   1.066   6.459
19258SOL    HW159733   0.181   1.051   6.383
19258SOL    HW259734   0.191   1.077   6.544
19259SOL     OW59735   8.675   1.550   7.092
19259SOL    HW159736   8.681   1.473   7.156
19259SOL    HW259737   8.623   1.524   7.012
19260SOL     OW59738   7.769   0.943   5.828
19260SOL    HW159739   7.851   0.982   5.786
19260SOL    HW259740   7.742   0.861   5.779
19261SOL     OW59741   8.906   0.735   6.314
19261SOL    HW159742   8.901   0.670   6.389
19261SOL    HW259743   8.986   0.794   6.327
19262SOL     OW59744   7.909   1.266   7.313
19262SOL    HW159745   7.859   1.267   7.227
19262SOL    HW259746   7.846   1.248   7.389
19263SOL     OW59747   8.559   1.776   5.823
19263SOL    HW159748   8.499   1.714   5.873
19263SOL    HW259749   8.590   1.732   5.738
19264SOL     OW59750   7.650   0.285   7.084
19264SOL    HW159751   7.570   0.345   7.071
19264SOL    HW259752   7.640   0.236   7.170
19265SOL     OW59753   0.080   1.377   5.667
19265SOL    HW159754   0.048   1.471   5.657
19265SOL    HW259755   0.004   1.314   5.655
19266SOL     OW59756   7.912   1.743   5.909
19266SOL    HW159757   7.945   1.782   5.995
19266SOL    HW259758   7.988   1.736   5.844
19267SOL     OW59759   8.848   0.107   6.012
19267SOL    HW159760   8.824   0.070   5.922
19267SOL    HW259761   8.947   0.123   6.016
19268SOL     OW59762   7.697   1.785   6.827
19268SOL    HW159763   7.754   1.720   6.877
19268SOL    HW259764   7.681   1.752   6.734
19269SOL     OW59765   8.388   1.698   6.490
19269SOL    HW159766   8.468   1.641   6.511
19269SOL    HW259767   8.339   1.658   6.413
19270SOL     OW59768   7.830   0.700   6.066
19270SOL    HW159769   7.875   0.610   6.063
19270SOL    HW259770   7.736   0.689   6.099
19271SOL     OW59771   8.995   0.222   7.315
19271SOL    HW159772   8.990   0.259   7.407
19271SOL    HW259773   8.923   0.153   7.303
19272SOL     OW59774   8.062   0.122   5.703
19272SOL    HW159775   8.160   0.100   5.710
19272SOL    HW259776   8.031   0.105   5.610
19273SOL     OW59777   8.229   0.264   7.335
19273SOL    HW159778   8.296   0.203   7.378
19273SOL    HW259779   8.156   0.283   7.400
19274SOL     OW59780   8.336   1.514   6.781
19274SOL    HW159781   8.313   1.489   6.687
19274SOL    HW259782   8.397   1.445   6.820
19275SOL     OW59783   8.799   0.590   7.019
19275SOL    HW159784   8.827   0.547   7.104
19275SOL    HW259785   8.824   0.686   7.020
19276SOL     OW59786   8.251   1.402   6.510
19276SOL    HW159787   8.341   1.416   6.468
19276SOL    HW259788   8.180   1.404   6.439
19277SOL     OW59789   8.370   0.503   6.485
19277SOL    HW159790   8.345   0.494   6.389
19277SOL    HW259791   8.418   0.421   6.516
19278SOL     OW59792   7.987   0.064   6.098
19278SOL    HW159793   7.906   0.065   6.156
19278SOL    HW259794   7.990   0.147   6.043
19279SOL     OW59795   8.882   1.188   5.627
19279SOL    HW159796   8.914   1.112   5.684
19279SOL    HW259797   8.790   1.215   5.657
19280SOL     OW59798   7.745   0.035   5.757
19280SOL    HW159799   7.794   0.119   5.736
19280SOL    HW259800   7.807  -0.030   5.802
19281SOL     OW59801   8.383   0.236   6.066
19281SOL    HW159802   8.335   0.277   5.988
19281SOL    HW259803   8.482   0.234   6.047
19282SOL     OW59804   8.524   0.683   7.050
19282SOL    HW159805   8.444   0.622   7.053
19282SOL    HW259806   8.605   0.630   7.026
19283SOL     OW59807   8.675   1.570   6.379
19283SOL    HW159808   8.696   1.644   6.314
19283SOL    HW259809   8.743   1.570   6.452
19284SOL     OW59810   7.907   1.152   6.327
19284SOL    HW159811   7.836   1.125   6.392
19284SOL    HW259812   7.881   1.124   6.234
19285SOL     OW59813   8.719   1.797   6.177
19285SOL    HW159814   8.763   1.861   6.113
19285SOL    HW259815   8.669   1.849   6.247
19286SOL     OW59816   8.480   0.549   5.602
19286SOL    HW159817   8.439   0.631   5.563
19286SOL    HW259818   8.544   0.575   5.675
19287SOL     OW59819   7.526   0.556   6.972
19287SOL    HW159820   7.618   0.555   6.931
19287SOL    HW259821   7.520   0.630   7.039
19288SOL     OW59822   8.009   0.222   6.733
19288SOL    HW159823   8.047   0.138   6.770
19288SOL    HW259824   7.921   0.241   6.777
19289SOL     OW59825   8.314   0.454   6.228
19289SOL    HW159826   8.282   0.526   6.166
19289SOL    HW259827   8.338   0.373   6.175
19290SOL     OW59828   8.465   0.039   6.339
19290SOL    HW159829   8.393   0.044   6.270
19290SOL    HW259830   8.441  -0.030   6.408
19291SOL     OW59831   8.877   1.173   6.453
19291SOL    HW159832   8.822   1.089   6.446
19291SOL    HW259833   8.903   1.202   6.361
19292SOL     OW59834   8.914   0.590   6.578
19292SOL    HW159835   8.884   0.495   6.585
19292SOL    HW259836   8.987   0.606   6.644
19293SOL     OW59837   7.936   1.385   5.760
19293SOL    HW159838   7.849   1.370   5.807
19293SOL    HW259839   7.919   1.411   5.665
19294SOL     OW59840   0.112   1.280   6.243
19294SOL    HW159841   0.211   1.288   6.257
19294SOL    HW259842   0.067   1.364   6.274
19295SOL     OW59843   8.838   0.575   5.664
19295SOL    HW159844   8.784   0.554   5.745
19295SOL    HW259845   8.929   0.534   5.673
19296SOL     OW59846   7.975   0.256   5.914
19296SOL    HW159847   8.002   0.197   5.839
19296SOL    HW259848   7.975   0.351   5.883
19297SOL     OW59849   8.512   1.347   6.926
19297SOL    HW159850   8.432   1.324   6.981
19297SOL    HW259851   8.595   1.321   6.975
19298SOL     OW59852   0.040   1.629   7.211
19298SOL    HW159853   0.067   1.663   7.121
19298SOL    HW259854   0.119   1.591   7.257
19299SOL     OW59855   8.559   1.195   6.686
19299SOL    HW159856   8.519   1.239   6.767
19299SOL    HW259857   8.518   1.232   6.603
19300SOL     OW59858   0.086   1.099   6.665
19300SOL    HW159859   0.091   1.180   6.724
19300SOL    HW259860   0.000   1.101   6.614
19301SOL     OW59861   8.363   0.089   6.988
19301SOL    HW159862   8.388   0.069   6.893
19301SOL    HW259863   8.435   0.145   7.030
19302SOL     OW59864   8.428   1.116   7.305
19302SOL    HW159865   8.329   1.122   7.315
19302SOL    HW259866   8.451   1.036   7.249
19303SOL     OW59867   8.153   1.050   5.954
19303SOL    HW159868   8.139   1.057   6.053
19303SOL    HW259869   8.237   0.999   5.936
19304SOL     OW59870   7.858   0.813   6.837
19304SOL    HW159871   7.944   0.825   6.887
19304SOL    HW259872   7.816   0.726   6.864
19305SOL     OW59873   8.722   0.386   6.848
19305SOL    HW159874   8.743   0.460   6.912
19305SOL    HW259875   8.633   0.403   6.805
19306SOL     OW59876   7.512   1.564   6.917
19306SOL    HW159877   7.466   1.646   6.883
19306SOL    HW259878   7.610   1.583   6.926
19307SOL     OW59879   7.815   1.100   6.087
19307SOL    HW159880   7.808   1.183   6.031
19307SOL    HW259881   7.819   1.020   6.027
19308SOL     OW59882   8.014   0.537   6.451
19308SOL    HW159883   8.026   0.603   6.377
19308SOL    HW259884   8.060   0.571   6.534
19309SOL     OW59885   8.700   1.348   5.974
19309SOL    HW159886   8.750   1.425   6.014
19309SOL    HW259887   8.605   1.350   6.006
19310SOL     OW59888   8.720   1.445   6.728
19310SOL    HW159889   8.767   1.458   6.815
19310SOL    HW259890   8.654   1.371   6.737
19311SOL     OW59891   0.030   0.639   6.058
19311SOL    HW159892  -0.001   0.700   6.131
19311SOL    HW259893   0.080   0.691   5.989
19312SOL     OW59894   7.802   1.510   6.915
19312SOL    HW159895   7.781   1.466   6.828
19312SOL    HW259896   7.899   1.536   6.918
19313SOL     OW59897   7.850   0.751   7.184
19313SOL    HW159898   7.918   0.806   7.137
19313SOL    HW259899   7.890   0.663   7.211
19314SOL     OW59900   0.035   0.779   7.256
19314SOL    HW159901  -0.057   0.817   7.251
19314SOL    HW259902   0.095   0.826   7.191
19315SOL     OW59903   8.461   0.105   7.356
19315SOL    HW159904   8.467   0.190   7.304
19315SOL    HW259905   8.493   0.029   7.299
19316SOL     OW59906   7.952   0.050   7.326
19316SOL    HW159907   7.910  -0.007   7.256
19316SOL    HW259908   7.886   0.119   7.358
19317SOL     OW59909   8.021   0.870   6.615
19317SOL    HW159910   8.065   0.959   6.606
19317SOL    HW259911   7.958   0.870   6.692
19318SOL     OW59912   8.808   0.862   6.631
19318SOL    HW159913   8.733   0.862   6.565
19318SOL    HW259914   8.845   0.770   6.640
19319SOL     OW59915   8.657   0.525   5.861
19319SOL    HW159916   8.670   0.441   5.915
19319SOL    HW259917   8.628   0.599   5.921
19320SOL     OW59918   7.755   0.213   6.817
19320SOL    HW159919   7.732   0.250   6.907
19320SOL    HW259920   7.725   0.118   6.811
19321SOL     OW59921   7.485   1.310   6.868
19321SOL    HW159922   7.538   1.261   6.936
19321SOL    HW259923   7.507   1.408   6.873
19322SOL     OW59924   8.180   0.634   6.650
19322SOL    HW159925   8.239   0.608   6.574
19322SOL    HW259926   8.152   0.730   6.639
19323SOL     OW59927   0.176   0.935   7.440
19323SOL    HW159928   0.130   0.928   7.351
19323SOL    HW259929   0.114   0.979   7.506
19324SOL     OW59930   7.755   0.063   6.204
19324SOL    HW159931   7.744   0.157   6.237
19324SOL    HW259932   7.750   0.000   6.281
19325SOL     OW59933   0.070   0.367   5.960
19325SOL    HW159934   0.072   0.291   6.024
19325SOL    HW259935   0.022   0.444   6.000
19326SOL     OW59936   8.471   0.766   6.552
19326SOL    HW159937   8.486   0.787   6.648
19326SOL    HW259938   8.441   0.671   6.543
19327SOL     OW59939   8.428   1.573   7.286
19327SOL    HW159940   8.408   1.617   7.198
19327SOL    HW259941   8.467   1.482   7.270
19328SOL     OW59942   7.798   0.898   7.390
19328SOL    HW159943   7.874   0.942   7.438
19328SOL    HW259944   7.833   0.851   7.308
19329SOL     OW59945   8.988   0.274   5.711
19329SOL    HW159946   8.927   0.199   5.734
19329SOL    HW259947   9.010   0.326   5.794
19330SOL     OW59948   8.751   0.838   5.628
19330SOL    HW159949   8.785   0.745   5.643
19330SOL    HW259950   8.769   0.865   5.533
19331SOL     OW59951   8.516   1.333   6.435
19331SOL    HW159952   8.523   1.249   6.380
19331SOL    HW259953   8.578   1.402   6.399
19332SOL     OW59954   7.767   0.810   6.535
19332SOL    HW159955   7.860   0.846   6.540
19332SOL    HW259956   7.761   0.725   6.587
19333SOL     OW59957   7.787   0.509   6.592
19333SOL    HW159958   7.735   0.426   6.575
19333SOL    HW259959   7.864   0.514   6.528
19334SOL     OW59960   8.586   0.380   7.264
19334SOL    HW159961   8.541   0.443   7.328
19334SOL    HW259962   8.679   0.411   7.247
19335SOL     OW59963   8.608   0.207   7.063
19335SOL    HW159964   8.608   0.271   7.140
19335SOL    HW259965   8.636   0.255   6.980
19336SOL     OW59966   7.456   1.326   5.786
19336SOL    HW159967   7.363   1.347   5.755
19336SOL    HW259968   7.466   1.227   5.799
19337SOL     OW59969   7.536   1.801   6.513
19337SOL    HW159970   7.494   1.715   6.486
19337SOL    HW259971   7.630   1.804   6.479
19338SOL     OW59972   7.952   1.568   6.496
19338SOL    HW159973   8.018   1.642   6.505
19338SOL    HW259974   7.996   1.489   6.454
19339SOL     OW59975   8.450   0.796   6.824
19339SOL    HW159976   8.491   0.764   6.910
19339SOL    HW259977   8.354   0.769   6.821
19340SOL     OW59978   7.488   0.544   6.700
19340SOL    HW159979   7.573   0.511   6.659
19340SOL    HW259980   7.501   0.559   6.798
19341SOL     OW59981   7.637   0.520   7.308
19341SOL    HW159982   7.696   0.480   7.238
19341SOL    HW259983   7.579   0.591   7.267
19342SOL     OW59984   8.817   0.950   7.246
19342SOL    HW159985   8.856   1.039   7.266
19342SOL    HW259986   8.827   0.930   7.149
19343SOL     OW59987   8.263   0.572   5.911
19343SOL    HW159988   8.270   0.483   5.865
19343SOL    HW259989   8.169   0.606   5.903
19344SOL     OW59990   0.105   0.604   6.792
19344SOL    HW159991   0.067   0.535   6.854
19344SOL    HW259992   0.187   0.568   6.748
19345SOL     OW59993   7.700   1.564   7.330
19345SOL    HW159994   7.670   1.621   7.406
19345SOL    HW259995   7.693   1.467   7.356
19346SOL     OW59996   8.119   0.464   6.855
19346SOL    HW159997   8.085   0.375   6.825
19346SOL    HW259998   8.145   0.518   6.775
19347SOL     OW59999   8.378   1.678   7.051
19347SOL    HW160000   8.354   1.660   6.956
19347SOL    HW260001   8.408   1.772   7.061
19348SOL     OW60002   7.921   0.500   5.777
19348SOL    HW160003   7.982   0.580   5.781
19348SOL    HW260004   7.826   0.531   5.784
19349SOL     OW60005   7.607   1.137   7.052
19349SOL    HW160006   7.629   1.076   7.128
19349SOL    HW260007   7.617   1.088   6.966
19350SOL     OW60008   8.795   1.059   6.820
19350SOL    HW160009   8.819   0.996   6.746
19350SOL    HW260010   8.705   1.099   6.802
19351SOL     OW60011   8.750   0.855   5.895
19351SOL    HW160012   8.664   0.824   5.937
19351SOL    HW260013   8.746   0.841   5.796
19352SOL     OW60014   8.700   1.731   6.714
19352SOL    HW160015   8.784   1.736   6.660
19352SOL    HW260016   8.677   1.635   6.732
19353SOL     OW60017   7.531   1.258   6.608
19353SOL    HW160018   7.526   1.257   6.708
19353SOL    HW260019   7.448   1.217   6.570
19354SOL     OW60020   8.136   1.662   7.302
19354SOL    HW160021   8.080   1.743   7.311
19354SOL    HW260022   8.188   1.666   7.216
19355SOL     OW60023   0.174   0.135   6.109
19355SOL    HW160024   0.247   0.118   6.042
19355SOL    HW260025   0.143   0.048   6.147
19356SOL     OW60026   8.836   1.573   6.063
19356SOL    HW160027   8.903   1.585   5.989
19356SOL    HW260028   8.796   1.662   6.086
19357SOL     OW60029   7.578   1.794   7.437
19357SOL    HW160030   7.537   1.720   7.490
19357SOL    HW260031   7.642   1.845   7.495
19358SOL     OW60032   8.728   0.927   6.258
19358SOL    HW160033   8.788   0.846   6.260
19358SOL    HW260034   8.768   0.996   6.198
19359SOL     OW60035   8.278   1.273   7.008
19359SOL    HW160036   8.273   1.306   7.103
19359SOL    HW260037   8.192   1.292   6.962
19360SOL     OW60038   8.120   1.616   5.740
19360SOL    HW160039   8.129   1.626   5.641
19360SOL    HW260040   8.080   1.527   5.761
19361SOL     OW60041   0.098   1.720   6.980
19361SOL    HW160042   0.151   1.730   6.896
19361SOL    HW260043   0.071   1.810   7.014
19362SOL     OW60044   7.711   0.326   6.306
19362SOL    HW160045   7.632   0.377   6.272
19362SOL    HW260046   7.702   0.311   6.404
19363SOL     OW60047   8.642   1.612   5.617
19363SOL    HW160048   8.648   1.519   5.654
19363SOL    HW260049   8.583   1.612   5.537
19364SOL     OW60050   8.270   1.002   6.958
19364SOL    HW160051   8.310   1.001   6.866
19364SOL    HW260052   8.280   1.094   6.998
19365SOL     OW60053   8.364   0.910   5.877
19365SOL    HW160054   8.427   0.948   5.809
19365SOL    HW260055   8.404   0.827   5.916
19366SOL     OW60056   8.952   1.607   5.630
19366SOL    HW160057   8.860   1.644   5.637
19366SOL    HW260058   8.990   1.627   5.540
19367SOL     OW60059   7.820   1.288   7.076
19367SOL    HW160060   7.807   1.381   7.042
19367SOL    HW260061   7.736   1.236   7.063
19368SOL     OW60062   0.062   1.292   6.875
19368SOL    HW160063   0.122   1.295   6.955
19368SOL    HW260064  -0.013   1.356   6.888
19369SOL     OW60065   8.487   1.098   6.282
19369SOL    HW160066   8.417   1.051   6.336
19369SOL    HW260067   8.546   1.030   6.239
19370SOL     OW60068   8.462   0.236   6.557
19370SOL    HW160069   8.454   0.200   6.464
19370SOL    HW260070   8.460   0.160   6.622
19371SOL     OW60071   8.038   1.487   6.077
19371SOL    HW160072   8.080   1.429   6.007
19371SOL    HW260073   7.994   1.566   6.033
19372SOL     OW60074   0.157   0.385   6.967
19372SOL    HW160075   0.230   0.454   6.971
19372SOL    HW260076   0.185   0.310   6.908
19373SOL     OW60077   7.703   1.348   5.876
19373SOL    HW160078   7.607   1.349   5.849
19373SOL    HW260079   7.715   1.401   5.960
19374SOL     OW60080   7.553   1.013   7.312
19374SOL    HW160081   7.476   0.980   7.366
19374SOL    HW260082   7.638   0.983   7.354
19375SOL     OW60083   8.120   0.203   7.075
19375SOL    HW160084   8.210   0.187   7.035
19375SOL    HW260085   8.128   0.208   7.174
19376SOL     OW60086   7.523   0.345   5.619
19376SOL    HW160087   7.431   0.317   5.590
19376SOL    HW260088   7.554   0.422   5.563
19377SOL     OW60089   8.888   0.856   6.984
19377SOL    HW160090   8.831   0.908   6.921
19377SOL    HW260091   8.984   0.868   6.960
19378SOL     OW60092   7.520   0.166   5.904
19378SOL    HW160093   7.503   0.249   5.850
19378SOL    HW260094   7.610   0.129   5.882
19379SOL     OW60095   8.631   1.335   5.705
19379SOL    HW160096   8.532   1.324   5.707
19379SOL    HW260097   8.665   1.350   5.798
19380SOL     OW60098   8.061   0.842   7.017
19380SOL    HW160099   8.117   0.923   7.000
19380SOL    HW260100   8.120   0.762   7.020
19381SOL     OW60101   8.941   1.767   6.545
19381SOL    HW160102   8.974   1.831   6.476
19381SOL    HW260103   9.007   1.761   6.620
19382SOL     OW60104   8.164   0.565   7.294
19382SOL    HW160105   8.183   0.630   7.368
19382SOL    HW260106   8.224   0.485   7.303
19383SOL     OW60107   8.898   1.220   7.219
19383SOL    HW160108   8.889   1.210   7.318
19383SOL    HW260109   8.994   1.213   7.193
19384SOL     OW60110   7.838   1.741   7.146
19384SOL    HW160111   7.747   1.782   7.144
19384SOL    HW260112   7.831   1.647   7.178
19385SOL     OW60113   0.122   0.883   6.840
19385SOL    HW160114   0.095   0.794   6.803
19385SOL    HW260115   0.123   0.951   6.767
19386SOL     OW60116   8.673   0.325   6.035
19386SOL    HW160117   8.738   0.251   6.024
19386SOL    HW260118   8.693   0.375   6.119
19387SOL     OW60119   8.042   0.745   6.238
19387SOL    HW160120   8.092   0.830   6.219
19387SOL    HW260121   7.954   0.747   6.190
19388SOL     OW60122   0.225   0.342   7.228
19388SOL    HW160123   0.208   0.373   7.134
19388SOL    HW260124   0.141   0.305   7.266
19389SOL     OW60125   0.178   0.934   7.103
19389SOL    HW160126   0.216   1.025   7.118
19389SOL    HW260127   0.170   0.917   7.004
19390SOL     OW60128   8.307   1.374   5.602
19390SOL    HW160129   8.261   1.389   5.690
19390SOL    HW260130   8.351   1.459   5.572
19391SOL     OW60131   8.109   1.790   6.539
19391SOL    HW160132   8.063   1.878   6.526
19391SOL    HW260133   8.208   1.802   6.532
19392SOL     OW60134   8.307   0.956   6.447
19392SOL    HW160135   8.361   0.887   6.495
19392SOL    HW260136   8.275   1.025   6.513
19393SOL     OW60137   8.531   0.984   5.673
19393SOL    HW160138   8.508   1.037   5.591
19393SOL    HW260139   8.612   0.928   5.654
19394SOL     OW60140   7.669   1.314   7.430
19394SOL    HW160141   7.604   1.241   7.409
19394SOL    HW260142   7.673   1.328   7.528
19395SOL     OW60143   7.527   1.240   6.239
19395SOL    HW160144   7.526   1.193   6.327
19395SOL    HW260145   7.609   1.212   6.188
19396SOL     OW60146   8.120   1.391   7.210
19396SOL    HW160147   8.042   1.341   7.248
19396SOL    HW260148   8.117   1.486   7.241
19397SOL     OW60149   7.876   0.424   6.106
19397SOL    HW160150   7.906   0.352   6.044
19397SOL    HW260151   7.837   0.384   6.189
19398SOL     OW60152   0.153   1.487   6.690
19398SOL    HW160153   0.060   1.462   6.663
19398SOL    HW260154   0.179   1.437   6.772
19399SOL     OW60155   7.765   0.547   6.866
19399SOL    HW160156   7.803   0.488   6.938
19399SOL    HW260157   7.805   0.521   6.778
19400SOL     OW60158   8.260   1.586   6.273
19400SOL    HW160159   8.292   1.596   6.179
19400SOL    HW260160   8.181   1.524   6.275
19401SOL     OW60161   8.872   0.214   6.698
19401SOL    HW160162   8.924   0.149   6.753
19401SOL    HW260163   8.823   0.277   6.759
19402SOL     OW60164   8.449   0.034   6.740
19402SOL    HW160165   8.386  -0.038   6.709
19402SOL    HW260166   8.542  -0.002   6.740
19403SOL     OW60167   8.218   1.330   5.887
19403SOL    HW160168   8.172   1.243   5.904
19403SOL    HW260169   8.309   1.327   5.928
19404SOL     OW60170   8.066   1.567   6.870
19404SOL    HW160171   8.061   1.649   6.927
19404SOL    HW260172   8.155   1.564   6.825
19405SOL     OW60173   8.800   0.052   5.754
19405SOL    HW160174   8.835   0.011   5.670
19405SOL    HW260175   8.710   0.014   5.774
19406SOL     OW60176   8.748   0.453   6.277
19406SOL    HW160177   8.689   0.533   6.281
19406SOL    HW260178   8.763   0.418   6.370
19407SOL     OW60179   0.041   0.221   6.468
19407SOL    HW160180  -0.043   0.220   6.522
19407SOL    HW260181   0.043   0.304   6.412
19408SOL     OW60182   7.487   1.077   5.886
19408SOL    HW160183   7.586   1.066   5.877
19408SOL    HW260184   7.447   0.991   5.918
19409SOL     OW60185   8.323   1.646   5.923
19409SOL    HW160186   8.246   1.611   5.869
19409SOL    HW260187   8.291   1.717   5.985
19410SOL     OW60188   7.678   0.628   7.561
19410SOL    HW160189   7.585   0.626   7.598
19410SOL    HW260190   7.679   0.589   7.469
19411SOL     OW60191   7.673   0.275   8.444
19411SOL    HW160192   7.708   0.258   8.536
19411SOL    HW260193   7.585   0.230   8.432
19412SOL     OW60194   7.467   0.368   8.095
19412SOL    HW160195   7.385   0.411   8.134
19412SOL    HW260196   7.439   0.295   8.032
19413SOL     OW60197   8.017   1.275   8.613
19413SOL    HW160198   7.924   1.268   8.576
19413SOL    HW260199   8.028   1.364   8.657
19414SOL     OW60200   0.003   1.511   8.151
19414SOL    HW160201  -0.054   1.495   8.232
19414SOL    HW260202  -0.056   1.521   8.071
19415SOL     OW60203   0.191   0.618   8.304
19415SOL    HW160204   0.224   0.712   8.304
19415SOL    HW260205   0.242   0.564   8.370
19416SOL     OW60206   8.583   0.703   8.165
19416SOL    HW160207   8.640   0.781   8.140
19416SOL    HW260208   8.523   0.729   8.241
19417SOL     OW60209   0.203   0.607   7.679
19417SOL    HW160210   0.191   0.594   7.580
19417SOL    HW260211   0.173   0.526   7.728
19418SOL     OW60212   8.216   1.144   8.471
19418SOL    HW160213   8.138   1.161   8.531
19418SOL    HW260214   8.250   1.231   8.435
19419SOL     OW60215   8.133   1.012   8.113
19419SOL    HW160216   8.202   0.996   8.183
19419SOL    HW260217   8.060   1.069   8.151
19420SOL     OW60218   7.783   1.435   8.509
19420SOL    HW160219   7.705   1.404   8.456
19420SOL    HW260220   7.841   1.493   8.452
19421SOL     OW60221   8.908   1.505   8.787
19421SOL    HW160222   8.932   1.599   8.813
19421SOL    HW260223   8.892   1.451   8.869
19422SOL     OW60224   7.886   0.392   8.947
19422SOL    HW160225   7.968   0.336   8.956
19422SOL    HW260226   7.805   0.334   8.951
19423SOL     OW60227   7.679   1.713   7.931
19423SOL    HW160228   7.713   1.790   7.985
19423SOL    HW260229   7.723   1.713   7.841
19424SOL     OW60230   7.678   1.434   7.986
19424SOL    HW160231   7.652   1.530   7.986
19424SOL    HW260232   7.607   1.380   8.031
19425SOL     OW60233   7.688   1.091   8.334
19425SOL    HW160234   7.702   1.007   8.386
19425SOL    HW260235   7.633   1.155   8.389
19426SOL     OW60236   8.068   1.786   8.887
19426SOL    HW160237   7.976   1.769   8.922
19426SOL    HW260238   8.096   1.878   8.913
19427SOL     OW60239   8.054   0.964   7.571
19427SOL    HW160240   8.061   1.048   7.517
19427SOL    HW260241   8.100   0.977   7.659
19428SOL     OW60242   0.042   0.114   8.928
19428SOL    HW160243   0.024   0.181   8.856
19428SOL    HW260244   0.039   0.160   9.017
19429SOL     OW60245   7.570   0.643   8.011
19429SOL    HW160246   7.525   0.555   8.028
19429SOL    HW260247   7.569   0.697   8.095
19430SOL     OW60248   7.475   1.596   7.565
19430SOL    HW160249   7.456   1.500   7.586
19430SOL    HW260250   7.442   1.654   7.640
19431SOL     OW60251   0.137   0.922   8.060
19431SOL    HW160252   0.232   0.893   8.068
19431SOL    HW260253   0.129   0.987   7.985
19432SOL     OW60254   0.089   1.108   7.880
19432SOL    HW160255   0.175   1.110   7.828
19432SOL    HW260256   0.103   1.155   7.968
19433SOL     OW60257   8.061   1.365   8.174
19433SOL    HW160258   8.012   1.278   8.183
19433SOL    HW260259   8.038   1.408   8.087
19434SOL     OW60260   8.257   0.004   7.950
19434SOL    HW160261   8.297   0.095   7.941
19434SOL    HW260262   8.157   0.012   7.956
19435SOL     OW60263   7.645   0.976   8.712
19435SOL    HW160264   7.734   0.931   8.698
19435SOL    HW260265   7.572   0.911   8.693
19436SOL     OW60266   8.973   0.999   7.638
19436SOL    HW160267   8.910   0.923   7.651
19436SOL    HW260268   9.021   1.017   7.724
19437SOL     OW60269   8.914   1.417   8.401
19437SOL    HW160270   8.855   1.423   8.481
19437SOL    HW260271   8.899   1.329   8.355
19438SOL     OW60272   0.115   1.714   8.020
19438SOL    HW160273   0.074   1.691   7.932
19438SOL    HW260274   0.097   1.640   8.085
19439SOL     OW60275   8.046   0.729   7.718
19439SOL    HW160276   8.070   0.798   7.650
19439SOL    HW260277   7.968   0.762   7.772
19440SOL     OW60278   8.729   0.345   8.392
19440SOL    HW160279   8.643   0.295   8.379
19440SOL    HW260280   8.791   0.291   8.448
19441SOL     OW60281   0.024   1.662   7.755
19441SOL    HW160282   0.113   1.708   7.758
19441SOL    HW260283   0.003   1.638   7.660
19442SOL     OW60284   8.255   0.605   8.913
19442SOL    HW160285   8.208   0.602   9.002
19442SOL    HW260286   8.204   0.550   8.847
19443SOL     OW60287   8.439   0.410   8.690
19443SOL    HW160288   8.362   0.444   8.744
19443SOL    HW260289   8.405   0.359   8.611
19444SOL     OW60290   8.489   0.701   7.877
19444SOL    HW160291   8.515   0.697   7.973
19444SOL    HW260292   8.404   0.650   7.863
19445SOL     OW60293   7.524   0.811   8.237
19445SOL    HW160294   7.623   0.799   8.246
19445SOL    HW260295   7.500   0.906   8.258
19446SOL     OW60296   7.578   1.821   0.019
19446SOL    HW160297   7.568   1.806   0.118
19446SOL    HW260298   7.492   1.857  -0.017
19447SOL     OW60299   8.313   0.348   7.643
19447SOL    HW160300   8.372   0.411   7.594
19447SOL    HW260301   8.332   0.254   7.614
19448SOL     OW60302   8.810   1.144   7.993
19448SOL    HW160303   8.893   1.115   7.945
19448SOL    HW260304   8.761   1.211   7.937
19449SOL     OW60305   7.998   0.196   8.333
19449SOL    HW160306   7.993   0.191   8.433
19449SOL    HW260307   8.000   0.292   8.304
19450SOL     OW60308   8.456   1.456   7.925
19450SOL    HW160309   8.410   1.528   7.873
19450SOL    HW260310   8.452   1.476   8.023
19451SOL     OW60311   7.799   1.801   8.301
19451SOL    HW160312   7.849   1.715   8.307
19451SOL    HW260313   7.864   1.878   8.298
19452SOL     OW60314   0.243   1.066   8.321
19452SOL    HW160315   0.181   1.051   8.245
19452SOL    HW260316   0.191   1.077   8.406
19453SOL     OW60317   7.769   0.943   7.690
19453SOL    HW160318   7.851   0.982   7.648
19453SOL    HW260319   7.742   0.861   7.641
19454SOL     OW60320   8.906   0.735   8.176
19454SOL    HW160321   8.901   0.670   8.251
19454SOL    HW260322   8.986   0.794   8.189
19455SOL     OW60323   8.559   1.776   7.685
19455SOL    HW160324   8.499   1.714   7.735
19455SOL    HW260325   8.590   1.732   7.600
19456SOL     OW60326   7.650   0.285   8.946
19456SOL    HW160327   7.570   0.345   8.933
19456SOL    HW260328   7.640   0.236   9.032
19457SOL     OW60329   0.080   1.377   7.529
19457SOL    HW160330   0.048   1.471   7.519
19457SOL    HW260331   0.004   1.314   7.517
19458SOL     OW60332   7.912   1.743   7.771
19458SOL    HW160333   7.945   1.782   7.857
19458SOL    HW260334   7.988   1.736   7.706
19459SOL     OW60335   8.848   0.107   7.874
19459SOL    HW160336   8.824   0.070   7.784
19459SOL    HW260337   8.947   0.123   7.878
19460SOL     OW60338   7.697   1.785   8.689
19460SOL    HW160339   7.754   1.720   8.739
19460SOL    HW260340   7.681   1.752   8.596
19461SOL     OW60341   8.388   1.698   8.352
19461SOL    HW160342   8.468   1.641   8.373
19461SOL    HW260343   8.339   1.658   8.275
19462SOL     OW60344   7.830   0.700   7.928
19462SOL    HW160345   7.875   0.610   7.925
19462SOL    HW260346   7.736   0.689   7.961
19463SOL     OW60347   8.062   0.122   7.565
19463SOL    HW160348   8.160   0.100   7.572
19463SOL    HW260349   8.031   0.105   7.472
19464SOL     OW60350   8.336   1.514   8.643
19464SOL    HW160351   8.313   1.489   8.549
19464SOL    HW260352   8.397   1.445   8.682
19465SOL     OW60353   8.251   1.402   8.372
19465SOL    HW160354   8.341   1.416   8.330
19465SOL    HW260355   8.180   1.404   8.301
19466SOL     OW60356   8.370   0.503   8.347
19466SOL    HW160357   8.345   0.494   8.251
19466SOL    HW260358   8.418   0.421   8.378
19467SOL     OW60359   7.987   0.064   7.960
19467SOL    HW160360   7.906   0.065   8.018
19467SOL    HW260361   7.990   0.147   7.905
19468SOL     OW60362   8.882   1.188   7.489
19468SOL    HW160363   8.914   1.112   7.546
19468SOL    HW260364   8.790   1.215   7.519
19469SOL     OW60365   7.745   0.035   7.619
19469SOL    HW160366   7.794   0.119   7.598
19469SOL    HW260367   7.807  -0.030   7.664
19470SOL     OW60368   8.383   0.236   7.928
19470SOL    HW160369   8.335   0.277   7.850
19470SOL    HW260370   8.482   0.234   7.909
19471SOL     OW60371   8.675   1.570   8.241
19471SOL    HW160372   8.696   1.644   8.176
19471SOL    HW260373   8.743   1.570   8.314
19472SOL     OW60374   7.907   1.152   8.189
19472SOL    HW160375   7.836   1.125   8.254
19472SOL    HW260376   7.881   1.124   8.096
19473SOL     OW60377   8.719   1.797   8.039
19473SOL    HW160378   8.763   1.861   7.975
19473SOL    HW260379   8.669   1.849   8.109
19474SOL     OW60380   8.480   0.549   7.464
19474SOL    HW160381   8.439   0.631   7.425
19474SOL    HW260382   8.544   0.575   7.537
19475SOL     OW60383   7.526   0.556   8.834
19475SOL    HW160384   7.618   0.555   8.793
19475SOL    HW260385   7.520   0.630   8.901
19476SOL     OW60386   8.009   0.222   8.595
19476SOL    HW160387   8.047   0.138   8.632
19476SOL    HW260388   7.921   0.241   8.639
19477SOL     OW60389   8.314   0.454   8.090
19477SOL    HW160390   8.282   0.526   8.028
19477SOL    HW260391   8.338   0.373   8.037
19478SOL     OW60392   8.465   0.039   8.201
19478SOL    HW160393   8.393   0.044   8.132
19478SOL    HW260394   8.441  -0.030   8.270
19479SOL     OW60395   8.877   1.173   8.315
19479SOL    HW160396   8.822   1.089   8.308
19479SOL    HW260397   8.903   1.202   8.223
19480SOL     OW60398   8.914   0.590   8.440
19480SOL    HW160399   8.884   0.495   8.447
19480SOL    HW260400   8.987   0.606   8.506
19481SOL     OW60401   7.936   1.385   7.622
19481SOL    HW160402   7.849   1.370   7.669
19481SOL    HW260403   7.919   1.411   7.527
19482SOL     OW60404   0.112   1.280   8.105
19482SOL    HW160405   0.211   1.288   8.119
19482SOL    HW260406   0.067   1.364   8.136
19483SOL     OW60407   8.838   0.575   7.526
19483SOL    HW160408   8.784   0.554   7.607
19483SOL    HW260409   8.929   0.534   7.535
19484SOL     OW60410   7.975   0.256   7.776
19484SOL    HW160411   8.002   0.197   7.701
19484SOL    HW260412   7.975   0.351   7.745
19485SOL     OW60413   8.512   1.347   8.788
19485SOL    HW160414   8.432   1.324   8.843
19485SOL    HW260415   8.595   1.321   8.837
19486SOL     OW60416   8.559   1.195   8.548
19486SOL    HW160417   8.519   1.239   8.629
19486SOL    HW260418   8.518   1.232   8.465
19487SOL     OW60419   0.086   1.099   8.527
19487SOL    HW160420   0.091   1.180   8.586
19487SOL    HW260421   0.000   1.101   8.476
19488SOL     OW60422   8.363   0.089   8.850
19488SOL    HW160423   8.388   0.069   8.755
19488SOL    HW260424   8.435   0.145   8.892
19489SOL     OW60425   8.153   1.050   7.816
19489SOL    HW160426   8.139   1.057   7.915
19489SOL    HW260427   8.237   0.999   7.798
19490SOL     OW60428   7.858   0.813   8.699
19490SOL    HW160429   7.944   0.825   8.749
19490SOL    HW260430   7.816   0.726   8.726
19491SOL     OW60431   8.722   0.386   8.710
19491SOL    HW160432   8.743   0.460   8.774
19491SOL    HW260433   8.633   0.403   8.667
19492SOL     OW60434   7.512   1.564   8.779
19492SOL    HW160435   7.466   1.646   8.745
19492SOL    HW260436   7.610   1.583   8.788
19493SOL     OW60437   7.815   1.100   7.949
19493SOL    HW160438   7.808   1.183   7.893
19493SOL    HW260439   7.819   1.020   7.889
19494SOL     OW60440   8.014   0.537   8.313
19494SOL    HW160441   8.026   0.603   8.239
19494SOL    HW260442   8.060   0.571   8.396
19495SOL     OW60443   8.700   1.348   7.836
19495SOL    HW160444   8.750   1.425   7.876
19495SOL    HW260445   8.605   1.350   7.868
19496SOL     OW60446   8.720   1.445   8.590
19496SOL    HW160447   8.767   1.458   8.677
19496SOL    HW260448   8.654   1.371   8.599
19497SOL     OW60449   0.030   0.639   7.920
19497SOL    HW160450  -0.001   0.700   7.993
19497SOL    HW260451   0.080   0.691   7.851
19498SOL     OW60452   7.802   1.510   8.777
19498SOL    HW160453   7.781   1.466   8.690
19498SOL    HW260454   7.899   1.536   8.780
19499SOL     OW60455   7.850   0.751   0.046
19499SOL    HW160456   7.918   0.806  -0.001
19499SOL    HW260457   7.890   0.663   0.073
19500SOL     OW60458   0.035   0.779   0.118
19500SOL    HW160459  -0.057   0.817   0.113
19500SOL    HW260460   0.095   0.826   0.053
19501SOL     OW60461   8.021   0.870   8.477
19501SOL    HW160462   8.065   0.959   8.468
19501SOL    HW260463   7.958   0.870   8.554
19502SOL     OW60464   8.808   0.862   8.493
19502SOL    HW160465   8.733   0.862   8.427
19502SOL    HW260466   8.845   0.770   8.502
19503SOL     OW60467   8.657   0.525   7.723
19503SOL    HW160468   8.670   0.441   7.777
19503SOL    HW260469   8.628   0.599   7.783
19504SOL     OW60470   7.755   0.213   8.679
19504SOL    HW160471   7.732   0.250   8.769
19504SOL    HW260472   7.725   0.118   8.673
19505SOL     OW60473   7.485   1.310   8.730
19505SOL    HW160474   7.538   1.261   8.798
19505SOL    HW260475   7.507   1.408   8.735
19506SOL     OW60476   8.180   0.634   8.512
19506SOL    HW160477   8.239   0.608   8.436
19506SOL    HW260478   8.152   0.730   8.501
19507SOL     OW60479   7.755   0.063   8.066
19507SOL    HW160480   7.744   0.157   8.099
19507SOL    HW260481   7.750   0.000   8.143
19508SOL     OW60482   0.070   0.367   7.822
19508SOL    HW160483   0.072   0.291   7.886
19508SOL    HW260484   0.022   0.444   7.862
19509SOL     OW60485   8.471   0.766   8.414
19509SOL    HW160486   8.486   0.787   8.510
19509SOL    HW260487   8.441   0.671   8.405
19510SOL     OW60488   8.428   1.573   0.148
19510SOL    HW160489   8.408   1.617   0.060
19510SOL    HW260490   8.467   1.482   0.132
19511SOL     OW60491   8.988   0.274   7.573
19511SOL    HW160492   8.927   0.199   7.596
19511SOL    HW260493   9.010   0.326   7.656
19512SOL     OW60494   8.751   0.838   7.490
19512SOL    HW160495   8.785   0.745   7.505
19512SOL    HW260496   8.769   0.865   7.395
19513SOL     OW60497   8.516   1.333   8.297
19513SOL    HW160498   8.523   1.249   8.242
19513SOL    HW260499   8.578   1.402   8.261
19514SOL     OW60500   7.767   0.810   8.397
19514SOL    HW160501   7.860   0.846   8.402
19514SOL    HW260502   7.761   0.725   8.449
19515SOL     OW60503   7.787   0.509   8.454
19515SOL    HW160504   7.735   0.426   8.437
19515SOL    HW260505   7.864   0.514   8.390
19516SOL     OW60506   8.586   0.380   0.126
19516SOL    HW160507   8.541   0.443   0.190
19516SOL    HW260508   8.679   0.411   0.109
19517SOL     OW60509   8.608   0.207   8.925
19517SOL    HW160510   8.608   0.271   9.002
19517SOL    HW260511   8.636   0.255   8.842
19518SOL     OW60512   7.456   1.326   7.648
19518SOL    HW160513   7.363   1.347   7.617
19518SOL    HW260514   7.466   1.227   7.661
19519SOL     OW60515   7.536   1.801   8.375
19519SOL    HW160516   7.494   1.715   8.348
19519SOL    HW260517   7.630   1.804   8.341
19520SOL     OW60518   7.952   1.568   8.358
19520SOL    HW160519   8.018   1.642   8.367
19520SOL    HW260520   7.996   1.489   8.316
19521SOL     OW60521   8.450   0.796   8.686
19521SOL    HW160522   8.491   0.764   8.772
19521SOL    HW260523   8.354   0.769   8.683
19522SOL     OW60524   7.488   0.544   8.562
19522SOL    HW160525   7.573   0.511   8.521
19522SOL    HW260526   7.501   0.559   8.660
19523SOL     OW60527   8.263   0.572   7.773
19523SOL    HW160528   8.270   0.483   7.727
19523SOL    HW260529   8.169   0.606   7.765
19524SOL     OW60530   0.105   0.604   8.654
19524SOL    HW160531   0.067   0.535   8.716
19524SOL    HW260532   0.187   0.568   8.610
19525SOL     OW60533   8.119   0.464   8.717
19525SOL    HW160534   8.085   0.375   8.687
19525SOL    HW260535   8.145   0.518   8.637
19526SOL     OW60536   8.378   1.678   8.913
19526SOL    HW160537   8.354   1.660   8.818
19526SOL    HW260538   8.408   1.772   8.923
19527SOL     OW60539   7.921   0.500   7.639
19527SOL    HW160540   7.982   0.580   7.643
19527SOL    HW260541   7.826   0.531   7.646
19528SOL     OW60542   7.607   1.137   8.914
19528SOL    HW160543   7.629   1.076   8.990
19528SOL    HW260544   7.617   1.088   8.828
19529SOL     OW60545   8.795   1.059   8.682
19529SOL    HW160546   8.819   0.996   8.608
19529SOL    HW260547   8.705   1.099   8.664
19530SOL     OW60548   8.750   0.855   7.757
19530SOL    HW160549   8.664   0.824   7.799
19530SOL    HW260550   8.746   0.841   7.658
19531SOL     OW60551   8.700   1.731   8.576
19531SOL    HW160552   8.784   1.736   8.522
19531SOL    HW260553   8.677   1.635   8.594
19532SOL     OW60554   7.531   1.258   8.470
19532SOL    HW160555   7.526   1.257   8.570
19532SOL    HW260556   7.448   1.217   8.432
19533SOL     OW60557   0.174   0.135   7.971
19533SOL    HW160558   0.247   0.118   7.904
19533SOL    HW260559   0.143   0.048   8.009
19534SOL     OW60560   8.836   1.573   7.925
19534SOL    HW160561   8.903   1.585   7.851
19534SOL    HW260562   8.796   1.662   7.948
19535SOL     OW60563   8.728   0.927   8.120
19535SOL    HW160564   8.788   0.846   8.122
19535SOL    HW260565   8.768   0.996   8.060
19536SOL     OW60566   8.120   1.616   7.602
19536SOL    HW160567   8.129   1.626   7.503
19536SOL    HW260568   8.080   1.527   7.623
19537SOL     OW60569   0.098   1.720   8.842
19537SOL    HW160570   0.151   1.730   8.758
19537SOL    HW260571   0.071   1.810   8.876
19538SOL     OW60572   7.711   0.326   8.168
19538SOL    HW160573   7.632   0.377   8.134
19538SOL    HW260574   7.702   0.311   8.266
19539SOL     OW60575   8.642   1.612   7.479
19539SOL    HW160576   8.648   1.519   7.516
19539SOL    HW260577   8.583   1.612   7.399
19540SOL     OW60578   8.270   1.002   8.820
19540SOL    HW160579   8.310   1.001   8.728
19540SOL    HW260580   8.280   1.094   8.860
19541SOL     OW60581   8.364   0.910   7.739
19541SOL    HW160582   8.427   0.948   7.671
19541SOL    HW260583   8.404   0.827   7.778
19542SOL     OW60584   8.952   1.607   7.492
19542SOL    HW160585   8.860   1.644   7.499
19542SOL    HW260586   8.990   1.627   7.402
19543SOL     OW60587   7.820   1.288   8.938
19543SOL    HW160588   7.807   1.381   8.904
19543SOL    HW260589   7.736   1.236   8.925
19544SOL     OW60590   0.062   1.292   8.737
19544SOL    HW160591   0.122   1.295   8.817
19544SOL    HW260592  -0.013   1.356   8.750
19545SOL     OW60593   8.487   1.098   8.144
19545SOL    HW160594   8.417   1.051   8.198
19545SOL    HW260595   8.546   1.030   8.101
19546SOL     OW60596   8.462   0.236   8.419
19546SOL    HW160597   8.454   0.200   8.326
19546SOL    HW260598   8.460   0.160   8.484
19547SOL     OW60599   8.038   1.487   7.939
19547SOL    HW160600   8.080   1.429   7.869
19547SOL    HW260601   7.994   1.566   7.895
19548SOL     OW60602   0.157   0.385   8.829
19548SOL    HW160603   0.230   0.454   8.833
19548SOL    HW260604   0.185   0.310   8.770
19549SOL     OW60605   7.703   1.348   7.738
19549SOL    HW160606   7.607   1.349   7.711
19549SOL    HW260607   7.715   1.401   7.822
19550SOL     OW60608   7.523   0.345   7.481
19550SOL    HW160609   7.431   0.317   7.452
19550SOL    HW260610   7.554   0.422   7.425
19551SOL     OW60611   8.888   0.856   8.846
19551SOL    HW160612   8.831   0.908   8.783
19551SOL    HW260613   8.984   0.868   8.822
19552SOL     OW60614   7.520   0.166   7.766
19552SOL    HW160615   7.503   0.249   7.712
19552SOL    HW260616   7.610   0.129   7.744
19553SOL     OW60617   8.631   1.335   7.567
19553SOL    HW160618   8.532   1.324   7.569
19553SOL    HW260619   8.665   1.350   7.660
19554SOL     OW60620   8.061   0.842   8.879
19554SOL    HW160621   8.117   0.923   8.862
19554SOL    HW260622   8.120   0.762   8.882
19555SOL     OW60623   8.941   1.767   8.407
19555SOL    HW160624   8.974   1.831   8.338
19555SOL    HW260625   9.007   1.761   8.482
19556SOL     OW60626   7.838   1.741   0.008
19556SOL    HW160627   7.747   1.782   0.006
19556SOL    HW260628   7.831   1.647   0.040
19557SOL     OW60629   0.122   0.883   8.702
19557SOL    HW160630   0.095   0.794   8.665
19557SOL    HW260631   0.123   0.951   8.629
19558SOL     OW60632   8.673   0.325   7.897
19558SOL    HW160633   8.738   0.251   7.886
19558SOL    HW260634   8.693   0.375   7.981
19559SOL     OW60635   8.042   0.745   8.100
19559SOL    HW160636   8.092   0.830   8.081
19559SOL    HW260637   7.954   0.747   8.052
19560SOL     OW60638   0.225   0.342   0.090
19560SOL    HW160639   0.208   0.373  -0.004
19560SOL    HW260640   0.141   0.305   0.128
19561SOL     OW60641   0.178   0.934   8.965
19561SOL    HW160642   0.216   1.025   8.980
19561SOL    HW260643   0.170   0.917   8.866
19562SOL     OW60644   8.307   1.374   7.464
19562SOL    HW160645   8.261   1.389   7.552
19562SOL    HW260646   8.351   1.459   7.434
19563SOL     OW60647   8.109   1.790   8.401
19563SOL    HW160648   8.063   1.878   8.388
19563SOL    HW260649   8.208   1.802   8.394
19564SOL     OW60650   8.856   1.851   0.168
19564SOL    HW160651   8.760   1.840   0.141
19564SOL    HW260652   8.912   1.784   0.120
19565SOL     OW60653   8.307   0.956   8.309
19565SOL    HW160654   8.361   0.887   8.357
19565SOL    HW260655   8.275   1.025   8.375
19566SOL     OW60656   8.531   0.984   7.535
19566SOL    HW160657   8.508   1.037   7.453
19566SOL    HW260658   8.612   0.928   7.516
19567SOL     OW60659   7.527   1.240   8.101
19567SOL    HW160660   7.526   1.193   8.189
19567SOL    HW260661   7.609   1.212   8.050
19568SOL     OW60662   7.876   0.424   7.968
19568SOL    HW160663   7.906   0.352   7.906
19568SOL    HW260664   7.837   0.384   8.051
19569SOL     OW60665   0.153   1.487   8.552
19569SOL    HW160666   0.060   1.462   8.525
19569SOL    HW260667   0.179   1.437   8.634
19570SOL     OW60668   7.765   0.547   8.728
19570SOL    HW160669   7.803   0.488   8.800
19570SOL    HW260670   7.805   0.521   8.640
19571SOL     OW60671   8.260   1.586   8.135
19571SOL    HW160672   8.292   1.596   8.041
19571SOL    HW260673   8.181   1.524   8.137
19572SOL     OW60674   8.872   0.214   8.560
19572SOL    HW160675   8.924   0.149   8.615
19572SOL    HW260676   8.823   0.277   8.621
19573SOL     OW60677   8.449   0.034   8.602
19573SOL    HW160678   8.386  -0.038   8.571
19573SOL    HW260679   8.542  -0.002   8.602
19574SOL     OW60680   8.218   1.330   7.749
19574SOL    HW160681   8.172   1.243   7.766
19574SOL    HW260682   8.309   1.327   7.790
19575SOL     OW60683   8.066   1.567   8.732
19575SOL    HW160684   8.061   1.649   8.789
19575SOL    HW260685   8.155   1.564   8.687
19576SOL     OW60686   8.800   0.052   7.616
19576SOL    HW160687   8.835   0.011   7.532
19576SOL    HW260688   8.710   0.014   7.636
19577SOL     OW60689   8.748   0.453   8.139
19577SOL    HW160690   8.689   0.533   8.143
19577SOL    HW260691   8.763   0.418   8.232
19578SOL     OW60692   0.041   0.221   8.330
19578SOL    HW160693  -0.043   0.220   8.384
19578SOL    HW260694   0.043   0.304   8.274
19579SOL     OW60695   7.487   1.077   7.748
19579SOL    HW160696   7.586   1.066   7.739
19579SOL    HW260697   7.447   0.991   7.780
19580SOL     OW60698   8.323   1.646   7.785
19580SOL    HW160699   8.246   1.611   7.731
19580SOL    HW260700   8.291   1.717   7.847
19581SOL     OW60701   7.678   2.490   0.113
19581SOL    HW160702   7.585   2.488   0.150
19581SOL    HW260703   7.679   2.451   0.021
19582SOL     OW60704   7.673   2.137   0.996
19582SOL    HW160705   7.708   2.120   1.088
19582SOL    HW260706   7.585   2.092   0.984
19583SOL     OW60707   7.467   2.230   0.647
19583SOL    HW160708   7.385   2.273   0.686
19583SOL    HW260709   7.439   2.157   0.584
19584SOL     OW60710   0.003   3.373   0.703
19584SOL    HW160711  -0.054   3.357   0.784
19584SOL    HW260712  -0.056   3.383   0.623
19585SOL     OW60713   0.191   2.480   0.856
19585SOL    HW160714   0.224   2.574   0.856
19585SOL    HW260715   0.242   2.426   0.922
19586SOL     OW60716   8.583   2.565   0.717
19586SOL    HW160717   8.640   2.643   0.692
19586SOL    HW260718   8.523   2.591   0.793
19587SOL     OW60719   0.203   2.469   0.231
19587SOL    HW160720   0.191   2.456   0.132
19587SOL    HW260721   0.173   2.388   0.280
19588SOL     OW60722   8.298   2.660   1.823
19588SOL    HW160723   8.294   2.736   1.888
19588SOL    HW260724   8.320   2.696   1.732
19589SOL     OW60725   8.133   2.874   0.665
19589SOL    HW160726   8.202   2.858   0.735
19589SOL    HW260727   8.060   2.931   0.703
19590SOL     OW60728   8.134   3.023   1.803
19590SOL    HW160729   8.194   3.102   1.817
19590SOL    HW260730   8.048   3.054   1.762
19591SOL     OW60731   8.908   3.367   1.339
19591SOL    HW160732   8.932   3.461   1.365
19591SOL    HW260733   8.892   3.313   1.421
19592SOL     OW60734   7.886   2.254   1.499
19592SOL    HW160735   7.968   2.198   1.508
19592SOL    HW260736   7.805   2.196   1.503
19593SOL     OW60737   7.679   3.575   0.483
19593SOL    HW160738   7.713   3.652   0.537
19593SOL    HW260739   7.723   3.575   0.393
19594SOL     OW60740   8.575   3.203   1.690
19594SOL    HW160741   8.622   3.203   1.778
19594SOL    HW260742   8.527   3.116   1.679
19595SOL     OW60743   7.678   3.296   0.538
19595SOL    HW160744   7.652   3.392   0.538
19595SOL    HW260745   7.607   3.242   0.583
19596SOL     OW60746   8.068   3.648   1.439
19596SOL    HW160747   7.976   3.631   1.474
19596SOL    HW260748   8.096   3.740   1.465
19597SOL     OW60749   8.054   2.826   0.123
19597SOL    HW160750   8.061   2.910   0.069
19597SOL    HW260751   8.100   2.839   0.211
19598SOL     OW60752   0.042   1.976   1.480
19598SOL    HW160753   0.024   2.043   1.408
19598SOL    HW260754   0.039   2.022   1.569
19599SOL     OW60755   7.570   2.505   0.563
19599SOL    HW160756   7.525   2.417   0.580
19599SOL    HW260757   7.569   2.559   0.647
19600SOL     OW60758   0.137   2.784   0.612
19600SOL    HW160759   0.232   2.755   0.620
19600SOL    HW260760   0.129   2.849   0.537
19601SOL     OW60761   0.089   2.970   0.432
19601SOL    HW160762   0.175   2.972   0.380
19601SOL    HW260763   0.103   3.017   0.520
19602SOL     OW60764   7.561   2.599   1.597
19602SOL    HW160765   7.649   2.586   1.642
19602SOL    HW260766   7.548   2.696   1.575
19603SOL     OW60767   8.061   3.227   0.726
19603SOL    HW160768   8.012   3.140   0.735
19603SOL    HW260769   8.038   3.270   0.639
19604SOL     OW60770   8.741   3.090   1.423
19604SOL    HW160771   8.778   3.017   1.365
19604SOL    HW260772   8.793   3.095   1.508
19605SOL     OW60773   8.257   1.866   0.502
19605SOL    HW160774   8.297   1.957   0.493
19605SOL    HW260775   8.157   1.874   0.508
19606SOL     OW60776   7.645   2.838   1.264
19606SOL    HW160777   7.734   2.793   1.250
19606SOL    HW260778   7.572   2.773   1.245
19607SOL     OW60779   8.973   2.861   0.190
19607SOL    HW160780   8.910   2.785   0.203
19607SOL    HW260781   9.021   2.879   0.276
19608SOL     OW60782   8.635   3.654   1.616
19608SOL    HW160783   8.659   3.714   1.540
19608SOL    HW260784   8.642   3.559   1.586
19609SOL     OW60785   7.765   2.113   1.801
19609SOL    HW160786   7.836   2.184   1.807
19609SOL    HW260787   7.677   2.152   1.829
19610SOL     OW60788   8.914   3.279   0.953
19610SOL    HW160789   8.855   3.285   1.033
19610SOL    HW260790   8.899   3.191   0.907
19611SOL     OW60791   0.115   3.576   0.572
19611SOL    HW160792   0.074   3.553   0.484
19611SOL    HW260793   0.097   3.502   0.637
19612SOL     OW60794   8.046   2.591   0.270
19612SOL    HW160795   8.070   2.660   0.202
19612SOL    HW260796   7.968   2.624   0.324
19613SOL     OW60797   8.729   2.207   0.944
19613SOL    HW160798   8.643   2.157   0.931
19613SOL    HW260799   8.791   2.153   1.000
19614SOL     OW60800   0.024   3.524   0.307
19614SOL    HW160801   0.113   3.570   0.310
19614SOL    HW260802   0.003   3.500   0.212
19615SOL     OW60803   8.255   2.467   1.465
19615SOL    HW160804   8.208   2.464   1.554
19615SOL    HW260805   8.204   2.412   1.399
19616SOL     OW60806   8.842   2.331   1.674
19616SOL    HW160807   8.822   2.374   1.762
19616SOL    HW260808   8.920   2.269   1.683
19617SOL     OW60809   8.421   2.752   1.572
19617SOL    HW160810   8.467   2.668   1.543
19617SOL    HW260811   8.365   2.786   1.497
19618SOL     OW60812   8.439   2.272   1.242
19618SOL    HW160813   8.362   2.306   1.296
19618SOL    HW260814   8.405   2.221   1.163
19619SOL     OW60815   8.489   2.563   0.429
19619SOL    HW160816   8.515   2.559   0.525
19619SOL    HW260817   8.404   2.512   0.415
19620SOL     OW60818   7.524   2.673   0.789
19620SOL    HW160819   7.623   2.661   0.798
19620SOL    HW260820   7.500   2.768   0.810
19621SOL     OW60821   7.578   3.683   1.571
19621SOL    HW160822   7.568   3.668   1.670
19621SOL    HW260823   7.492   3.719   1.535
19622SOL     OW60824   8.313   2.210   0.195
19622SOL    HW160825   8.372   2.273   0.146
19622SOL    HW260826   8.332   2.116   0.166
19623SOL     OW60827   0.167   2.447   1.831
19623SOL    HW160828   0.141   2.536   1.795
19623SOL    HW260829   0.165   2.379   1.758
19624SOL     OW60830   8.810   3.006   0.545
19624SOL    HW160831   8.893   2.977   0.497
19624SOL    HW260832   8.761   3.073   0.489
19625SOL     OW60833   7.998   2.058   0.885
19625SOL    HW160834   7.993   2.053   0.985
19625SOL    HW260835   8.000   2.154   0.856
19626SOL     OW60836   8.456   3.318   0.477
19626SOL    HW160837   8.410   3.390   0.425
19626SOL    HW260838   8.452   3.338   0.575
19627SOL     OW60839   0.243   2.928   0.873
19627SOL    HW160840   0.181   2.913   0.797
19627SOL    HW260841   0.191   2.939   0.958
19628SOL     OW60842   8.675   3.412   1.506
19628SOL    HW160843   8.681   3.335   1.570
19628SOL    HW260844   8.623   3.386   1.426
19629SOL     OW60845   7.769   2.805   0.242
19629SOL    HW160846   7.851   2.844   0.200
19629SOL    HW260847   7.742   2.723   0.193
19630SOL     OW60848   8.906   2.597   0.728
19630SOL    HW160849   8.901   2.532   0.803
19630SOL    HW260850   8.986   2.656   0.741
19631SOL     OW60851   8.559   3.638   0.237
19631SOL    HW160852   8.499   3.576   0.287
19631SOL    HW260853   8.590   3.594   0.152
19632SOL     OW60854   7.650   2.147   1.498
19632SOL    HW160855   7.570   2.207   1.485
19632SOL    HW260856   7.640   2.098   1.584
19633SOL     OW60857   0.080   3.239   0.081
19633SOL    HW160858   0.048   3.333   0.071
19633SOL    HW260859   0.004   3.176   0.069
19634SOL     OW60860   7.912   3.605   0.323
19634SOL    HW160861   7.945   3.644   0.409
19634SOL    HW260862   7.988   3.598   0.258
19635SOL     OW60863   8.848   1.969   0.426
19635SOL    HW160864   8.824   1.932   0.336
19635SOL    HW260865   8.947   1.985   0.430
19636SOL     OW60866   8.388   3.560   0.904
19636SOL    HW160867   8.468   3.503   0.925
19636SOL    HW260868   8.339   3.520   0.827
19637SOL     OW60869   7.830   2.562   0.480
19637SOL    HW160870   7.875   2.472   0.477
19637SOL    HW260871   7.736   2.551   0.513
19638SOL     OW60872   8.995   2.084   1.729
19638SOL    HW160873   8.990   2.121   1.821
19638SOL    HW260874   8.923   2.015   1.717
19639SOL     OW60875   8.062   1.984   0.117
19639SOL    HW160876   8.160   1.962   0.124
19639SOL    HW260877   8.031   1.967   0.024
19640SOL     OW60878   8.229   2.126   1.749
19640SOL    HW160879   8.296   2.065   1.792
19640SOL    HW260880   8.156   2.145   1.814
19641SOL     OW60881   8.799   2.452   1.433
19641SOL    HW160882   8.827   2.409   1.518
19641SOL    HW260883   8.824   2.548   1.434
19642SOL     OW60884   8.370   2.365   0.899
19642SOL    HW160885   8.345   2.356   0.803
19642SOL    HW260886   8.418   2.283   0.930
19643SOL     OW60887   7.987   1.926   0.512
19643SOL    HW160888   7.906   1.927   0.570
19643SOL    HW260889   7.990   2.009   0.457
19644SOL     OW60890   8.882   3.050   0.041
19644SOL    HW160891   8.914   2.974   0.098
19644SOL    HW260892   8.790   3.077   0.071
19645SOL     OW60893   7.745   1.897   0.171
19645SOL    HW160894   7.794   1.981   0.150
19645SOL    HW260895   7.807   1.832   0.216
19646SOL     OW60896   8.383   2.098   0.480
19646SOL    HW160897   8.335   2.139   0.402
19646SOL    HW260898   8.482   2.096   0.461
19647SOL     OW60899   8.524   2.545   1.464
19647SOL    HW160900   8.444   2.484   1.467
19647SOL    HW260901   8.605   2.492   1.440
19648SOL     OW60902   8.675   3.432   0.793
19648SOL    HW160903   8.696   3.506   0.728
19648SOL    HW260904   8.743   3.432   0.866
19649SOL     OW60905   7.907   3.014   0.741
19649SOL    HW160906   7.836   2.987   0.806
19649SOL    HW260907   7.881   2.986   0.648
19650SOL     OW60908   8.719   3.659   0.591
19650SOL    HW160909   8.763   3.723   0.527
19650SOL    HW260910   8.669   3.711   0.661
19651SOL     OW60911   8.480   2.411   0.016
19651SOL    HW160912   8.439   2.493  -0.023
19651SOL    HW260913   8.544   2.437   0.089
19652SOL     OW60914   7.526   2.418   1.386
19652SOL    HW160915   7.618   2.417   1.345
19652SOL    HW260916   7.520   2.492   1.453
19653SOL     OW60917   8.009   2.084   1.147
19653SOL    HW160918   8.047   2.000   1.184
19653SOL    HW260919   7.921   2.103   1.191
19654SOL     OW60920   8.314   2.316   0.642
19654SOL    HW160921   8.282   2.388   0.580
19654SOL    HW260922   8.338   2.235   0.589
19655SOL     OW60923   8.465   1.901   0.753
19655SOL    HW160924   8.393   1.906   0.684
19655SOL    HW260925   8.441   1.832   0.822
19656SOL     OW60926   8.914   2.452   0.992
19656SOL    HW160927   8.884   2.357   0.999
19656SOL    HW260928   8.987   2.468   1.058
19657SOL     OW60929   7.936   3.247   0.174
19657SOL    HW160930   7.849   3.232   0.221
19657SOL    HW260931   7.919   3.273   0.079
19658SOL     OW60932   0.112   3.142   0.657
19658SOL    HW160933   0.211   3.150   0.671
19658SOL    HW260934   0.067   3.226   0.688
19659SOL     OW60935   8.838   2.437   0.078
19659SOL    HW160936   8.784   2.416   0.159
19659SOL    HW260937   8.929   2.396   0.087
19660SOL     OW60938   7.975   2.118   0.328
19660SOL    HW160939   8.002   2.059   0.253
19660SOL    HW260940   7.975   2.213   0.297
19661SOL     OW60941   8.512   3.209   1.340
19661SOL    HW160942   8.432   3.186   1.395
19661SOL    HW260943   8.595   3.183   1.389
19662SOL     OW60944   0.040   3.491   1.625
19662SOL    HW160945   0.067   3.525   1.535
19662SOL    HW260946   0.119   3.453   1.671
19663SOL     OW60947   0.086   2.961   1.079
19663SOL    HW160948   0.091   3.042   1.138
19663SOL    HW260949   0.000   2.963   1.028
19664SOL     OW60950   8.363   1.951   1.402
19664SOL    HW160951   8.388   1.931   1.307
19664SOL    HW260952   8.435   2.007   1.444
19665SOL     OW60953   8.428   2.978   1.719
19665SOL    HW160954   8.329   2.984   1.729
19665SOL    HW260955   8.451   2.898   1.663
19666SOL     OW60956   8.153   2.912   0.368
19666SOL    HW160957   8.139   2.919   0.467
19666SOL    HW260958   8.237   2.861   0.350
19667SOL     OW60959   7.858   2.675   1.251
19667SOL    HW160960   7.944   2.687   1.301
19667SOL    HW260961   7.816   2.588   1.278
19668SOL     OW60962   8.722   2.248   1.262
19668SOL    HW160963   8.743   2.322   1.326
19668SOL    HW260964   8.633   2.265   1.219
19669SOL     OW60965   7.815   2.962   0.501
19669SOL    HW160966   7.808   3.045   0.445
19669SOL    HW260967   7.819   2.882   0.441
19670SOL     OW60968   8.014   2.399   0.865
19670SOL    HW160969   8.026   2.465   0.791
19670SOL    HW260970   8.060   2.433   0.948
19671SOL     OW60971   8.700   3.210   0.388
19671SOL    HW160972   8.750   3.287   0.428
19671SOL    HW260973   8.605   3.212   0.420
19672SOL     OW60974   8.720   3.307   1.142
19672SOL    HW160975   8.767   3.320   1.229
19672SOL    HW260976   8.654   3.233   1.151
19673SOL     OW60977   0.030   2.501   0.472
19673SOL    HW160978  -0.001   2.562   0.545
19673SOL    HW260979   0.080   2.553   0.403
19674SOL     OW60980   7.850   2.613   1.598
19674SOL    HW160981   7.918   2.668   1.551
19674SOL    HW260982   7.890   2.525   1.625
19675SOL     OW60983   0.035   2.641   1.670
19675SOL    HW160984  -0.057   2.679   1.665
19675SOL    HW260985   0.095   2.688   1.605
19676SOL     OW60986   8.461   1.967   1.770
19676SOL    HW160987   8.467   2.052   1.718
19676SOL    HW260988   8.493   1.891   1.713
19677SOL     OW60989   7.952   1.912   1.740
19677SOL    HW160990   7.910   1.855   1.670
19677SOL    HW260991   7.886   1.981   1.772
19678SOL     OW60992   8.808   2.724   1.045
19678SOL    HW160993   8.733   2.724   0.979
19678SOL    HW260994   8.845   2.632   1.054
19679SOL     OW60995   8.657   2.387   0.275
19679SOL    HW160996   8.670   2.303   0.329
19679SOL    HW260997   8.628   2.461   0.335
19680SOL     OW60998   7.755   2.075   1.231
19680SOL    HW160999   7.732   2.112   1.321
19680SOL    HW261000   7.725   1.980   1.225
19681SOL     OW61001   8.180   2.496   1.064
19681SOL    HW161002   8.239   2.470   0.988
19681SOL    HW261003   8.152   2.592   1.053
19682SOL     OW61004   0.176   2.797   1.854
19682SOL    HW161005   0.130   2.790   1.765
19682SOL    HW261006   0.114   2.841   1.920
19683SOL     OW61007   7.755   1.925   0.618
19683SOL    HW161008   7.744   2.019   0.651
19683SOL    HW261009   7.750   1.862   0.695
19684SOL     OW61010   0.070   2.229   0.374
19684SOL    HW161011   0.072   2.153   0.438
19684SOL    HW261012   0.022   2.306   0.414
19685SOL     OW61013   8.428   3.435   1.700
19685SOL    HW161014   8.408   3.479   1.612
19685SOL    HW261015   8.467   3.344   1.684
19686SOL     OW61016   7.798   2.760   1.804
19686SOL    HW161017   7.874   2.804   1.852
19686SOL    HW261018   7.833   2.713   1.722
19687SOL     OW61019   8.988   2.136   0.125
19687SOL    HW161020   8.927   2.061   0.148
19687SOL    HW261021   9.010   2.188   0.208
19688SOL     OW61022   8.751   2.700   0.042
19688SOL    HW161023   8.785   2.607   0.057
19688SOL    HW261024   8.769   2.727  -0.053
19689SOL     OW61025   7.767   2.672   0.949
19689SOL    HW161026   7.860   2.708   0.954
19689SOL    HW261027   7.761   2.587   1.001
19690SOL     OW61028   7.787   2.371   1.006
19690SOL    HW161029   7.735   2.288   0.989
19690SOL    HW261030   7.864   2.376   0.942
19691SOL     OW61031   7.959   2.277   1.808
19691SOL    HW161032   7.941   2.322   1.896
19691SOL    HW261033   8.001   2.342   1.745
19692SOL     OW61034   8.586   2.242   1.678
19692SOL    HW161035   8.541   2.305   1.742
19692SOL    HW261036   8.679   2.273   1.661
19693SOL     OW61037   8.608   2.069   1.477
19693SOL    HW161038   8.608   2.133   1.554
19693SOL    HW261039   8.636   2.117   1.394
19694SOL     OW61040   7.456   3.188   0.200
19694SOL    HW161041   7.363   3.209   0.169
19694SOL    HW261042   7.466   3.089   0.213
19695SOL     OW61043   8.450   2.658   1.238
19695SOL    HW161044   8.491   2.626   1.324
19695SOL    HW261045   8.354   2.631   1.235
19696SOL     OW61046   7.488   2.406   1.114
19696SOL    HW161047   7.573   2.373   1.073
19696SOL    HW261048   7.501   2.421   1.212
19697SOL     OW61049   7.637   2.382   1.722
19697SOL    HW161050   7.696   2.342   1.652
19697SOL    HW261051   7.579   2.453   1.681
19698SOL     OW61052   8.817   2.812   1.660
19698SOL    HW161053   8.856   2.901   1.680
19698SOL    HW261054   8.827   2.792   1.563
19699SOL     OW61055   8.263   2.434   0.325
19699SOL    HW161056   8.270   2.345   0.279
19699SOL    HW261057   8.169   2.468   0.317
19700SOL     OW61058   0.105   2.466   1.206
19700SOL    HW161059   0.067   2.397   1.268
19700SOL    HW261060   0.187   2.430   1.162
19701SOL     OW61061   8.119   2.326   1.269
19701SOL    HW161062   8.085   2.237   1.239
19701SOL    HW261063   8.145   2.380   1.189
19702SOL     OW61064   7.921   2.362   0.191
19702SOL    HW161065   7.982   2.442   0.195
19702SOL    HW261066   7.826   2.393   0.198
19703SOL     OW61067   7.607   2.999   1.466
19703SOL    HW161068   7.629   2.938   1.542
19703SOL    HW261069   7.617   2.950   1.380
19704SOL     OW61070   8.795   2.921   1.234
19704SOL    HW161071   8.819   2.858   1.160
19704SOL    HW261072   8.705   2.961   1.216
19705SOL     OW61073   8.750   2.717   0.309
19705SOL    HW161074   8.664   2.686   0.351
19705SOL    HW261075   8.746   2.703   0.210
19706SOL     OW61076   8.700   3.593   1.128
19706SOL    HW161077   8.784   3.598   1.074
19706SOL    HW261078   8.677   3.497   1.146
19707SOL     OW61079   7.531   3.120   1.022
19707SOL    HW161080   7.526   3.119   1.122
19707SOL    HW261081   7.448   3.079   0.984
19708SOL     OW61082   8.136   3.524   1.716
19708SOL    HW161083   8.080   3.605   1.725
19708SOL    HW261084   8.188   3.528   1.630
19709SOL     OW61085   8.351   1.948   0.133
19709SOL    HW161086   8.402   1.949   0.047
19709SOL    HW261087   8.407   1.906   0.204
19710SOL     OW61088   0.174   1.997   0.523
19710SOL    HW161089   0.247   1.980   0.456
19710SOL    HW261090   0.143   1.910   0.561
19711SOL     OW61091   8.836   3.435   0.477
19711SOL    HW161092   8.903   3.447   0.403
19711SOL    HW261093   8.796   3.524   0.500
19712SOL     OW61094   7.578   3.656   1.851
19712SOL    HW161095   7.537   3.582   1.904
19712SOL    HW261096   7.642   3.707   1.909
19713SOL     OW61097   8.728   2.789   0.672
19713SOL    HW161098   8.788   2.708   0.674
19713SOL    HW261099   8.768   2.858   0.612
19714SOL     OW61100   8.278   3.135   1.422
19714SOL    HW161101   8.273   3.168   1.517
19714SOL    HW261102   8.192   3.154   1.376
19715SOL     OW61103   8.120   3.478   0.154
19715SOL    HW161104   8.129   3.488   0.055
19715SOL    HW261105   8.080   3.389   0.175
19716SOL     OW61106   0.098   3.582   1.394
19716SOL    HW161107   0.151   3.592   1.310
19716SOL    HW261108   0.071   3.672   1.428
19717SOL     OW61109   7.711   2.188   0.720
19717SOL    HW161110   7.632   2.239   0.686
19717SOL    HW261111   7.702   2.173   0.818
19718SOL     OW61112   8.642   3.474   0.031
19718SOL    HW161113   8.648   3.381   0.068
19718SOL    HW261114   8.583   3.474  -0.049
19719SOL     OW61115   8.364   2.772   0.291
19719SOL    HW161116   8.427   2.810   0.223
19719SOL    HW261117   8.404   2.689   0.330
19720SOL     OW61118   8.952   3.469   0.044
19720SOL    HW161119   8.860   3.506   0.051
19720SOL    HW261120   8.990   3.489  -0.046
19721SOL     OW61121   0.062   3.154   1.289
19721SOL    HW161122   0.122   3.157   1.369
19721SOL    HW261123  -0.013   3.218   1.302
19722SOL     OW61124   8.487   2.960   0.696
19722SOL    HW161125   8.417   2.913   0.750
19722SOL    HW261126   8.546   2.892   0.653
19723SOL     OW61127   8.462   2.098   0.971
19723SOL    HW161128   8.454   2.062   0.878
19723SOL    HW261129   8.460   2.022   1.036
19724SOL     OW61130   8.038   3.349   0.491
19724SOL    HW161131   8.080   3.291   0.421
19724SOL    HW261132   7.994   3.428   0.447
19725SOL     OW61133   0.157   2.247   1.381
19725SOL    HW161134   0.230   2.316   1.385
19725SOL    HW261135   0.185   2.172   1.322
19726SOL     OW61136   7.703   3.210   0.290
19726SOL    HW161137   7.607   3.211   0.263
19726SOL    HW261138   7.715   3.263   0.374
19727SOL     OW61139   7.553   2.875   1.726
19727SOL    HW161140   7.476   2.842   1.780
19727SOL    HW261141   7.638   2.845   1.768
19728SOL     OW61142   8.120   2.065   1.489
19728SOL    HW161143   8.210   2.049   1.449
19728SOL    HW261144   8.128   2.070   1.588
19729SOL     OW61145   8.888   2.718   1.398
19729SOL    HW161146   8.831   2.770   1.335
19729SOL    HW261147   8.984   2.730   1.374
19730SOL     OW61148   7.520   2.028   0.318
19730SOL    HW161149   7.503   2.111   0.264
19730SOL    HW261150   7.610   1.991   0.296
19731SOL     OW61151   8.631   3.197   0.119
19731SOL    HW161152   8.532   3.186   0.121
19731SOL    HW261153   8.665   3.212   0.212
19732SOL     OW61154   8.061   2.704   1.431
19732SOL    HW161155   8.117   2.785   1.414
19732SOL    HW261156   8.120   2.624   1.434
19733SOL     OW61157   8.941   3.629   0.959
19733SOL    HW161158   8.974   3.693   0.890
19733SOL    HW261159   9.007   3.623   1.034
19734SOL     OW61160   8.164   2.427   1.708
19734SOL    HW161161   8.183   2.492   1.782
19734SOL    HW261162   8.224   2.347   1.717
19735SOL     OW61163   8.898   3.082   1.633
19735SOL    HW161164   8.889   3.072   1.732
19735SOL    HW261165   8.994   3.075   1.607
19736SOL     OW61166   7.838   3.603   1.560
19736SOL    HW161167   7.747   3.644   1.558
19736SOL    HW261168   7.831   3.509   1.592
19737SOL     OW61169   0.122   2.745   1.254
19737SOL    HW161170   0.095   2.656   1.217
19737SOL    HW261171   0.123   2.813   1.181
19738SOL     OW61172   8.673   2.187   0.449
19738SOL    HW161173   8.738   2.113   0.438
19738SOL    HW261174   8.693   2.237   0.533
19739SOL     OW61175   8.042   2.607   0.652
19739SOL    HW161176   8.092   2.692   0.633
19739SOL    HW261177   7.954   2.609   0.604
19740SOL     OW61178   0.225   2.204   1.642
19740SOL    HW161179   0.208   2.235   1.548
19740SOL    HW261180   0.141   2.167   1.680
19741SOL     OW61181   0.178   2.796   1.517
19741SOL    HW161182   0.216   2.887   1.532
19741SOL    HW261183   0.170   2.779   1.418
19742SOL     OW61184   8.307   3.236   0.016
19742SOL    HW161185   8.261   3.251   0.104
19742SOL    HW261186   8.351   3.321  -0.014
19743SOL     OW61187   8.531   2.846   0.087
19743SOL    HW161188   8.508   2.899   0.005
19743SOL    HW261189   8.612   2.790   0.068
19744SOL     OW61190   7.669   3.176   1.844
19744SOL    HW161191   7.604   3.103   1.823
19744SOL    HW261192   7.673   3.190   1.942
19745SOL     OW61193   7.527   3.102   0.653
19745SOL    HW161194   7.526   3.055   0.741
19745SOL    HW261195   7.609   3.074   0.602
19746SOL     OW61196   8.120   3.253   1.624
19746SOL    HW161197   8.042   3.203   1.662
19746SOL    HW261198   8.117   3.348   1.655
19747SOL     OW61199   7.876   2.286   0.520
19747SOL    HW161200   7.906   2.214   0.458
19747SOL    HW261201   7.837   2.246   0.603
19748SOL     OW61202   0.153   3.349   1.104
19748SOL    HW161203   0.060   3.324   1.077
19748SOL    HW261204   0.179   3.299   1.186
19749SOL     OW61205   7.765   2.409   1.280
19749SOL    HW161206   7.803   2.350   1.352
19749SOL    HW261207   7.805   2.383   1.192
19750SOL     OW61208   8.260   3.448   0.687
19750SOL    HW161209   8.292   3.458   0.593
19750SOL    HW261210   8.181   3.386   0.689
19751SOL     OW61211   8.872   2.076   1.112
19751SOL    HW161212   8.924   2.011   1.167
19751SOL    HW261213   8.823   2.139   1.173
19752SOL     OW61214   8.449   1.896   1.154
19752SOL    HW161215   8.386   1.824   1.123
19752SOL    HW261216   8.542   1.860   1.154
19753SOL     OW61217   8.218   3.192   0.301
19753SOL    HW161218   8.172   3.105   0.318
19753SOL    HW261219   8.309   3.189   0.342
19754SOL     OW61220   8.748   2.315   0.691
19754SOL    HW161221   8.689   2.395   0.695
19754SOL    HW261222   8.763   2.280   0.784
19755SOL     OW61223   0.041   2.083   0.882
19755SOL    HW161224  -0.043   2.082   0.936
19755SOL    HW261225   0.043   2.166   0.826
19756SOL     OW61226   7.487   2.939   0.300
19756SOL    HW161227   7.586   2.928   0.291
19756SOL    HW261228   7.447   2.853   0.332
19757SOL     OW61229   8.323   3.508   0.337
19757SOL    HW161230   8.246   3.473   0.283
19757SOL    HW261231   8.291   3.579   0.399
19758SOL     OW61232   7.678   2.490   1.975
19758SOL    HW161233   7.585   2.488   2.012
19758SOL    HW261234   7.679   2.451   1.883
19759SOL     OW61235   7.673   2.137   2.858
19759SOL    HW161236   7.708   2.120   2.950
19759SOL    HW261237   7.585   2.092   2.846
19760SOL     OW61238   7.467   2.230   2.509
19760SOL    HW161239   7.385   2.273   2.548
19760SOL    HW261240   7.439   2.157   2.446
19761SOL     OW61241   8.017   3.137   3.027
19761SOL    HW161242   7.924   3.130   2.990
19761SOL    HW261243   8.028   3.226   3.071
19762SOL     OW61244   0.003   3.373   2.565
19762SOL    HW161245  -0.054   3.357   2.646
19762SOL    HW261246  -0.056   3.383   2.485
19763SOL     OW61247   0.191   2.480   2.718
19763SOL    HW161248   0.224   2.574   2.718
19763SOL    HW261249   0.242   2.426   2.784
19764SOL     OW61250   8.583   2.565   2.579
19764SOL    HW161251   8.640   2.643   2.554
19764SOL    HW261252   8.523   2.591   2.655
19765SOL     OW61253   0.203   2.469   2.093
19765SOL    HW161254   0.191   2.456   1.994
19765SOL    HW261255   0.173   2.388   2.142
19766SOL     OW61256   8.216   3.006   2.885
19766SOL    HW161257   8.138   3.023   2.945
19766SOL    HW261258   8.250   3.093   2.849
19767SOL     OW61259   8.298   2.660   3.685
19767SOL    HW161260   8.294   2.736   3.750
19767SOL    HW261261   8.320   2.696   3.594
19768SOL     OW61262   8.133   2.874   2.527
19768SOL    HW161263   8.202   2.858   2.597
19768SOL    HW261264   8.060   2.931   2.565
19769SOL     OW61265   8.134   3.023   3.665
19769SOL    HW161266   8.194   3.102   3.679
19769SOL    HW261267   8.048   3.054   3.624
19770SOL     OW61268   7.783   3.297   2.923
19770SOL    HW161269   7.705   3.266   2.870
19770SOL    HW261270   7.841   3.355   2.866
19771SOL     OW61271   8.908   3.367   3.201
19771SOL    HW161272   8.932   3.461   3.227
19771SOL    HW261273   8.892   3.313   3.283
19772SOL     OW61274   7.886   2.254   3.361
19772SOL    HW161275   7.968   2.198   3.370
19772SOL    HW261276   7.805   2.196   3.365
19773SOL     OW61277   7.679   3.575   2.345
19773SOL    HW161278   7.713   3.652   2.399
19773SOL    HW261279   7.723   3.575   2.255
19774SOL     OW61280   8.575   3.203   3.552
19774SOL    HW161281   8.622   3.203   3.640
19774SOL    HW261282   8.527   3.116   3.541
19775SOL     OW61283   7.678   3.296   2.400
19775SOL    HW161284   7.652   3.392   2.400
19775SOL    HW261285   7.607   3.242   2.445
19776SOL     OW61286   7.688   2.953   2.748
19776SOL    HW161287   7.702   2.869   2.800
19776SOL    HW261288   7.633   3.017   2.803
19777SOL     OW61289   8.068   3.648   3.301
19777SOL    HW161290   7.976   3.631   3.336
19777SOL    HW261291   8.096   3.740   3.327
19778SOL     OW61292   8.054   2.826   1.985
19778SOL    HW161293   8.061   2.910   1.931
19778SOL    HW261294   8.100   2.839   2.073
19779SOL     OW61295   0.042   1.976   3.342
19779SOL    HW161296   0.024   2.043   3.270
19779SOL    HW261297   0.039   2.022   3.431
19780SOL     OW61298   7.570   2.505   2.425
19780SOL    HW161299   7.525   2.417   2.442
19780SOL    HW261300   7.569   2.559   2.509
19781SOL     OW61301   7.475   3.458   1.979
19781SOL    HW161302   7.456   3.362   2.000
19781SOL    HW261303   7.442   3.516   2.054
19782SOL     OW61304   0.137   2.784   2.474
19782SOL    HW161305   0.232   2.755   2.482
19782SOL    HW261306   0.129   2.849   2.399
19783SOL     OW61307   0.089   2.970   2.294
19783SOL    HW161308   0.175   2.972   2.242
19783SOL    HW261309   0.103   3.017   2.382
19784SOL     OW61310   7.561   2.599   3.459
19784SOL    HW161311   7.649   2.586   3.504
19784SOL    HW261312   7.548   2.696   3.437
19785SOL     OW61313   8.061   3.227   2.588
19785SOL    HW161314   8.012   3.140   2.597
19785SOL    HW261315   8.038   3.270   2.501
19786SOL     OW61316   8.741   3.090   3.285
19786SOL    HW161317   8.778   3.017   3.227
19786SOL    HW261318   8.793   3.095   3.370
19787SOL     OW61319   8.257   1.866   2.364
19787SOL    HW161320   8.297   1.957   2.355
19787SOL    HW261321   8.157   1.874   2.370
19788SOL     OW61322   7.645   2.838   3.126
19788SOL    HW161323   7.734   2.793   3.112
19788SOL    HW261324   7.572   2.773   3.107
19789SOL     OW61325   8.973   2.861   2.052
19789SOL    HW161326   8.910   2.785   2.065
19789SOL    HW261327   9.021   2.879   2.138
19790SOL     OW61328   8.635   3.654   3.478
19790SOL    HW161329   8.659   3.714   3.402
19790SOL    HW261330   8.642   3.559   3.448
19791SOL     OW61331   7.765   2.113   3.663
19791SOL    HW161332   7.836   2.184   3.669
19791SOL    HW261333   7.677   2.152   3.691
19792SOL     OW61334   8.914   3.279   2.815
19792SOL    HW161335   8.855   3.285   2.895
19792SOL    HW261336   8.899   3.191   2.769
19793SOL     OW61337   0.115   3.576   2.434
19793SOL    HW161338   0.074   3.553   2.346
19793SOL    HW261339   0.097   3.502   2.499
19794SOL     OW61340   8.046   2.591   2.132
19794SOL    HW161341   8.070   2.660   2.064
19794SOL    HW261342   7.968   2.624   2.186
19795SOL     OW61343   8.729   2.207   2.806
19795SOL    HW161344   8.643   2.157   2.793
19795SOL    HW261345   8.791   2.153   2.862
19796SOL     OW61346   0.024   3.524   2.169
19796SOL    HW161347   0.113   3.570   2.172
19796SOL    HW261348   0.003   3.500   2.074
19797SOL     OW61349   8.255   2.467   3.327
19797SOL    HW161350   8.208   2.464   3.416
19797SOL    HW261351   8.204   2.412   3.261
19798SOL     OW61352   8.842   2.331   3.536
19798SOL    HW161353   8.822   2.374   3.624
19798SOL    HW261354   8.920   2.269   3.545
19799SOL     OW61355   8.421   2.752   3.434
19799SOL    HW161356   8.467   2.668   3.405
19799SOL    HW261357   8.365   2.786   3.359
19800SOL     OW61358   8.439   2.272   3.104
19800SOL    HW161359   8.362   2.306   3.158
19800SOL    HW261360   8.405   2.221   3.025
19801SOL     OW61361   8.489   2.563   2.291
19801SOL    HW161362   8.515   2.559   2.387
19801SOL    HW261363   8.404   2.512   2.277
19802SOL     OW61364   7.524   2.673   2.651
19802SOL    HW161365   7.623   2.661   2.660
19802SOL    HW261366   7.500   2.768   2.672
19803SOL     OW61367   7.578   3.683   3.433
19803SOL    HW161368   7.568   3.668   3.532
19803SOL    HW261369   7.492   3.719   3.397
19804SOL     OW61370   8.313   2.210   2.057
19804SOL    HW161371   8.372   2.273   2.008
19804SOL    HW261372   8.332   2.116   2.028
19805SOL     OW61373   0.167   2.447   3.693
19805SOL    HW161374   0.141   2.536   3.657
19805SOL    HW261375   0.165   2.379   3.620
19806SOL     OW61376   8.810   3.006   2.407
19806SOL    HW161377   8.893   2.977   2.359
19806SOL    HW261378   8.761   3.073   2.351
19807SOL     OW61379   7.998   2.058   2.747
19807SOL    HW161380   7.993   2.053   2.847
19807SOL    HW261381   8.000   2.154   2.718
19808SOL     OW61382   8.456   3.318   2.339
19808SOL    HW161383   8.410   3.390   2.287
19808SOL    HW261384   8.452   3.338   2.437
19809SOL     OW61385   7.799   3.663   2.715
19809SOL    HW161386   7.849   3.577   2.721
19809SOL    HW261387   7.864   3.740   2.712
19810SOL     OW61388   0.243   2.928   2.735
19810SOL    HW161389   0.181   2.913   2.659
19810SOL    HW261390   0.191   2.939   2.820
19811SOL     OW61391   8.675   3.412   3.368
19811SOL    HW161392   8.681   3.335   3.432
19811SOL    HW261393   8.623   3.386   3.288
19812SOL     OW61394   7.769   2.805   2.104
19812SOL    HW161395   7.851   2.844   2.062
19812SOL    HW261396   7.742   2.723   2.055
19813SOL     OW61397   8.906   2.597   2.590
19813SOL    HW161398   8.901   2.532   2.665
19813SOL    HW261399   8.986   2.656   2.603
19814SOL     OW61400   7.909   3.128   3.589
19814SOL    HW161401   7.859   3.129   3.503
19814SOL    HW261402   7.846   3.110   3.665
19815SOL     OW61403   8.559   3.638   2.099
19815SOL    HW161404   8.499   3.576   2.149
19815SOL    HW261405   8.590   3.594   2.014
19816SOL     OW61406   7.650   2.147   3.360
19816SOL    HW161407   7.570   2.207   3.347
19816SOL    HW261408   7.640   2.098   3.446
19817SOL     OW61409   0.080   3.239   1.943
19817SOL    HW161410   0.048   3.333   1.933
19817SOL    HW261411   0.004   3.176   1.931
19818SOL     OW61412   7.912   3.605   2.185
19818SOL    HW161413   7.945   3.644   2.271
19818SOL    HW261414   7.988   3.598   2.120
19819SOL     OW61415   8.848   1.969   2.288
19819SOL    HW161416   8.824   1.932   2.198
19819SOL    HW261417   8.947   1.985   2.292
19820SOL     OW61418   7.697   3.647   3.103
19820SOL    HW161419   7.754   3.582   3.153
19820SOL    HW261420   7.681   3.614   3.010
19821SOL     OW61421   8.388   3.560   2.766
19821SOL    HW161422   8.468   3.503   2.787
19821SOL    HW261423   8.339   3.520   2.689
19822SOL     OW61424   7.830   2.562   2.342
19822SOL    HW161425   7.875   2.472   2.339
19822SOL    HW261426   7.736   2.551   2.375
19823SOL     OW61427   8.995   2.084   3.591
19823SOL    HW161428   8.990   2.121   3.683
19823SOL    HW261429   8.923   2.015   3.579
19824SOL     OW61430   8.062   1.984   1.979
19824SOL    HW161431   8.160   1.962   1.986
19824SOL    HW261432   8.031   1.967   1.886
19825SOL     OW61433   8.229   2.126   3.611
19825SOL    HW161434   8.296   2.065   3.654
19825SOL    HW261435   8.156   2.145   3.676
19826SOL     OW61436   8.336   3.376   3.057
19826SOL    HW161437   8.313   3.351   2.963
19826SOL    HW261438   8.397   3.307   3.096
19827SOL     OW61439   8.799   2.452   3.295
19827SOL    HW161440   8.827   2.409   3.380
19827SOL    HW261441   8.824   2.548   3.296
19828SOL     OW61442   8.251   3.264   2.786
19828SOL    HW161443   8.341   3.278   2.744
19828SOL    HW261444   8.180   3.266   2.715
19829SOL     OW61445   8.370   2.365   2.761
19829SOL    HW161446   8.345   2.356   2.665
19829SOL    HW261447   8.418   2.283   2.792
19830SOL     OW61448   7.987   1.926   2.374
19830SOL    HW161449   7.906   1.927   2.432
19830SOL    HW261450   7.990   2.009   2.319
19831SOL     OW61451   8.882   3.050   1.903
19831SOL    HW161452   8.914   2.974   1.960
19831SOL    HW261453   8.790   3.077   1.933
19832SOL     OW61454   7.745   1.897   2.033
19832SOL    HW161455   7.794   1.981   2.012
19832SOL    HW261456   7.807   1.832   2.078
19833SOL     OW61457   8.383   2.098   2.342
19833SOL    HW161458   8.335   2.139   2.264
19833SOL    HW261459   8.482   2.096   2.323
19834SOL     OW61460   8.524   2.545   3.326
19834SOL    HW161461   8.444   2.484   3.329
19834SOL    HW261462   8.605   2.492   3.302
19835SOL     OW61463   8.675   3.432   2.655
19835SOL    HW161464   8.696   3.506   2.590
19835SOL    HW261465   8.743   3.432   2.728
19836SOL     OW61466   7.907   3.014   2.603
19836SOL    HW161467   7.836   2.987   2.668
19836SOL    HW261468   7.881   2.986   2.510
19837SOL     OW61469   8.719   3.659   2.453
19837SOL    HW161470   8.763   3.723   2.389
19837SOL    HW261471   8.669   3.711   2.523
19838SOL     OW61472   8.480   2.411   1.878
19838SOL    HW161473   8.439   2.493   1.839
19838SOL    HW261474   8.544   2.437   1.951
19839SOL     OW61475   7.526   2.418   3.248
19839SOL    HW161476   7.618   2.417   3.207
19839SOL    HW261477   7.520   2.492   3.315
19840SOL     OW61478   8.009   2.084   3.009
19840SOL    HW161479   8.047   2.000   3.046
19840SOL    HW261480   7.921   2.103   3.053
19841SOL     OW61481   8.314   2.316   2.504
19841SOL    HW161482   8.282   2.388   2.442
19841SOL    HW261483   8.338   2.235   2.451
19842SOL     OW61484   8.465   1.901   2.615
19842SOL    HW161485   8.393   1.906   2.546
19842SOL    HW261486   8.441   1.832   2.684
19843SOL     OW61487   8.877   3.035   2.729
19843SOL    HW161488   8.822   2.951   2.722
19843SOL    HW261489   8.903   3.064   2.637
19844SOL     OW61490   8.914   2.452   2.854
19844SOL    HW161491   8.884   2.357   2.861
19844SOL    HW261492   8.987   2.468   2.920
19845SOL     OW61493   7.936   3.247   2.036
19845SOL    HW161494   7.849   3.232   2.083
19845SOL    HW261495   7.919   3.273   1.941
19846SOL     OW61496   0.112   3.142   2.519
19846SOL    HW161497   0.211   3.150   2.533
19846SOL    HW261498   0.067   3.226   2.550
19847SOL     OW61499   8.838   2.437   1.940
19847SOL    HW161500   8.784   2.416   2.021
19847SOL    HW261501   8.929   2.396   1.949
19848SOL     OW61502   7.975   2.118   2.190
19848SOL    HW161503   8.002   2.059   2.115
19848SOL    HW261504   7.975   2.213   2.159
19849SOL     OW61505   8.512   3.209   3.202
19849SOL    HW161506   8.432   3.186   3.257
19849SOL    HW261507   8.595   3.183   3.251
19850SOL     OW61508   0.040   3.491   3.487
19850SOL    HW161509   0.067   3.525   3.397
19850SOL    HW261510   0.119   3.453   3.533
19851SOL     OW61511   8.559   3.057   2.962
19851SOL    HW161512   8.519   3.101   3.043
19851SOL    HW261513   8.518   3.094   2.879
19852SOL     OW61514   0.086   2.961   2.941
19852SOL    HW161515   0.091   3.042   3.000
19852SOL    HW261516   0.000   2.963   2.890
19853SOL     OW61517   8.363   1.951   3.264
19853SOL    HW161518   8.388   1.931   3.169
19853SOL    HW261519   8.435   2.007   3.306
19854SOL     OW61520   8.428   2.978   3.581
19854SOL    HW161521   8.329   2.984   3.591
19854SOL    HW261522   8.451   2.898   3.525
19855SOL     OW61523   8.153   2.912   2.230
19855SOL    HW161524   8.139   2.919   2.329
19855SOL    HW261525   8.237   2.861   2.212
19856SOL     OW61526   7.858   2.675   3.113
19856SOL    HW161527   7.944   2.687   3.163
19856SOL    HW261528   7.816   2.588   3.140
19857SOL     OW61529   8.722   2.248   3.124
19857SOL    HW161530   8.743   2.322   3.188
19857SOL    HW261531   8.633   2.265   3.081
19858SOL     OW61532   7.512   3.426   3.193
19858SOL    HW161533   7.466   3.508   3.159
19858SOL    HW261534   7.610   3.445   3.202
19859SOL     OW61535   7.815   2.962   2.363
19859SOL    HW161536   7.808   3.045   2.307
19859SOL    HW261537   7.819   2.882   2.303
19860SOL     OW61538   8.014   2.399   2.727
19860SOL    HW161539   8.026   2.465   2.653
19860SOL    HW261540   8.060   2.433   2.810
19861SOL     OW61541   8.700   3.210   2.250
19861SOL    HW161542   8.750   3.287   2.290
19861SOL    HW261543   8.605   3.212   2.282
19862SOL     OW61544   8.720   3.307   3.004
19862SOL    HW161545   8.767   3.320   3.091
19862SOL    HW261546   8.654   3.233   3.013
19863SOL     OW61547   0.030   2.501   2.334
19863SOL    HW161548  -0.001   2.562   2.407
19863SOL    HW261549   0.080   2.553   2.265
19864SOL     OW61550   7.802   3.372   3.191
19864SOL    HW161551   7.781   3.328   3.104
19864SOL    HW261552   7.899   3.398   3.194
19865SOL     OW61553   7.850   2.613   3.460
19865SOL    HW161554   7.918   2.668   3.413
19865SOL    HW261555   7.890   2.525   3.487
19866SOL     OW61556   0.035   2.641   3.532
19866SOL    HW161557  -0.057   2.679   3.527
19866SOL    HW261558   0.095   2.688   3.467
19867SOL     OW61559   8.461   1.967   3.632
19867SOL    HW161560   8.467   2.052   3.580
19867SOL    HW261561   8.493   1.891   3.575
19868SOL     OW61562   7.952   1.912   3.602
19868SOL    HW161563   7.910   1.855   3.532
19868SOL    HW261564   7.886   1.981   3.634
19869SOL     OW61565   8.021   2.732   2.891
19869SOL    HW161566   8.065   2.821   2.882
19869SOL    HW261567   7.958   2.732   2.968
19870SOL     OW61568   8.808   2.724   2.907
19870SOL    HW161569   8.733   2.724   2.841
19870SOL    HW261570   8.845   2.632   2.916
19871SOL     OW61571   8.657   2.387   2.137
19871SOL    HW161572   8.670   2.303   2.191
19871SOL    HW261573   8.628   2.461   2.197
19872SOL     OW61574   7.755   2.075   3.093
19872SOL    HW161575   7.732   2.112   3.183
19872SOL    HW261576   7.725   1.980   3.087
19873SOL     OW61577   7.485   3.172   3.144
19873SOL    HW161578   7.538   3.123   3.212
19873SOL    HW261579   7.507   3.270   3.149
19874SOL     OW61580   8.180   2.496   2.926
19874SOL    HW161581   8.239   2.470   2.850
19874SOL    HW261582   8.152   2.592   2.915
19875SOL     OW61583   0.176   2.797   3.716
19875SOL    HW161584   0.130   2.790   3.627
19875SOL    HW261585   0.114   2.841   3.782
19876SOL     OW61586   7.755   1.925   2.480
19876SOL    HW161587   7.744   2.019   2.513
19876SOL    HW261588   7.750   1.862   2.557
19877SOL     OW61589   0.070   2.229   2.236
19877SOL    HW161590   0.072   2.153   2.300
19877SOL    HW261591   0.022   2.306   2.276
19878SOL     OW61592   8.471   2.628   2.828
19878SOL    HW161593   8.486   2.649   2.924
19878SOL    HW261594   8.441   2.533   2.819
19879SOL     OW61595   8.428   3.435   3.562
19879SOL    HW161596   8.408   3.479   3.474
19879SOL    HW261597   8.467   3.344   3.546
19880SOL     OW61598   7.798   2.760   3.666
19880SOL    HW161599   7.874   2.804   3.714
19880SOL    HW261600   7.833   2.713   3.584
19881SOL     OW61601   8.988   2.136   1.987
19881SOL    HW161602   8.927   2.061   2.010
19881SOL    HW261603   9.010   2.188   2.070
19882SOL     OW61604   8.751   2.700   1.904
19882SOL    HW161605   8.785   2.607   1.919
19882SOL    HW261606   8.769   2.727   1.809
19883SOL     OW61607   8.516   3.195   2.711
19883SOL    HW161608   8.523   3.111   2.656
19883SOL    HW261609   8.578   3.264   2.675
19884SOL     OW61610   7.767   2.672   2.811
19884SOL    HW161611   7.860   2.708   2.816
19884SOL    HW261612   7.761   2.587   2.863
19885SOL     OW61613   7.787   2.371   2.868
19885SOL    HW161614   7.735   2.288   2.851
19885SOL    HW261615   7.864   2.376   2.804
19886SOL     OW61616   7.959   2.277   3.670
19886SOL    HW161617   7.941   2.322   3.758
19886SOL    HW261618   8.001   2.342   3.607
19887SOL     OW61619   8.586   2.242   3.540
19887SOL    HW161620   8.541   2.305   3.604
19887SOL    HW261621   8.679   2.273   3.523
19888SOL     OW61622   8.608   2.069   3.339
19888SOL    HW161623   8.608   2.133   3.416
19888SOL    HW261624   8.636   2.117   3.256
19889SOL     OW61625   7.456   3.188   2.062
19889SOL    HW161626   7.363   3.209   2.031
19889SOL    HW261627   7.466   3.089   2.075
19890SOL     OW61628   7.536   3.663   2.789
19890SOL    HW161629   7.494   3.577   2.762
19890SOL    HW261630   7.630   3.666   2.755
19891SOL     OW61631   7.952   3.430   2.772
19891SOL    HW161632   8.018   3.504   2.781
19891SOL    HW261633   7.996   3.351   2.730
19892SOL     OW61634   8.450   2.658   3.100
19892SOL    HW161635   8.491   2.626   3.186
19892SOL    HW261636   8.354   2.631   3.097
19893SOL     OW61637   7.488   2.406   2.976
19893SOL    HW161638   7.573   2.373   2.935
19893SOL    HW261639   7.501   2.421   3.074
19894SOL     OW61640   7.637   2.382   3.584
19894SOL    HW161641   7.696   2.342   3.514
19894SOL    HW261642   7.579   2.453   3.543
19895SOL     OW61643   8.817   2.812   3.522
19895SOL    HW161644   8.856   2.901   3.542
19895SOL    HW261645   8.827   2.792   3.425
19896SOL     OW61646   8.263   2.434   2.187
19896SOL    HW161647   8.270   2.345   2.141
19896SOL    HW261648   8.169   2.468   2.179
19897SOL     OW61649   0.105   2.466   3.068
19897SOL    HW161650   0.067   2.397   3.130
19897SOL    HW261651   0.187   2.430   3.024
19898SOL     OW61652   7.700   3.426   3.606
19898SOL    HW161653   7.670   3.483   3.682
19898SOL    HW261654   7.693   3.329   3.632
19899SOL     OW61655   8.119   2.326   3.131
19899SOL    HW161656   8.085   2.237   3.101
19899SOL    HW261657   8.145   2.380   3.051
19900SOL     OW61658   8.378   3.540   3.327
19900SOL    HW161659   8.354   3.522   3.232
19900SOL    HW261660   8.408   3.634   3.337
19901SOL     OW61661   7.921   2.362   2.053
19901SOL    HW161662   7.982   2.442   2.057
19901SOL    HW261663   7.826   2.393   2.060
19902SOL     OW61664   7.607   2.999   3.328
19902SOL    HW161665   7.629   2.938   3.404
19902SOL    HW261666   7.617   2.950   3.242
19903SOL     OW61667   8.795   2.921   3.096
19903SOL    HW161668   8.819   2.858   3.022
19903SOL    HW261669   8.705   2.961   3.078
19904SOL     OW61670   8.750   2.717   2.171
19904SOL    HW161671   8.664   2.686   2.213
19904SOL    HW261672   8.746   2.703   2.072
19905SOL     OW61673   8.700   3.593   2.990
19905SOL    HW161674   8.784   3.598   2.936
19905SOL    HW261675   8.677   3.497   3.008
19906SOL     OW61676   7.531   3.120   2.884
19906SOL    HW161677   7.526   3.119   2.984
19906SOL    HW261678   7.448   3.079   2.846
19907SOL     OW61679   8.136   3.524   3.578
19907SOL    HW161680   8.080   3.605   3.587
19907SOL    HW261681   8.188   3.528   3.492
19908SOL     OW61682   8.351   1.948   1.995
19908SOL    HW161683   8.402   1.949   1.909
19908SOL    HW261684   8.407   1.906   2.066
19909SOL     OW61685   0.174   1.997   2.385
19909SOL    HW161686   0.247   1.980   2.318
19909SOL    HW261687   0.143   1.910   2.423
19910SOL     OW61688   8.836   3.435   2.339
19910SOL    HW161689   8.903   3.447   2.265
19910SOL    HW261690   8.796   3.524   2.362
19911SOL     OW61691   7.578   3.656   3.713
19911SOL    HW161692   7.537   3.582   3.766
19911SOL    HW261693   7.642   3.707   3.771
19912SOL     OW61694   8.728   2.789   2.534
19912SOL    HW161695   8.788   2.708   2.536
19912SOL    HW261696   8.768   2.858   2.474
19913SOL     OW61697   8.278   3.135   3.284
19913SOL    HW161698   8.273   3.168   3.379
19913SOL    HW261699   8.192   3.154   3.238
19914SOL     OW61700   8.120   3.478   2.016
19914SOL    HW161701   8.129   3.488   1.917
19914SOL    HW261702   8.080   3.389   2.037
19915SOL     OW61703   0.098   3.582   3.256
19915SOL    HW161704   0.151   3.592   3.172
19915SOL    HW261705   0.071   3.672   3.290
19916SOL     OW61706   7.711   2.188   2.582
19916SOL    HW161707   7.632   2.239   2.548
19916SOL    HW261708   7.702   2.173   2.680
19917SOL     OW61709   8.642   3.474   1.893
19917SOL    HW161710   8.648   3.381   1.930
19917SOL    HW261711   8.583   3.474   1.813
19918SOL     OW61712   8.270   2.864   3.234
19918SOL    HW161713   8.310   2.863   3.142
19918SOL    HW261714   8.280   2.956   3.274
19919SOL     OW61715   8.364   2.772   2.153
19919SOL    HW161716   8.427   2.810   2.085
19919SOL    HW261717   8.404   2.689   2.192
19920SOL     OW61718   8.952   3.469   1.906
19920SOL    HW161719   8.860   3.506   1.913
19920SOL    HW261720   8.990   3.489   1.816
19921SOL     OW61721   7.820   3.150   3.352
19921SOL    HW161722   7.807   3.243   3.318
19921SOL    HW261723   7.736   3.098   3.339
19922SOL     OW61724   0.062   3.154   3.151
19922SOL    HW161725   0.122   3.157   3.231
19922SOL    HW261726  -0.013   3.218   3.164
19923SOL     OW61727   8.487   2.960   2.558
19923SOL    HW161728   8.417   2.913   2.612
19923SOL    HW261729   8.546   2.892   2.515
19924SOL     OW61730   8.462   2.098   2.833
19924SOL    HW161731   8.454   2.062   2.740
19924SOL    HW261732   8.460   2.022   2.898
19925SOL     OW61733   8.038   3.349   2.353
19925SOL    HW161734   8.080   3.291   2.283
19925SOL    HW261735   7.994   3.428   2.309
19926SOL     OW61736   0.157   2.247   3.243
19926SOL    HW161737   0.230   2.316   3.247
19926SOL    HW261738   0.185   2.172   3.184
19927SOL     OW61739   7.703   3.210   2.152
19927SOL    HW161740   7.607   3.211   2.125
19927SOL    HW261741   7.715   3.263   2.236
19928SOL     OW61742   7.553   2.875   3.588
19928SOL    HW161743   7.476   2.842   3.642
19928SOL    HW261744   7.638   2.845   3.630
19929SOL     OW61745   8.120   2.065   3.351
19929SOL    HW161746   8.210   2.049   3.311
19929SOL    HW261747   8.128   2.070   3.450
19930SOL     OW61748   7.523   2.207   1.895
19930SOL    HW161749   7.431   2.179   1.866
19930SOL    HW261750   7.554   2.284   1.839
19931SOL     OW61751   8.888   2.718   3.260
19931SOL    HW161752   8.831   2.770   3.197
19931SOL    HW261753   8.984   2.730   3.236
19932SOL     OW61754   7.520   2.028   2.180
19932SOL    HW161755   7.503   2.111   2.126
19932SOL    HW261756   7.610   1.991   2.158
19933SOL     OW61757   8.631   3.197   1.981
19933SOL    HW161758   8.532   3.186   1.983
19933SOL    HW261759   8.665   3.212   2.074
19934SOL     OW61760   8.061   2.704   3.293
19934SOL    HW161761   8.117   2.785   3.276
19934SOL    HW261762   8.120   2.624   3.296
19935SOL     OW61763   8.941   3.629   2.821
19935SOL    HW161764   8.974   3.693   2.752
19935SOL    HW261765   9.007   3.623   2.896
19936SOL     OW61766   8.164   2.427   3.570
19936SOL    HW161767   8.183   2.492   3.644
19936SOL    HW261768   8.224   2.347   3.579
19937SOL     OW61769   8.898   3.082   3.495
19937SOL    HW161770   8.889   3.072   3.594
19937SOL    HW261771   8.994   3.075   3.469
19938SOL     OW61772   7.838   3.603   3.422
19938SOL    HW161773   7.747   3.644   3.420
19938SOL    HW261774   7.831   3.509   3.454
19939SOL     OW61775   0.122   2.745   3.116
19939SOL    HW161776   0.095   2.656   3.079
19939SOL    HW261777   0.123   2.813   3.043
19940SOL     OW61778   8.673   2.187   2.311
19940SOL    HW161779   8.738   2.113   2.300
19940SOL    HW261780   8.693   2.237   2.395
19941SOL     OW61781   8.042   2.607   2.514
19941SOL    HW161782   8.092   2.692   2.495
19941SOL    HW261783   7.954   2.609   2.466
19942SOL     OW61784   0.225   2.204   3.504
19942SOL    HW161785   0.208   2.235   3.410
19942SOL    HW261786   0.141   2.167   3.542
19943SOL     OW61787   0.178   2.796   3.379
19943SOL    HW161788   0.216   2.887   3.394
19943SOL    HW261789   0.170   2.779   3.280
19944SOL     OW61790   8.307   3.236   1.878
19944SOL    HW161791   8.261   3.251   1.966
19944SOL    HW261792   8.351   3.321   1.848
19945SOL     OW61793   8.109   3.652   2.815
19945SOL    HW161794   8.063   3.740   2.802
19945SOL    HW261795   8.208   3.664   2.808
19946SOL     OW61796   8.307   2.818   2.723
19946SOL    HW161797   8.361   2.749   2.771
19946SOL    HW261798   8.275   2.887   2.789
19947SOL     OW61799   8.531   2.846   1.949
19947SOL    HW161800   8.508   2.899   1.867
19947SOL    HW261801   8.612   2.790   1.930
19948SOL     OW61802   7.669   3.176   3.706
19948SOL    HW161803   7.604   3.103   3.685
19948SOL    HW261804   7.673   3.190   3.804
19949SOL     OW61805   7.527   3.102   2.515
19949SOL    HW161806   7.526   3.055   2.603
19949SOL    HW261807   7.609   3.074   2.464
19950SOL     OW61808   8.120   3.253   3.486
19950SOL    HW161809   8.042   3.203   3.524
19950SOL    HW261810   8.117   3.348   3.517
19951SOL     OW61811   7.876   2.286   2.382
19951SOL    HW161812   7.906   2.214   2.320
19951SOL    HW261813   7.837   2.246   2.465
19952SOL     OW61814   0.153   3.349   2.966
19952SOL    HW161815   0.060   3.324   2.939
19952SOL    HW261816   0.179   3.299   3.048
19953SOL     OW61817   7.765   2.409   3.142
19953SOL    HW161818   7.803   2.350   3.214
19953SOL    HW261819   7.805   2.383   3.054
19954SOL     OW61820   8.260   3.448   2.549
19954SOL    HW161821   8.292   3.458   2.455
19954SOL    HW261822   8.181   3.386   2.551
19955SOL     OW61823   8.872   2.076   2.974
19955SOL    HW161824   8.924   2.011   3.029
19955SOL    HW261825   8.823   2.139   3.035
19956SOL     OW61826   8.449   1.896   3.016
19956SOL    HW161827   8.386   1.824   2.985
19956SOL    HW261828   8.542   1.860   3.016
19957SOL     OW61829   8.218   3.192   2.163
19957SOL    HW161830   8.172   3.105   2.180
19957SOL    HW261831   8.309   3.189   2.204
19958SOL     OW61832   8.066   3.429   3.146
19958SOL    HW161833   8.061   3.511   3.203
19958SOL    HW261834   8.155   3.426   3.101
19959SOL     OW61835   8.800   1.914   2.030
19959SOL    HW161836   8.835   1.873   1.946
19959SOL    HW261837   8.710   1.876   2.050
19960SOL     OW61838   8.748   2.315   2.553
19960SOL    HW161839   8.689   2.395   2.557
19960SOL    HW261840   8.763   2.280   2.646
19961SOL     OW61841   0.041   2.083   2.744
19961SOL    HW161842  -0.043   2.082   2.798
19961SOL    HW261843   0.043   2.166   2.688
19962SOL     OW61844   7.487   2.939   2.162
19962SOL    HW161845   7.586   2.928   2.153
19962SOL    HW261846   7.447   2.853   2.194
19963SOL     OW61847   8.323   3.508   2.199
19963SOL    HW161848   8.246   3.473   2.145
19963SOL    HW261849   8.291   3.579   2.261
19964SOL     OW61850   7.678   2.490   3.837
19964SOL    HW161851   7.585   2.488   3.874
19964SOL    HW261852   7.679   2.451   3.745
19965SOL     OW61853   7.673   2.137   4.720
19965SOL    HW161854   7.708   2.120   4.812
19965SOL    HW261855   7.585   2.092   4.708
19966SOL     OW61856   7.467   2.230   4.371
19966SOL    HW161857   7.385   2.273   4.410
19966SOL    HW261858   7.439   2.157   4.308
19967SOL     OW61859   8.017   3.137   4.889
19967SOL    HW161860   7.924   3.130   4.852
19967SOL    HW261861   8.028   3.226   4.933
19968SOL     OW61862   0.003   3.373   4.427
19968SOL    HW161863  -0.054   3.357   4.508
19968SOL    HW261864  -0.056   3.383   4.347
19969SOL     OW61865   0.191   2.480   4.580
19969SOL    HW161866   0.224   2.574   4.580
19969SOL    HW261867   0.242   2.426   4.646
19970SOL     OW61868   8.583   2.565   4.441
19970SOL    HW161869   8.640   2.643   4.416
19970SOL    HW261870   8.523   2.591   4.517
19971SOL     OW61871   0.203   2.469   3.955
19971SOL    HW161872   0.191   2.456   3.856
19971SOL    HW261873   0.173   2.388   4.004
19972SOL     OW61874   8.216   3.006   4.747
19972SOL    HW161875   8.138   3.023   4.807
19972SOL    HW261876   8.250   3.093   4.711
19973SOL     OW61877   8.298   2.660   5.547
19973SOL    HW161878   8.294   2.736   5.612
19973SOL    HW261879   8.320   2.696   5.456
19974SOL     OW61880   8.133   2.874   4.389
19974SOL    HW161881   8.202   2.858   4.459
19974SOL    HW261882   8.060   2.931   4.427
19975SOL     OW61883   8.134   3.023   5.527
19975SOL    HW161884   8.194   3.102   5.541
19975SOL    HW261885   8.048   3.054   5.486
19976SOL     OW61886   7.783   3.297   4.785
19976SOL    HW161887   7.705   3.266   4.732
19976SOL    HW261888   7.841   3.355   4.728
19977SOL     OW61889   8.908   3.367   5.063
19977SOL    HW161890   8.932   3.461   5.089
19977SOL    HW261891   8.892   3.313   5.145
19978SOL     OW61892   7.886   2.254   5.223
19978SOL    HW161893   7.968   2.198   5.232
19978SOL    HW261894   7.805   2.196   5.227
19979SOL     OW61895   7.679   3.575   4.207
19979SOL    HW161896   7.713   3.652   4.261
19979SOL    HW261897   7.723   3.575   4.117
19980SOL     OW61898   8.575   3.203   5.414
19980SOL    HW161899   8.622   3.203   5.502
19980SOL    HW261900   8.527   3.116   5.403
19981SOL     OW61901   7.678   3.296   4.262
19981SOL    HW161902   7.652   3.392   4.262
19981SOL    HW261903   7.607   3.242   4.307
19982SOL     OW61904   7.688   2.953   4.610
19982SOL    HW161905   7.702   2.869   4.662
19982SOL    HW261906   7.633   3.017   4.665
19983SOL     OW61907   8.068   3.648   5.163
19983SOL    HW161908   7.976   3.631   5.198
19983SOL    HW261909   8.096   3.740   5.189
19984SOL     OW61910   8.054   2.826   3.847
19984SOL    HW161911   8.061   2.910   3.793
19984SOL    HW261912   8.100   2.839   3.935
19985SOL     OW61913   0.042   1.976   5.204
19985SOL    HW161914   0.024   2.043   5.132
19985SOL    HW261915   0.039   2.022   5.293
19986SOL     OW61916   7.570   2.505   4.287
19986SOL    HW161917   7.525   2.417   4.304
19986SOL    HW261918   7.569   2.559   4.371
19987SOL     OW61919   7.475   3.458   3.841
19987SOL    HW161920   7.456   3.362   3.862
19987SOL    HW261921   7.442   3.516   3.916
19988SOL     OW61922   0.137   2.784   4.336
19988SOL    HW161923   0.232   2.755   4.344
19988SOL    HW261924   0.129   2.849   4.261
19989SOL     OW61925   0.089   2.970   4.156
19989SOL    HW161926   0.175   2.972   4.104
19989SOL    HW261927   0.103   3.017   4.244
19990SOL     OW61928   7.561   2.599   5.321
19990SOL    HW161929   7.649   2.586   5.366
19990SOL    HW261930   7.548   2.696   5.299
19991SOL     OW61931   8.061   3.227   4.450
19991SOL    HW161932   8.012   3.140   4.459
19991SOL    HW261933   8.038   3.270   4.363
19992SOL     OW61934   8.741   3.090   5.147
19992SOL    HW161935   8.778   3.017   5.089
19992SOL    HW261936   8.793   3.095   5.232
19993SOL     OW61937   8.257   1.866   4.226
19993SOL    HW161938   8.297   1.957   4.217
19993SOL    HW261939   8.157   1.874   4.232
19994SOL     OW61940   7.645   2.838   4.988
19994SOL    HW161941   7.734   2.793   4.974
19994SOL    HW261942   7.572   2.773   4.969
19995SOL     OW61943   8.973   2.861   3.914
19995SOL    HW161944   8.910   2.785   3.927
19995SOL    HW261945   9.021   2.879   4.000
19996SOL     OW61946   8.635   3.654   5.340
19996SOL    HW161947   8.659   3.714   5.264
19996SOL    HW261948   8.642   3.559   5.310
19997SOL     OW61949   7.765   2.113   5.525
19997SOL    HW161950   7.836   2.184   5.531
19997SOL    HW261951   7.677   2.152   5.553
19998SOL     OW61952   8.914   3.279   4.677
19998SOL    HW161953   8.855   3.285   4.757
19998SOL    HW261954   8.899   3.191   4.631
19999SOL     OW61955   0.115   3.576   4.296
19999SOL    HW161956   0.074   3.553   4.208
19999SOL    HW261957   0.097   3.502   4.361
20000SOL     OW61958   8.046   2.591   3.994
20000SOL    HW161959   8.070   2.660   3.926
20000SOL    HW261960   7.968   2.624   4.048
20001SOL     OW61961   8.729   2.207   4.668
20001SOL    HW161962   8.643   2.157   4.655
20001SOL    HW261963   8.791   2.153   4.724
20002SOL     OW61964   0.024   3.524   4.031
20002SOL    HW161965   0.113   3.570   4.034
20002SOL    HW261966   0.003   3.500   3.936
20003SOL     OW61967   8.255   2.467   5.189
20003SOL    HW161968   8.208   2.464   5.278
20003SOL    HW261969   8.204   2.412   5.123
20004SOL     OW61970   8.842   2.331   5.398
20004SOL    HW161971   8.822   2.374   5.486
20004SOL    HW261972   8.920   2.269   5.407
20005SOL     OW61973   8.421   2.752   5.296
20005SOL    HW161974   8.467   2.668   5.267
20005SOL    HW261975   8.365   2.786   5.221
20006SOL     OW61976   8.439   2.272   4.966
20006SOL    HW161977   8.362   2.306   5.020
20006SOL    HW261978   8.405   2.221   4.887
20007SOL     OW61979   8.489   2.563   4.153
20007SOL    HW161980   8.515   2.559   4.249
20007SOL    HW261981   8.404   2.512   4.139
20008SOL     OW61982   7.524   2.673   4.513
20008SOL    HW161983   7.623   2.661   4.522
20008SOL    HW261984   7.500   2.768   4.534
20009SOL     OW61985   7.578   3.683   5.295
20009SOL    HW161986   7.568   3.668   5.394
20009SOL    HW261987   7.492   3.719   5.259
20010SOL     OW61988   8.313   2.210   3.919
20010SOL    HW161989   8.372   2.273   3.870
20010SOL    HW261990   8.332   2.116   3.890
20011SOL     OW61991   0.167   2.447   5.555
20011SOL    HW161992   0.141   2.536   5.519
20011SOL    HW261993   0.165   2.379   5.482
20012SOL     OW61994   8.810   3.006   4.269
20012SOL    HW161995   8.893   2.977   4.221
20012SOL    HW261996   8.761   3.073   4.213
20013SOL     OW61997   7.998   2.058   4.609
20013SOL    HW161998   7.993   2.053   4.709
20013SOL    HW261999   8.000   2.154   4.580
20014SOL     OW62000   8.456   3.318   4.201
20014SOL    HW162001   8.410   3.390   4.149
20014SOL    HW262002   8.452   3.338   4.299
20015SOL     OW62003   7.799   3.663   4.577
20015SOL    HW162004   7.849   3.577   4.583
20015SOL    HW262005   7.864   3.740   4.574
20016SOL     OW62006   0.243   2.928   4.597
20016SOL    HW162007   0.181   2.913   4.521
20016SOL    HW262008   0.191   2.939   4.682
20017SOL     OW62009   8.675   3.412   5.230
20017SOL    HW162010   8.681   3.335   5.294
20017SOL    HW262011   8.623   3.386   5.150
20018SOL     OW62012   7.769   2.805   3.966
20018SOL    HW162013   7.851   2.844   3.924
20018SOL    HW262014   7.742   2.723   3.917
20019SOL     OW62015   8.906   2.597   4.452
20019SOL    HW162016   8.901   2.532   4.527
20019SOL    HW262017   8.986   2.656   4.465
20020SOL     OW62018   7.909   3.128   5.451
20020SOL    HW162019   7.859   3.129   5.365
20020SOL    HW262020   7.846   3.110   5.527
20021SOL     OW62021   8.559   3.638   3.961
20021SOL    HW162022   8.499   3.576   4.011
20021SOL    HW262023   8.590   3.594   3.876
20022SOL     OW62024   7.650   2.147   5.222
20022SOL    HW162025   7.570   2.207   5.209
20022SOL    HW262026   7.640   2.098   5.308
20023SOL     OW62027   0.080   3.239   3.805
20023SOL    HW162028   0.048   3.333   3.795
20023SOL    HW262029   0.004   3.176   3.793
20024SOL     OW62030   7.912   3.605   4.047
20024SOL    HW162031   7.945   3.644   4.133
20024SOL    HW262032   7.988   3.598   3.982
20025SOL     OW62033   8.848   1.969   4.150
20025SOL    HW162034   8.824   1.932   4.060
20025SOL    HW262035   8.947   1.985   4.154
20026SOL     OW62036   7.697   3.647   4.965
20026SOL    HW162037   7.754   3.582   5.015
20026SOL    HW262038   7.681   3.614   4.872
20027SOL     OW62039   8.388   3.560   4.628
20027SOL    HW162040   8.468   3.503   4.649
20027SOL    HW262041   8.339   3.520   4.551
20028SOL     OW62042   7.830   2.562   4.204
20028SOL    HW162043   7.875   2.472   4.201
20028SOL    HW262044   7.736   2.551   4.237
20029SOL     OW62045   8.995   2.084   5.453
20029SOL    HW162046   8.990   2.121   5.545
20029SOL    HW262047   8.923   2.015   5.441
20030SOL     OW62048   8.062   1.984   3.841
20030SOL    HW162049   8.160   1.962   3.848
20030SOL    HW262050   8.031   1.967   3.748
20031SOL     OW62051   8.229   2.126   5.473
20031SOL    HW162052   8.296   2.065   5.516
20031SOL    HW262053   8.156   2.145   5.538
20032SOL     OW62054   8.336   3.376   4.919
20032SOL    HW162055   8.313   3.351   4.825
20032SOL    HW262056   8.397   3.307   4.958
20033SOL     OW62057   8.799   2.452   5.157
20033SOL    HW162058   8.827   2.409   5.242
20033SOL    HW262059   8.824   2.548   5.158
20034SOL     OW62060   8.251   3.264   4.648
20034SOL    HW162061   8.341   3.278   4.606
20034SOL    HW262062   8.180   3.266   4.577
20035SOL     OW62063   8.370   2.365   4.623
20035SOL    HW162064   8.345   2.356   4.527
20035SOL    HW262065   8.418   2.283   4.654
20036SOL     OW62066   7.987   1.926   4.236
20036SOL    HW162067   7.906   1.927   4.294
20036SOL    HW262068   7.990   2.009   4.181
20037SOL     OW62069   8.882   3.050   3.765
20037SOL    HW162070   8.914   2.974   3.822
20037SOL    HW262071   8.790   3.077   3.795
20038SOL     OW62072   7.745   1.897   3.895
20038SOL    HW162073   7.794   1.981   3.874
20038SOL    HW262074   7.807   1.832   3.940
20039SOL     OW62075   8.383   2.098   4.204
20039SOL    HW162076   8.335   2.139   4.126
20039SOL    HW262077   8.482   2.096   4.185
20040SOL     OW62078   8.524   2.545   5.188
20040SOL    HW162079   8.444   2.484   5.191
20040SOL    HW262080   8.605   2.492   5.164
20041SOL     OW62081   8.675   3.432   4.517
20041SOL    HW162082   8.696   3.506   4.452
20041SOL    HW262083   8.743   3.432   4.590
20042SOL     OW62084   7.907   3.014   4.465
20042SOL    HW162085   7.836   2.987   4.530
20042SOL    HW262086   7.881   2.986   4.372
20043SOL     OW62087   8.719   3.659   4.315
20043SOL    HW162088   8.763   3.723   4.251
20043SOL    HW262089   8.669   3.711   4.385
20044SOL     OW62090   8.480   2.411   3.740
20044SOL    HW162091   8.439   2.493   3.701
20044SOL    HW262092   8.544   2.437   3.813
20045SOL     OW62093   7.526   2.418   5.110
20045SOL    HW162094   7.618   2.417   5.069
20045SOL    HW262095   7.520   2.492   5.177
20046SOL     OW62096   8.009   2.084   4.871
20046SOL    HW162097   8.047   2.000   4.908
20046SOL    HW262098   7.921   2.103   4.915
20047SOL     OW62099   8.314   2.316   4.366
20047SOL    HW162100   8.282   2.388   4.304
20047SOL    HW262101   8.338   2.235   4.313
20048SOL     OW62102   8.465   1.901   4.477
20048SOL    HW162103   8.393   1.906   4.408
20048SOL    HW262104   8.441   1.832   4.546
20049SOL     OW62105   8.877   3.035   4.591
20049SOL    HW162106   8.822   2.951   4.584
20049SOL    HW262107   8.903   3.064   4.499
20050SOL     OW62108   8.914   2.452   4.716
20050SOL    HW162109   8.884   2.357   4.723
20050SOL    HW262110   8.987   2.468   4.782
20051SOL     OW62111   7.936   3.247   3.898
20051SOL    HW162112   7.849   3.232   3.945
20051SOL    HW262113   7.919   3.273   3.803
20052SOL     OW62114   0.112   3.142   4.381
20052SOL    HW162115   0.211   3.150   4.395
20052SOL    HW262116   0.067   3.226   4.412
20053SOL     OW62117   8.838   2.437   3.802
20053SOL    HW162118   8.784   2.416   3.883
20053SOL    HW262119   8.929   2.396   3.811
20054SOL     OW62120   7.975   2.118   4.052
20054SOL    HW162121   8.002   2.059   3.977
20054SOL    HW262122   7.975   2.213   4.021
20055SOL     OW62123   8.512   3.209   5.064
20055SOL    HW162124   8.432   3.186   5.119
20055SOL    HW262125   8.595   3.183   5.113
20056SOL     OW62126   0.040   3.491   5.349
20056SOL    HW162127   0.067   3.525   5.259
20056SOL    HW262128   0.119   3.453   5.395
20057SOL     OW62129   8.559   3.057   4.824
20057SOL    HW162130   8.519   3.101   4.905
20057SOL    HW262131   8.518   3.094   4.741
20058SOL     OW62132   0.086   2.961   4.803
20058SOL    HW162133   0.091   3.042   4.862
20058SOL    HW262134   0.000   2.963   4.752
20059SOL     OW62135   8.363   1.951   5.126
20059SOL    HW162136   8.388   1.931   5.031
20059SOL    HW262137   8.435   2.007   5.168
20060SOL     OW62138   8.428   2.978   5.443
20060SOL    HW162139   8.329   2.984   5.453
20060SOL    HW262140   8.451   2.898   5.387
20061SOL     OW62141   8.153   2.912   4.092
20061SOL    HW162142   8.139   2.919   4.191
20061SOL    HW262143   8.237   2.861   4.074
20062SOL     OW62144   7.858   2.675   4.975
20062SOL    HW162145   7.944   2.687   5.025
20062SOL    HW262146   7.816   2.588   5.002
20063SOL     OW62147   8.722   2.248   4.986
20063SOL    HW162148   8.743   2.322   5.050
20063SOL    HW262149   8.633   2.265   4.943
20064SOL     OW62150   7.512   3.426   5.055
20064SOL    HW162151   7.466   3.508   5.021
20064SOL    HW262152   7.610   3.445   5.064
20065SOL     OW62153   7.815   2.962   4.225
20065SOL    HW162154   7.808   3.045   4.169
20065SOL    HW262155   7.819   2.882   4.165
20066SOL     OW62156   8.014   2.399   4.589
20066SOL    HW162157   8.026   2.465   4.515
20066SOL    HW262158   8.060   2.433   4.672
20067SOL     OW62159   8.700   3.210   4.112
20067SOL    HW162160   8.750   3.287   4.152
20067SOL    HW262161   8.605   3.212   4.144
20068SOL     OW62162   8.720   3.307   4.866
20068SOL    HW162163   8.767   3.320   4.953
20068SOL    HW262164   8.654   3.233   4.875
20069SOL     OW62165   0.030   2.501   4.196
20069SOL    HW162166  -0.001   2.562   4.269
20069SOL    HW262167   0.080   2.553   4.127
20070SOL     OW62168   7.802   3.372   5.053
20070SOL    HW162169   7.781   3.328   4.966
20070SOL    HW262170   7.899   3.398   5.056
20071SOL     OW62171   7.850   2.613   5.322
20071SOL    HW162172   7.918   2.668   5.275
20071SOL    HW262173   7.890   2.525   5.349
20072SOL     OW62174   0.035   2.641   5.394
20072SOL    HW162175  -0.057   2.679   5.389
20072SOL    HW262176   0.095   2.688   5.329
20073SOL     OW62177   8.461   1.967   5.494
20073SOL    HW162178   8.467   2.052   5.442
20073SOL    HW262179   8.493   1.891   5.437
20074SOL     OW62180   7.952   1.912   5.464
20074SOL    HW162181   7.910   1.855   5.394
20074SOL    HW262182   7.886   1.981   5.496
20075SOL     OW62183   8.021   2.732   4.753
20075SOL    HW162184   8.065   2.821   4.744
20075SOL    HW262185   7.958   2.732   4.830
20076SOL     OW62186   8.808   2.724   4.769
20076SOL    HW162187   8.733   2.724   4.703
20076SOL    HW262188   8.845   2.632   4.778
20077SOL     OW62189   8.657   2.387   3.999
20077SOL    HW162190   8.670   2.303   4.053
20077SOL    HW262191   8.628   2.461   4.059
20078SOL     OW62192   7.755   2.075   4.955
20078SOL    HW162193   7.732   2.112   5.045
20078SOL    HW262194   7.725   1.980   4.949
20079SOL     OW62195   7.485   3.172   5.006
20079SOL    HW162196   7.538   3.123   5.074
20079SOL    HW262197   7.507   3.270   5.011
20080SOL     OW62198   8.180   2.496   4.788
20080SOL    HW162199   8.239   2.470   4.712
20080SOL    HW262200   8.152   2.592   4.777
20081SOL     OW62201   0.176   2.797   5.578
20081SOL    HW162202   0.130   2.790   5.489
20081SOL    HW262203   0.114   2.841   5.644
20082SOL     OW62204   7.755   1.925   4.342
20082SOL    HW162205   7.744   2.019   4.375
20082SOL    HW262206   7.750   1.862   4.419
20083SOL     OW62207   0.070   2.229   4.098
20083SOL    HW162208   0.072   2.153   4.162
20083SOL    HW262209   0.022   2.306   4.138
20084SOL     OW62210   8.471   2.628   4.690
20084SOL    HW162211   8.486   2.649   4.786
20084SOL    HW262212   8.441   2.533   4.681
20085SOL     OW62213   8.428   3.435   5.424
20085SOL    HW162214   8.408   3.479   5.336
20085SOL    HW262215   8.467   3.344   5.408
20086SOL     OW62216   7.798   2.760   5.528
20086SOL    HW162217   7.874   2.804   5.576
20086SOL    HW262218   7.833   2.713   5.446
20087SOL     OW62219   8.988   2.136   3.849
20087SOL    HW162220   8.927   2.061   3.872
20087SOL    HW262221   9.010   2.188   3.932
20088SOL     OW62222   8.751   2.700   3.766
20088SOL    HW162223   8.785   2.607   3.781
20088SOL    HW262224   8.769   2.727   3.671
20089SOL     OW62225   8.516   3.195   4.573
20089SOL    HW162226   8.523   3.111   4.518
20089SOL    HW262227   8.578   3.264   4.537
20090SOL     OW62228   7.767   2.672   4.673
20090SOL    HW162229   7.860   2.708   4.678
20090SOL    HW262230   7.761   2.587   4.725
20091SOL     OW62231   7.787   2.371   4.730
20091SOL    HW162232   7.735   2.288   4.713
20091SOL    HW262233   7.864   2.376   4.666
20092SOL     OW62234   7.959   2.277   5.532
20092SOL    HW162235   7.941   2.322   5.620
20092SOL    HW262236   8.001   2.342   5.469
20093SOL     OW62237   8.586   2.242   5.402
20093SOL    HW162238   8.541   2.305   5.466
20093SOL    HW262239   8.679   2.273   5.385
20094SOL     OW62240   8.608   2.069   5.201
20094SOL    HW162241   8.608   2.133   5.278
20094SOL    HW262242   8.636   2.117   5.118
20095SOL     OW62243   7.456   3.188   3.924
20095SOL    HW162244   7.363   3.209   3.893
20095SOL    HW262245   7.466   3.089   3.937
20096SOL     OW62246   7.536   3.663   4.651
20096SOL    HW162247   7.494   3.577   4.624
20096SOL    HW262248   7.630   3.666   4.617
20097SOL     OW62249   7.952   3.430   4.634
20097SOL    HW162250   8.018   3.504   4.643
20097SOL    HW262251   7.996   3.351   4.592
20098SOL     OW62252   8.450   2.658   4.962
20098SOL    HW162253   8.491   2.626   5.048
20098SOL    HW262254   8.354   2.631   4.959
20099SOL     OW62255   7.488   2.406   4.838
20099SOL    HW162256   7.573   2.373   4.797
20099SOL    HW262257   7.501   2.421   4.936
20100SOL     OW62258   7.637   2.382   5.446
20100SOL    HW162259   7.696   2.342   5.376
20100SOL    HW262260   7.579   2.453   5.405
20101SOL     OW62261   8.817   2.812   5.384
20101SOL    HW162262   8.856   2.901   5.404
20101SOL    HW262263   8.827   2.792   5.287
20102SOL     OW62264   8.263   2.434   4.049
20102SOL    HW162265   8.270   2.345   4.003
20102SOL    HW262266   8.169   2.468   4.041
20103SOL     OW62267   0.105   2.466   4.930
20103SOL    HW162268   0.067   2.397   4.992
20103SOL    HW262269   0.187   2.430   4.886
20104SOL     OW62270   7.700   3.426   5.468
20104SOL    HW162271   7.670   3.483   5.544
20104SOL    HW262272   7.693   3.329   5.494
20105SOL     OW62273   8.119   2.326   4.993
20105SOL    HW162274   8.085   2.237   4.963
20105SOL    HW262275   8.145   2.380   4.913
20106SOL     OW62276   8.378   3.540   5.189
20106SOL    HW162277   8.354   3.522   5.094
20106SOL    HW262278   8.408   3.634   5.199
20107SOL     OW62279   7.921   2.362   3.915
20107SOL    HW162280   7.982   2.442   3.919
20107SOL    HW262281   7.826   2.393   3.922
20108SOL     OW62282   7.607   2.999   5.190
20108SOL    HW162283   7.629   2.938   5.266
20108SOL    HW262284   7.617   2.950   5.104
20109SOL     OW62285   8.795   2.921   4.958
20109SOL    HW162286   8.819   2.858   4.884
20109SOL    HW262287   8.705   2.961   4.940
20110SOL     OW62288   8.750   2.717   4.033
20110SOL    HW162289   8.664   2.686   4.075
20110SOL    HW262290   8.746   2.703   3.934
20111SOL     OW62291   8.700   3.593   4.852
20111SOL    HW162292   8.784   3.598   4.798
20111SOL    HW262293   8.677   3.497   4.870
20112SOL     OW62294   7.531   3.120   4.746
20112SOL    HW162295   7.526   3.119   4.846
20112SOL    HW262296   7.448   3.079   4.708
20113SOL     OW62297   8.136   3.524   5.440
20113SOL    HW162298   8.080   3.605   5.449
20113SOL    HW262299   8.188   3.528   5.354
20114SOL     OW62300   8.351   1.948   3.857
20114SOL    HW162301   8.402   1.949   3.771
20114SOL    HW262302   8.407   1.906   3.928
20115SOL     OW62303   0.174   1.997   4.247
20115SOL    HW162304   0.247   1.980   4.180
20115SOL    HW262305   0.143   1.910   4.285
20116SOL     OW62306   8.836   3.435   4.201
20116SOL    HW162307   8.903   3.447   4.127
20116SOL    HW262308   8.796   3.524   4.224
20117SOL     OW62309   7.578   3.656   5.575
20117SOL    HW162310   7.537   3.582   5.628
20117SOL    HW262311   7.642   3.707   5.633
20118SOL     OW62312   8.728   2.789   4.396
20118SOL    HW162313   8.788   2.708   4.398
20118SOL    HW262314   8.768   2.858   4.336
20119SOL     OW62315   8.278   3.135   5.146
20119SOL    HW162316   8.273   3.168   5.241
20119SOL    HW262317   8.192   3.154   5.100
20120SOL     OW62318   8.120   3.478   3.878
20120SOL    HW162319   8.129   3.488   3.779
20120SOL    HW262320   8.080   3.389   3.899
20121SOL     OW62321   0.098   3.582   5.118
20121SOL    HW162322   0.151   3.592   5.034
20121SOL    HW262323   0.071   3.672   5.152
20122SOL     OW62324   7.711   2.188   4.444
20122SOL    HW162325   7.632   2.239   4.410
20122SOL    HW262326   7.702   2.173   4.542
20123SOL     OW62327   8.642   3.474   3.755
20123SOL    HW162328   8.648   3.381   3.792
20123SOL    HW262329   8.583   3.474   3.675
20124SOL     OW62330   8.270   2.864   5.096
20124SOL    HW162331   8.310   2.863   5.004
20124SOL    HW262332   8.280   2.956   5.136
20125SOL     OW62333   8.364   2.772   4.015
20125SOL    HW162334   8.427   2.810   3.947
20125SOL    HW262335   8.404   2.689   4.054
20126SOL     OW62336   8.952   3.469   3.768
20126SOL    HW162337   8.860   3.506   3.775
20126SOL    HW262338   8.990   3.489   3.678
20127SOL     OW62339   7.820   3.150   5.214
20127SOL    HW162340   7.807   3.243   5.180
20127SOL    HW262341   7.736   3.098   5.201
20128SOL     OW62342   0.062   3.154   5.013
20128SOL    HW162343   0.122   3.157   5.093
20128SOL    HW262344  -0.013   3.218   5.026
20129SOL     OW62345   8.487   2.960   4.420
20129SOL    HW162346   8.417   2.913   4.474
20129SOL    HW262347   8.546   2.892   4.377
20130SOL     OW62348   8.462   2.098   4.695
20130SOL    HW162349   8.454   2.062   4.602
20130SOL    HW262350   8.460   2.022   4.760
20131SOL     OW62351   8.038   3.349   4.215
20131SOL    HW162352   8.080   3.291   4.145
20131SOL    HW262353   7.994   3.428   4.171
20132SOL     OW62354   0.157   2.247   5.105
20132SOL    HW162355   0.230   2.316   5.109
20132SOL    HW262356   0.185   2.172   5.046
20133SOL     OW62357   7.703   3.210   4.014
20133SOL    HW162358   7.607   3.211   3.987
20133SOL    HW262359   7.715   3.263   4.098
20134SOL     OW62360   7.553   2.875   5.450
20134SOL    HW162361   7.476   2.842   5.504
20134SOL    HW262362   7.638   2.845   5.492
20135SOL     OW62363   8.120   2.065   5.213
20135SOL    HW162364   8.210   2.049   5.173
20135SOL    HW262365   8.128   2.070   5.312
20136SOL     OW62366   7.523   2.207   3.757
20136SOL    HW162367   7.431   2.179   3.728
20136SOL    HW262368   7.554   2.284   3.701
20137SOL     OW62369   8.888   2.718   5.122
20137SOL    HW162370   8.831   2.770   5.059
20137SOL    HW262371   8.984   2.730   5.098
20138SOL     OW62372   7.520   2.028   4.042
20138SOL    HW162373   7.503   2.111   3.988
20138SOL    HW262374   7.610   1.991   4.020
20139SOL     OW62375   8.631   3.197   3.843
20139SOL    HW162376   8.532   3.186   3.845
20139SOL    HW262377   8.665   3.212   3.936
20140SOL     OW62378   8.061   2.704   5.155
20140SOL    HW162379   8.117   2.785   5.138
20140SOL    HW262380   8.120   2.624   5.158
20141SOL     OW62381   8.941   3.629   4.683
20141SOL    HW162382   8.974   3.693   4.614
20141SOL    HW262383   9.007   3.623   4.758
20142SOL     OW62384   8.164   2.427   5.432
20142SOL    HW162385   8.183   2.492   5.506
20142SOL    HW262386   8.224   2.347   5.441
20143SOL     OW62387   8.898   3.082   5.357
20143SOL    HW162388   8.889   3.072   5.456
20143SOL    HW262389   8.994   3.075   5.331
20144SOL     OW62390   7.838   3.603   5.284
20144SOL    HW162391   7.747   3.644   5.282
20144SOL    HW262392   7.831   3.509   5.316
20145SOL     OW62393   0.122   2.745   4.978
20145SOL    HW162394   0.095   2.656   4.941
20145SOL    HW262395   0.123   2.813   4.905
20146SOL     OW62396   8.673   2.187   4.173
20146SOL    HW162397   8.738   2.113   4.162
20146SOL    HW262398   8.693   2.237   4.257
20147SOL     OW62399   8.042   2.607   4.376
20147SOL    HW162400   8.092   2.692   4.357
20147SOL    HW262401   7.954   2.609   4.328
20148SOL     OW62402   0.225   2.204   5.366
20148SOL    HW162403   0.208   2.235   5.272
20148SOL    HW262404   0.141   2.167   5.404
20149SOL     OW62405   0.178   2.796   5.241
20149SOL    HW162406   0.216   2.887   5.256
20149SOL    HW262407   0.170   2.779   5.142
20150SOL     OW62408   8.307   3.236   3.740
20150SOL    HW162409   8.261   3.251   3.828
20150SOL    HW262410   8.351   3.321   3.710
20151SOL     OW62411   8.109   3.652   4.677
20151SOL    HW162412   8.063   3.740   4.664
20151SOL    HW262413   8.208   3.664   4.670
20152SOL     OW62414   8.307   2.818   4.585
20152SOL    HW162415   8.361   2.749   4.633
20152SOL    HW262416   8.275   2.887   4.651
20153SOL     OW62417   8.531   2.846   3.811
20153SOL    HW162418   8.508   2.899   3.729
20153SOL    HW262419   8.612   2.790   3.792
20154SOL     OW62420   7.669   3.176   5.568
20154SOL    HW162421   7.604   3.103   5.547
20154SOL    HW262422   7.673   3.190   5.666
20155SOL     OW62423   7.527   3.102   4.377
20155SOL    HW162424   7.526   3.055   4.465
20155SOL    HW262425   7.609   3.074   4.326
20156SOL     OW62426   8.120   3.253   5.348
20156SOL    HW162427   8.042   3.203   5.386
20156SOL    HW262428   8.117   3.348   5.379
20157SOL     OW62429   7.876   2.286   4.244
20157SOL    HW162430   7.906   2.214   4.182
20157SOL    HW262431   7.837   2.246   4.327
20158SOL     OW62432   0.153   3.349   4.828
20158SOL    HW162433   0.060   3.324   4.801
20158SOL    HW262434   0.179   3.299   4.910
20159SOL     OW62435   7.765   2.409   5.004
20159SOL    HW162436   7.803   2.350   5.076
20159SOL    HW262437   7.805   2.383   4.916
20160SOL     OW62438   8.260   3.448   4.411
20160SOL    HW162439   8.292   3.458   4.317
20160SOL    HW262440   8.181   3.386   4.413
20161SOL     OW62441   8.872   2.076   4.836
20161SOL    HW162442   8.924   2.011   4.891
20161SOL    HW262443   8.823   2.139   4.897
20162SOL     OW62444   8.449   1.896   4.878
20162SOL    HW162445   8.386   1.824   4.847
20162SOL    HW262446   8.542   1.860   4.878
20163SOL     OW62447   8.218   3.192   4.025
20163SOL    HW162448   8.172   3.105   4.042
20163SOL    HW262449   8.309   3.189   4.066
20164SOL     OW62450   8.066   3.429   5.008
20164SOL    HW162451   8.061   3.511   5.065
20164SOL    HW262452   8.155   3.426   4.963
20165SOL     OW62453   8.800   1.914   3.892
20165SOL    HW162454   8.835   1.873   3.808
20165SOL    HW262455   8.710   1.876   3.912
20166SOL     OW62456   8.748   2.315   4.415
20166SOL    HW162457   8.689   2.395   4.419
20166SOL    HW262458   8.763   2.280   4.508
20167SOL     OW62459   0.041   2.083   4.606
20167SOL    HW162460  -0.043   2.082   4.660
20167SOL    HW262461   0.043   2.166   4.550
20168SOL     OW62462   7.487   2.939   4.024
20168SOL    HW162463   7.586   2.928   4.015
20168SOL    HW262464   7.447   2.853   4.056
20169SOL     OW62465   8.323   3.508   4.061
20169SOL    HW162466   8.246   3.473   4.007
20169SOL    HW262467   8.291   3.579   4.123
20170SOL     OW62468   7.678   2.490   5.699
20170SOL    HW162469   7.585   2.488   5.736
20170SOL    HW262470   7.679   2.451   5.607
20171SOL     OW62471   7.673   2.137   6.582
20171SOL    HW162472   7.708   2.120   6.674
20171SOL    HW262473   7.585   2.092   6.570
20172SOL     OW62474   7.467   2.230   6.233
20172SOL    HW162475   7.385   2.273   6.272
20172SOL    HW262476   7.439   2.157   6.170
20173SOL     OW62477   8.017   3.137   6.751
20173SOL    HW162478   7.924   3.130   6.714
20173SOL    HW262479   8.028   3.226   6.795
20174SOL     OW62480   0.003   3.373   6.289
20174SOL    HW162481  -0.054   3.357   6.370
20174SOL    HW262482  -0.056   3.383   6.209
20175SOL     OW62483   0.191   2.480   6.442
20175SOL    HW162484   0.224   2.574   6.442
20175SOL    HW262485   0.242   2.426   6.508
20176SOL     OW62486   8.583   2.565   6.303
20176SOL    HW162487   8.640   2.643   6.278
20176SOL    HW262488   8.523   2.591   6.379
20177SOL     OW62489   0.203   2.469   5.817
20177SOL    HW162490   0.191   2.456   5.718
20177SOL    HW262491   0.173   2.388   5.866
20178SOL     OW62492   8.216   3.006   6.609
20178SOL    HW162493   8.138   3.023   6.669
20178SOL    HW262494   8.250   3.093   6.573
20179SOL     OW62495   8.298   2.660   7.409
20179SOL    HW162496   8.294   2.736   7.474
20179SOL    HW262497   8.320   2.696   7.318
20180SOL     OW62498   8.133   2.874   6.251
20180SOL    HW162499   8.202   2.858   6.321
20180SOL    HW262500   8.060   2.931   6.289
20181SOL     OW62501   8.134   3.023   7.389
20181SOL    HW162502   8.194   3.102   7.403
20181SOL    HW262503   8.048   3.054   7.348
20182SOL     OW62504   7.783   3.297   6.647
20182SOL    HW162505   7.705   3.266   6.594
20182SOL    HW262506   7.841   3.355   6.590
20183SOL     OW62507   8.908   3.367   6.925
20183SOL    HW162508   8.932   3.461   6.951
20183SOL    HW262509   8.892   3.313   7.007
20184SOL     OW62510   7.886   2.254   7.085
20184SOL    HW162511   7.968   2.198   7.094
20184SOL    HW262512   7.805   2.196   7.089
20185SOL     OW62513   7.679   3.575   6.069
20185SOL    HW162514   7.713   3.652   6.123
20185SOL    HW262515   7.723   3.575   5.979
20186SOL     OW62516   8.575   3.203   7.276
20186SOL    HW162517   8.622   3.203   7.364
20186SOL    HW262518   8.527   3.116   7.265
20187SOL     OW62519   7.678   3.296   6.124
20187SOL    HW162520   7.652   3.392   6.124
20187SOL    HW262521   7.607   3.242   6.169
20188SOL     OW62522   7.688   2.953   6.472
20188SOL    HW162523   7.702   2.869   6.524
20188SOL    HW262524   7.633   3.017   6.527
20189SOL     OW62525   8.068   3.648   7.025
20189SOL    HW162526   7.976   3.631   7.060
20189SOL    HW262527   8.096   3.740   7.051
20190SOL     OW62528   8.054   2.826   5.709
20190SOL    HW162529   8.061   2.910   5.655
20190SOL    HW262530   8.100   2.839   5.797
20191SOL     OW62531   0.042   1.976   7.066
20191SOL    HW162532   0.024   2.043   6.994
20191SOL    HW262533   0.039   2.022   7.155
20192SOL     OW62534   7.570   2.505   6.149
20192SOL    HW162535   7.525   2.417   6.166
20192SOL    HW262536   7.569   2.559   6.233
20193SOL     OW62537   7.475   3.458   5.703
20193SOL    HW162538   7.456   3.362   5.724
20193SOL    HW262539   7.442   3.516   5.778
20194SOL     OW62540   0.137   2.784   6.198
20194SOL    HW162541   0.232   2.755   6.206
20194SOL    HW262542   0.129   2.849   6.123
20195SOL     OW62543   0.089   2.970   6.018
20195SOL    HW162544   0.175   2.972   5.966
20195SOL    HW262545   0.103   3.017   6.106
20196SOL     OW62546   7.561   2.599   7.183
20196SOL    HW162547   7.649   2.586   7.228
20196SOL    HW262548   7.548   2.696   7.161
20197SOL     OW62549   8.061   3.227   6.312
20197SOL    HW162550   8.012   3.140   6.321
20197SOL    HW262551   8.038   3.270   6.225
20198SOL     OW62552   8.741   3.090   7.009
20198SOL    HW162553   8.778   3.017   6.951
20198SOL    HW262554   8.793   3.095   7.094
20199SOL     OW62555   8.257   1.866   6.088
20199SOL    HW162556   8.297   1.957   6.079
20199SOL    HW262557   8.157   1.874   6.094
20200SOL     OW62558   7.645   2.838   6.850
20200SOL    HW162559   7.734   2.793   6.836
20200SOL    HW262560   7.572   2.773   6.831
20201SOL     OW62561   8.973   2.861   5.776
20201SOL    HW162562   8.910   2.785   5.789
20201SOL    HW262563   9.021   2.879   5.862
20202SOL     OW62564   8.635   3.654   7.202
20202SOL    HW162565   8.659   3.714   7.126
20202SOL    HW262566   8.642   3.559   7.172
20203SOL     OW62567   7.765   2.113   7.387
20203SOL    HW162568   7.836   2.184   7.393
20203SOL    HW262569   7.677   2.152   7.415
20204SOL     OW62570   8.914   3.279   6.539
20204SOL    HW162571   8.855   3.285   6.619
20204SOL    HW262572   8.899   3.191   6.493
20205SOL     OW62573   0.115   3.576   6.158
20205SOL    HW162574   0.074   3.553   6.070
20205SOL    HW262575   0.097   3.502   6.223
20206SOL     OW62576   8.046   2.591   5.856
20206SOL    HW162577   8.070   2.660   5.788
20206SOL    HW262578   7.968   2.624   5.910
20207SOL     OW62579   8.729   2.207   6.530
20207SOL    HW162580   8.643   2.157   6.517
20207SOL    HW262581   8.791   2.153   6.586
20208SOL     OW62582   0.024   3.524   5.893
20208SOL    HW162583   0.113   3.570   5.896
20208SOL    HW262584   0.003   3.500   5.798
20209SOL     OW62585   8.255   2.467   7.051
20209SOL    HW162586   8.208   2.464   7.140
20209SOL    HW262587   8.204   2.412   6.985
20210SOL     OW62588   8.842   2.331   7.260
20210SOL    HW162589   8.822   2.374   7.348
20210SOL    HW262590   8.920   2.269   7.269
20211SOL     OW62591   8.421   2.752   7.158
20211SOL    HW162592   8.467   2.668   7.129
20211SOL    HW262593   8.365   2.786   7.083
20212SOL     OW62594   8.439   2.272   6.828
20212SOL    HW162595   8.362   2.306   6.882
20212SOL    HW262596   8.405   2.221   6.749
20213SOL     OW62597   8.489   2.563   6.015
20213SOL    HW162598   8.515   2.559   6.111
20213SOL    HW262599   8.404   2.512   6.001
20214SOL     OW62600   7.524   2.673   6.375
20214SOL    HW162601   7.623   2.661   6.384
20214SOL    HW262602   7.500   2.768   6.396
20215SOL     OW62603   7.578   3.683   7.157
20215SOL    HW162604   7.568   3.668   7.256
20215SOL    HW262605   7.492   3.719   7.121
20216SOL     OW62606   8.313   2.210   5.781
20216SOL    HW162607   8.372   2.273   5.732
20216SOL    HW262608   8.332   2.116   5.752
20217SOL     OW62609   0.167   2.447   7.417
20217SOL    HW162610   0.141   2.536   7.381
20217SOL    HW262611   0.165   2.379   7.344
20218SOL     OW62612   8.810   3.006   6.131
20218SOL    HW162613   8.893   2.977   6.083
20218SOL    HW262614   8.761   3.073   6.075
20219SOL     OW62615   7.998   2.058   6.471
20219SOL    HW162616   7.993   2.053   6.571
20219SOL    HW262617   8.000   2.154   6.442
20220SOL     OW62618   8.456   3.318   6.063
20220SOL    HW162619   8.410   3.390   6.011
20220SOL    HW262620   8.452   3.338   6.161
20221SOL     OW62621   0.243   2.928   6.459
20221SOL    HW162622   0.181   2.913   6.383
20221SOL    HW262623   0.191   2.939   6.544
20222SOL     OW62624   8.675   3.412   7.092
20222SOL    HW162625   8.681   3.335   7.156
20222SOL    HW262626   8.623   3.386   7.012
20223SOL     OW62627   7.769   2.805   5.828
20223SOL    HW162628   7.851   2.844   5.786
20223SOL    HW262629   7.742   2.723   5.779
20224SOL     OW62630   8.906   2.597   6.314
20224SOL    HW162631   8.901   2.532   6.389
20224SOL    HW262632   8.986   2.656   6.327
20225SOL     OW62633   7.909   3.128   7.313
20225SOL    HW162634   7.859   3.129   7.227
20225SOL    HW262635   7.846   3.110   7.389
20226SOL     OW62636   8.559   3.638   5.823
20226SOL    HW162637   8.499   3.576   5.873
20226SOL    HW262638   8.590   3.594   5.738
20227SOL     OW62639   7.650   2.147   7.084
20227SOL    HW162640   7.570   2.207   7.071
20227SOL    HW262641   7.640   2.098   7.170
20228SOL     OW62642   0.080   3.239   5.667
20228SOL    HW162643   0.048   3.333   5.657
20228SOL    HW262644   0.004   3.176   5.655
20229SOL     OW62645   8.848   1.969   6.012
20229SOL    HW162646   8.824   1.932   5.922
20229SOL    HW262647   8.947   1.985   6.016
20230SOL     OW62648   7.697   3.647   6.827
20230SOL    HW162649   7.754   3.582   6.877
20230SOL    HW262650   7.681   3.614   6.734
20231SOL     OW62651   8.388   3.560   6.490
20231SOL    HW162652   8.468   3.503   6.511
20231SOL    HW262653   8.339   3.520   6.413
20232SOL     OW62654   7.830   2.562   6.066
20232SOL    HW162655   7.875   2.472   6.063
20232SOL    HW262656   7.736   2.551   6.099
20233SOL     OW62657   8.995   2.084   7.315
20233SOL    HW162658   8.990   2.121   7.407
20233SOL    HW262659   8.923   2.015   7.303
20234SOL     OW62660   8.062   1.984   5.703
20234SOL    HW162661   8.160   1.962   5.710
20234SOL    HW262662   8.031   1.967   5.610
20235SOL     OW62663   8.229   2.126   7.335
20235SOL    HW162664   8.296   2.065   7.378
20235SOL    HW262665   8.156   2.145   7.400
20236SOL     OW62666   8.336   3.376   6.781
20236SOL    HW162667   8.313   3.351   6.687
20236SOL    HW262668   8.397   3.307   6.820
20237SOL     OW62669   8.799   2.452   7.019
20237SOL    HW162670   8.827   2.409   7.104
20237SOL    HW262671   8.824   2.548   7.020
20238SOL     OW62672   8.251   3.264   6.510
20238SOL    HW162673   8.341   3.278   6.468
20238SOL    HW262674   8.180   3.266   6.439
20239SOL     OW62675   8.370   2.365   6.485
20239SOL    HW162676   8.345   2.356   6.389
20239SOL    HW262677   8.418   2.283   6.516
20240SOL     OW62678   7.987   1.926   6.098
20240SOL    HW162679   7.906   1.927   6.156
20240SOL    HW262680   7.990   2.009   6.043
20241SOL     OW62681   8.882   3.050   5.627
20241SOL    HW162682   8.914   2.974   5.684
20241SOL    HW262683   8.790   3.077   5.657
20242SOL     OW62684   7.745   1.897   5.757
20242SOL    HW162685   7.794   1.981   5.736
20242SOL    HW262686   7.807   1.832   5.802
20243SOL     OW62687   8.383   2.098   6.066
20243SOL    HW162688   8.335   2.139   5.988
20243SOL    HW262689   8.482   2.096   6.047
20244SOL     OW62690   8.524   2.545   7.050
20244SOL    HW162691   8.444   2.484   7.053
20244SOL    HW262692   8.605   2.492   7.026
20245SOL     OW62693   8.675   3.432   6.379
20245SOL    HW162694   8.696   3.506   6.314
20245SOL    HW262695   8.743   3.432   6.452
20246SOL     OW62696   7.907   3.014   6.327
20246SOL    HW162697   7.836   2.987   6.392
20246SOL    HW262698   7.881   2.986   6.234
20247SOL     OW62699   8.719   3.659   6.177
20247SOL    HW162700   8.763   3.723   6.113
20247SOL    HW262701   8.669   3.711   6.247
20248SOL     OW62702   8.480   2.411   5.602
20248SOL    HW162703   8.439   2.493   5.563
20248SOL    HW262704   8.544   2.437   5.675
20249SOL     OW62705   7.526   2.418   6.972
20249SOL    HW162706   7.618   2.417   6.931
20249SOL    HW262707   7.520   2.492   7.039
20250SOL     OW62708   8.009   2.084   6.733
20250SOL    HW162709   8.047   2.000   6.770
20250SOL    HW262710   7.921   2.103   6.777
20251SOL     OW62711   8.314   2.316   6.228
20251SOL    HW162712   8.282   2.388   6.166
20251SOL    HW262713   8.338   2.235   6.175
20252SOL     OW62714   8.465   1.901   6.339
20252SOL    HW162715   8.393   1.906   6.270
20252SOL    HW262716   8.441   1.832   6.408
20253SOL     OW62717   8.877   3.035   6.453
20253SOL    HW162718   8.822   2.951   6.446
20253SOL    HW262719   8.903   3.064   6.361
20254SOL     OW62720   8.914   2.452   6.578
20254SOL    HW162721   8.884   2.357   6.585
20254SOL    HW262722   8.987   2.468   6.644
20255SOL     OW62723   7.936   3.247   5.760
20255SOL    HW162724   7.849   3.232   5.807
20255SOL    HW262725   7.919   3.273   5.665
20256SOL     OW62726   0.112   3.142   6.243
20256SOL    HW162727   0.211   3.150   6.257
20256SOL    HW262728   0.067   3.226   6.274
20257SOL     OW62729   8.838   2.437   5.664
20257SOL    HW162730   8.784   2.416   5.745
20257SOL    HW262731   8.929   2.396   5.673
20258SOL     OW62732   7.975   2.118   5.914
20258SOL    HW162733   8.002   2.059   5.839
20258SOL    HW262734   7.975   2.213   5.883
20259SOL     OW62735   8.512   3.209   6.926
20259SOL    HW162736   8.432   3.186   6.981
20259SOL    HW262737   8.595   3.183   6.975
20260SOL     OW62738   0.040   3.491   7.211
20260SOL    HW162739   0.067   3.525   7.121
20260SOL    HW262740   0.119   3.453   7.257
20261SOL     OW62741   8.559   3.057   6.686
20261SOL    HW162742   8.519   3.101   6.767
20261SOL    HW262743   8.518   3.094   6.603
20262SOL     OW62744   0.086   2.961   6.665
20262SOL    HW162745   0.091   3.042   6.724
20262SOL    HW262746   0.000   2.963   6.614
20263SOL     OW62747   8.363   1.951   6.988
20263SOL    HW162748   8.388   1.931   6.893
20263SOL    HW262749   8.435   2.007   7.030
20264SOL     OW62750   8.428   2.978   7.305
20264SOL    HW162751   8.329   2.984   7.315
20264SOL    HW262752   8.451   2.898   7.249
20265SOL     OW62753   8.153   2.912   5.954
20265SOL    HW162754   8.139   2.919   6.053
20265SOL    HW262755   8.237   2.861   5.936
20266SOL     OW62756   7.858   2.675   6.837
20266SOL    HW162757   7.944   2.687   6.887
20266SOL    HW262758   7.816   2.588   6.864
20267SOL     OW62759   8.722   2.248   6.848
20267SOL    HW162760   8.743   2.322   6.912
20267SOL    HW262761   8.633   2.265   6.805
20268SOL     OW62762   7.512   3.426   6.917
20268SOL    HW162763   7.466   3.508   6.883
20268SOL    HW262764   7.610   3.445   6.926
20269SOL     OW62765   7.815   2.962   6.087
20269SOL    HW162766   7.808   3.045   6.031
20269SOL    HW262767   7.819   2.882   6.027
20270SOL     OW62768   8.014   2.399   6.451
20270SOL    HW162769   8.026   2.465   6.377
20270SOL    HW262770   8.060   2.433   6.534
20271SOL     OW62771   8.700   3.210   5.974
20271SOL    HW162772   8.750   3.287   6.014
20271SOL    HW262773   8.605   3.212   6.006
20272SOL     OW62774   8.720   3.307   6.728
20272SOL    HW162775   8.767   3.320   6.815
20272SOL    HW262776   8.654   3.233   6.737
20273SOL     OW62777   0.030   2.501   6.058
20273SOL    HW162778  -0.001   2.562   6.131
20273SOL    HW262779   0.080   2.553   5.989
20274SOL     OW62780   7.802   3.372   6.915
20274SOL    HW162781   7.781   3.328   6.828
20274SOL    HW262782   7.899   3.398   6.918
20275SOL     OW62783   7.850   2.613   7.184
20275SOL    HW162784   7.918   2.668   7.137
20275SOL    HW262785   7.890   2.525   7.211
20276SOL     OW62786   0.035   2.641   7.256
20276SOL    HW162787  -0.057   2.679   7.251
20276SOL    HW262788   0.095   2.688   7.191
20277SOL     OW62789   8.461   1.967   7.356
20277SOL    HW162790   8.467   2.052   7.304
20277SOL    HW262791   8.493   1.891   7.299
20278SOL     OW62792   7.952   1.912   7.326
20278SOL    HW162793   7.910   1.855   7.256
20278SOL    HW262794   7.886   1.981   7.358
20279SOL     OW62795   8.021   2.732   6.615
20279SOL    HW162796   8.065   2.821   6.606
20279SOL    HW262797   7.958   2.732   6.692
20280SOL     OW62798   8.808   2.724   6.631
20280SOL    HW162799   8.733   2.724   6.565
20280SOL    HW262800   8.845   2.632   6.640
20281SOL     OW62801   8.657   2.387   5.861
20281SOL    HW162802   8.670   2.303   5.915
20281SOL    HW262803   8.628   2.461   5.921
20282SOL     OW62804   7.755   2.075   6.817
20282SOL    HW162805   7.732   2.112   6.907
20282SOL    HW262806   7.725   1.980   6.811
20283SOL     OW62807   7.485   3.172   6.868
20283SOL    HW162808   7.538   3.123   6.936
20283SOL    HW262809   7.507   3.270   6.873
20284SOL     OW62810   8.180   2.496   6.650
20284SOL    HW162811   8.239   2.470   6.574
20284SOL    HW262812   8.152   2.592   6.639
20285SOL     OW62813   0.176   2.797   7.440
20285SOL    HW162814   0.130   2.790   7.351
20285SOL    HW262815   0.114   2.841   7.506
20286SOL     OW62816   7.755   1.925   6.204
20286SOL    HW162817   7.744   2.019   6.237
20286SOL    HW262818   7.750   1.862   6.281
20287SOL     OW62819   0.070   2.229   5.960
20287SOL    HW162820   0.072   2.153   6.024
20287SOL    HW262821   0.022   2.306   6.000
20288SOL     OW62822   8.471   2.628   6.552
20288SOL    HW162823   8.486   2.649   6.648
20288SOL    HW262824   8.441   2.533   6.543
20289SOL     OW62825   8.428   3.435   7.286
20289SOL    HW162826   8.408   3.479   7.198
20289SOL    HW262827   8.467   3.344   7.270
20290SOL     OW62828   7.798   2.760   7.390
20290SOL    HW162829   7.874   2.804   7.438
20290SOL    HW262830   7.833   2.713   7.308
20291SOL     OW62831   8.988   2.136   5.711
20291SOL    HW162832   8.927   2.061   5.734
20291SOL    HW262833   9.010   2.188   5.794
20292SOL     OW62834   8.751   2.700   5.628
20292SOL    HW162835   8.785   2.607   5.643
20292SOL    HW262836   8.769   2.727   5.533
20293SOL     OW62837   8.516   3.195   6.435
20293SOL    HW162838   8.523   3.111   6.380
20293SOL    HW262839   8.578   3.264   6.399
20294SOL     OW62840   7.767   2.672   6.535
20294SOL    HW162841   7.860   2.708   6.540
20294SOL    HW262842   7.761   2.587   6.587
20295SOL     OW62843   7.787   2.371   6.592
20295SOL    HW162844   7.735   2.288   6.575
20295SOL    HW262845   7.864   2.376   6.528
20296SOL     OW62846   7.959   2.277   7.394
20296SOL    HW162847   7.941   2.322   7.482
20296SOL    HW262848   8.001   2.342   7.331
20297SOL     OW62849   8.586   2.242   7.264
20297SOL    HW162850   8.541   2.305   7.328
20297SOL    HW262851   8.679   2.273   7.247
20298SOL     OW62852   8.608   2.069   7.063
20298SOL    HW162853   8.608   2.133   7.140
20298SOL    HW262854   8.636   2.117   6.980
20299SOL     OW62855   7.456   3.188   5.786
20299SOL    HW162856   7.363   3.209   5.755
20299SOL    HW262857   7.466   3.089   5.799
20300SOL     OW62858   7.536   3.663   6.513
20300SOL    HW162859   7.494   3.577   6.486
20300SOL    HW262860   7.630   3.666   6.479
20301SOL     OW62861   7.952   3.430   6.496
20301SOL    HW162862   8.018   3.504   6.505
20301SOL    HW262863   7.996   3.351   6.454
20302SOL     OW62864   8.450   2.658   6.824
20302SOL    HW162865   8.491   2.626   6.910
20302SOL    HW262866   8.354   2.631   6.821
20303SOL     OW62867   7.488   2.406   6.700
20303SOL    HW162868   7.573   2.373   6.659
20303SOL    HW262869   7.501   2.421   6.798
20304SOL     OW62870   7.637   2.382   7.308
20304SOL    HW162871   7.696   2.342   7.238
20304SOL    HW262872   7.579   2.453   7.267
20305SOL     OW62873   8.817   2.812   7.246
20305SOL    HW162874   8.856   2.901   7.266
20305SOL    HW262875   8.827   2.792   7.149
20306SOL     OW62876   8.263   2.434   5.911
20306SOL    HW162877   8.270   2.345   5.865
20306SOL    HW262878   8.169   2.468   5.903
20307SOL     OW62879   0.105   2.466   6.792
20307SOL    HW162880   0.067   2.397   6.854
20307SOL    HW262881   0.187   2.430   6.748
20308SOL     OW62882   7.700   3.426   7.330
20308SOL    HW162883   7.670   3.483   7.406
20308SOL    HW262884   7.693   3.329   7.356
20309SOL     OW62885   8.119   2.326   6.855
20309SOL    HW162886   8.085   2.237   6.825
20309SOL    HW262887   8.145   2.380   6.775
20310SOL     OW62888   8.378   3.540   7.051
20310SOL    HW162889   8.354   3.522   6.956
20310SOL    HW262890   8.408   3.634   7.061
20311SOL     OW62891   7.921   2.362   5.777
20311SOL    HW162892   7.982   2.442   5.781
20311SOL    HW262893   7.826   2.393   5.784
20312SOL     OW62894   7.607   2.999   7.052
20312SOL    HW162895   7.629   2.938   7.128
20312SOL    HW262896   7.617   2.950   6.966
20313SOL     OW62897   8.795   2.921   6.820
20313SOL    HW162898   8.819   2.858   6.746
20313SOL    HW262899   8.705   2.961   6.802
20314SOL     OW62900   8.750   2.717   5.895
20314SOL    HW162901   8.664   2.686   5.937
20314SOL    HW262902   8.746   2.703   5.796
20315SOL     OW62903   8.700   3.593   6.714
20315SOL    HW162904   8.784   3.598   6.660
20315SOL    HW262905   8.677   3.497   6.732
20316SOL     OW62906   7.531   3.120   6.608
20316SOL    HW162907   7.526   3.119   6.708
20316SOL    HW262908   7.448   3.079   6.570
20317SOL     OW62909   8.136   3.524   7.302
20317SOL    HW162910   8.080   3.605   7.311
20317SOL    HW262911   8.188   3.528   7.216
20318SOL     OW62912   8.351   1.948   5.719
20318SOL    HW162913   8.402   1.949   5.633
20318SOL    HW262914   8.407   1.906   5.790
20319SOL     OW62915   0.174   1.997   6.109
20319SOL    HW162916   0.247   1.980   6.042
20319SOL    HW262917   0.143   1.910   6.147
20320SOL     OW62918   8.836   3.435   6.063
20320SOL    HW162919   8.903   3.447   5.989
20320SOL    HW262920   8.796   3.524   6.086
20321SOL     OW62921   7.578   3.656   7.437
20321SOL    HW162922   7.537   3.582   7.490
20321SOL    HW262923   7.642   3.707   7.495
20322SOL     OW62924   8.728   2.789   6.258
20322SOL    HW162925   8.788   2.708   6.260
20322SOL    HW262926   8.768   2.858   6.198
20323SOL     OW62927   8.278   3.135   7.008
20323SOL    HW162928   8.273   3.168   7.103
20323SOL    HW262929   8.192   3.154   6.962
20324SOL     OW62930   8.120   3.478   5.740
20324SOL    HW162931   8.129   3.488   5.641
20324SOL    HW262932   8.080   3.389   5.761
20325SOL     OW62933   0.098   3.582   6.980
20325SOL    HW162934   0.151   3.592   6.896
20325SOL    HW262935   0.071   3.672   7.014
20326SOL     OW62936   7.711   2.188   6.306
20326SOL    HW162937   7.632   2.239   6.272
20326SOL    HW262938   7.702   2.173   6.404
20327SOL     OW62939   8.642   3.474   5.617
20327SOL    HW162940   8.648   3.381   5.654
20327SOL    HW262941   8.583   3.474   5.537
20328SOL     OW62942   8.270   2.864   6.958
20328SOL    HW162943   8.310   2.863   6.866
20328SOL    HW262944   8.280   2.956   6.998
20329SOL     OW62945   8.364   2.772   5.877
20329SOL    HW162946   8.427   2.810   5.809
20329SOL    HW262947   8.404   2.689   5.916
20330SOL     OW62948   8.952   3.469   5.630
20330SOL    HW162949   8.860   3.506   5.637
20330SOL    HW262950   8.990   3.489   5.540
20331SOL     OW62951   7.820   3.150   7.076
20331SOL    HW162952   7.807   3.243   7.042
20331SOL    HW262953   7.736   3.098   7.063
20332SOL     OW62954   0.062   3.154   6.875
20332SOL    HW162955   0.122   3.157   6.955
20332SOL    HW262956  -0.013   3.218   6.888
20333SOL     OW62957   8.487   2.960   6.282
20333SOL    HW162958   8.417   2.913   6.336
20333SOL    HW262959   8.546   2.892   6.239
20334SOL     OW62960   8.462   2.098   6.557
20334SOL    HW162961   8.454   2.062   6.464
20334SOL    HW262962   8.460   2.022   6.622
20335SOL     OW62963   8.038   3.349   6.077
20335SOL    HW162964   8.080   3.291   6.007
20335SOL    HW262965   7.994   3.428   6.033
20336SOL     OW62966   0.157   2.247   6.967
20336SOL    HW162967   0.230   2.316   6.971
20336SOL    HW262968   0.185   2.172   6.908
20337SOL     OW62969   7.703   3.210   5.876
20337SOL    HW162970   7.607   3.211   5.849
20337SOL    HW262971   7.715   3.263   5.960
20338SOL     OW62972   7.553   2.875   7.312
20338SOL    HW162973   7.476   2.842   7.366
20338SOL    HW262974   7.638   2.845   7.354
20339SOL     OW62975   8.120   2.065   7.075
20339SOL    HW162976   8.210   2.049   7.035
20339SOL    HW262977   8.128   2.070   7.174
20340SOL     OW62978   7.523   2.207   5.619
20340SOL    HW162979   7.431   2.179   5.590
20340SOL    HW262980   7.554   2.284   5.563
20341SOL     OW62981   8.888   2.718   6.984
20341SOL    HW162982   8.831   2.770   6.921
20341SOL    HW262983   8.984   2.730   6.960
20342SOL     OW62984   7.520   2.028   5.904
20342SOL    HW162985   7.503   2.111   5.850
20342SOL    HW262986   7.610   1.991   5.882
20343SOL     OW62987   8.631   3.197   5.705
20343SOL    HW162988   8.532   3.186   5.707
20343SOL    HW262989   8.665   3.212   5.798
20344SOL     OW62990   8.061   2.704   7.017
20344SOL    HW162991   8.117   2.785   7.000
20344SOL    HW262992   8.120   2.624   7.020
20345SOL     OW62993   8.941   3.629   6.545
20345SOL    HW162994   8.974   3.693   6.476
20345SOL    HW262995   9.007   3.623   6.620
20346SOL     OW62996   8.164   2.427   7.294
20346SOL    HW162997   8.183   2.492   7.368
20346SOL    HW262998   8.224   2.347   7.303
20347SOL     OW62999   8.898   3.082   7.219
20347SOL    HW163000   8.889   3.072   7.318
20347SOL    HW263001   8.994   3.075   7.193
20348SOL     OW63002   7.838   3.603   7.146
20348SOL    HW163003   7.747   3.644   7.144
20348SOL    HW263004   7.831   3.509   7.178
20349SOL     OW63005   0.122   2.745   6.840
20349SOL    HW163006   0.095   2.656   6.803
20349SOL    HW263007   0.123   2.813   6.767
20350SOL     OW63008   8.673   2.187   6.035
20350SOL    HW163009   8.738   2.113   6.024
20350SOL    HW263010   8.693   2.237   6.119
20351SOL     OW63011   8.042   2.607   6.238
20351SOL    HW163012   8.092   2.692   6.219
20351SOL    HW263013   7.954   2.609   6.190
20352SOL     OW63014   0.225   2.204   7.228
20352SOL    HW163015   0.208   2.235   7.134
20352SOL    HW263016   0.141   2.167   7.266
20353SOL     OW63017   0.178   2.796   7.103
20353SOL    HW163018   0.216   2.887   7.118
20353SOL    HW263019   0.170   2.779   7.004
20354SOL     OW63020   8.307   3.236   5.602
20354SOL    HW163021   8.261   3.251   5.690
20354SOL    HW263022   8.351   3.321   5.572
20355SOL     OW63023   8.109   3.652   6.539
20355SOL    HW163024   8.063   3.740   6.526
20355SOL    HW263025   8.208   3.664   6.532
20356SOL     OW63026   8.307   2.818   6.447
20356SOL    HW163027   8.361   2.749   6.495
20356SOL    HW263028   8.275   2.887   6.513
20357SOL     OW63029   8.531   2.846   5.673
20357SOL    HW163030   8.508   2.899   5.591
20357SOL    HW263031   8.612   2.790   5.654
20358SOL     OW63032   7.669   3.176   7.430
20358SOL    HW163033   7.604   3.103   7.409
20358SOL    HW263034   7.673   3.190   7.528
20359SOL     OW63035   7.527   3.102   6.239
20359SOL    HW163036   7.526   3.055   6.327
20359SOL    HW263037   7.609   3.074   6.188
20360SOL     OW63038   8.120   3.253   7.210
20360SOL    HW163039   8.042   3.203   7.248
20360SOL    HW263040   8.117   3.348   7.241
20361SOL     OW63041   7.876   2.286   6.106
20361SOL    HW163042   7.906   2.214   6.044
20361SOL    HW263043   7.837   2.246   6.189
20362SOL     OW63044   0.153   3.349   6.690
20362SOL    HW163045   0.060   3.324   6.663
20362SOL    HW263046   0.179   3.299   6.772
20363SOL     OW63047   7.765   2.409   6.866
20363SOL    HW163048   7.803   2.350   6.938
20363SOL    HW263049   7.805   2.383   6.778
20364SOL     OW63050   8.260   3.448   6.273
20364SOL    HW163051   8.292   3.458   6.179
20364SOL    HW263052   8.181   3.386   6.275
20365SOL     OW63053   8.872   2.076   6.698
20365SOL    HW163054   8.924   2.011   6.753
20365SOL    HW263055   8.823   2.139   6.759
20366SOL     OW63056   8.449   1.896   6.740
20366SOL    HW163057   8.386   1.824   6.709
20366SOL    HW263058   8.542   1.860   6.740
20367SOL     OW63059   8.218   3.192   5.887
20367SOL    HW163060   8.172   3.105   5.904
20367SOL    HW263061   8.309   3.189   5.928
20368SOL     OW63062   8.066   3.429   6.870
20368SOL    HW163063   8.061   3.511   6.927
20368SOL    HW263064   8.155   3.426   6.825
20369SOL     OW63065   8.800   1.914   5.754
20369SOL    HW163066   8.835   1.873   5.670
20369SOL    HW263067   8.710   1.876   5.774
20370SOL     OW63068   8.748   2.315   6.277
20370SOL    HW163069   8.689   2.395   6.281
20370SOL    HW263070   8.763   2.280   6.370
20371SOL     OW63071   0.041   2.083   6.468
20371SOL    HW163072  -0.043   2.082   6.522
20371SOL    HW263073   0.043   2.166   6.412
20372SOL     OW63074   7.487   2.939   5.886
20372SOL    HW163075   7.586   2.928   5.877
20372SOL    HW263076   7.447   2.853   5.918
20373SOL     OW63077   8.323   3.508   5.923
20373SOL    HW163078   8.246   3.473   5.869
20373SOL    HW263079   8.291   3.579   5.985
20374SOL     OW63080   7.678   2.490   7.561
20374SOL    HW163081   7.585   2.488   7.598
20374SOL    HW263082   7.679   2.451   7.469
20375SOL     OW63083   7.673   2.137   8.444
20375SOL    HW163084   7.708   2.120   8.536
20375SOL    HW263085   7.585   2.092   8.432
20376SOL     OW63086   7.467   2.230   8.095
20376SOL    HW163087   7.385   2.273   8.134
20376SOL    HW263088   7.439   2.157   8.032
20377SOL     OW63089   8.017   3.137   8.613
20377SOL    HW163090   7.924   3.130   8.576
20377SOL    HW263091   8.028   3.226   8.657
20378SOL     OW63092   0.003   3.373   8.151
20378SOL    HW163093  -0.054   3.357   8.232
20378SOL    HW263094  -0.056   3.383   8.071
20379SOL     OW63095   0.191   2.480   8.304
20379SOL    HW163096   0.224   2.574   8.304
20379SOL    HW263097   0.242   2.426   8.370
20380SOL     OW63098   8.583   2.565   8.165
20380SOL    HW163099   8.640   2.643   8.140
20380SOL    HW263100   8.523   2.591   8.241
20381SOL     OW63101   0.203   2.469   7.679
20381SOL    HW163102   0.191   2.456   7.580
20381SOL    HW263103   0.173   2.388   7.728
20382SOL     OW63104   8.216   3.006   8.471
20382SOL    HW163105   8.138   3.023   8.531
20382SOL    HW263106   8.250   3.093   8.435
20383SOL     OW63107   8.133   2.874   8.113
20383SOL    HW163108   8.202   2.858   8.183
20383SOL    HW263109   8.060   2.931   8.151
20384SOL     OW63110   7.783   3.297   8.509
20384SOL    HW163111   7.705   3.266   8.456
20384SOL    HW263112   7.841   3.355   8.452
20385SOL     OW63113   8.908   3.367   8.787
20385SOL    HW163114   8.932   3.461   8.813
20385SOL    HW263115   8.892   3.313   8.869
20386SOL     OW63116   7.886   2.254   8.947
20386SOL    HW163117   7.968   2.198   8.956
20386SOL    HW263118   7.805   2.196   8.951
20387SOL     OW63119   7.679   3.575   7.931
20387SOL    HW163120   7.713   3.652   7.985
20387SOL    HW263121   7.723   3.575   7.841
20388SOL     OW63122   7.678   3.296   7.986
20388SOL    HW163123   7.652   3.392   7.986
20388SOL    HW263124   7.607   3.242   8.031
20389SOL     OW63125   7.688   2.953   8.334
20389SOL    HW163126   7.702   2.869   8.386
20389SOL    HW263127   7.633   3.017   8.389
20390SOL     OW63128   8.068   3.648   8.887
20390SOL    HW163129   7.976   3.631   8.922
20390SOL    HW263130   8.096   3.740   8.913
20391SOL     OW63131   8.054   2.826   7.571
20391SOL    HW163132   8.061   2.910   7.517
20391SOL    HW263133   8.100   2.839   7.659
20392SOL     OW63134   0.042   1.976   8.928
20392SOL    HW163135   0.024   2.043   8.856
20392SOL    HW263136   0.039   2.022   9.017
20393SOL     OW63137   7.570   2.505   8.011
20393SOL    HW163138   7.525   2.417   8.028
20393SOL    HW263139   7.569   2.559   8.095
20394SOL     OW63140   7.475   3.458   7.565
20394SOL    HW163141   7.456   3.362   7.586
20394SOL    HW263142   7.442   3.516   7.640
20395SOL     OW63143   0.137   2.784   8.060
20395SOL    HW163144   0.232   2.755   8.068
20395SOL    HW263145   0.129   2.849   7.985
20396SOL     OW63146   0.089   2.970   7.880
20396SOL    HW163147   0.175   2.972   7.828
20396SOL    HW263148   0.103   3.017   7.968
20397SOL     OW63149   8.061   3.227   8.174
20397SOL    HW163150   8.012   3.140   8.183
20397SOL    HW263151   8.038   3.270   8.087
20398SOL     OW63152   8.257   1.866   7.950
20398SOL    HW163153   8.297   1.957   7.941
20398SOL    HW263154   8.157   1.874   7.956
20399SOL     OW63155   7.645   2.838   8.712
20399SOL    HW163156   7.734   2.793   8.698
20399SOL    HW263157   7.572   2.773   8.693
20400SOL     OW63158   8.973   2.861   7.638
20400SOL    HW163159   8.910   2.785   7.651
20400SOL    HW263160   9.021   2.879   7.724
20401SOL     OW63161   8.914   3.279   8.401
20401SOL    HW163162   8.855   3.285   8.481
20401SOL    HW263163   8.899   3.191   8.355
20402SOL     OW63164   0.115   3.576   8.020
20402SOL    HW163165   0.074   3.553   7.932
20402SOL    HW263166   0.097   3.502   8.085
20403SOL     OW63167   8.046   2.591   7.718
20403SOL    HW163168   8.070   2.660   7.650
20403SOL    HW263169   7.968   2.624   7.772
20404SOL     OW63170   8.729   2.207   8.392
20404SOL    HW163171   8.643   2.157   8.379
20404SOL    HW263172   8.791   2.153   8.448
20405SOL     OW63173   0.024   3.524   7.755
20405SOL    HW163174   0.113   3.570   7.758
20405SOL    HW263175   0.003   3.500   7.660
20406SOL     OW63176   8.255   2.467   8.913
20406SOL    HW163177   8.208   2.464   9.002
20406SOL    HW263178   8.204   2.412   8.847
20407SOL     OW63179   8.439   2.272   8.690
20407SOL    HW163180   8.362   2.306   8.744
20407SOL    HW263181   8.405   2.221   8.611
20408SOL     OW63182   8.489   2.563   7.877
20408SOL    HW163183   8.515   2.559   7.973
20408SOL    HW263184   8.404   2.512   7.863
20409SOL     OW63185   7.524   2.673   8.237
20409SOL    HW163186   7.623   2.661   8.246
20409SOL    HW263187   7.500   2.768   8.258
20410SOL     OW63188   7.578   3.683   0.019
20410SOL    HW163189   7.568   3.668   0.118
20410SOL    HW263190   7.492   3.719  -0.017
20411SOL     OW63191   8.313   2.210   7.643
20411SOL    HW163192   8.372   2.273   7.594
20411SOL    HW263193   8.332   2.116   7.614
20412SOL     OW63194   8.810   3.006   7.993
20412SOL    HW163195   8.893   2.977   7.945
20412SOL    HW263196   8.761   3.073   7.937
20413SOL     OW63197   7.998   2.058   8.333
20413SOL    HW163198   7.993   2.053   8.433
20413SOL    HW263199   8.000   2.154   8.304
20414SOL     OW63200   8.456   3.318   7.925
20414SOL    HW163201   8.410   3.390   7.873
20414SOL    HW263202   8.452   3.338   8.023
20415SOL     OW63203   7.799   3.663   8.301
20415SOL    HW163204   7.849   3.577   8.307
20415SOL    HW263205   7.864   3.740   8.298
20416SOL     OW63206   0.243   2.928   8.321
20416SOL    HW163207   0.181   2.913   8.245
20416SOL    HW263208   0.191   2.939   8.406
20417SOL     OW63209   7.769   2.805   7.690
20417SOL    HW163210   7.851   2.844   7.648
20417SOL    HW263211   7.742   2.723   7.641
20418SOL     OW63212   8.906   2.597   8.176
20418SOL    HW163213   8.901   2.532   8.251
20418SOL    HW263214   8.986   2.656   8.189
20419SOL     OW63215   8.559   3.638   7.685
20419SOL    HW163216   8.499   3.576   7.735
20419SOL    HW263217   8.590   3.594   7.600
20420SOL     OW63218   7.650   2.147   8.946
20420SOL    HW163219   7.570   2.207   8.933
20420SOL    HW263220   7.640   2.098   9.032
20421SOL     OW63221   0.080   3.239   7.529
20421SOL    HW163222   0.048   3.333   7.519
20421SOL    HW263223   0.004   3.176   7.517
20422SOL     OW63224   7.912   3.605   7.771
20422SOL    HW163225   7.945   3.644   7.857
20422SOL    HW263226   7.988   3.598   7.706
20423SOL     OW63227   8.848   1.969   7.874
20423SOL    HW163228   8.824   1.932   7.784
20423SOL    HW263229   8.947   1.985   7.878
20424SOL     OW63230   7.697   3.647   8.689
20424SOL    HW163231   7.754   3.582   8.739
20424SOL    HW263232   7.681   3.614   8.596
20425SOL     OW63233   8.388   3.560   8.352
20425SOL    HW163234   8.468   3.503   8.373
20425SOL    HW263235   8.339   3.520   8.275
20426SOL     OW63236   7.830   2.562   7.928
20426SOL    HW163237   7.875   2.472   7.925
20426SOL    HW263238   7.736   2.551   7.961
20427SOL     OW63239   8.062   1.984   7.565
20427SOL    HW163240   8.160   1.962   7.572
20427SOL    HW263241   8.031   1.967   7.472
20428SOL     OW63242   8.336   3.376   8.643
20428SOL    HW163243   8.313   3.351   8.549
20428SOL    HW263244   8.397   3.307   8.682
20429SOL     OW63245   8.251   3.264   8.372
20429SOL    HW163246   8.341   3.278   8.330
20429SOL    HW263247   8.180   3.266   8.301
20430SOL     OW63248   8.370   2.365   8.347
20430SOL    HW163249   8.345   2.356   8.251
20430SOL    HW263250   8.418   2.283   8.378
20431SOL     OW63251   7.987   1.926   7.960
20431SOL    HW163252   7.906   1.927   8.018
20431SOL    HW263253   7.990   2.009   7.905
20432SOL     OW63254   8.882   3.050   7.489
20432SOL    HW163255   8.914   2.974   7.546
20432SOL    HW263256   8.790   3.077   7.519
20433SOL     OW63257   7.745   1.897   7.619
20433SOL    HW163258   7.794   1.981   7.598
20433SOL    HW263259   7.807   1.832   7.664
20434SOL     OW63260   8.383   2.098   7.928
20434SOL    HW163261   8.335   2.139   7.850
20434SOL    HW263262   8.482   2.096   7.909
20435SOL     OW63263   8.675   3.432   8.241
20435SOL    HW163264   8.696   3.506   8.176
20435SOL    HW263265   8.743   3.432   8.314
20436SOL     OW63266   7.907   3.014   8.189
20436SOL    HW163267   7.836   2.987   8.254
20436SOL    HW263268   7.881   2.986   8.096
20437SOL     OW63269   8.719   3.659   8.039
20437SOL    HW163270   8.763   3.723   7.975
20437SOL    HW263271   8.669   3.711   8.109
20438SOL     OW63272   8.480   2.411   7.464
20438SOL    HW163273   8.439   2.493   7.425
20438SOL    HW263274   8.544   2.437   7.537
20439SOL     OW63275   7.526   2.418   8.834
20439SOL    HW163276   7.618   2.417   8.793
20439SOL    HW263277   7.520   2.492   8.901
20440SOL     OW63278   8.009   2.084   8.595
20440SOL    HW163279   8.047   2.000   8.632
20440SOL    HW263280   7.921   2.103   8.639
20441SOL     OW63281   8.314   2.316   8.090
20441SOL    HW163282   8.282   2.388   8.028
20441SOL    HW263283   8.338   2.235   8.037
20442SOL     OW63284   8.465   1.901   8.201
20442SOL    HW163285   8.393   1.906   8.132
20442SOL    HW263286   8.441   1.832   8.270
20443SOL     OW63287   8.877   3.035   8.315
20443SOL    HW163288   8.822   2.951   8.308
20443SOL    HW263289   8.903   3.064   8.223
20444SOL     OW63290   8.914   2.452   8.440
20444SOL    HW163291   8.884   2.357   8.447
20444SOL    HW263292   8.987   2.468   8.506
20445SOL     OW63293   7.936   3.247   7.622
20445SOL    HW163294   7.849   3.232   7.669
20445SOL    HW263295   7.919   3.273   7.527
20446SOL     OW63296   0.112   3.142   8.105
20446SOL    HW163297   0.211   3.150   8.119
20446SOL    HW263298   0.067   3.226   8.136
20447SOL     OW63299   8.838   2.437   7.526
20447SOL    HW163300   8.784   2.416   7.607
20447SOL    HW263301   8.929   2.396   7.535
20448SOL     OW63302   7.975   2.118   7.776
20448SOL    HW163303   8.002   2.059   7.701
20448SOL    HW263304   7.975   2.213   7.745
20449SOL     OW63305   8.512   3.209   8.788
20449SOL    HW163306   8.432   3.186   8.843
20449SOL    HW263307   8.595   3.183   8.837
20450SOL     OW63308   8.559   3.057   8.548
20450SOL    HW163309   8.519   3.101   8.629
20450SOL    HW263310   8.518   3.094   8.465
20451SOL     OW63311   0.086   2.961   8.527
20451SOL    HW163312   0.091   3.042   8.586
20451SOL    HW263313   0.000   2.963   8.476
20452SOL     OW63314   8.363   1.951   8.850
20452SOL    HW163315   8.388   1.931   8.755
20452SOL    HW263316   8.435   2.007   8.892
20453SOL     OW63317   8.153   2.912   7.816
20453SOL    HW163318   8.139   2.919   7.915
20453SOL    HW263319   8.237   2.861   7.798
20454SOL     OW63320   7.858   2.675   8.699
20454SOL    HW163321   7.944   2.687   8.749
20454SOL    HW263322   7.816   2.588   8.726
20455SOL     OW63323   8.722   2.248   8.710
20455SOL    HW163324   8.743   2.322   8.774
20455SOL    HW263325   8.633   2.265   8.667
20456SOL     OW63326   7.512   3.426   8.779
20456SOL    HW163327   7.466   3.508   8.745
20456SOL    HW263328   7.610   3.445   8.788
20457SOL     OW63329   7.815   2.962   7.949
20457SOL    HW163330   7.808   3.045   7.893
20457SOL    HW263331   7.819   2.882   7.889
20458SOL     OW63332   8.014   2.399   8.313
20458SOL    HW163333   8.026   2.465   8.239
20458SOL    HW263334   8.060   2.433   8.396
20459SOL     OW63335   8.700   3.210   7.836
20459SOL    HW163336   8.750   3.287   7.876
20459SOL    HW263337   8.605   3.212   7.868
20460SOL     OW63338   8.720   3.307   8.590
20460SOL    HW163339   8.767   3.320   8.677
20460SOL    HW263340   8.654   3.233   8.599
20461SOL     OW63341   0.030   2.501   7.920
20461SOL    HW163342  -0.001   2.562   7.993
20461SOL    HW263343   0.080   2.553   7.851
20462SOL     OW63344   7.802   3.372   8.777
20462SOL    HW163345   7.781   3.328   8.690
20462SOL    HW263346   7.899   3.398   8.780
20463SOL     OW63347   7.850   2.613   0.046
20463SOL    HW163348   7.918   2.668  -0.001
20463SOL    HW263349   7.890   2.525   0.073
20464SOL     OW63350   0.035   2.641   0.118
20464SOL    HW163351  -0.057   2.679   0.113
20464SOL    HW263352   0.095   2.688   0.053
20465SOL     OW63353   8.021   2.732   8.477
20465SOL    HW163354   8.065   2.821   8.468
20465SOL    HW263355   7.958   2.732   8.554
20466SOL     OW63356   8.808   2.724   8.493
20466SOL    HW163357   8.733   2.724   8.427
20466SOL    HW263358   8.845   2.632   8.502
20467SOL     OW63359   8.657   2.387   7.723
20467SOL    HW163360   8.670   2.303   7.777
20467SOL    HW263361   8.628   2.461   7.783
20468SOL     OW63362   7.755   2.075   8.679
20468SOL    HW163363   7.732   2.112   8.769
20468SOL    HW263364   7.725   1.980   8.673
20469SOL     OW63365   7.485   3.172   8.730
20469SOL    HW163366   7.538   3.123   8.798
20469SOL    HW263367   7.507   3.270   8.735
20470SOL     OW63368   8.180   2.496   8.512
20470SOL    HW163369   8.239   2.470   8.436
20470SOL    HW263370   8.152   2.592   8.501
20471SOL     OW63371   7.755   1.925   8.066
20471SOL    HW163372   7.744   2.019   8.099
20471SOL    HW263373   7.750   1.862   8.143
20472SOL     OW63374   0.070   2.229   7.822
20472SOL    HW163375   0.072   2.153   7.886
20472SOL    HW263376   0.022   2.306   7.862
20473SOL     OW63377   8.471   2.628   8.414
20473SOL    HW163378   8.486   2.649   8.510
20473SOL    HW263379   8.441   2.533   8.405
20474SOL     OW63380   8.428   3.435   0.148
20474SOL    HW163381   8.408   3.479   0.060
20474SOL    HW263382   8.467   3.344   0.132
20475SOL     OW63383   8.988   2.136   7.573
20475SOL    HW163384   8.927   2.061   7.596
20475SOL    HW263385   9.010   2.188   7.656
20476SOL     OW63386   8.751   2.700   7.490
20476SOL    HW163387   8.785   2.607   7.505
20476SOL    HW263388   8.769   2.727   7.395
20477SOL     OW63389   8.516   3.195   8.297
20477SOL    HW163390   8.523   3.111   8.242
20477SOL    HW263391   8.578   3.264   8.261
20478SOL     OW63392   7.767   2.672   8.397
20478SOL    HW163393   7.860   2.708   8.402
20478SOL    HW263394   7.761   2.587   8.449
20479SOL     OW63395   7.787   2.371   8.454
20479SOL    HW163396   7.735   2.288   8.437
20479SOL    HW263397   7.864   2.376   8.390
20480SOL     OW63398   8.586   2.242   0.126
20480SOL    HW163399   8.541   2.305   0.190
20480SOL    HW263400   8.679   2.273   0.109
20481SOL     OW63401   8.608   2.069   8.925
20481SOL    HW163402   8.608   2.133   9.002
20481SOL    HW263403   8.636   2.117   8.842
20482SOL     OW63404   7.456   3.188   7.648
20482SOL    HW163405   7.363   3.209   7.617
20482SOL    HW263406   7.466   3.089   7.661
20483SOL     OW63407   7.536   3.663   8.375
20483SOL    HW163408   7.494   3.577   8.348
20483SOL    HW263409   7.630   3.666   8.341
20484SOL     OW63410   7.952   3.430   8.358
20484SOL    HW163411   8.018   3.504   8.367
20484SOL    HW263412   7.996   3.351   8.316
20485SOL     OW63413   8.450   2.658   8.686
20485SOL    HW163414   8.491   2.626   8.772
20485SOL    HW263415   8.354   2.631   8.683
20486SOL     OW63416   7.488   2.406   8.562
20486SOL    HW163417   7.573   2.373   8.521
20486SOL    HW263418   7.501   2.421   8.660
20487SOL     OW63419   8.263   2.434   7.773
20487SOL    HW163420   8.270   2.345   7.727
20487SOL    HW263421   8.169   2.468   7.765
20488SOL     OW63422   0.105   2.466   8.654
20488SOL    HW163423   0.067   2.397   8.716
20488SOL    HW263424   0.187   2.430   8.610
20489SOL     OW63425   8.119   2.326   8.717
20489SOL    HW163426   8.085   2.237   8.687
20489SOL    HW263427   8.145   2.380   8.637
20490SOL     OW63428   8.378   3.540   8.913
20490SOL    HW163429   8.354   3.522   8.818
20490SOL    HW263430   8.408   3.634   8.923
20491SOL     OW63431   7.921   2.362   7.639
20491SOL    HW163432   7.982   2.442   7.643
20491SOL    HW263433   7.826   2.393   7.646
20492SOL     OW63434   7.607   2.999   8.914
20492SOL    HW163435   7.629   2.938   8.990
20492SOL    HW263436   7.617   2.950   8.828
20493SOL     OW63437   8.795   2.921   8.682
20493SOL    HW163438   8.819   2.858   8.608
20493SOL    HW263439   8.705   2.961   8.664
20494SOL     OW63440   8.750   2.717   7.757
20494SOL    HW163441   8.664   2.686   7.799
20494SOL    HW263442   8.746   2.703   7.658
20495SOL     OW63443   8.700   3.593   8.576
20495SOL    HW163444   8.784   3.598   8.522
20495SOL    HW263445   8.677   3.497   8.594
20496SOL     OW63446   7.531   3.120   8.470
20496SOL    HW163447   7.526   3.119   8.570
20496SOL    HW263448   7.448   3.079   8.432
20497SOL     OW63449   8.351   1.948   7.581
20497SOL    HW163450   8.402   1.949   7.495
20497SOL    HW263451   8.407   1.906   7.652
20498SOL     OW63452   0.174   1.997   7.971
20498SOL    HW163453   0.247   1.980   7.904
20498SOL    HW263454   0.143   1.910   8.009
20499SOL     OW63455   8.836   3.435   7.925
20499SOL    HW163456   8.903   3.447   7.851
20499SOL    HW263457   8.796   3.524   7.948
20500SOL     OW63458   8.728   2.789   8.120
20500SOL    HW163459   8.788   2.708   8.122
20500SOL    HW263460   8.768   2.858   8.060
20501SOL     OW63461   8.120   3.478   7.602
20501SOL    HW163462   8.129   3.488   7.503
20501SOL    HW263463   8.080   3.389   7.623
20502SOL     OW63464   0.098   3.582   8.842
20502SOL    HW163465   0.151   3.592   8.758
20502SOL    HW263466   0.071   3.672   8.876
20503SOL     OW63467   7.711   2.188   8.168
20503SOL    HW163468   7.632   2.239   8.134
20503SOL    HW263469   7.702   2.173   8.266
20504SOL     OW63470   8.642   3.474   7.479
20504SOL    HW163471   8.648   3.381   7.516
20504SOL    HW263472   8.583   3.474   7.399
20505SOL     OW63473   8.270   2.864   8.820
20505SOL    HW163474   8.310   2.863   8.728
20505SOL    HW263475   8.280   2.956   8.860
20506SOL     OW63476   8.364   2.772   7.739
20506SOL    HW163477   8.427   2.810   7.671
20506SOL    HW263478   8.404   2.689   7.778
20507SOL     OW63479   8.952   3.469   7.492
20507SOL    HW163480   8.860   3.506   7.499
20507SOL    HW263481   8.990   3.489   7.402
20508SOL     OW63482   7.820   3.150   8.938
20508SOL    HW163483   7.807   3.243   8.904
20508SOL    HW263484   7.736   3.098   8.925
20509SOL     OW63485   0.062   3.154   8.737
20509SOL    HW163486   0.122   3.157   8.817
20509SOL    HW263487  -0.013   3.218   8.750
20510SOL     OW63488   8.487   2.960   8.144
20510SOL    HW163489   8.417   2.913   8.198
20510SOL    HW263490   8.546   2.892   8.101
20511SOL     OW63491   8.462   2.098   8.419
20511SOL    HW163492   8.454   2.062   8.326
20511SOL    HW263493   8.460   2.022   8.484
20512SOL     OW63494   8.038   3.349   7.939
20512SOL    HW163495   8.080   3.291   7.869
20512SOL    HW263496   7.994   3.428   7.895
20513SOL     OW63497   0.157   2.247   8.829
20513SOL    HW163498   0.230   2.316   8.833
20513SOL    HW263499   0.185   2.172   8.770
20514SOL     OW63500   7.703   3.210   7.738
20514SOL    HW163501   7.607   3.211   7.711
20514SOL    HW263502   7.715   3.263   7.822
20515SOL     OW63503   7.523   2.207   7.481
20515SOL    HW163504   7.431   2.179   7.452
20515SOL    HW263505   7.554   2.284   7.425
20516SOL     OW63506   8.888   2.718   8.846
20516SOL    HW163507   8.831   2.770   8.783
20516SOL    HW263508   8.984   2.730   8.822
20517SOL     OW63509   7.520   2.028   7.766
20517SOL    HW163510   7.503   2.111   7.712
20517SOL    HW263511   7.610   1.991   7.744
20518SOL     OW63512   8.631   3.197   7.567
20518SOL    HW163513   8.532   3.186   7.569
20518SOL    HW263514   8.665   3.212   7.660
20519SOL     OW63515   8.061   2.704   8.879
20519SOL    HW163516   8.117   2.785   8.862
20519SOL    HW263517   8.120   2.624   8.882
20520SOL     OW63518   8.941   3.629   8.407
20520SOL    HW163519   8.974   3.693   8.338
20520SOL    HW263520   9.007   3.623   8.482
20521SOL     OW63521   7.838   3.603   0.008
20521SOL    HW163522   7.747   3.644   0.006
20521SOL    HW263523   7.831   3.509   0.040
20522SOL     OW63524   0.122   2.745   8.702
20522SOL    HW163525   0.095   2.656   8.665
20522SOL    HW263526   0.123   2.813   8.629
20523SOL     OW63527   8.673   2.187   7.897
20523SOL    HW163528   8.738   2.113   7.886
20523SOL    HW263529   8.693   2.237   7.981
20524SOL     OW63530   8.042   2.607   8.100
20524SOL    HW163531   8.092   2.692   8.081
20524SOL    HW263532   7.954   2.609   8.052
20525SOL     OW63533   0.225   2.204   0.090
20525SOL    HW163534   0.208   2.235  -0.004
20525SOL    HW263535   0.141   2.167   0.128
20526SOL     OW63536   0.178   2.796   8.965
20526SOL    HW163537   0.216   2.887   8.980
20526SOL    HW263538   0.170   2.779   8.866
20527SOL     OW63539   8.307   3.236   7.464
20527SOL    HW163540   8.261   3.251   7.552
20527SOL    HW263541   8.351   3.321   7.434
20528SOL     OW63542   8.109   3.652   8.401
20528SOL    HW163543   8.063   3.740   8.388
20528SOL    HW263544   8.208   3.664   8.394
20529SOL     OW63545   8.856   3.713   0.168
20529SOL    HW163546   8.760   3.702   0.141
20529SOL    HW263547   8.912   3.646   0.120
20530SOL     OW63548   8.307   2.818   8.309
20530SOL    HW163549   8.361   2.749   8.357
20530SOL    HW263550   8.275   2.887   8.375
20531SOL     OW63551   8.531   2.846   7.535
20531SOL    HW163552   8.508   2.899   7.453
20531SOL    HW263553   8.612   2.790   7.516
20532SOL     OW63554   7.527   3.102   8.101
20532SOL    HW163555   7.526   3.055   8.189
20532SOL    HW263556   7.609   3.074   8.050
20533SOL     OW63557   7.876   2.286   7.968
20533SOL    HW163558   7.906   2.214   7.906
20533SOL    HW263559   7.837   2.246   8.051
20534SOL     OW63560   0.153   3.349   8.552
20534SOL    HW163561   0.060   3.324   8.525
20534SOL    HW263562   0.179   3.299   8.634
20535SOL     OW63563   7.765   2.409   8.728
20535SOL    HW163564   7.803   2.350   8.800
20535SOL    HW263565   7.805   2.383   8.640
20536SOL     OW63566   8.260   3.448   8.135
20536SOL    HW163567   8.292   3.458   8.041
20536SOL    HW263568   8.181   3.386   8.137
20537SOL     OW63569   8.872   2.076   8.560
20537SOL    HW163570   8.924   2.011   8.615
20537SOL    HW263571   8.823   2.139   8.621
20538SOL     OW63572   8.449   1.896   8.602
20538SOL    HW163573   8.386   1.824   8.571
20538SOL    HW263574   8.542   1.860   8.602
20539SOL     OW63575   8.218   3.192   7.749
20539SOL    HW163576   8.172   3.105   7.766
20539SOL    HW263577   8.309   3.189   7.790
20540SOL     OW63578   8.066   3.429   8.732
20540SOL    HW163579   8.061   3.511   8.789
20540SOL    HW263580   8.155   3.426   8.687
20541SOL     OW63581   8.800   1.914   7.616
20541SOL    HW163582   8.835   1.873   7.532
20541SOL    HW263583   8.710   1.876   7.636
20542SOL     OW63584   8.748   2.315   8.139
20542SOL    HW163585   8.689   2.395   8.143
20542SOL    HW263586   8.763   2.280   8.232
20543SOL     OW63587   0.041   2.083   8.330
20543SOL    HW163588  -0.043   2.082   8.384
20543SOL    HW263589   0.043   2.166   8.274
20544SOL     OW63590   7.487   2.939   7.748
20544SOL    HW163591   7.586   2.928   7.739
20544SOL    HW263592   7.447   2.853   7.780
20545SOL     OW63593   8.323   3.508   7.785
20545SOL    HW163594   8.246   3.473   7.731
20545SOL    HW263595   8.291   3.579   7.847
20546SOL     OW63596   7.678   4.352   0.113
20546SOL    HW163597   7.585   4.350   0.150
20546SOL    HW263598   7.679   4.313   0.021
20547SOL     OW63599   7.467   4.092   0.647
20547SOL    HW163600   7.385   4.135   0.686
20547SOL    HW263601   7.439   4.019   0.584
20548SOL     OW63602   8.017   4.999   1.165
20548SOL    HW163603   7.924   4.992   1.128
20548SOL    HW263604   8.028   5.088   1.209
20549SOL     OW63605   0.003   5.235   0.703
20549SOL    HW163606  -0.054   5.219   0.784
20549SOL    HW263607  -0.056   5.245   0.623
20550SOL     OW63608   0.191   4.342   0.856
20550SOL    HW163609   0.224   4.436   0.856
20550SOL    HW263610   0.242   4.288   0.922
20551SOL     OW63611   8.583   4.427   0.717
20551SOL    HW163612   8.640   4.505   0.692
20551SOL    HW263613   8.523   4.453   0.793
20552SOL     OW63614   0.203   4.331   0.231
20552SOL    HW163615   0.191   4.318   0.132
20552SOL    HW263616   0.173   4.250   0.280
20553SOL     OW63617   8.216   4.868   1.023
20553SOL    HW163618   8.138   4.885   1.083
20553SOL    HW263619   8.250   4.955   0.987
20554SOL     OW63620   8.298   4.522   1.823
20554SOL    HW163621   8.294   4.598   1.888
20554SOL    HW263622   8.320   4.558   1.732
20555SOL     OW63623   8.133   4.736   0.665
20555SOL    HW163624   8.202   4.720   0.735
20555SOL    HW263625   8.060   4.793   0.703
20556SOL     OW63626   8.134   4.885   1.803
20556SOL    HW163627   8.194   4.964   1.817
20556SOL    HW263628   8.048   4.916   1.762
20557SOL     OW63629   7.783   5.159   1.061
20557SOL    HW163630   7.705   5.128   1.008
20557SOL    HW263631   7.841   5.217   1.004
20558SOL     OW63632   8.908   5.229   1.339
20558SOL    HW163633   8.932   5.323   1.365
20558SOL    HW263634   8.892   5.175   1.421
20559SOL     OW63635   7.886   4.116   1.499
20559SOL    HW163636   7.968   4.060   1.508
20559SOL    HW263637   7.805   4.058   1.503
20560SOL     OW63638   7.679   5.437   0.483
20560SOL    HW163639   7.713   5.514   0.537
20560SOL    HW263640   7.723   5.437   0.393
20561SOL     OW63641   8.575   5.065   1.690
20561SOL    HW163642   8.622   5.065   1.778
20561SOL    HW263643   8.527   4.978   1.679
20562SOL     OW63644   7.678   5.158   0.538
20562SOL    HW163645   7.652   5.254   0.538
20562SOL    HW263646   7.607   5.104   0.583
20563SOL     OW63647   7.688   4.815   0.886
20563SOL    HW163648   7.702   4.731   0.938
20563SOL    HW263649   7.633   4.879   0.941
20564SOL     OW63650   8.068   5.510   1.439
20564SOL    HW163651   7.976   5.493   1.474
20564SOL    HW263652   8.096   5.602   1.465
20565SOL     OW63653   8.054   4.688   0.123
20565SOL    HW163654   8.061   4.772   0.069
20565SOL    HW263655   8.100   4.701   0.211
20566SOL     OW63656   0.042   3.838   1.480
20566SOL    HW163657   0.024   3.905   1.408
20566SOL    HW263658   0.039   3.884   1.569
20567SOL     OW63659   7.570   4.367   0.563
20567SOL    HW163660   7.525   4.279   0.580
20567SOL    HW263661   7.569   4.421   0.647
20568SOL     OW63662   0.137   4.646   0.612
20568SOL    HW163663   0.232   4.617   0.620
20568SOL    HW263664   0.129   4.711   0.537
20569SOL     OW63665   0.089   4.832   0.432
20569SOL    HW163666   0.175   4.834   0.380
20569SOL    HW263667   0.103   4.879   0.520
20570SOL     OW63668   7.561   4.461   1.597
20570SOL    HW163669   7.649   4.448   1.642
20570SOL    HW263670   7.548   4.558   1.575
20571SOL     OW63671   8.061   5.089   0.726
20571SOL    HW163672   8.012   5.002   0.735
20571SOL    HW263673   8.038   5.132   0.639
20572SOL     OW63674   8.741   4.952   1.423
20572SOL    HW163675   8.778   4.879   1.365
20572SOL    HW263676   8.793   4.957   1.508
20573SOL     OW63677   8.257   3.728   0.502
20573SOL    HW163678   8.297   3.819   0.493
20573SOL    HW263679   8.157   3.736   0.508
20574SOL     OW63680   7.645   4.700   1.264
20574SOL    HW163681   7.734   4.655   1.250
20574SOL    HW263682   7.572   4.635   1.245
20575SOL     OW63683   8.973   4.723   0.190
20575SOL    HW163684   8.910   4.647   0.203
20575SOL    HW263685   9.021   4.741   0.276
20576SOL     OW63686   8.635   5.516   1.616
20576SOL    HW163687   8.659   5.576   1.540
20576SOL    HW263688   8.642   5.421   1.586
20577SOL     OW63689   7.765   3.975   1.801
20577SOL    HW163690   7.836   4.046   1.807
20577SOL    HW263691   7.677   4.014   1.829
20578SOL     OW63692   8.914   5.141   0.953
20578SOL    HW163693   8.855   5.147   1.033
20578SOL    HW263694   8.899   5.053   0.907
20579SOL     OW63695   0.115   5.438   0.572
20579SOL    HW163696   0.074   5.415   0.484
20579SOL    HW263697   0.097   5.364   0.637
20580SOL     OW63698   8.046   4.453   0.270
20580SOL    HW163699   8.070   4.522   0.202
20580SOL    HW263700   7.968   4.486   0.324
20581SOL     OW63701   8.729   4.069   0.944
20581SOL    HW163702   8.643   4.019   0.931
20581SOL    HW263703   8.791   4.015   1.000
20582SOL     OW63704   0.024   5.386   0.307
20582SOL    HW163705   0.113   5.432   0.310
20582SOL    HW263706   0.003   5.362   0.212
20583SOL     OW63707   8.255   4.329   1.465
20583SOL    HW163708   8.208   4.326   1.554
20583SOL    HW263709   8.204   4.274   1.399
20584SOL     OW63710   8.842   4.193   1.674
20584SOL    HW163711   8.822   4.236   1.762
20584SOL    HW263712   8.920   4.131   1.683
20585SOL     OW63713   8.421   4.614   1.572
20585SOL    HW163714   8.467   4.530   1.543
20585SOL    HW263715   8.365   4.648   1.497
20586SOL     OW63716   8.439   4.134   1.242
20586SOL    HW163717   8.362   4.168   1.296
20586SOL    HW263718   8.405   4.083   1.163
20587SOL     OW63719   8.489   4.425   0.429
20587SOL    HW163720   8.515   4.421   0.525
20587SOL    HW263721   8.404   4.374   0.415
20588SOL     OW63722   7.524   4.535   0.789
20588SOL    HW163723   7.623   4.523   0.798
20588SOL    HW263724   7.500   4.630   0.810
20589SOL     OW63725   7.578   5.545   1.571
20589SOL    HW163726   7.568   5.530   1.670
20589SOL    HW263727   7.492   5.581   1.535
20590SOL     OW63728   8.313   4.072   0.195
20590SOL    HW163729   8.372   4.135   0.146
20590SOL    HW263730   8.332   3.978   0.166
20591SOL     OW63731   0.167   4.309   1.831
20591SOL    HW163732   0.141   4.398   1.795
20591SOL    HW263733   0.165   4.241   1.758
20592SOL     OW63734   8.810   4.868   0.545
20592SOL    HW163735   8.893   4.839   0.497
20592SOL    HW263736   8.761   4.935   0.489
20593SOL     OW63737   7.998   3.920   0.885
20593SOL    HW163738   7.993   3.915   0.985
20593SOL    HW263739   8.000   4.016   0.856
20594SOL     OW63740   8.456   5.180   0.477
20594SOL    HW163741   8.410   5.252   0.425
20594SOL    HW263742   8.452   5.200   0.575
20595SOL     OW63743   7.799   5.525   0.853
20595SOL    HW163744   7.849   5.439   0.859
20595SOL    HW263745   7.864   5.602   0.850
20596SOL     OW63746   0.243   4.790   0.873
20596SOL    HW163747   0.181   4.775   0.797
20596SOL    HW263748   0.191   4.801   0.958
20597SOL     OW63749   8.675   5.274   1.506
20597SOL    HW163750   8.681   5.197   1.570
20597SOL    HW263751   8.623   5.248   1.426
20598SOL     OW63752   7.769   4.667   0.242
20598SOL    HW163753   7.851   4.706   0.200
20598SOL    HW263754   7.742   4.585   0.193
20599SOL     OW63755   8.906   4.459   0.728
20599SOL    HW163756   8.901   4.394   0.803
20599SOL    HW263757   8.986   4.518   0.741
20600SOL     OW63758   7.909   4.990   1.727
20600SOL    HW163759   7.859   4.991   1.641
20600SOL    HW263760   7.846   4.972   1.803
20601SOL     OW63761   8.559   5.500   0.237
20601SOL    HW163762   8.499   5.438   0.287
20601SOL    HW263763   8.590   5.456   0.152
20602SOL     OW63764   7.650   4.009   1.498
20602SOL    HW163765   7.570   4.069   1.485
20602SOL    HW263766   7.640   3.960   1.584
20603SOL     OW63767   0.080   5.101   0.081
20603SOL    HW163768   0.048   5.195   0.071
20603SOL    HW263769   0.004   5.038   0.069
20604SOL     OW63770   7.912   5.467   0.323
20604SOL    HW163771   7.945   5.506   0.409
20604SOL    HW263772   7.988   5.460   0.258
20605SOL     OW63773   8.848   3.831   0.426
20605SOL    HW163774   8.824   3.794   0.336
20605SOL    HW263775   8.947   3.847   0.430
20606SOL     OW63776   7.697   5.509   1.241
20606SOL    HW163777   7.754   5.444   1.291
20606SOL    HW263778   7.681   5.476   1.148
20607SOL     OW63779   8.388   5.422   0.904
20607SOL    HW163780   8.468   5.365   0.925
20607SOL    HW263781   8.339   5.382   0.827
20608SOL     OW63782   7.830   4.424   0.480
20608SOL    HW163783   7.875   4.334   0.477
20608SOL    HW263784   7.736   4.413   0.513
20609SOL     OW63785   8.995   3.946   1.729
20609SOL    HW163786   8.990   3.983   1.821
20609SOL    HW263787   8.923   3.877   1.717
20610SOL     OW63788   8.062   3.846   0.117
20610SOL    HW163789   8.160   3.824   0.124
20610SOL    HW263790   8.031   3.829   0.024
20611SOL     OW63791   8.229   3.988   1.749
20611SOL    HW163792   8.296   3.927   1.792
20611SOL    HW263793   8.156   4.007   1.814
20612SOL     OW63794   8.336   5.238   1.195
20612SOL    HW163795   8.313   5.213   1.101
20612SOL    HW263796   8.397   5.169   1.234
20613SOL     OW63797   8.799   4.314   1.433
20613SOL    HW163798   8.827   4.271   1.518
20613SOL    HW263799   8.824   4.410   1.434
20614SOL     OW63800   8.251   5.126   0.924
20614SOL    HW163801   8.341   5.140   0.882
20614SOL    HW263802   8.180   5.128   0.853
20615SOL     OW63803   8.370   4.227   0.899
20615SOL    HW163804   8.345   4.218   0.803
20615SOL    HW263805   8.418   4.145   0.930
20616SOL     OW63806   7.987   3.788   0.512
20616SOL    HW163807   7.906   3.789   0.570
20616SOL    HW263808   7.990   3.871   0.457
20617SOL     OW63809   8.882   4.912   0.041
20617SOL    HW163810   8.914   4.836   0.098
20617SOL    HW263811   8.790   4.939   0.071
20618SOL     OW63812   7.745   3.759   0.171
20618SOL    HW163813   7.794   3.843   0.150
20618SOL    HW263814   7.807   3.694   0.216
20619SOL     OW63815   8.383   3.960   0.480
20619SOL    HW163816   8.335   4.001   0.402
20619SOL    HW263817   8.482   3.958   0.461
20620SOL     OW63818   8.524   4.407   1.464
20620SOL    HW163819   8.444   4.346   1.467
20620SOL    HW263820   8.605   4.354   1.440
20621SOL     OW63821   8.675   5.294   0.793
20621SOL    HW163822   8.696   5.368   0.728
20621SOL    HW263823   8.743   5.294   0.866
20622SOL     OW63824   7.907   4.876   0.741
20622SOL    HW163825   7.836   4.849   0.806
20622SOL    HW263826   7.881   4.848   0.648
20623SOL     OW63827   8.719   5.521   0.591
20623SOL    HW163828   8.763   5.585   0.527
20623SOL    HW263829   8.669   5.573   0.661
20624SOL     OW63830   8.480   4.273   0.016
20624SOL    HW163831   8.439   4.355  -0.023
20624SOL    HW263832   8.544   4.299   0.089
20625SOL     OW63833   7.526   4.280   1.386
20625SOL    HW163834   7.618   4.279   1.345
20625SOL    HW263835   7.520   4.354   1.453
20626SOL     OW63836   8.009   3.946   1.147
20626SOL    HW163837   8.047   3.862   1.184
20626SOL    HW263838   7.921   3.965   1.191
20627SOL     OW63839   8.314   4.178   0.642
20627SOL    HW163840   8.282   4.250   0.580
20627SOL    HW263841   8.338   4.097   0.589
20628SOL     OW63842   8.465   3.763   0.753
20628SOL    HW163843   8.393   3.768   0.684
20628SOL    HW263844   8.441   3.694   0.822
20629SOL     OW63845   8.877   4.897   0.867
20629SOL    HW163846   8.822   4.813   0.860
20629SOL    HW263847   8.903   4.926   0.775
20630SOL     OW63848   8.914   4.314   0.992
20630SOL    HW163849   8.884   4.219   0.999
20630SOL    HW263850   8.987   4.330   1.058
20631SOL     OW63851   7.936   5.109   0.174
20631SOL    HW163852   7.849   5.094   0.221
20631SOL    HW263853   7.919   5.135   0.079
20632SOL     OW63854   0.112   5.004   0.657
20632SOL    HW163855   0.211   5.012   0.671
20632SOL    HW263856   0.067   5.088   0.688
20633SOL     OW63857   8.838   4.299   0.078
20633SOL    HW163858   8.784   4.278   0.159
20633SOL    HW263859   8.929   4.258   0.087
20634SOL     OW63860   7.975   3.980   0.328
20634SOL    HW163861   8.002   3.921   0.253
20634SOL    HW263862   7.975   4.075   0.297
20635SOL     OW63863   8.512   5.071   1.340
20635SOL    HW163864   8.432   5.048   1.395
20635SOL    HW263865   8.595   5.045   1.389
20636SOL     OW63866   0.040   5.353   1.625
20636SOL    HW163867   0.067   5.387   1.535
20636SOL    HW263868   0.119   5.315   1.671
20637SOL     OW63869   8.559   4.919   1.100
20637SOL    HW163870   8.519   4.963   1.181
20637SOL    HW263871   8.518   4.956   1.017
20638SOL     OW63872   0.086   4.823   1.079
20638SOL    HW163873   0.091   4.904   1.138
20638SOL    HW263874   0.000   4.825   1.028
20639SOL     OW63875   8.363   3.813   1.402
20639SOL    HW163876   8.388   3.793   1.307
20639SOL    HW263877   8.435   3.869   1.444
20640SOL     OW63878   8.428   4.840   1.719
20640SOL    HW163879   8.329   4.846   1.729
20640SOL    HW263880   8.451   4.760   1.663
20641SOL     OW63881   8.153   4.774   0.368
20641SOL    HW163882   8.139   4.781   0.467
20641SOL    HW263883   8.237   4.723   0.350
20642SOL     OW63884   7.858   4.537   1.251
20642SOL    HW163885   7.944   4.549   1.301
20642SOL    HW263886   7.816   4.450   1.278
20643SOL     OW63887   8.722   4.110   1.262
20643SOL    HW163888   8.743   4.184   1.326
20643SOL    HW263889   8.633   4.127   1.219
20644SOL     OW63890   7.512   5.288   1.331
20644SOL    HW163891   7.466   5.370   1.297
20644SOL    HW263892   7.610   5.307   1.340
20645SOL     OW63893   7.815   4.824   0.501
20645SOL    HW163894   7.808   4.907   0.445
20645SOL    HW263895   7.819   4.744   0.441
20646SOL     OW63896   8.014   4.261   0.865
20646SOL    HW163897   8.026   4.327   0.791
20646SOL    HW263898   8.060   4.295   0.948
20647SOL     OW63899   8.700   5.072   0.388
20647SOL    HW163900   8.750   5.149   0.428
20647SOL    HW263901   8.605   5.074   0.420
20648SOL     OW63902   8.720   5.169   1.142
20648SOL    HW163903   8.767   5.182   1.229
20648SOL    HW263904   8.654   5.095   1.151
20649SOL     OW63905   0.030   4.363   0.472
20649SOL    HW163906  -0.001   4.424   0.545
20649SOL    HW263907   0.080   4.415   0.403
20650SOL     OW63908   7.802   5.234   1.329
20650SOL    HW163909   7.781   5.190   1.242
20650SOL    HW263910   7.899   5.260   1.332
20651SOL     OW63911   7.850   4.475   1.598
20651SOL    HW163912   7.918   4.530   1.551
20651SOL    HW263913   7.890   4.387   1.625
20652SOL     OW63914   0.035   4.503   1.670
20652SOL    HW163915  -0.057   4.541   1.665
20652SOL    HW263916   0.095   4.550   1.605
20653SOL     OW63917   8.461   3.829   1.770
20653SOL    HW163918   8.467   3.914   1.718
20653SOL    HW263919   8.493   3.753   1.713
20654SOL     OW63920   7.952   3.774   1.740
20654SOL    HW163921   7.910   3.717   1.670
20654SOL    HW263922   7.886   3.843   1.772
20655SOL     OW63923   8.021   4.594   1.029
20655SOL    HW163924   8.065   4.683   1.020
20655SOL    HW263925   7.958   4.594   1.106
20656SOL     OW63926   8.808   4.586   1.045
20656SOL    HW163927   8.733   4.586   0.979
20656SOL    HW263928   8.845   4.494   1.054
20657SOL     OW63929   8.657   4.249   0.275
20657SOL    HW163930   8.670   4.165   0.329
20657SOL    HW263931   8.628   4.323   0.335
20658SOL     OW63932   7.755   3.937   1.231
20658SOL    HW163933   7.732   3.974   1.321
20658SOL    HW263934   7.725   3.842   1.225
20659SOL     OW63935   7.485   5.034   1.282
20659SOL    HW163936   7.538   4.985   1.350
20659SOL    HW263937   7.507   5.132   1.287
20660SOL     OW63938   8.180   4.358   1.064
20660SOL    HW163939   8.239   4.332   0.988
20660SOL    HW263940   8.152   4.454   1.053
20661SOL     OW63941   0.176   4.659   1.854
20661SOL    HW163942   0.130   4.652   1.765
20661SOL    HW263943   0.114   4.703   1.920
20662SOL     OW63944   7.755   3.787   0.618
20662SOL    HW163945   7.744   3.881   0.651
20662SOL    HW263946   7.750   3.724   0.695
20663SOL     OW63947   0.070   4.091   0.374
20663SOL    HW163948   0.072   4.015   0.438
20663SOL    HW263949   0.022   4.168   0.414
20664SOL     OW63950   8.471   4.490   0.966
20664SOL    HW163951   8.486   4.511   1.062
20664SOL    HW263952   8.441   4.395   0.957
20665SOL     OW63953   8.428   5.297   1.700
20665SOL    HW163954   8.408   5.341   1.612
20665SOL    HW263955   8.467   5.206   1.684
20666SOL     OW63956   7.798   4.622   1.804
20666SOL    HW163957   7.874   4.666   1.852
20666SOL    HW263958   7.833   4.575   1.722
20667SOL     OW63959   8.988   3.998   0.125
20667SOL    HW163960   8.927   3.923   0.148
20667SOL    HW263961   9.010   4.050   0.208
20668SOL     OW63962   8.751   4.562   0.042
20668SOL    HW163963   8.785   4.469   0.057
20668SOL    HW263964   8.769   4.589  -0.053
20669SOL     OW63965   8.516   5.057   0.849
20669SOL    HW163966   8.523   4.973   0.794
20669SOL    HW263967   8.578   5.126   0.813
20670SOL     OW63968   7.767   4.534   0.949
20670SOL    HW163969   7.860   4.570   0.954
20670SOL    HW263970   7.761   4.449   1.001
20671SOL     OW63971   7.787   4.233   1.006
20671SOL    HW163972   7.735   4.150   0.989
20671SOL    HW263973   7.864   4.238   0.942
20672SOL     OW63974   7.959   4.139   1.808
20672SOL    HW163975   7.941   4.184   1.896
20672SOL    HW263976   8.001   4.204   1.745
20673SOL     OW63977   8.586   4.104   1.678
20673SOL    HW163978   8.541   4.167   1.742
20673SOL    HW263979   8.679   4.135   1.661
20674SOL     OW63980   8.608   3.931   1.477
20674SOL    HW163981   8.608   3.995   1.554
20674SOL    HW263982   8.636   3.979   1.394
20675SOL     OW63983   7.456   5.050   0.200
20675SOL    HW163984   7.363   5.071   0.169
20675SOL    HW263985   7.466   4.951   0.213
20676SOL     OW63986   7.536   5.525   0.927
20676SOL    HW163987   7.494   5.439   0.900
20676SOL    HW263988   7.630   5.528   0.893
20677SOL     OW63989   7.952   5.292   0.910
20677SOL    HW163990   8.018   5.366   0.919
20677SOL    HW263991   7.996   5.213   0.868
20678SOL     OW63992   8.450   4.520   1.238
20678SOL    HW163993   8.491   4.488   1.324
20678SOL    HW263994   8.354   4.493   1.235
20679SOL     OW63995   7.488   4.268   1.114
20679SOL    HW163996   7.573   4.235   1.073
20679SOL    HW263997   7.501   4.283   1.212
20680SOL     OW63998   7.637   4.244   1.722
20680SOL    HW163999   7.696   4.204   1.652
20680SOL    HW264000   7.579   4.315   1.681
20681SOL     OW64001   8.817   4.674   1.660
20681SOL    HW164002   8.856   4.763   1.680
20681SOL    HW264003   8.827   4.654   1.563
20682SOL     OW64004   8.263   4.296   0.325
20682SOL    HW164005   8.270   4.207   0.279
20682SOL    HW264006   8.169   4.330   0.317
20683SOL     OW64007   0.105   4.328   1.206
20683SOL    HW164008   0.067   4.259   1.268
20683SOL    HW264009   0.187   4.292   1.162
20684SOL     OW64010   7.700   5.288   1.744
20684SOL    HW164011   7.670   5.345   1.820
20684SOL    HW264012   7.693   5.191   1.770
20685SOL     OW64013   8.119   4.188   1.269
20685SOL    HW164014   8.085   4.099   1.239
20685SOL    HW264015   8.145   4.242   1.189
20686SOL     OW64016   8.378   5.402   1.465
20686SOL    HW164017   8.354   5.384   1.370
20686SOL    HW264018   8.408   5.496   1.475
20687SOL     OW64019   7.921   4.224   0.191
20687SOL    HW164020   7.982   4.304   0.195
20687SOL    HW264021   7.826   4.255   0.198
20688SOL     OW64022   7.607   4.861   1.466
20688SOL    HW164023   7.629   4.800   1.542
20688SOL    HW264024   7.617   4.812   1.380
20689SOL     OW64025   8.795   4.783   1.234
20689SOL    HW164026   8.819   4.720   1.160
20689SOL    HW264027   8.705   4.823   1.216
20690SOL     OW64028   8.750   4.579   0.309
20690SOL    HW164029   8.664   4.548   0.351
20690SOL    HW264030   8.746   4.565   0.210
20691SOL     OW64031   8.700   5.455   1.128
20691SOL    HW164032   8.784   5.460   1.074
20691SOL    HW264033   8.677   5.359   1.146
20692SOL     OW64034   7.531   4.982   1.022
20692SOL    HW164035   7.526   4.981   1.122
20692SOL    HW264036   7.448   4.941   0.984
20693SOL     OW64037   8.136   5.386   1.716
20693SOL    HW164038   8.080   5.467   1.725
20693SOL    HW264039   8.188   5.390   1.630
20694SOL     OW64040   8.351   3.810   0.133
20694SOL    HW164041   8.402   3.811   0.047
20694SOL    HW264042   8.407   3.768   0.204
20695SOL     OW64043   0.174   3.859   0.523
20695SOL    HW164044   0.247   3.842   0.456
20695SOL    HW264045   0.143   3.772   0.561
20696SOL     OW64046   8.836   5.297   0.477
20696SOL    HW164047   8.903   5.309   0.403
20696SOL    HW264048   8.796   5.386   0.500
20697SOL     OW64049   8.728   4.651   0.672
20697SOL    HW164050   8.788   4.570   0.674
20697SOL    HW264051   8.768   4.720   0.612
20698SOL     OW64052   8.278   4.997   1.422
20698SOL    HW164053   8.273   5.030   1.517
20698SOL    HW264054   8.192   5.016   1.376
20699SOL     OW64055   8.120   5.340   0.154
20699SOL    HW164056   8.129   5.350   0.055
20699SOL    HW264057   8.080   5.251   0.175
20700SOL     OW64058   0.098   5.444   1.394
20700SOL    HW164059   0.151   5.454   1.310
20700SOL    HW264060   0.071   5.534   1.428
20701SOL     OW64061   7.711   4.050   0.720
20701SOL    HW164062   7.632   4.101   0.686
20701SOL    HW264063   7.702   4.035   0.818
20702SOL     OW64064   8.642   5.336   0.031
20702SOL    HW164065   8.648   5.243   0.068
20702SOL    HW264066   8.583   5.336  -0.049
20703SOL     OW64067   8.270   4.726   1.372
20703SOL    HW164068   8.310   4.725   1.280
20703SOL    HW264069   8.280   4.818   1.412
20704SOL     OW64070   8.364   4.634   0.291
20704SOL    HW164071   8.427   4.672   0.223
20704SOL    HW264072   8.404   4.551   0.330
20705SOL     OW64073   8.952   5.331   0.044
20705SOL    HW164074   8.860   5.368   0.051
20705SOL    HW264075   8.990   5.351  -0.046
20706SOL     OW64076   7.820   5.012   1.490
20706SOL    HW164077   7.807   5.105   1.456
20706SOL    HW264078   7.736   4.960   1.477
20707SOL     OW64079   0.062   5.016   1.289
20707SOL    HW164080   0.122   5.019   1.369
20707SOL    HW264081  -0.013   5.080   1.302
20708SOL     OW64082   8.487   4.822   0.696
20708SOL    HW164083   8.417   4.775   0.750
20708SOL    HW264084   8.546   4.754   0.653
20709SOL     OW64085   8.462   3.960   0.971
20709SOL    HW164086   8.454   3.924   0.878
20709SOL    HW264087   8.460   3.884   1.036
20710SOL     OW64088   8.038   5.211   0.491
20710SOL    HW164089   8.080   5.153   0.421
20710SOL    HW264090   7.994   5.290   0.447
20711SOL     OW64091   0.157   4.109   1.381
20711SOL    HW164092   0.230   4.178   1.385
20711SOL    HW264093   0.185   4.034   1.322
20712SOL     OW64094   7.703   5.072   0.290
20712SOL    HW164095   7.607   5.073   0.263
20712SOL    HW264096   7.715   5.125   0.374
20713SOL     OW64097   7.553   4.737   1.726
20713SOL    HW164098   7.476   4.704   1.780
20713SOL    HW264099   7.638   4.707   1.768
20714SOL     OW64100   8.120   3.927   1.489
20714SOL    HW164101   8.210   3.911   1.449
20714SOL    HW264102   8.128   3.932   1.588
20715SOL     OW64103   8.888   4.580   1.398
20715SOL    HW164104   8.831   4.632   1.335
20715SOL    HW264105   8.984   4.592   1.374
20716SOL     OW64106   7.520   3.890   0.318
20716SOL    HW164107   7.503   3.973   0.264
20716SOL    HW264108   7.610   3.853   0.296
20717SOL     OW64109   8.631   5.059   0.119
20717SOL    HW164110   8.532   5.048   0.121
20717SOL    HW264111   8.665   5.074   0.212
20718SOL     OW64112   8.061   4.566   1.431
20718SOL    HW164113   8.117   4.647   1.414
20718SOL    HW264114   8.120   4.486   1.434
20719SOL     OW64115   8.941   5.491   0.959
20719SOL    HW164116   8.974   5.555   0.890
20719SOL    HW264117   9.007   5.485   1.034
20720SOL     OW64118   8.164   4.289   1.708
20720SOL    HW164119   8.183   4.354   1.782
20720SOL    HW264120   8.224   4.209   1.717
20721SOL     OW64121   8.898   4.944   1.633
20721SOL    HW164122   8.889   4.934   1.732
20721SOL    HW264123   8.994   4.937   1.607
20722SOL     OW64124   7.838   5.465   1.560
20722SOL    HW164125   7.747   5.506   1.558
20722SOL    HW264126   7.831   5.371   1.592
20723SOL     OW64127   0.122   4.607   1.254
20723SOL    HW164128   0.095   4.518   1.217
20723SOL    HW264129   0.123   4.675   1.181
20724SOL     OW64130   8.673   4.049   0.449
20724SOL    HW164131   8.738   3.975   0.438
20724SOL    HW264132   8.693   4.099   0.533
20725SOL     OW64133   8.042   4.469   0.652
20725SOL    HW164134   8.092   4.554   0.633
20725SOL    HW264135   7.954   4.471   0.604
20726SOL     OW64136   0.225   4.066   1.642
20726SOL    HW164137   0.208   4.097   1.548
20726SOL    HW264138   0.141   4.029   1.680
20727SOL     OW64139   0.178   4.658   1.517
20727SOL    HW164140   0.216   4.749   1.532
20727SOL    HW264141   0.170   4.641   1.418
20728SOL     OW64142   8.307   5.098   0.016
20728SOL    HW164143   8.261   5.113   0.104
20728SOL    HW264144   8.351   5.183  -0.014
20729SOL     OW64145   8.109   5.514   0.953
20729SOL    HW164146   8.063   5.602   0.940
20729SOL    HW264147   8.208   5.526   0.946
20730SOL     OW64148   8.307   4.680   0.861
20730SOL    HW164149   8.361   4.611   0.909
20730SOL    HW264150   8.275   4.749   0.927
20731SOL     OW64151   8.531   4.708   0.087
20731SOL    HW164152   8.508   4.761   0.005
20731SOL    HW264153   8.612   4.652   0.068
20732SOL     OW64154   7.669   5.038   1.844
20732SOL    HW164155   7.604   4.965   1.823
20732SOL    HW264156   7.673   5.052   1.942
20733SOL     OW64157   7.527   4.964   0.653
20733SOL    HW164158   7.526   4.917   0.741
20733SOL    HW264159   7.609   4.936   0.602
20734SOL     OW64160   8.120   5.115   1.624
20734SOL    HW164161   8.042   5.065   1.662
20734SOL    HW264162   8.117   5.210   1.655
20735SOL     OW64163   7.876   4.148   0.520
20735SOL    HW164164   7.906   4.076   0.458
20735SOL    HW264165   7.837   4.108   0.603
20736SOL     OW64166   0.153   5.211   1.104
20736SOL    HW164167   0.060   5.186   1.077
20736SOL    HW264168   0.179   5.161   1.186
20737SOL     OW64169   7.765   4.271   1.280
20737SOL    HW164170   7.803   4.212   1.352
20737SOL    HW264171   7.805   4.245   1.192
20738SOL     OW64172   8.260   5.310   0.687
20738SOL    HW164173   8.292   5.320   0.593
20738SOL    HW264174   8.181   5.248   0.689
20739SOL     OW64175   8.872   3.938   1.112
20739SOL    HW164176   8.924   3.873   1.167
20739SOL    HW264177   8.823   4.001   1.173
20740SOL     OW64178   8.218   5.054   0.301
20740SOL    HW164179   8.172   4.967   0.318
20740SOL    HW264180   8.309   5.051   0.342
20741SOL     OW64181   8.066   5.291   1.284
20741SOL    HW164182   8.061   5.373   1.341
20741SOL    HW264183   8.155   5.288   1.239
20742SOL     OW64184   8.748   4.177   0.691
20742SOL    HW164185   8.689   4.257   0.695
20742SOL    HW264186   8.763   4.142   0.784
20743SOL     OW64187   0.041   3.945   0.882
20743SOL    HW164188  -0.043   3.944   0.936
20743SOL    HW264189   0.043   4.028   0.826
20744SOL     OW64190   7.487   4.801   0.300
20744SOL    HW164191   7.586   4.790   0.291
20744SOL    HW264192   7.447   4.715   0.332
20745SOL     OW64193   8.323   5.370   0.337
20745SOL    HW164194   8.246   5.335   0.283
20745SOL    HW264195   8.291   5.441   0.399
20746SOL     OW64196   7.678   4.352   1.975
20746SOL    HW164197   7.585   4.350   2.012
20746SOL    HW264198   7.679   4.313   1.883
20747SOL     OW64199   7.673   3.999   2.858
20747SOL    HW164200   7.708   3.982   2.950
20747SOL    HW264201   7.585   3.954   2.846
20748SOL     OW64202   7.467   4.092   2.509
20748SOL    HW164203   7.385   4.135   2.548
20748SOL    HW264204   7.439   4.019   2.446
20749SOL     OW64205   8.017   4.999   3.027
20749SOL    HW164206   7.924   4.992   2.990
20749SOL    HW264207   8.028   5.088   3.071
20750SOL     OW64208   0.003   5.235   2.565
20750SOL    HW164209  -0.054   5.219   2.646
20750SOL    HW264210  -0.056   5.245   2.485
20751SOL     OW64211   0.191   4.342   2.718
20751SOL    HW164212   0.224   4.436   2.718
20751SOL    HW264213   0.242   4.288   2.784
20752SOL     OW64214   8.583   4.427   2.579
20752SOL    HW164215   8.640   4.505   2.554
20752SOL    HW264216   8.523   4.453   2.655
20753SOL     OW64217   0.203   4.331   2.093
20753SOL    HW164218   0.191   4.318   1.994
20753SOL    HW264219   0.173   4.250   2.142
20754SOL     OW64220   8.216   4.868   2.885
20754SOL    HW164221   8.138   4.885   2.945
20754SOL    HW264222   8.250   4.955   2.849
20755SOL     OW64223   8.133   4.736   2.527
20755SOL    HW164224   8.202   4.720   2.597
20755SOL    HW264225   8.060   4.793   2.565
20756SOL     OW64226   8.908   5.229   3.201
20756SOL    HW164227   8.932   5.323   3.227
20756SOL    HW264228   8.892   5.175   3.283
20757SOL     OW64229   7.886   4.116   3.361
20757SOL    HW164230   7.968   4.060   3.370
20757SOL    HW264231   7.805   4.058   3.365
20758SOL     OW64232   7.679   5.437   2.345
20758SOL    HW164233   7.713   5.514   2.399
20758SOL    HW264234   7.723   5.437   2.255
20759SOL     OW64235   7.678   5.158   2.400
20759SOL    HW164236   7.652   5.254   2.400
20759SOL    HW264237   7.607   5.104   2.445
20760SOL     OW64238   7.688   4.815   2.748
20760SOL    HW164239   7.702   4.731   2.800
20760SOL    HW264240   7.633   4.879   2.803
20761SOL     OW64241   8.068   5.510   3.301
20761SOL    HW164242   7.976   5.493   3.336
20761SOL    HW264243   8.096   5.602   3.327
20762SOL     OW64244   8.054   4.688   1.985
20762SOL    HW164245   8.061   4.772   1.931
20762SOL    HW264246   8.100   4.701   2.073
20763SOL     OW64247   0.042   3.838   3.342
20763SOL    HW164248   0.024   3.905   3.270
20763SOL    HW264249   0.039   3.884   3.431
20764SOL     OW64250   7.570   4.367   2.425
20764SOL    HW164251   7.525   4.279   2.442
20764SOL    HW264252   7.569   4.421   2.509
20765SOL     OW64253   0.137   4.646   2.474
20765SOL    HW164254   0.232   4.617   2.482
20765SOL    HW264255   0.129   4.711   2.399
20766SOL     OW64256   0.089   4.832   2.294
20766SOL    HW164257   0.175   4.834   2.242
20766SOL    HW264258   0.103   4.879   2.382
20767SOL     OW64259   8.061   5.089   2.588
20767SOL    HW164260   8.012   5.002   2.597
20767SOL    HW264261   8.038   5.132   2.501
20768SOL     OW64262   8.257   3.728   2.364
20768SOL    HW164263   8.297   3.819   2.355
20768SOL    HW264264   8.157   3.736   2.370
20769SOL     OW64265   7.645   4.700   3.126
20769SOL    HW164266   7.734   4.655   3.112
20769SOL    HW264267   7.572   4.635   3.107
20770SOL     OW64268   8.973   4.723   2.052
20770SOL    HW164269   8.910   4.647   2.065
20770SOL    HW264270   9.021   4.741   2.138
20771SOL     OW64271   8.635   5.516   3.478
20771SOL    HW164272   8.659   5.576   3.402
20771SOL    HW264273   8.642   5.421   3.448
20772SOL     OW64274   7.765   3.975   3.663
20772SOL    HW164275   7.836   4.046   3.669
20772SOL    HW264276   7.677   4.014   3.691
20773SOL     OW64277   8.914   5.141   2.815
20773SOL    HW164278   8.855   5.147   2.895
20773SOL    HW264279   8.899   5.053   2.769
20774SOL     OW64280   0.115   5.438   2.434
20774SOL    HW164281   0.074   5.415   2.346
20774SOL    HW264282   0.097   5.364   2.499
20775SOL     OW64283   8.046   4.453   2.132
20775SOL    HW164284   8.070   4.522   2.064
20775SOL    HW264285   7.968   4.486   2.186
20776SOL     OW64286   8.729   4.069   2.806
20776SOL    HW164287   8.643   4.019   2.793
20776SOL    HW264288   8.791   4.015   2.862
20777SOL     OW64289   0.024   5.386   2.169
20777SOL    HW164290   0.113   5.432   2.172
20777SOL    HW264291   0.003   5.362   2.074
20778SOL     OW64292   8.842   4.193   3.536
20778SOL    HW164293   8.822   4.236   3.624
20778SOL    HW264294   8.920   4.131   3.545
20779SOL     OW64295   8.489   4.425   2.291
20779SOL    HW164296   8.515   4.421   2.387
20779SOL    HW264297   8.404   4.374   2.277
20780SOL     OW64298   7.524   4.535   2.651
20780SOL    HW164299   7.623   4.523   2.660
20780SOL    HW264300   7.500   4.630   2.672
20781SOL     OW64301   7.578   5.545   3.433
20781SOL    HW164302   7.568   5.530   3.532
20781SOL    HW264303   7.492   5.581   3.397
20782SOL     OW64304   8.313   4.072   2.057
20782SOL    HW164305   8.372   4.135   2.008
20782SOL    HW264306   8.332   3.978   2.028
20783SOL     OW64307   0.167   4.309   3.693
20783SOL    HW164308   0.141   4.398   3.657
20783SOL    HW264309   0.165   4.241   3.620
20784SOL     OW64310   8.810   4.868   2.407
20784SOL    HW164311   8.893   4.839   2.359
20784SOL    HW264312   8.761   4.935   2.351
20785SOL     OW64313   7.998   3.920   2.747
20785SOL    HW164314   7.993   3.915   2.847
20785SOL    HW264315   8.000   4.016   2.718
20786SOL     OW64316   8.456   5.180   2.339
20786SOL    HW164317   8.410   5.252   2.287
20786SOL    HW264318   8.452   5.200   2.437
20787SOL     OW64319   7.799   5.525   2.715
20787SOL    HW164320   7.849   5.439   2.721
20787SOL    HW264321   7.864   5.602   2.712
20788SOL     OW64322   0.243   4.790   2.735
20788SOL    HW164323   0.181   4.775   2.659
20788SOL    HW264324   0.191   4.801   2.820
20789SOL     OW64325   8.675   5.274   3.368
20789SOL    HW164326   8.681   5.197   3.432
20789SOL    HW264327   8.623   5.248   3.288
20790SOL     OW64328   7.769   4.667   2.104
20790SOL    HW164329   7.851   4.706   2.062
20790SOL    HW264330   7.742   4.585   2.055
20791SOL     OW64331   7.909   4.990   3.589
20791SOL    HW164332   7.859   4.991   3.503
20791SOL    HW264333   7.846   4.972   3.665
20792SOL     OW64334   8.559   5.500   2.099
20792SOL    HW164335   8.499   5.438   2.149
20792SOL    HW264336   8.590   5.456   2.014
20793SOL     OW64337   7.650   4.009   3.360
20793SOL    HW164338   7.570   4.069   3.347
20793SOL    HW264339   7.640   3.960   3.446
20794SOL     OW64340   0.080   5.101   1.943
20794SOL    HW164341   0.048   5.195   1.933
20794SOL    HW264342   0.004   5.038   1.931
20795SOL     OW64343   7.912   5.467   2.185
20795SOL    HW164344   7.945   5.506   2.271
20795SOL    HW264345   7.988   5.460   2.120
20796SOL     OW64346   8.848   3.831   2.288
20796SOL    HW164347   8.824   3.794   2.198
20796SOL    HW264348   8.947   3.847   2.292
20797SOL     OW64349   8.388   5.422   2.766
20797SOL    HW164350   8.468   5.365   2.787
20797SOL    HW264351   8.339   5.382   2.689
20798SOL     OW64352   7.830   4.424   2.342
20798SOL    HW164353   7.875   4.334   2.339
20798SOL    HW264354   7.736   4.413   2.375
20799SOL     OW64355   8.995   3.946   3.591
20799SOL    HW164356   8.990   3.983   3.683
20799SOL    HW264357   8.923   3.877   3.579
20800SOL     OW64358   8.062   3.846   1.979
20800SOL    HW164359   8.160   3.824   1.986
20800SOL    HW264360   8.031   3.829   1.886
20801SOL     OW64361   8.336   5.238   3.057
20801SOL    HW164362   8.313   5.213   2.963
20801SOL    HW264363   8.397   5.169   3.096
20802SOL     OW64364   8.251   5.126   2.786
20802SOL    HW164365   8.341   5.140   2.744
20802SOL    HW264366   8.180   5.128   2.715
20803SOL     OW64367   8.370   4.227   2.761
20803SOL    HW164368   8.345   4.218   2.665
20803SOL    HW264369   8.418   4.145   2.792
20804SOL     OW64370   7.987   3.788   2.374
20804SOL    HW164371   7.906   3.789   2.432
20804SOL    HW264372   7.990   3.871   2.319
20805SOL     OW64373   8.882   4.912   1.903
20805SOL    HW164374   8.914   4.836   1.960
20805SOL    HW264375   8.790   4.939   1.933
20806SOL     OW64376   7.745   3.759   2.033
20806SOL    HW164377   7.794   3.843   2.012
20806SOL    HW264378   7.807   3.694   2.078
20807SOL     OW64379   8.383   3.960   2.342
20807SOL    HW164380   8.335   4.001   2.264
20807SOL    HW264381   8.482   3.958   2.323
20808SOL     OW64382   8.675   5.294   2.655
20808SOL    HW164383   8.696   5.368   2.590
20808SOL    HW264384   8.743   5.294   2.728
20809SOL     OW64385   7.907   4.876   2.603
20809SOL    HW164386   7.836   4.849   2.668
20809SOL    HW264387   7.881   4.848   2.510
20810SOL     OW64388   8.719   5.521   2.453
20810SOL    HW164389   8.763   5.585   2.389
20810SOL    HW264390   8.669   5.573   2.523
20811SOL     OW64391   8.480   4.273   1.878
20811SOL    HW164392   8.439   4.355   1.839
20811SOL    HW264393   8.544   4.299   1.951
20812SOL     OW64394   7.526   4.280   3.248
20812SOL    HW164395   7.618   4.279   3.207
20812SOL    HW264396   7.520   4.354   3.315
20813SOL     OW64397   8.009   3.946   3.009
20813SOL    HW164398   8.047   3.862   3.046
20813SOL    HW264399   7.921   3.965   3.053
20814SOL     OW64400   8.314   4.178   2.504
20814SOL    HW164401   8.282   4.250   2.442
20814SOL    HW264402   8.338   4.097   2.451
20815SOL     OW64403   8.465   3.763   2.615
20815SOL    HW164404   8.393   3.768   2.546
20815SOL    HW264405   8.441   3.694   2.684
20816SOL     OW64406   8.877   4.897   2.729
20816SOL    HW164407   8.822   4.813   2.722
20816SOL    HW264408   8.903   4.926   2.637
20817SOL     OW64409   7.936   5.109   2.036
20817SOL    HW164410   7.849   5.094   2.083
20817SOL    HW264411   7.919   5.135   1.941
20818SOL     OW64412   0.112   5.004   2.519
20818SOL    HW164413   0.211   5.012   2.533
20818SOL    HW264414   0.067   5.088   2.550
20819SOL     OW64415   8.838   4.299   1.940
20819SOL    HW164416   8.784   4.278   2.021
20819SOL    HW264417   8.929   4.258   1.949
20820SOL     OW64418   7.975   3.980   2.190
20820SOL    HW164419   8.002   3.921   2.115
20820SOL    HW264420   7.975   4.075   2.159
20821SOL     OW64421   8.512   5.071   3.202
20821SOL    HW164422   8.432   5.048   3.257
20821SOL    HW264423   8.595   5.045   3.251
20822SOL     OW64424   0.040   5.353   3.487
20822SOL    HW164425   0.067   5.387   3.397
20822SOL    HW264426   0.119   5.315   3.533
20823SOL     OW64427   8.559   4.919   2.962
20823SOL    HW164428   8.519   4.963   3.043
20823SOL    HW264429   8.518   4.956   2.879
20824SOL     OW64430   0.086   4.823   2.941
20824SOL    HW164431   0.091   4.904   3.000
20824SOL    HW264432   0.000   4.825   2.890
20825SOL     OW64433   8.363   3.813   3.264
20825SOL    HW164434   8.388   3.793   3.169
20825SOL    HW264435   8.435   3.869   3.306
20826SOL     OW64436   8.153   4.774   2.230
20826SOL    HW164437   8.139   4.781   2.329
20826SOL    HW264438   8.237   4.723   2.212
20827SOL     OW64439   7.858   4.537   3.113
20827SOL    HW164440   7.944   4.549   3.163
20827SOL    HW264441   7.816   4.450   3.140
20828SOL     OW64442   7.512   5.288   3.193
20828SOL    HW164443   7.466   5.370   3.159
20828SOL    HW264444   7.610   5.307   3.202
20829SOL     OW64445   7.815   4.824   2.363
20829SOL    HW164446   7.808   4.907   2.307
20829SOL    HW264447   7.819   4.744   2.303
20830SOL     OW64448   8.014   4.261   2.727
20830SOL    HW164449   8.026   4.327   2.653
20830SOL    HW264450   8.060   4.295   2.810
20831SOL     OW64451   8.700   5.072   2.250
20831SOL    HW164452   8.750   5.149   2.290
20831SOL    HW264453   8.605   5.074   2.282
20832SOL     OW64454   8.720   5.169   3.004
20832SOL    HW164455   8.767   5.182   3.091
20832SOL    HW264456   8.654   5.095   3.013
20833SOL     OW64457   0.030   4.363   2.334
20833SOL    HW164458  -0.001   4.424   2.407
20833SOL    HW264459   0.080   4.415   2.265
20834SOL     OW64460   7.802   5.234   3.191
20834SOL    HW164461   7.781   5.190   3.104
20834SOL    HW264462   7.899   5.260   3.194
20835SOL     OW64463   0.035   4.503   3.532
20835SOL    HW164464  -0.057   4.541   3.527
20835SOL    HW264465   0.095   4.550   3.467
20836SOL     OW64466   8.461   3.829   3.632
20836SOL    HW164467   8.467   3.914   3.580
20836SOL    HW264468   8.493   3.753   3.575
20837SOL     OW64469   7.952   3.774   3.602
20837SOL    HW164470   7.910   3.717   3.532
20837SOL    HW264471   7.886   3.843   3.634
20838SOL     OW64472   8.021   4.594   2.891
20838SOL    HW164473   8.065   4.683   2.882
20838SOL    HW264474   7.958   4.594   2.968
20839SOL     OW64475   8.657   4.249   2.137
20839SOL    HW164476   8.670   4.165   2.191
20839SOL    HW264477   8.628   4.323   2.197
20840SOL     OW64478   7.755   3.937   3.093
20840SOL    HW164479   7.732   3.974   3.183
20840SOL    HW264480   7.725   3.842   3.087
20841SOL     OW64481   7.485   5.034   3.144
20841SOL    HW164482   7.538   4.985   3.212
20841SOL    HW264483   7.507   5.132   3.149
20842SOL     OW64484   8.180   4.358   2.926
20842SOL    HW164485   8.239   4.332   2.850
20842SOL    HW264486   8.152   4.454   2.915
20843SOL     OW64487   0.176   4.659   3.716
20843SOL    HW164488   0.130   4.652   3.627
20843SOL    HW264489   0.114   4.703   3.782
20844SOL     OW64490   7.755   3.787   2.480
20844SOL    HW164491   7.744   3.881   2.513
20844SOL    HW264492   7.750   3.724   2.557
20845SOL     OW64493   0.070   4.091   2.236
20845SOL    HW164494   0.072   4.015   2.300
20845SOL    HW264495   0.022   4.168   2.276
20846SOL     OW64496   8.471   4.490   2.828
20846SOL    HW164497   8.486   4.511   2.924
20846SOL    HW264498   8.441   4.395   2.819
20847SOL     OW64499   8.428   5.297   3.562
20847SOL    HW164500   8.408   5.341   3.474
20847SOL    HW264501   8.467   5.206   3.546
20848SOL     OW64502   7.798   4.622   3.666
20848SOL    HW164503   7.874   4.666   3.714
20848SOL    HW264504   7.833   4.575   3.584
20849SOL     OW64505   8.988   3.998   1.987
20849SOL    HW164506   8.927   3.923   2.010
20849SOL    HW264507   9.010   4.050   2.070
20850SOL     OW64508   8.751   4.562   1.904
20850SOL    HW164509   8.785   4.469   1.919
20850SOL    HW264510   8.769   4.589   1.809
20851SOL     OW64511   8.516   5.057   2.711
20851SOL    HW164512   8.523   4.973   2.656
20851SOL    HW264513   8.578   5.126   2.675
20852SOL     OW64514   7.767   4.534   2.811
20852SOL    HW164515   7.860   4.570   2.816
20852SOL    HW264516   7.761   4.449   2.863
20853SOL     OW64517   7.787   4.233   2.868
20853SOL    HW164518   7.735   4.150   2.851
20853SOL    HW264519   7.864   4.238   2.804
20854SOL     OW64520   7.959   4.139   3.670
20854SOL    HW164521   7.941   4.184   3.758
20854SOL    HW264522   8.001   4.204   3.607
20855SOL     OW64523   8.608   3.931   3.339
20855SOL    HW164524   8.608   3.995   3.416
20855SOL    HW264525   8.636   3.979   3.256
20856SOL     OW64526   7.456   5.050   2.062
20856SOL    HW164527   7.363   5.071   2.031
20856SOL    HW264528   7.466   4.951   2.075
20857SOL     OW64529   7.952   5.292   2.772
20857SOL    HW164530   8.018   5.366   2.781
20857SOL    HW264531   7.996   5.213   2.730
20858SOL     OW64532   7.488   4.268   2.976
20858SOL    HW164533   7.573   4.235   2.935
20858SOL    HW264534   7.501   4.283   3.074
20859SOL     OW64535   7.637   4.244   3.584
20859SOL    HW164536   7.696   4.204   3.514
20859SOL    HW264537   7.579   4.315   3.543
20860SOL     OW64538   8.263   4.296   2.187
20860SOL    HW164539   8.270   4.207   2.141
20860SOL    HW264540   8.169   4.330   2.179
20861SOL     OW64541   0.105   4.328   3.068
20861SOL    HW164542   0.067   4.259   3.130
20861SOL    HW264543   0.187   4.292   3.024
20862SOL     OW64544   7.700   5.288   3.606
20862SOL    HW164545   7.670   5.345   3.682
20862SOL    HW264546   7.693   5.191   3.632
20863SOL     OW64547   8.119   4.188   3.131
20863SOL    HW164548   8.085   4.099   3.101
20863SOL    HW264549   8.145   4.242   3.051
20864SOL     OW64550   8.378   5.402   3.327
20864SOL    HW164551   8.354   5.384   3.232
20864SOL    HW264552   8.408   5.496   3.337
20865SOL     OW64553   7.921   4.224   2.053
20865SOL    HW164554   7.982   4.304   2.057
20865SOL    HW264555   7.826   4.255   2.060
20866SOL     OW64556   7.607   4.861   3.328
20866SOL    HW164557   7.629   4.800   3.404
20866SOL    HW264558   7.617   4.812   3.242
20867SOL     OW64559   8.795   4.783   3.096
20867SOL    HW164560   8.819   4.720   3.022
20867SOL    HW264561   8.705   4.823   3.078
20868SOL     OW64562   8.750   4.579   2.171
20868SOL    HW164563   8.664   4.548   2.213
20868SOL    HW264564   8.746   4.565   2.072
20869SOL     OW64565   8.700   5.455   2.990
20869SOL    HW164566   8.784   5.460   2.936
20869SOL    HW264567   8.677   5.359   3.008
20870SOL     OW64568   7.531   4.982   2.884
20870SOL    HW164569   7.526   4.981   2.984
20870SOL    HW264570   7.448   4.941   2.846
20871SOL     OW64571   8.136   5.386   3.578
20871SOL    HW164572   8.080   5.467   3.587
20871SOL    HW264573   8.188   5.390   3.492
20872SOL     OW64574   8.351   3.810   1.995
20872SOL    HW164575   8.402   3.811   1.909
20872SOL    HW264576   8.407   3.768   2.066
20873SOL     OW64577   0.174   3.859   2.385
20873SOL    HW164578   0.247   3.842   2.318
20873SOL    HW264579   0.143   3.772   2.423
20874SOL     OW64580   8.836   5.297   2.339
20874SOL    HW164581   8.903   5.309   2.265
20874SOL    HW264582   8.796   5.386   2.362
20875SOL     OW64583   7.578   5.518   3.713
20875SOL    HW164584   7.537   5.444   3.766
20875SOL    HW264585   7.642   5.569   3.771
20876SOL     OW64586   8.728   4.651   2.534
20876SOL    HW164587   8.788   4.570   2.536
20876SOL    HW264588   8.768   4.720   2.474
20877SOL     OW64589   8.278   4.997   3.284
20877SOL    HW164590   8.273   5.030   3.379
20877SOL    HW264591   8.192   5.016   3.238
20878SOL     OW64592   8.120   5.340   2.016
20878SOL    HW164593   8.129   5.350   1.917
20878SOL    HW264594   8.080   5.251   2.037
20879SOL     OW64595   0.098   5.444   3.256
20879SOL    HW164596   0.151   5.454   3.172
20879SOL    HW264597   0.071   5.534   3.290
20880SOL     OW64598   7.711   4.050   2.582
20880SOL    HW164599   7.632   4.101   2.548
20880SOL    HW264600   7.702   4.035   2.680
20881SOL     OW64601   8.642   5.336   1.893
20881SOL    HW164602   8.648   5.243   1.930
20881SOL    HW264603   8.583   5.336   1.813
20882SOL     OW64604   8.270   4.726   3.234
20882SOL    HW164605   8.310   4.725   3.142
20882SOL    HW264606   8.280   4.818   3.274
20883SOL     OW64607   8.364   4.634   2.153
20883SOL    HW164608   8.427   4.672   2.085
20883SOL    HW264609   8.404   4.551   2.192
20884SOL     OW64610   8.952   5.331   1.906
20884SOL    HW164611   8.860   5.368   1.913
20884SOL    HW264612   8.990   5.351   1.816
20885SOL     OW64613   7.820   5.012   3.352
20885SOL    HW164614   7.807   5.105   3.318
20885SOL    HW264615   7.736   4.960   3.339
20886SOL     OW64616   0.062   5.016   3.151
20886SOL    HW164617   0.122   5.019   3.231
20886SOL    HW264618  -0.013   5.080   3.164
20887SOL     OW64619   8.487   4.822   2.558
20887SOL    HW164620   8.417   4.775   2.612
20887SOL    HW264621   8.546   4.754   2.515
20888SOL     OW64622   8.462   3.960   2.833
20888SOL    HW164623   8.454   3.924   2.740
20888SOL    HW264624   8.460   3.884   2.898
20889SOL     OW64625   8.038   5.211   2.353
20889SOL    HW164626   8.080   5.153   2.283
20889SOL    HW264627   7.994   5.290   2.309
20890SOL     OW64628   0.157   4.109   3.243
20890SOL    HW164629   0.230   4.178   3.247
20890SOL    HW264630   0.185   4.034   3.184
20891SOL     OW64631   7.703   5.072   2.152
20891SOL    HW164632   7.607   5.073   2.125
20891SOL    HW264633   7.715   5.125   2.236
20892SOL     OW64634   7.523   4.069   1.895
20892SOL    HW164635   7.431   4.041   1.866
20892SOL    HW264636   7.554   4.146   1.839
20893SOL     OW64637   7.520   3.890   2.180
20893SOL    HW164638   7.503   3.973   2.126
20893SOL    HW264639   7.610   3.853   2.158
20894SOL     OW64640   8.631   5.059   1.981
20894SOL    HW164641   8.532   5.048   1.983
20894SOL    HW264642   8.665   5.074   2.074
20895SOL     OW64643   8.941   5.491   2.821
20895SOL    HW164644   8.974   5.555   2.752
20895SOL    HW264645   9.007   5.485   2.896
20896SOL     OW64646   8.164   4.289   3.570
20896SOL    HW164647   8.183   4.354   3.644
20896SOL    HW264648   8.224   4.209   3.579
20897SOL     OW64649   0.122   4.607   3.116
20897SOL    HW164650   0.095   4.518   3.079
20897SOL    HW264651   0.123   4.675   3.043
20898SOL     OW64652   8.673   4.049   2.311
20898SOL    HW164653   8.738   3.975   2.300
20898SOL    HW264654   8.693   4.099   2.395
20899SOL     OW64655   8.042   4.469   2.514
20899SOL    HW164656   8.092   4.554   2.495
20899SOL    HW264657   7.954   4.471   2.466
20900SOL     OW64658   0.225   4.066   3.504
20900SOL    HW164659   0.208   4.097   3.410
20900SOL    HW264660   0.141   4.029   3.542
20901SOL     OW64661   0.178   4.658   3.379
20901SOL    HW164662   0.216   4.749   3.394
20901SOL    HW264663   0.170   4.641   3.280
20902SOL     OW64664   8.307   5.098   1.878
20902SOL    HW164665   8.261   5.113   1.966
20902SOL    HW264666   8.351   5.183   1.848
20903SOL     OW64667   8.109   5.514   2.815
20903SOL    HW164668   8.063   5.602   2.802
20903SOL    HW264669   8.208   5.526   2.808
20904SOL     OW64670   8.307   4.680   2.723
20904SOL    HW164671   8.361   4.611   2.771
20904SOL    HW264672   8.275   4.749   2.789
20905SOL     OW64673   8.531   4.708   1.949
20905SOL    HW164674   8.508   4.761   1.867
20905SOL    HW264675   8.612   4.652   1.930
20906SOL     OW64676   7.669   5.038   3.706
20906SOL    HW164677   7.604   4.965   3.685
20906SOL    HW264678   7.673   5.052   3.804
20907SOL     OW64679   7.527   4.964   2.515
20907SOL    HW164680   7.526   4.917   2.603
20907SOL    HW264681   7.609   4.936   2.464
20908SOL     OW64682   7.876   4.148   2.382
20908SOL    HW164683   7.906   4.076   2.320
20908SOL    HW264684   7.837   4.108   2.465
20909SOL     OW64685   0.153   5.211   2.966
20909SOL    HW164686   0.060   5.186   2.939
20909SOL    HW264687   0.179   5.161   3.048
20910SOL     OW64688   7.765   4.271   3.142
20910SOL    HW164689   7.803   4.212   3.214
20910SOL    HW264690   7.805   4.245   3.054
20911SOL     OW64691   8.260   5.310   2.549
20911SOL    HW164692   8.292   5.320   2.455
20911SOL    HW264693   8.181   5.248   2.551
20912SOL     OW64694   8.872   3.938   2.974
20912SOL    HW164695   8.924   3.873   3.029
20912SOL    HW264696   8.823   4.001   3.035
20913SOL     OW64697   8.449   3.758   3.016
20913SOL    HW164698   8.386   3.686   2.985
20913SOL    HW264699   8.542   3.722   3.016
20914SOL     OW64700   8.218   5.054   2.163
20914SOL    HW164701   8.172   4.967   2.180
20914SOL    HW264702   8.309   5.051   2.204
20915SOL     OW64703   8.066   5.291   3.146
20915SOL    HW164704   8.061   5.373   3.203
20915SOL    HW264705   8.155   5.288   3.101
20916SOL     OW64706   8.800   3.776   2.030
20916SOL    HW164707   8.835   3.735   1.946
20916SOL    HW264708   8.710   3.738   2.050
20917SOL     OW64709   8.748   4.177   2.553
20917SOL    HW164710   8.689   4.257   2.557
20917SOL    HW264711   8.763   4.142   2.646
20918SOL     OW64712   0.041   3.945   2.744
20918SOL    HW164713  -0.043   3.944   2.798
20918SOL    HW264714   0.043   4.028   2.688
20919SOL     OW64715   7.487   4.801   2.162
20919SOL    HW164716   7.586   4.790   2.153
20919SOL    HW264717   7.447   4.715   2.194
20920SOL     OW64718   8.323   5.370   2.199
20920SOL    HW164719   8.246   5.335   2.145
20920SOL    HW264720   8.291   5.441   2.261
20921SOL     OW64721   7.467   4.092   4.371
20921SOL    HW164722   7.385   4.135   4.410
20921SOL    HW264723   7.439   4.019   4.308
20922SOL     OW64724   8.017   4.999   4.889
20922SOL    HW164725   7.924   4.992   4.852
20922SOL    HW264726   8.028   5.088   4.933
20923SOL     OW64727   0.003   5.235   4.427
20923SOL    HW164728  -0.054   5.219   4.508
20923SOL    HW264729  -0.056   5.245   4.347
20924SOL     OW64730   0.191   4.342   4.580
20924SOL    HW164731   0.224   4.436   4.580
20924SOL    HW264732   0.242   4.288   4.646
20925SOL     OW64733   8.583   4.427   4.441
20925SOL    HW164734   8.640   4.505   4.416
20925SOL    HW264735   8.523   4.453   4.517
20926SOL     OW64736   0.203   4.331   3.955
20926SOL    HW164737   0.191   4.318   3.856
20926SOL    HW264738   0.173   4.250   4.004
20927SOL     OW64739   8.216   4.868   4.747
20927SOL    HW164740   8.138   4.885   4.807
20927SOL    HW264741   8.250   4.955   4.711
20928SOL     OW64742   8.298   4.522   5.547
20928SOL    HW164743   8.294   4.598   5.612
20928SOL    HW264744   8.320   4.558   5.456
20929SOL     OW64745   8.134   4.885   5.527
20929SOL    HW164746   8.194   4.964   5.541
20929SOL    HW264747   8.048   4.916   5.486
20930SOL     OW64748   7.783   5.159   4.785
20930SOL    HW164749   7.705   5.128   4.732
20930SOL    HW264750   7.841   5.217   4.728
20931SOL     OW64751   8.908   5.229   5.063
20931SOL    HW164752   8.932   5.323   5.089
20931SOL    HW264753   8.892   5.175   5.145
20932SOL     OW64754   7.886   4.116   5.223
20932SOL    HW164755   7.968   4.060   5.232
20932SOL    HW264756   7.805   4.058   5.227
20933SOL     OW64757   7.679   5.437   4.207
20933SOL    HW164758   7.713   5.514   4.261
20933SOL    HW264759   7.723   5.437   4.117
20934SOL     OW64760   8.575   5.065   5.414
20934SOL    HW164761   8.622   5.065   5.502
20934SOL    HW264762   8.527   4.978   5.403
20935SOL     OW64763   7.678   5.158   4.262
20935SOL    HW164764   7.652   5.254   4.262
20935SOL    HW264765   7.607   5.104   4.307
20936SOL     OW64766   7.688   4.815   4.610
20936SOL    HW164767   7.702   4.731   4.662
20936SOL    HW264768   7.633   4.879   4.665
20937SOL     OW64769   8.068   5.510   5.163
20937SOL    HW164770   7.976   5.493   5.198
20937SOL    HW264771   8.096   5.602   5.189
20938SOL     OW64772   0.042   3.838   5.204
20938SOL    HW164773   0.024   3.905   5.132
20938SOL    HW264774   0.039   3.884   5.293
20939SOL     OW64775   7.475   5.320   3.841
20939SOL    HW164776   7.456   5.224   3.862
20939SOL    HW264777   7.442   5.378   3.916
20940SOL     OW64778   0.137   4.646   4.336
20940SOL    HW164779   0.232   4.617   4.344
20940SOL    HW264780   0.129   4.711   4.261
20941SOL     OW64781   0.089   4.832   4.156
20941SOL    HW164782   0.175   4.834   4.104
20941SOL    HW264783   0.103   4.879   4.244
20942SOL     OW64784   8.061   5.089   4.450
20942SOL    HW164785   8.012   5.002   4.459
20942SOL    HW264786   8.038   5.132   4.363
20943SOL     OW64787   8.741   4.952   5.147
20943SOL    HW164788   8.778   4.879   5.089
20943SOL    HW264789   8.793   4.957   5.232
20944SOL     OW64790   8.257   3.728   4.226
20944SOL    HW164791   8.297   3.819   4.217
20944SOL    HW264792   8.157   3.736   4.232
20945SOL     OW64793   7.645   4.700   4.988
20945SOL    HW164794   7.734   4.655   4.974
20945SOL    HW264795   7.572   4.635   4.969
20946SOL     OW64796   8.973   4.723   3.914
20946SOL    HW164797   8.910   4.647   3.927
20946SOL    HW264798   9.021   4.741   4.000
20947SOL     OW64799   8.635   5.516   5.340
20947SOL    HW164800   8.659   5.576   5.264
20947SOL    HW264801   8.642   5.421   5.310
20948SOL     OW64802   7.765   3.975   5.525
20948SOL    HW164803   7.836   4.046   5.531
20948SOL    HW264804   7.677   4.014   5.553
20949SOL     OW64805   8.914   5.141   4.677
20949SOL    HW164806   8.855   5.147   4.757
20949SOL    HW264807   8.899   5.053   4.631
20950SOL     OW64808   0.115   5.438   4.296
20950SOL    HW164809   0.074   5.415   4.208
20950SOL    HW264810   0.097   5.364   4.361
20951SOL     OW64811   8.729   4.069   4.668
20951SOL    HW164812   8.643   4.019   4.655
20951SOL    HW264813   8.791   4.015   4.724
20952SOL     OW64814   0.024   5.386   4.031
20952SOL    HW164815   0.113   5.432   4.034
20952SOL    HW264816   0.003   5.362   3.936
20953SOL     OW64817   8.255   4.329   5.189
20953SOL    HW164818   8.208   4.326   5.278
20953SOL    HW264819   8.204   4.274   5.123
20954SOL     OW64820   8.842   4.193   5.398
20954SOL    HW164821   8.822   4.236   5.486
20954SOL    HW264822   8.920   4.131   5.407
20955SOL     OW64823   8.421   4.614   5.296
20955SOL    HW164824   8.467   4.530   5.267
20955SOL    HW264825   8.365   4.648   5.221
20956SOL     OW64826   8.439   4.134   4.966
20956SOL    HW164827   8.362   4.168   5.020
20956SOL    HW264828   8.405   4.083   4.887
20957SOL     OW64829   8.489   4.425   4.153
20957SOL    HW164830   8.515   4.421   4.249
20957SOL    HW264831   8.404   4.374   4.139
20958SOL     OW64832   7.578   5.545   5.295
20958SOL    HW164833   7.568   5.530   5.394
20958SOL    HW264834   7.492   5.581   5.259
20959SOL     OW64835   0.167   4.309   5.555
20959SOL    HW164836   0.141   4.398   5.519
20959SOL    HW264837   0.165   4.241   5.482
20960SOL     OW64838   8.810   4.868   4.269
20960SOL    HW164839   8.893   4.839   4.221
20960SOL    HW264840   8.761   4.935   4.213
20961SOL     OW64841   7.998   3.920   4.609
20961SOL    HW164842   7.993   3.915   4.709
20961SOL    HW264843   8.000   4.016   4.580
20962SOL     OW64844   8.456   5.180   4.201
20962SOL    HW164845   8.410   5.252   4.149
20962SOL    HW264846   8.452   5.200   4.299
20963SOL     OW64847   7.799   5.525   4.577
20963SOL    HW164848   7.849   5.439   4.583
20963SOL    HW264849   7.864   5.602   4.574
20964SOL     OW64850   0.243   4.790   4.597
20964SOL    HW164851   0.181   4.775   4.521
20964SOL    HW264852   0.191   4.801   4.682
20965SOL     OW64853   8.675   5.274   5.230
20965SOL    HW164854   8.681   5.197   5.294
20965SOL    HW264855   8.623   5.248   5.150
20966SOL     OW64856   8.906   4.459   4.452
20966SOL    HW164857   8.901   4.394   4.527
20966SOL    HW264858   8.986   4.518   4.465
20967SOL     OW64859   7.909   4.990   5.451
20967SOL    HW164860   7.859   4.991   5.365
20967SOL    HW264861   7.846   4.972   5.527
20968SOL     OW64862   8.559   5.500   3.961
20968SOL    HW164863   8.499   5.438   4.011
20968SOL    HW264864   8.590   5.456   3.876
20969SOL     OW64865   0.080   5.101   3.805
20969SOL    HW164866   0.048   5.195   3.795
20969SOL    HW264867   0.004   5.038   3.793
20970SOL     OW64868   7.912   5.467   4.047
20970SOL    HW164869   7.945   5.506   4.133
20970SOL    HW264870   7.988   5.460   3.982
20971SOL     OW64871   8.848   3.831   4.150
20971SOL    HW164872   8.824   3.794   4.060
20971SOL    HW264873   8.947   3.847   4.154
20972SOL     OW64874   7.697   5.509   4.965
20972SOL    HW164875   7.754   5.444   5.015
20972SOL    HW264876   7.681   5.476   4.872
20973SOL     OW64877   8.388   5.422   4.628
20973SOL    HW164878   8.468   5.365   4.649
20973SOL    HW264879   8.339   5.382   4.551
20974SOL     OW64880   8.995   3.946   5.453
20974SOL    HW164881   8.990   3.983   5.545
20974SOL    HW264882   8.923   3.877   5.441
20975SOL     OW64883   8.062   3.846   3.841
20975SOL    HW164884   8.160   3.824   3.848
20975SOL    HW264885   8.031   3.829   3.748
20976SOL     OW64886   8.229   3.988   5.473
20976SOL    HW164887   8.296   3.927   5.516
20976SOL    HW264888   8.156   4.007   5.538
20977SOL     OW64889   8.336   5.238   4.919
20977SOL    HW164890   8.313   5.213   4.825
20977SOL    HW264891   8.397   5.169   4.958
20978SOL     OW64892   8.799   4.314   5.157
20978SOL    HW164893   8.827   4.271   5.242
20978SOL    HW264894   8.824   4.410   5.158
20979SOL     OW64895   8.251   5.126   4.648
20979SOL    HW164896   8.341   5.140   4.606
20979SOL    HW264897   8.180   5.128   4.577
20980SOL     OW64898   8.370   4.227   4.623
20980SOL    HW164899   8.345   4.218   4.527
20980SOL    HW264900   8.418   4.145   4.654
20981SOL     OW64901   7.987   3.788   4.236
20981SOL    HW164902   7.906   3.789   4.294
20981SOL    HW264903   7.990   3.871   4.181
20982SOL     OW64904   8.882   4.912   3.765
20982SOL    HW164905   8.914   4.836   3.822
20982SOL    HW264906   8.790   4.939   3.795
20983SOL     OW64907   7.745   3.759   3.895
20983SOL    HW164908   7.794   3.843   3.874
20983SOL    HW264909   7.807   3.694   3.940
20984SOL     OW64910   8.383   3.960   4.204
20984SOL    HW164911   8.335   4.001   4.126
20984SOL    HW264912   8.482   3.958   4.185
20985SOL     OW64913   8.524   4.407   5.188
20985SOL    HW164914   8.444   4.346   5.191
20985SOL    HW264915   8.605   4.354   5.164
20986SOL     OW64916   8.675   5.294   4.517
20986SOL    HW164917   8.696   5.368   4.452
20986SOL    HW264918   8.743   5.294   4.590
20987SOL     OW64919   8.719   5.521   4.315
20987SOL    HW164920   8.763   5.585   4.251
20987SOL    HW264921   8.669   5.573   4.385
20988SOL     OW64922   8.009   3.946   4.871
20988SOL    HW164923   8.047   3.862   4.908
20988SOL    HW264924   7.921   3.965   4.915
20989SOL     OW64925   8.314   4.178   4.366
20989SOL    HW164926   8.282   4.250   4.304
20989SOL    HW264927   8.338   4.097   4.313
20990SOL     OW64928   8.465   3.763   4.477
20990SOL    HW164929   8.393   3.768   4.408
20990SOL    HW264930   8.441   3.694   4.546
20991SOL     OW64931   8.877   4.897   4.591
20991SOL    HW164932   8.822   4.813   4.584
20991SOL    HW264933   8.903   4.926   4.499
20992SOL     OW64934   8.914   4.314   4.716
20992SOL    HW164935   8.884   4.219   4.723
20992SOL    HW264936   8.987   4.330   4.782
20993SOL     OW64937   7.936   5.109   3.898
20993SOL    HW164938   7.849   5.094   3.945
20993SOL    HW264939   7.919   5.135   3.803
20994SOL     OW64940   0.112   5.004   4.381
20994SOL    HW164941   0.211   5.012   4.395
20994SOL    HW264942   0.067   5.088   4.412
20995SOL     OW64943   8.838   4.299   3.802
20995SOL    HW164944   8.784   4.278   3.883
20995SOL    HW264945   8.929   4.258   3.811
20996SOL     OW64946   8.512   5.071   5.064
20996SOL    HW164947   8.432   5.048   5.119
20996SOL    HW264948   8.595   5.045   5.113
20997SOL     OW64949   0.040   5.353   5.349
20997SOL    HW164950   0.067   5.387   5.259
20997SOL    HW264951   0.119   5.315   5.395
20998SOL     OW64952   8.559   4.919   4.824
20998SOL    HW164953   8.519   4.963   4.905
20998SOL    HW264954   8.518   4.956   4.741
20999SOL     OW64955   0.086   4.823   4.803
20999SOL    HW164956   0.091   4.904   4.862
20999SOL    HW264957   0.000   4.825   4.752
21000SOL     OW64958   8.363   3.813   5.126
21000SOL    HW164959   8.388   3.793   5.031
21000SOL    HW264960   8.435   3.869   5.168
21001SOL     OW64961   8.428   4.840   5.443
21001SOL    HW164962   8.329   4.846   5.453
21001SOL    HW264963   8.451   4.760   5.387
21002SOL     OW64964   8.153   4.774   4.092
21002SOL    HW164965   8.139   4.781   4.191
21002SOL    HW264966   8.237   4.723   4.074
21003SOL     OW64967   8.722   4.110   4.986
21003SOL    HW164968   8.743   4.184   5.050
21003SOL    HW264969   8.633   4.127   4.943
21004SOL     OW64970   7.512   5.288   5.055
21004SOL    HW164971   7.466   5.370   5.021
21004SOL    HW264972   7.610   5.307   5.064
21005SOL     OW64973   8.700   5.072   4.112
21005SOL    HW164974   8.750   5.149   4.152
21005SOL    HW264975   8.605   5.074   4.144
21006SOL     OW64976   8.720   5.169   4.866
21006SOL    HW164977   8.767   5.182   4.953
21006SOL    HW264978   8.654   5.095   4.875
21007SOL     OW64979   0.030   4.363   4.196
21007SOL    HW164980  -0.001   4.424   4.269
21007SOL    HW264981   0.080   4.415   4.127
21008SOL     OW64982   7.802   5.234   5.053
21008SOL    HW164983   7.781   5.190   4.966
21008SOL    HW264984   7.899   5.260   5.056
21009SOL     OW64985   7.850   4.475   5.322
21009SOL    HW164986   7.918   4.530   5.275
21009SOL    HW264987   7.890   4.387   5.349
21010SOL     OW64988   0.035   4.503   5.394
21010SOL    HW164989  -0.057   4.541   5.389
21010SOL    HW264990   0.095   4.550   5.329
21011SOL     OW64991   8.461   3.829   5.494
21011SOL    HW164992   8.467   3.914   5.442
21011SOL    HW264993   8.493   3.753   5.437
21012SOL     OW64994   7.952   3.774   5.464
21012SOL    HW164995   7.910   3.717   5.394
21012SOL    HW264996   7.886   3.843   5.496
21013SOL     OW64997   8.021   4.594   4.753
21013SOL    HW164998   8.065   4.683   4.744
21013SOL    HW264999   7.958   4.594   4.830
21014SOL     OW65000   8.808   4.586   4.769
21014SOL    HW165001   8.733   4.586   4.703
21014SOL    HW265002   8.845   4.494   4.778
21015SOL     OW65003   8.657   4.249   3.999
21015SOL    HW165004   8.670   4.165   4.053
21015SOL    HW265005   8.628   4.323   4.059
21016SOL     OW65006   7.755   3.937   4.955
21016SOL    HW165007   7.732   3.974   5.045
21016SOL    HW265008   7.725   3.842   4.949
21017SOL     OW65009   7.485   5.034   5.006
21017SOL    HW165010   7.538   4.985   5.074
21017SOL    HW265011   7.507   5.132   5.011
21018SOL     OW65012   0.176   4.659   5.578
21018SOL    HW165013   0.130   4.652   5.489
21018SOL    HW265014   0.114   4.703   5.644
21019SOL     OW65015   7.755   3.787   4.342
21019SOL    HW165016   7.744   3.881   4.375
21019SOL    HW265017   7.750   3.724   4.419
21020SOL     OW65018   0.070   4.091   4.098
21020SOL    HW165019   0.072   4.015   4.162
21020SOL    HW265020   0.022   4.168   4.138
21021SOL     OW65021   8.471   4.490   4.690
21021SOL    HW165022   8.486   4.511   4.786
21021SOL    HW265023   8.441   4.395   4.681
21022SOL     OW65024   8.428   5.297   5.424
21022SOL    HW165025   8.408   5.341   5.336
21022SOL    HW265026   8.467   5.206   5.408
21023SOL     OW65027   7.798   4.622   5.528
21023SOL    HW165028   7.874   4.666   5.576
21023SOL    HW265029   7.833   4.575   5.446
21024SOL     OW65030   8.988   3.998   3.849
21024SOL    HW165031   8.927   3.923   3.872
21024SOL    HW265032   9.010   4.050   3.932
21025SOL     OW65033   8.751   4.562   3.766
21025SOL    HW165034   8.785   4.469   3.781
21025SOL    HW265035   8.769   4.589   3.671
21026SOL     OW65036   8.516   5.057   4.573
21026SOL    HW165037   8.523   4.973   4.518
21026SOL    HW265038   8.578   5.126   4.537
21027SOL     OW65039   7.767   4.534   4.673
21027SOL    HW165040   7.860   4.570   4.678
21027SOL    HW265041   7.761   4.449   4.725
21028SOL     OW65042   7.959   4.139   5.532
21028SOL    HW165043   7.941   4.184   5.620
21028SOL    HW265044   8.001   4.204   5.469
21029SOL     OW65045   8.586   4.104   5.402
21029SOL    HW165046   8.541   4.167   5.466
21029SOL    HW265047   8.679   4.135   5.385
21030SOL     OW65048   8.608   3.931   5.201
21030SOL    HW165049   8.608   3.995   5.278
21030SOL    HW265050   8.636   3.979   5.118
21031SOL     OW65051   7.456   5.050   3.924
21031SOL    HW165052   7.363   5.071   3.893
21031SOL    HW265053   7.466   4.951   3.937
21032SOL     OW65054   7.536   5.525   4.651
21032SOL    HW165055   7.494   5.439   4.624
21032SOL    HW265056   7.630   5.528   4.617
21033SOL     OW65057   7.952   5.292   4.634
21033SOL    HW165058   8.018   5.366   4.643
21033SOL    HW265059   7.996   5.213   4.592
21034SOL     OW65060   8.450   4.520   4.962
21034SOL    HW165061   8.491   4.488   5.048
21034SOL    HW265062   8.354   4.493   4.959
21035SOL     OW65063   7.637   4.244   5.446
21035SOL    HW165064   7.696   4.204   5.376
21035SOL    HW265065   7.579   4.315   5.405
21036SOL     OW65066   8.817   4.674   5.384
21036SOL    HW165067   8.856   4.763   5.404
21036SOL    HW265068   8.827   4.654   5.287
21037SOL     OW65069   0.105   4.328   4.930
21037SOL    HW165070   0.067   4.259   4.992
21037SOL    HW265071   0.187   4.292   4.886
21038SOL     OW65072   7.700   5.288   5.468
21038SOL    HW165073   7.670   5.345   5.544
21038SOL    HW265074   7.693   5.191   5.494
21039SOL     OW65075   8.378   5.402   5.189
21039SOL    HW165076   8.354   5.384   5.094
21039SOL    HW265077   8.408   5.496   5.199
21040SOL     OW65078   7.607   4.861   5.190
21040SOL    HW165079   7.629   4.800   5.266
21040SOL    HW265080   7.617   4.812   5.104
21041SOL     OW65081   8.795   4.783   4.958
21041SOL    HW165082   8.819   4.720   4.884
21041SOL    HW265083   8.705   4.823   4.940
21042SOL     OW65084   8.750   4.579   4.033
21042SOL    HW165085   8.664   4.548   4.075
21042SOL    HW265086   8.746   4.565   3.934
21043SOL     OW65087   8.700   5.455   4.852
21043SOL    HW165088   8.784   5.460   4.798
21043SOL    HW265089   8.677   5.359   4.870
21044SOL     OW65090   7.531   4.982   4.746
21044SOL    HW165091   7.526   4.981   4.846
21044SOL    HW265092   7.448   4.941   4.708
21045SOL     OW65093   8.136   5.386   5.440
21045SOL    HW165094   8.080   5.467   5.449
21045SOL    HW265095   8.188   5.390   5.354
21046SOL     OW65096   8.351   3.810   3.857
21046SOL    HW165097   8.402   3.811   3.771
21046SOL    HW265098   8.407   3.768   3.928
21047SOL     OW65099   0.174   3.859   4.247
21047SOL    HW165100   0.247   3.842   4.180
21047SOL    HW265101   0.143   3.772   4.285
21048SOL     OW65102   8.836   5.297   4.201
21048SOL    HW165103   8.903   5.309   4.127
21048SOL    HW265104   8.796   5.386   4.224
21049SOL     OW65105   7.578   5.518   5.575
21049SOL    HW165106   7.537   5.444   5.628
21049SOL    HW265107   7.642   5.569   5.633
21050SOL     OW65108   8.728   4.651   4.396
21050SOL    HW165109   8.788   4.570   4.398
21050SOL    HW265110   8.768   4.720   4.336
21051SOL     OW65111   8.278   4.997   5.146
21051SOL    HW165112   8.273   5.030   5.241
21051SOL    HW265113   8.192   5.016   5.100
21052SOL     OW65114   0.098   5.444   5.118
21052SOL    HW165115   0.151   5.454   5.034
21052SOL    HW265116   0.071   5.534   5.152
21053SOL     OW65117   8.642   5.336   3.755
21053SOL    HW165118   8.648   5.243   3.792
21053SOL    HW265119   8.583   5.336   3.675
21054SOL     OW65120   8.270   4.726   5.096
21054SOL    HW165121   8.310   4.725   5.004
21054SOL    HW265122   8.280   4.818   5.136
21055SOL     OW65123   8.364   4.634   4.015
21055SOL    HW165124   8.427   4.672   3.947
21055SOL    HW265125   8.404   4.551   4.054
21056SOL     OW65126   8.952   5.331   3.768
21056SOL    HW165127   8.860   5.368   3.775
21056SOL    HW265128   8.990   5.351   3.678
21057SOL     OW65129   7.820   5.012   5.214
21057SOL    HW165130   7.807   5.105   5.180
21057SOL    HW265131   7.736   4.960   5.201
21058SOL     OW65132   0.062   5.016   5.013
21058SOL    HW165133   0.122   5.019   5.093
21058SOL    HW265134  -0.013   5.080   5.026
21059SOL     OW65135   8.487   4.822   4.420
21059SOL    HW165136   8.417   4.775   4.474
21059SOL    HW265137   8.546   4.754   4.377
21060SOL     OW65138   8.462   3.960   4.695
21060SOL    HW165139   8.454   3.924   4.602
21060SOL    HW265140   8.460   3.884   4.760
21061SOL     OW65141   8.038   5.211   4.215
21061SOL    HW165142   8.080   5.153   4.145
21061SOL    HW265143   7.994   5.290   4.171
21062SOL     OW65144   0.157   4.109   5.105
21062SOL    HW165145   0.230   4.178   5.109
21062SOL    HW265146   0.185   4.034   5.046
21063SOL     OW65147   7.703   5.072   4.014
21063SOL    HW165148   7.607   5.073   3.987
21063SOL    HW265149   7.715   5.125   4.098
21064SOL     OW65150   7.553   4.737   5.450
21064SOL    HW165151   7.476   4.704   5.504
21064SOL    HW265152   7.638   4.707   5.492
21065SOL     OW65153   8.120   3.927   5.213
21065SOL    HW165154   8.210   3.911   5.173
21065SOL    HW265155   8.128   3.932   5.312
21066SOL     OW65156   7.523   4.069   3.757
21066SOL    HW165157   7.431   4.041   3.728
21066SOL    HW265158   7.554   4.146   3.701
21067SOL     OW65159   8.888   4.580   5.122
21067SOL    HW165160   8.831   4.632   5.059
21067SOL    HW265161   8.984   4.592   5.098
21068SOL     OW65162   8.631   5.059   3.843
21068SOL    HW165163   8.532   5.048   3.845
21068SOL    HW265164   8.665   5.074   3.936
21069SOL     OW65165   8.061   4.566   5.155
21069SOL    HW165166   8.117   4.647   5.138
21069SOL    HW265167   8.120   4.486   5.158
21070SOL     OW65168   8.941   5.491   4.683
21070SOL    HW165169   8.974   5.555   4.614
21070SOL    HW265170   9.007   5.485   4.758
21071SOL     OW65171   8.164   4.289   5.432
21071SOL    HW165172   8.183   4.354   5.506
21071SOL    HW265173   8.224   4.209   5.441
21072SOL     OW65174   8.898   4.944   5.357
21072SOL    HW165175   8.889   4.934   5.456
21072SOL    HW265176   8.994   4.937   5.331
21073SOL     OW65177   7.838   5.465   5.284
21073SOL    HW165178   7.747   5.506   5.282
21073SOL    HW265179   7.831   5.371   5.316
21074SOL     OW65180   0.122   4.607   4.978
21074SOL    HW165181   0.095   4.518   4.941
21074SOL    HW265182   0.123   4.675   4.905
21075SOL     OW65183   8.673   4.049   4.173
21075SOL    HW165184   8.738   3.975   4.162
21075SOL    HW265185   8.693   4.099   4.257
21076SOL     OW65186   8.042   4.469   4.376
21076SOL    HW165187   8.092   4.554   4.357
21076SOL    HW265188   7.954   4.471   4.328
21077SOL     OW65189   0.225   4.066   5.366
21077SOL    HW165190   0.208   4.097   5.272
21077SOL    HW265191   0.141   4.029   5.404
21078SOL     OW65192   0.178   4.658   5.241
21078SOL    HW165193   0.216   4.749   5.256
21078SOL    HW265194   0.170   4.641   5.142
21079SOL     OW65195   8.109   5.514   4.677
21079SOL    HW165196   8.063   5.602   4.664
21079SOL    HW265197   8.208   5.526   4.670
21080SOL     OW65198   8.307   4.680   4.585
21080SOL    HW165199   8.361   4.611   4.633
21080SOL    HW265200   8.275   4.749   4.651
21081SOL     OW65201   7.669   5.038   5.568
21081SOL    HW165202   7.604   4.965   5.547
21081SOL    HW265203   7.673   5.052   5.666
21082SOL     OW65204   7.527   4.964   4.377
21082SOL    HW165205   7.526   4.917   4.465
21082SOL    HW265206   7.609   4.936   4.326
21083SOL     OW65207   8.120   5.115   5.348
21083SOL    HW165208   8.042   5.065   5.386
21083SOL    HW265209   8.117   5.210   5.379
21084SOL     OW65210   0.153   5.211   4.828
21084SOL    HW165211   0.060   5.186   4.801
21084SOL    HW265212   0.179   5.161   4.910
21085SOL     OW65213   8.260   5.310   4.411
21085SOL    HW165214   8.292   5.320   4.317
21085SOL    HW265215   8.181   5.248   4.413
21086SOL     OW65216   8.872   3.938   4.836
21086SOL    HW165217   8.924   3.873   4.891
21086SOL    HW265218   8.823   4.001   4.897
21087SOL     OW65219   8.449   3.758   4.878
21087SOL    HW165220   8.386   3.686   4.847
21087SOL    HW265221   8.542   3.722   4.878
21088SOL     OW65222   8.218   5.054   4.025
21088SOL    HW165223   8.172   4.967   4.042
21088SOL    HW265224   8.309   5.051   4.066
21089SOL     OW65225   8.066   5.291   5.008
21089SOL    HW165226   8.061   5.373   5.065
21089SOL    HW265227   8.155   5.288   4.963
21090SOL     OW65228   8.800   3.776   3.892
21090SOL    HW165229   8.835   3.735   3.808
21090SOL    HW265230   8.710   3.738   3.912
21091SOL     OW65231   8.748   4.177   4.415
21091SOL    HW165232   8.689   4.257   4.419
21091SOL    HW265233   8.763   4.142   4.508
21092SOL     OW65234   0.041   3.945   4.606
21092SOL    HW165235  -0.043   3.944   4.660
21092SOL    HW265236   0.043   4.028   4.550
21093SOL     OW65237   8.323   5.370   4.061
21093SOL    HW165238   8.246   5.335   4.007
21093SOL    HW265239   8.291   5.441   4.123
21094SOL     OW65240   7.678   4.352   5.699
21094SOL    HW165241   7.585   4.350   5.736
21094SOL    HW265242   7.679   4.313   5.607
21095SOL     OW65243   7.673   3.999   6.582
21095SOL    HW165244   7.708   3.982   6.674
21095SOL    HW265245   7.585   3.954   6.570
21096SOL     OW65246   7.467   4.092   6.233
21096SOL    HW165247   7.385   4.135   6.272
21096SOL    HW265248   7.439   4.019   6.170
21097SOL     OW65249   8.017   4.999   6.751
21097SOL    HW165250   7.924   4.992   6.714
21097SOL    HW265251   8.028   5.088   6.795
21098SOL     OW65252   0.003   5.235   6.289
21098SOL    HW165253  -0.054   5.219   6.370
21098SOL    HW265254  -0.056   5.245   6.209
21099SOL     OW65255   0.191   4.342   6.442
21099SOL    HW165256   0.224   4.436   6.442
21099SOL    HW265257   0.242   4.288   6.508
21100SOL     OW65258   8.583   4.427   6.303
21100SOL    HW165259   8.640   4.505   6.278
21100SOL    HW265260   8.523   4.453   6.379
21101SOL     OW65261   0.203   4.331   5.817
21101SOL    HW165262   0.191   4.318   5.718
21101SOL    HW265263   0.173   4.250   5.866
21102SOL     OW65264   8.216   4.868   6.609
21102SOL    HW165265   8.138   4.885   6.669
21102SOL    HW265266   8.250   4.955   6.573
21103SOL     OW65267   8.298   4.522   7.409
21103SOL    HW165268   8.294   4.598   7.474
21103SOL    HW265269   8.320   4.558   7.318
21104SOL     OW65270   8.133   4.736   6.251
21104SOL    HW165271   8.202   4.720   6.321
21104SOL    HW265272   8.060   4.793   6.289
21105SOL     OW65273   8.134   4.885   7.389
21105SOL    HW165274   8.194   4.964   7.403
21105SOL    HW265275   8.048   4.916   7.348
21106SOL     OW65276   7.783   5.159   6.647
21106SOL    HW165277   7.705   5.128   6.594
21106SOL    HW265278   7.841   5.217   6.590
21107SOL     OW65279   8.908   5.229   6.925
21107SOL    HW165280   8.932   5.323   6.951
21107SOL    HW265281   8.892   5.175   7.007
21108SOL     OW65282   7.886   4.116   7.085
21108SOL    HW165283   7.968   4.060   7.094
21108SOL    HW265284   7.805   4.058   7.089
21109SOL     OW65285   7.679   5.437   6.069
21109SOL    HW165286   7.713   5.514   6.123
21109SOL    HW265287   7.723   5.437   5.979
21110SOL     OW65288   8.575   5.065   7.276
21110SOL    HW165289   8.622   5.065   7.364
21110SOL    HW265290   8.527   4.978   7.265
21111SOL     OW65291   7.678   5.158   6.124
21111SOL    HW165292   7.652   5.254   6.124
21111SOL    HW265293   7.607   5.104   6.169
21112SOL     OW65294   7.688   4.815   6.472
21112SOL    HW165295   7.702   4.731   6.524
21112SOL    HW265296   7.633   4.879   6.527
21113SOL     OW65297   8.068   5.510   7.025
21113SOL    HW165298   7.976   5.493   7.060
21113SOL    HW265299   8.096   5.602   7.051
21114SOL     OW65300   8.054   4.688   5.709
21114SOL    HW165301   8.061   4.772   5.655
21114SOL    HW265302   8.100   4.701   5.797
21115SOL     OW65303   0.042   3.838   7.066
21115SOL    HW165304   0.024   3.905   6.994
21115SOL    HW265305   0.039   3.884   7.155
21116SOL     OW65306   7.570   4.367   6.149
21116SOL    HW165307   7.525   4.279   6.166
21116SOL    HW265308   7.569   4.421   6.233
21117SOL     OW65309   7.475   5.320   5.703
21117SOL    HW165310   7.456   5.224   5.724
21117SOL    HW265311   7.442   5.378   5.778
21118SOL     OW65312   0.137   4.646   6.198
21118SOL    HW165313   0.232   4.617   6.206
21118SOL    HW265314   0.129   4.711   6.123
21119SOL     OW65315   0.089   4.832   6.018
21119SOL    HW165316   0.175   4.834   5.966
21119SOL    HW265317   0.103   4.879   6.106
21120SOL     OW65318   7.561   4.461   7.183
21120SOL    HW165319   7.649   4.448   7.228
21120SOL    HW265320   7.548   4.558   7.161
21121SOL     OW65321   8.061   5.089   6.312
21121SOL    HW165322   8.012   5.002   6.321
21121SOL    HW265323   8.038   5.132   6.225
21122SOL     OW65324   8.741   4.952   7.009
21122SOL    HW165325   8.778   4.879   6.951
21122SOL    HW265326   8.793   4.957   7.094
21123SOL     OW65327   7.645   4.700   6.850
21123SOL    HW165328   7.734   4.655   6.836
21123SOL    HW265329   7.572   4.635   6.831
21124SOL     OW65330   8.973   4.723   5.776
21124SOL    HW165331   8.910   4.647   5.789
21124SOL    HW265332   9.021   4.741   5.862
21125SOL     OW65333   8.635   5.516   7.202
21125SOL    HW165334   8.659   5.576   7.126
21125SOL    HW265335   8.642   5.421   7.172
21126SOL     OW65336   7.765   3.975   7.387
21126SOL    HW165337   7.836   4.046   7.393
21126SOL    HW265338   7.677   4.014   7.415
21127SOL     OW65339   8.914   5.141   6.539
21127SOL    HW165340   8.855   5.147   6.619
21127SOL    HW265341   8.899   5.053   6.493
21128SOL     OW65342   0.115   5.438   6.158
21128SOL    HW165343   0.074   5.415   6.070
21128SOL    HW265344   0.097   5.364   6.223
21129SOL     OW65345   8.046   4.453   5.856
21129SOL    HW165346   8.070   4.522   5.788
21129SOL    HW265347   7.968   4.486   5.910
21130SOL     OW65348   8.729   4.069   6.530
21130SOL    HW165349   8.643   4.019   6.517
21130SOL    HW265350   8.791   4.015   6.586
21131SOL     OW65351   0.024   5.386   5.893
21131SOL    HW165352   0.113   5.432   5.896
21131SOL    HW265353   0.003   5.362   5.798
21132SOL     OW65354   8.255   4.329   7.051
21132SOL    HW165355   8.208   4.326   7.140
21132SOL    HW265356   8.204   4.274   6.985
21133SOL     OW65357   8.842   4.193   7.260
21133SOL    HW165358   8.822   4.236   7.348
21133SOL    HW265359   8.920   4.131   7.269
21134SOL     OW65360   8.421   4.614   7.158
21134SOL    HW165361   8.467   4.530   7.129
21134SOL    HW265362   8.365   4.648   7.083
21135SOL     OW65363   8.439   4.134   6.828
21135SOL    HW165364   8.362   4.168   6.882
21135SOL    HW265365   8.405   4.083   6.749
21136SOL     OW65366   8.489   4.425   6.015
21136SOL    HW165367   8.515   4.421   6.111
21136SOL    HW265368   8.404   4.374   6.001
21137SOL     OW65369   7.524   4.535   6.375
21137SOL    HW165370   7.623   4.523   6.384
21137SOL    HW265371   7.500   4.630   6.396
21138SOL     OW65372   7.578   5.545   7.157
21138SOL    HW165373   7.568   5.530   7.256
21138SOL    HW265374   7.492   5.581   7.121
21139SOL     OW65375   8.313   4.072   5.781
21139SOL    HW165376   8.372   4.135   5.732
21139SOL    HW265377   8.332   3.978   5.752
21140SOL     OW65378   0.167   4.309   7.417
21140SOL    HW165379   0.141   4.398   7.381
21140SOL    HW265380   0.165   4.241   7.344
21141SOL     OW65381   8.810   4.868   6.131
21141SOL    HW165382   8.893   4.839   6.083
21141SOL    HW265383   8.761   4.935   6.075
21142SOL     OW65384   7.998   3.920   6.471
21142SOL    HW165385   7.993   3.915   6.571
21142SOL    HW265386   8.000   4.016   6.442
21143SOL     OW65387   8.456   5.180   6.063
21143SOL    HW165388   8.410   5.252   6.011
21143SOL    HW265389   8.452   5.200   6.161
21144SOL     OW65390   7.799   5.525   6.439
21144SOL    HW165391   7.849   5.439   6.445
21144SOL    HW265392   7.864   5.602   6.436
21145SOL     OW65393   0.243   4.790   6.459
21145SOL    HW165394   0.181   4.775   6.383
21145SOL    HW265395   0.191   4.801   6.544
21146SOL     OW65396   8.675   5.274   7.092
21146SOL    HW165397   8.681   5.197   7.156
21146SOL    HW265398   8.623   5.248   7.012
21147SOL     OW65399   7.769   4.667   5.828
21147SOL    HW165400   7.851   4.706   5.786
21147SOL    HW265401   7.742   4.585   5.779
21148SOL     OW65402   8.906   4.459   6.314
21148SOL    HW165403   8.901   4.394   6.389
21148SOL    HW265404   8.986   4.518   6.327
21149SOL     OW65405   7.909   4.990   7.313
21149SOL    HW165406   7.859   4.991   7.227
21149SOL    HW265407   7.846   4.972   7.389
21150SOL     OW65408   8.559   5.500   5.823
21150SOL    HW165409   8.499   5.438   5.873
21150SOL    HW265410   8.590   5.456   5.738
21151SOL     OW65411   7.650   4.009   7.084
21151SOL    HW165412   7.570   4.069   7.071
21151SOL    HW265413   7.640   3.960   7.170
21152SOL     OW65414   0.080   5.101   5.667
21152SOL    HW165415   0.048   5.195   5.657
21152SOL    HW265416   0.004   5.038   5.655
21153SOL     OW65417   7.912   5.467   5.909
21153SOL    HW165418   7.945   5.506   5.995
21153SOL    HW265419   7.988   5.460   5.844
21154SOL     OW65420   8.848   3.831   6.012
21154SOL    HW165421   8.824   3.794   5.922
21154SOL    HW265422   8.947   3.847   6.016
21155SOL     OW65423   7.697   5.509   6.827
21155SOL    HW165424   7.754   5.444   6.877
21155SOL    HW265425   7.681   5.476   6.734
21156SOL     OW65426   8.388   5.422   6.490
21156SOL    HW165427   8.468   5.365   6.511
21156SOL    HW265428   8.339   5.382   6.413
21157SOL     OW65429   7.830   4.424   6.066
21157SOL    HW165430   7.875   4.334   6.063
21157SOL    HW265431   7.736   4.413   6.099
21158SOL     OW65432   8.995   3.946   7.315
21158SOL    HW165433   8.990   3.983   7.407
21158SOL    HW265434   8.923   3.877   7.303
21159SOL     OW65435   8.062   3.846   5.703
21159SOL    HW165436   8.160   3.824   5.710
21159SOL    HW265437   8.031   3.829   5.610
21160SOL     OW65438   8.229   3.988   7.335
21160SOL    HW165439   8.296   3.927   7.378
21160SOL    HW265440   8.156   4.007   7.400
21161SOL     OW65441   8.336   5.238   6.781
21161SOL    HW165442   8.313   5.213   6.687
21161SOL    HW265443   8.397   5.169   6.820
21162SOL     OW65444   8.799   4.314   7.019
21162SOL    HW165445   8.827   4.271   7.104
21162SOL    HW265446   8.824   4.410   7.020
21163SOL     OW65447   8.251   5.126   6.510
21163SOL    HW165448   8.341   5.140   6.468
21163SOL    HW265449   8.180   5.128   6.439
21164SOL     OW65450   8.370   4.227   6.485
21164SOL    HW165451   8.345   4.218   6.389
21164SOL    HW265452   8.418   4.145   6.516
21165SOL     OW65453   8.882   4.912   5.627
21165SOL    HW165454   8.914   4.836   5.684
21165SOL    HW265455   8.790   4.939   5.657
21166SOL     OW65456   7.745   3.759   5.757
21166SOL    HW165457   7.794   3.843   5.736
21166SOL    HW265458   7.807   3.694   5.802
21167SOL     OW65459   8.383   3.960   6.066
21167SOL    HW165460   8.335   4.001   5.988
21167SOL    HW265461   8.482   3.958   6.047
21168SOL     OW65462   8.524   4.407   7.050
21168SOL    HW165463   8.444   4.346   7.053
21168SOL    HW265464   8.605   4.354   7.026
21169SOL     OW65465   8.675   5.294   6.379
21169SOL    HW165466   8.696   5.368   6.314
21169SOL    HW265467   8.743   5.294   6.452
21170SOL     OW65468   7.907   4.876   6.327
21170SOL    HW165469   7.836   4.849   6.392
21170SOL    HW265470   7.881   4.848   6.234
21171SOL     OW65471   8.719   5.521   6.177
21171SOL    HW165472   8.763   5.585   6.113
21171SOL    HW265473   8.669   5.573   6.247
21172SOL     OW65474   8.480   4.273   5.602
21172SOL    HW165475   8.439   4.355   5.563
21172SOL    HW265476   8.544   4.299   5.675
21173SOL     OW65477   7.526   4.280   6.972
21173SOL    HW165478   7.618   4.279   6.931
21173SOL    HW265479   7.520   4.354   7.039
21174SOL     OW65480   8.009   3.946   6.733
21174SOL    HW165481   8.047   3.862   6.770
21174SOL    HW265482   7.921   3.965   6.777
21175SOL     OW65483   8.314   4.178   6.228
21175SOL    HW165484   8.282   4.250   6.166
21175SOL    HW265485   8.338   4.097   6.175
21176SOL     OW65486   8.465   3.763   6.339
21176SOL    HW165487   8.393   3.768   6.270
21176SOL    HW265488   8.441   3.694   6.408
21177SOL     OW65489   8.877   4.897   6.453
21177SOL    HW165490   8.822   4.813   6.446
21177SOL    HW265491   8.903   4.926   6.361
21178SOL     OW65492   8.914   4.314   6.578
21178SOL    HW165493   8.884   4.219   6.585
21178SOL    HW265494   8.987   4.330   6.644
21179SOL     OW65495   7.936   5.109   5.760
21179SOL    HW165496   7.849   5.094   5.807
21179SOL    HW265497   7.919   5.135   5.665
21180SOL     OW65498   0.112   5.004   6.243
21180SOL    HW165499   0.211   5.012   6.257
21180SOL    HW265500   0.067   5.088   6.274
21181SOL     OW65501   8.838   4.299   5.664
21181SOL    HW165502   8.784   4.278   5.745
21181SOL    HW265503   8.929   4.258   5.673
21182SOL     OW65504   7.975   3.980   5.914
21182SOL    HW165505   8.002   3.921   5.839
21182SOL    HW265506   7.975   4.075   5.883
21183SOL     OW65507   8.512   5.071   6.926
21183SOL    HW165508   8.432   5.048   6.981
21183SOL    HW265509   8.595   5.045   6.975
21184SOL     OW65510   0.040   5.353   7.211
21184SOL    HW165511   0.067   5.387   7.121
21184SOL    HW265512   0.119   5.315   7.257
21185SOL     OW65513   8.559   4.919   6.686
21185SOL    HW165514   8.519   4.963   6.767
21185SOL    HW265515   8.518   4.956   6.603
21186SOL     OW65516   0.086   4.823   6.665
21186SOL    HW165517   0.091   4.904   6.724
21186SOL    HW265518   0.000   4.825   6.614
21187SOL     OW65519   8.363   3.813   6.988
21187SOL    HW165520   8.388   3.793   6.893
21187SOL    HW265521   8.435   3.869   7.030
21188SOL     OW65522   8.428   4.840   7.305
21188SOL    HW165523   8.329   4.846   7.315
21188SOL    HW265524   8.451   4.760   7.249
21189SOL     OW65525   8.153   4.774   5.954
21189SOL    HW165526   8.139   4.781   6.053
21189SOL    HW265527   8.237   4.723   5.936
21190SOL     OW65528   7.858   4.537   6.837
21190SOL    HW165529   7.944   4.549   6.887
21190SOL    HW265530   7.816   4.450   6.864
21191SOL     OW65531   8.722   4.110   6.848
21191SOL    HW165532   8.743   4.184   6.912
21191SOL    HW265533   8.633   4.127   6.805
21192SOL     OW65534   7.512   5.288   6.917
21192SOL    HW165535   7.466   5.370   6.883
21192SOL    HW265536   7.610   5.307   6.926
21193SOL     OW65537   7.815   4.824   6.087
21193SOL    HW165538   7.808   4.907   6.031
21193SOL    HW265539   7.819   4.744   6.027
21194SOL     OW65540   8.014   4.261   6.451
21194SOL    HW165541   8.026   4.327   6.377
21194SOL    HW265542   8.060   4.295   6.534
21195SOL     OW65543   8.700   5.072   5.974
21195SOL    HW165544   8.750   5.149   6.014
21195SOL    HW265545   8.605   5.074   6.006
21196SOL     OW65546   8.720   5.169   6.728
21196SOL    HW165547   8.767   5.182   6.815
21196SOL    HW265548   8.654   5.095   6.737
21197SOL     OW65549   0.030   4.363   6.058
21197SOL    HW165550  -0.001   4.424   6.131
21197SOL    HW265551   0.080   4.415   5.989
21198SOL     OW65552   7.802   5.234   6.915
21198SOL    HW165553   7.781   5.190   6.828
21198SOL    HW265554   7.899   5.260   6.918
21199SOL     OW65555   7.850   4.475   7.184
21199SOL    HW165556   7.918   4.530   7.137
21199SOL    HW265557   7.890   4.387   7.211
21200SOL     OW65558   0.035   4.503   7.256
21200SOL    HW165559  -0.057   4.541   7.251
21200SOL    HW265560   0.095   4.550   7.191
21201SOL     OW65561   8.461   3.829   7.356
21201SOL    HW165562   8.467   3.914   7.304
21201SOL    HW265563   8.493   3.753   7.299
21202SOL     OW65564   7.952   3.774   7.326
21202SOL    HW165565   7.910   3.717   7.256
21202SOL    HW265566   7.886   3.843   7.358
21203SOL     OW65567   8.021   4.594   6.615
21203SOL    HW165568   8.065   4.683   6.606
21203SOL    HW265569   7.958   4.594   6.692
21204SOL     OW65570   8.808   4.586   6.631
21204SOL    HW165571   8.733   4.586   6.565
21204SOL    HW265572   8.845   4.494   6.640
21205SOL     OW65573   8.657   4.249   5.861
21205SOL    HW165574   8.670   4.165   5.915
21205SOL    HW265575   8.628   4.323   5.921
21206SOL     OW65576   7.755   3.937   6.817
21206SOL    HW165577   7.732   3.974   6.907
21206SOL    HW265578   7.725   3.842   6.811
21207SOL     OW65579   7.485   5.034   6.868
21207SOL    HW165580   7.538   4.985   6.936
21207SOL    HW265581   7.507   5.132   6.873
21208SOL     OW65582   8.180   4.358   6.650
21208SOL    HW165583   8.239   4.332   6.574
21208SOL    HW265584   8.152   4.454   6.639
21209SOL     OW65585   0.176   4.659   7.440
21209SOL    HW165586   0.130   4.652   7.351
21209SOL    HW265587   0.114   4.703   7.506
21210SOL     OW65588   0.070   4.091   5.960
21210SOL    HW165589   0.072   4.015   6.024
21210SOL    HW265590   0.022   4.168   6.000
21211SOL     OW65591   8.471   4.490   6.552
21211SOL    HW165592   8.486   4.511   6.648
21211SOL    HW265593   8.441   4.395   6.543
21212SOL     OW65594   8.428   5.297   7.286
21212SOL    HW165595   8.408   5.341   7.198
21212SOL    HW265596   8.467   5.206   7.270
21213SOL     OW65597   7.798   4.622   7.390
21213SOL    HW165598   7.874   4.666   7.438
21213SOL    HW265599   7.833   4.575   7.308
21214SOL     OW65600   8.988   3.998   5.711
21214SOL    HW165601   8.927   3.923   5.734
21214SOL    HW265602   9.010   4.050   5.794
21215SOL     OW65603   8.751   4.562   5.628
21215SOL    HW165604   8.785   4.469   5.643
21215SOL    HW265605   8.769   4.589   5.533
21216SOL     OW65606   8.516   5.057   6.435
21216SOL    HW165607   8.523   4.973   6.380
21216SOL    HW265608   8.578   5.126   6.399
21217SOL     OW65609   7.767   4.534   6.535
21217SOL    HW165610   7.860   4.570   6.540
21217SOL    HW265611   7.761   4.449   6.587
21218SOL     OW65612   7.787   4.233   6.592
21218SOL    HW165613   7.735   4.150   6.575
21218SOL    HW265614   7.864   4.238   6.528
21219SOL     OW65615   7.959   4.139   7.394
21219SOL    HW165616   7.941   4.184   7.482
21219SOL    HW265617   8.001   4.204   7.331
21220SOL     OW65618   8.586   4.104   7.264
21220SOL    HW165619   8.541   4.167   7.328
21220SOL    HW265620   8.679   4.135   7.247
21221SOL     OW65621   8.608   3.931   7.063
21221SOL    HW165622   8.608   3.995   7.140
21221SOL    HW265623   8.636   3.979   6.980
21222SOL     OW65624   7.456   5.050   5.786
21222SOL    HW165625   7.363   5.071   5.755
21222SOL    HW265626   7.466   4.951   5.799
21223SOL     OW65627   7.536   5.525   6.513
21223SOL    HW165628   7.494   5.439   6.486
21223SOL    HW265629   7.630   5.528   6.479
21224SOL     OW65630   7.952   5.292   6.496
21224SOL    HW165631   8.018   5.366   6.505
21224SOL    HW265632   7.996   5.213   6.454
21225SOL     OW65633   8.450   4.520   6.824
21225SOL    HW165634   8.491   4.488   6.910
21225SOL    HW265635   8.354   4.493   6.821
21226SOL     OW65636   7.488   4.268   6.700
21226SOL    HW165637   7.573   4.235   6.659
21226SOL    HW265638   7.501   4.283   6.798
21227SOL     OW65639   7.637   4.244   7.308
21227SOL    HW165640   7.696   4.204   7.238
21227SOL    HW265641   7.579   4.315   7.267
21228SOL     OW65642   8.817   4.674   7.246
21228SOL    HW165643   8.856   4.763   7.266
21228SOL    HW265644   8.827   4.654   7.149
21229SOL     OW65645   8.263   4.296   5.911
21229SOL    HW165646   8.270   4.207   5.865
21229SOL    HW265647   8.169   4.330   5.903
21230SOL     OW65648   0.105   4.328   6.792
21230SOL    HW165649   0.067   4.259   6.854
21230SOL    HW265650   0.187   4.292   6.748
21231SOL     OW65651   7.700   5.288   7.330
21231SOL    HW165652   7.670   5.345   7.406
21231SOL    HW265653   7.693   5.191   7.356
21232SOL     OW65654   8.119   4.188   6.855
21232SOL    HW165655   8.085   4.099   6.825
21232SOL    HW265656   8.145   4.242   6.775
21233SOL     OW65657   8.378   5.402   7.051
21233SOL    HW165658   8.354   5.384   6.956
21233SOL    HW265659   8.408   5.496   7.061
21234SOL     OW65660   7.921   4.224   5.777
21234SOL    HW165661   7.982   4.304   5.781
21234SOL    HW265662   7.826   4.255   5.784
21235SOL     OW65663   7.607   4.861   7.052
21235SOL    HW165664   7.629   4.800   7.128
21235SOL    HW265665   7.617   4.812   6.966
21236SOL     OW65666   8.795   4.783   6.820
21236SOL    HW165667   8.819   4.720   6.746
21236SOL    HW265668   8.705   4.823   6.802
21237SOL     OW65669   8.750   4.579   5.895
21237SOL    HW165670   8.664   4.548   5.937
21237SOL    HW265671   8.746   4.565   5.796
21238SOL     OW65672   8.700   5.455   6.714
21238SOL    HW165673   8.784   5.460   6.660
21238SOL    HW265674   8.677   5.359   6.732
21239SOL     OW65675   7.531   4.982   6.608
21239SOL    HW165676   7.526   4.981   6.708
21239SOL    HW265677   7.448   4.941   6.570
21240SOL     OW65678   8.136   5.386   7.302
21240SOL    HW165679   8.080   5.467   7.311
21240SOL    HW265680   8.188   5.390   7.216
21241SOL     OW65681   8.351   3.810   5.719
21241SOL    HW165682   8.402   3.811   5.633
21241SOL    HW265683   8.407   3.768   5.790
21242SOL     OW65684   0.174   3.859   6.109
21242SOL    HW165685   0.247   3.842   6.042
21242SOL    HW265686   0.143   3.772   6.147
21243SOL     OW65687   8.836   5.297   6.063
21243SOL    HW165688   8.903   5.309   5.989
21243SOL    HW265689   8.796   5.386   6.086
21244SOL     OW65690   7.578   5.518   7.437
21244SOL    HW165691   7.537   5.444   7.490
21244SOL    HW265692   7.642   5.569   7.495
21245SOL     OW65693   8.728   4.651   6.258
21245SOL    HW165694   8.788   4.570   6.260
21245SOL    HW265695   8.768   4.720   6.198
21246SOL     OW65696   8.278   4.997   7.008
21246SOL    HW165697   8.273   5.030   7.103
21246SOL    HW265698   8.192   5.016   6.962
21247SOL     OW65699   8.120   5.340   5.740
21247SOL    HW165700   8.129   5.350   5.641
21247SOL    HW265701   8.080   5.251   5.761
21248SOL     OW65702   0.098   5.444   6.980
21248SOL    HW165703   0.151   5.454   6.896
21248SOL    HW265704   0.071   5.534   7.014
21249SOL     OW65705   8.642   5.336   5.617
21249SOL    HW165706   8.648   5.243   5.654
21249SOL    HW265707   8.583   5.336   5.537
21250SOL     OW65708   8.270   4.726   6.958
21250SOL    HW165709   8.310   4.725   6.866
21250SOL    HW265710   8.280   4.818   6.998
21251SOL     OW65711   8.364   4.634   5.877
21251SOL    HW165712   8.427   4.672   5.809
21251SOL    HW265713   8.404   4.551   5.916
21252SOL     OW65714   8.952   5.331   5.630
21252SOL    HW165715   8.860   5.368   5.637
21252SOL    HW265716   8.990   5.351   5.540
21253SOL     OW65717   7.820   5.012   7.076
21253SOL    HW165718   7.807   5.105   7.042
21253SOL    HW265719   7.736   4.960   7.063
21254SOL     OW65720   0.062   5.016   6.875
21254SOL    HW165721   0.122   5.019   6.955
21254SOL    HW265722  -0.013   5.080   6.888
21255SOL     OW65723   8.487   4.822   6.282
21255SOL    HW165724   8.417   4.775   6.336
21255SOL    HW265725   8.546   4.754   6.239
21256SOL     OW65726   8.462   3.960   6.557
21256SOL    HW165727   8.454   3.924   6.464
21256SOL    HW265728   8.460   3.884   6.622
21257SOL     OW65729   8.038   5.211   6.077
21257SOL    HW165730   8.080   5.153   6.007
21257SOL    HW265731   7.994   5.290   6.033
21258SOL     OW65732   0.157   4.109   6.967
21258SOL    HW165733   0.230   4.178   6.971
21258SOL    HW265734   0.185   4.034   6.908
21259SOL     OW65735   7.703   5.072   5.876
21259SOL    HW165736   7.607   5.073   5.849
21259SOL    HW265737   7.715   5.125   5.960
21260SOL     OW65738   7.553   4.737   7.312
21260SOL    HW165739   7.476   4.704   7.366
21260SOL    HW265740   7.638   4.707   7.354
21261SOL     OW65741   8.120   3.927   7.075
21261SOL    HW165742   8.210   3.911   7.035
21261SOL    HW265743   8.128   3.932   7.174
21262SOL     OW65744   8.888   4.580   6.984
21262SOL    HW165745   8.831   4.632   6.921
21262SOL    HW265746   8.984   4.592   6.960
21263SOL     OW65747   7.520   3.890   5.904
21263SOL    HW165748   7.503   3.973   5.850
21263SOL    HW265749   7.610   3.853   5.882
21264SOL     OW65750   8.631   5.059   5.705
21264SOL    HW165751   8.532   5.048   5.707
21264SOL    HW265752   8.665   5.074   5.798
21265SOL     OW65753   8.061   4.566   7.017
21265SOL    HW165754   8.117   4.647   7.000
21265SOL    HW265755   8.120   4.486   7.020
21266SOL     OW65756   8.941   5.491   6.545
21266SOL    HW165757   8.974   5.555   6.476
21266SOL    HW265758   9.007   5.485   6.620
21267SOL     OW65759   8.164   4.289   7.294
21267SOL    HW165760   8.183   4.354   7.368
21267SOL    HW265761   8.224   4.209   7.303
21268SOL     OW65762   8.898   4.944   7.219
21268SOL    HW165763   8.889   4.934   7.318
21268SOL    HW265764   8.994   4.937   7.193
21269SOL     OW65765   7.838   5.465   7.146
21269SOL    HW165766   7.747   5.506   7.144
21269SOL    HW265767   7.831   5.371   7.178
21270SOL     OW65768   0.122   4.607   6.840
21270SOL    HW165769   0.095   4.518   6.803
21270SOL    HW265770   0.123   4.675   6.767
21271SOL     OW65771   8.673   4.049   6.035
21271SOL    HW165772   8.738   3.975   6.024
21271SOL    HW265773   8.693   4.099   6.119
21272SOL     OW65774   8.042   4.469   6.238
21272SOL    HW165775   8.092   4.554   6.219
21272SOL    HW265776   7.954   4.471   6.190
21273SOL     OW65777   0.225   4.066   7.228
21273SOL    HW165778   0.208   4.097   7.134
21273SOL    HW265779   0.141   4.029   7.266
21274SOL     OW65780   0.178   4.658   7.103
21274SOL    HW165781   0.216   4.749   7.118
21274SOL    HW265782   0.170   4.641   7.004
21275SOL     OW65783   8.307   5.098   5.602
21275SOL    HW165784   8.261   5.113   5.690
21275SOL    HW265785   8.351   5.183   5.572
21276SOL     OW65786   8.109   5.514   6.539
21276SOL    HW165787   8.063   5.602   6.526
21276SOL    HW265788   8.208   5.526   6.532
21277SOL     OW65789   8.307   4.680   6.447
21277SOL    HW165790   8.361   4.611   6.495
21277SOL    HW265791   8.275   4.749   6.513
21278SOL     OW65792   8.531   4.708   5.673
21278SOL    HW165793   8.508   4.761   5.591
21278SOL    HW265794   8.612   4.652   5.654
21279SOL     OW65795   7.669   5.038   7.430
21279SOL    HW165796   7.604   4.965   7.409
21279SOL    HW265797   7.673   5.052   7.528
21280SOL     OW65798   7.527   4.964   6.239
21280SOL    HW165799   7.526   4.917   6.327
21280SOL    HW265800   7.609   4.936   6.188
21281SOL     OW65801   8.120   5.115   7.210
21281SOL    HW165802   8.042   5.065   7.248
21281SOL    HW265803   8.117   5.210   7.241
21282SOL     OW65804   0.153   5.211   6.690
21282SOL    HW165805   0.060   5.186   6.663
21282SOL    HW265806   0.179   5.161   6.772
21283SOL     OW65807   7.765   4.271   6.866
21283SOL    HW165808   7.803   4.212   6.938
21283SOL    HW265809   7.805   4.245   6.778
21284SOL     OW65810   8.260   5.310   6.273
21284SOL    HW165811   8.292   5.320   6.179
21284SOL    HW265812   8.181   5.248   6.275
21285SOL     OW65813   8.872   3.938   6.698
21285SOL    HW165814   8.924   3.873   6.753
21285SOL    HW265815   8.823   4.001   6.759
21286SOL     OW65816   8.449   3.758   6.740
21286SOL    HW165817   8.386   3.686   6.709
21286SOL    HW265818   8.542   3.722   6.740
21287SOL     OW65819   8.218   5.054   5.887
21287SOL    HW165820   8.172   4.967   5.904
21287SOL    HW265821   8.309   5.051   5.928
21288SOL     OW65822   8.066   5.291   6.870
21288SOL    HW165823   8.061   5.373   6.927
21288SOL    HW265824   8.155   5.288   6.825
21289SOL     OW65825   8.800   3.776   5.754
21289SOL    HW165826   8.835   3.735   5.670
21289SOL    HW265827   8.710   3.738   5.774
21290SOL     OW65828   8.748   4.177   6.277
21290SOL    HW165829   8.689   4.257   6.281
21290SOL    HW265830   8.763   4.142   6.370
21291SOL     OW65831   0.041   3.945   6.468
21291SOL    HW165832  -0.043   3.944   6.522
21291SOL    HW265833   0.043   4.028   6.412
21292SOL     OW65834   7.487   4.801   5.886
21292SOL    HW165835   7.586   4.790   5.877
21292SOL    HW265836   7.447   4.715   5.918
21293SOL     OW65837   8.323   5.370   5.923
21293SOL    HW165838   8.246   5.335   5.869
21293SOL    HW265839   8.291   5.441   5.985
21294SOL     OW65840   7.678   4.352   7.561
21294SOL    HW165841   7.585   4.350   7.598
21294SOL    HW265842   7.679   4.313   7.469
21295SOL     OW65843   7.673   3.999   8.444
21295SOL    HW165844   7.708   3.982   8.536
21295SOL    HW265845   7.585   3.954   8.432
21296SOL     OW65846   7.467   4.092   8.095
21296SOL    HW165847   7.385   4.135   8.134
21296SOL    HW265848   7.439   4.019   8.032
21297SOL     OW65849   8.017   4.999   8.613
21297SOL    HW165850   7.924   4.992   8.576
21297SOL    HW265851   8.028   5.088   8.657
21298SOL     OW65852   0.003   5.235   8.151
21298SOL    HW165853  -0.054   5.219   8.232
21298SOL    HW265854  -0.056   5.245   8.071
21299SOL     OW65855   0.191   4.342   8.304
21299SOL    HW165856   0.224   4.436   8.304
21299SOL    HW265857   0.242   4.288   8.370
21300SOL     OW65858   8.583   4.427   8.165
21300SOL    HW165859   8.640   4.505   8.140
21300SOL    HW265860   8.523   4.453   8.241
21301SOL     OW65861   0.203   4.331   7.679
21301SOL    HW165862   0.191   4.318   7.580
21301SOL    HW265863   0.173   4.250   7.728
21302SOL     OW65864   8.216   4.868   8.471
21302SOL    HW165865   8.138   4.885   8.531
21302SOL    HW265866   8.250   4.955   8.435
21303SOL     OW65867   8.133   4.736   8.113
21303SOL    HW165868   8.202   4.720   8.183
21303SOL    HW265869   8.060   4.793   8.151
21304SOL     OW65870   7.783   5.159   8.509
21304SOL    HW165871   7.705   5.128   8.456
21304SOL    HW265872   7.841   5.217   8.452
21305SOL     OW65873   8.908   5.229   8.787
21305SOL    HW165874   8.932   5.323   8.813
21305SOL    HW265875   8.892   5.175   8.869
21306SOL     OW65876   7.886   4.116   8.947
21306SOL    HW165877   7.968   4.060   8.956
21306SOL    HW265878   7.805   4.058   8.951
21307SOL     OW65879   7.679   5.437   7.931
21307SOL    HW165880   7.713   5.514   7.985
21307SOL    HW265881   7.723   5.437   7.841
21308SOL     OW65882   7.678   5.158   7.986
21308SOL    HW165883   7.652   5.254   7.986
21308SOL    HW265884   7.607   5.104   8.031
21309SOL     OW65885   7.688   4.815   8.334
21309SOL    HW165886   7.702   4.731   8.386
21309SOL    HW265887   7.633   4.879   8.389
21310SOL     OW65888   8.068   5.510   8.887
21310SOL    HW165889   7.976   5.493   8.922
21310SOL    HW265890   8.096   5.602   8.913
21311SOL     OW65891   8.054   4.688   7.571
21311SOL    HW165892   8.061   4.772   7.517
21311SOL    HW265893   8.100   4.701   7.659
21312SOL     OW65894   0.042   3.838   8.928
21312SOL    HW165895   0.024   3.905   8.856
21312SOL    HW265896   0.039   3.884   9.017
21313SOL     OW65897   7.570   4.367   8.011
21313SOL    HW165898   7.525   4.279   8.028
21313SOL    HW265899   7.569   4.421   8.095
21314SOL     OW65900   7.475   5.320   7.565
21314SOL    HW165901   7.456   5.224   7.586
21314SOL    HW265902   7.442   5.378   7.640
21315SOL     OW65903   0.137   4.646   8.060
21315SOL    HW165904   0.232   4.617   8.068
21315SOL    HW265905   0.129   4.711   7.985
21316SOL     OW65906   0.089   4.832   7.880
21316SOL    HW165907   0.175   4.834   7.828
21316SOL    HW265908   0.103   4.879   7.968
21317SOL     OW65909   8.061   5.089   8.174
21317SOL    HW165910   8.012   5.002   8.183
21317SOL    HW265911   8.038   5.132   8.087
21318SOL     OW65912   8.257   3.728   7.950
21318SOL    HW165913   8.297   3.819   7.941
21318SOL    HW265914   8.157   3.736   7.956
21319SOL     OW65915   7.645   4.700   8.712
21319SOL    HW165916   7.734   4.655   8.698
21319SOL    HW265917   7.572   4.635   8.693
21320SOL     OW65918   8.973   4.723   7.638
21320SOL    HW165919   8.910   4.647   7.651
21320SOL    HW265920   9.021   4.741   7.724
21321SOL     OW65921   8.914   5.141   8.401
21321SOL    HW165922   8.855   5.147   8.481
21321SOL    HW265923   8.899   5.053   8.355
21322SOL     OW65924   0.115   5.438   8.020
21322SOL    HW165925   0.074   5.415   7.932
21322SOL    HW265926   0.097   5.364   8.085
21323SOL     OW65927   8.046   4.453   7.718
21323SOL    HW165928   8.070   4.522   7.650
21323SOL    HW265929   7.968   4.486   7.772
21324SOL     OW65930   8.729   4.069   8.392
21324SOL    HW165931   8.643   4.019   8.379
21324SOL    HW265932   8.791   4.015   8.448
21325SOL     OW65933   0.024   5.386   7.755
21325SOL    HW165934   0.113   5.432   7.758
21325SOL    HW265935   0.003   5.362   7.660
21326SOL     OW65936   8.255   4.329   8.913
21326SOL    HW165937   8.208   4.326   9.002
21326SOL    HW265938   8.204   4.274   8.847
21327SOL     OW65939   8.439   4.134   8.690
21327SOL    HW165940   8.362   4.168   8.744
21327SOL    HW265941   8.405   4.083   8.611
21328SOL     OW65942   8.489   4.425   7.877
21328SOL    HW165943   8.515   4.421   7.973
21328SOL    HW265944   8.404   4.374   7.863
21329SOL     OW65945   7.524   4.535   8.237
21329SOL    HW165946   7.623   4.523   8.246
21329SOL    HW265947   7.500   4.630   8.258
21330SOL     OW65948   7.578   5.545   0.019
21330SOL    HW165949   7.568   5.530   0.118
21330SOL    HW265950   7.492   5.581  -0.017
21331SOL     OW65951   8.313   4.072   7.643
21331SOL    HW165952   8.372   4.135   7.594
21331SOL    HW265953   8.332   3.978   7.614
21332SOL     OW65954   8.810   4.868   7.993
21332SOL    HW165955   8.893   4.839   7.945
21332SOL    HW265956   8.761   4.935   7.937
21333SOL     OW65957   7.998   3.920   8.333
21333SOL    HW165958   7.993   3.915   8.433
21333SOL    HW265959   8.000   4.016   8.304
21334SOL     OW65960   8.456   5.180   7.925
21334SOL    HW165961   8.410   5.252   7.873
21334SOL    HW265962   8.452   5.200   8.023
21335SOL     OW65963   7.799   5.525   8.301
21335SOL    HW165964   7.849   5.439   8.307
21335SOL    HW265965   7.864   5.602   8.298
21336SOL     OW65966   0.243   4.790   8.321
21336SOL    HW165967   0.181   4.775   8.245
21336SOL    HW265968   0.191   4.801   8.406
21337SOL     OW65969   7.769   4.667   7.690
21337SOL    HW165970   7.851   4.706   7.648
21337SOL    HW265971   7.742   4.585   7.641
21338SOL     OW65972   8.906   4.459   8.176
21338SOL    HW165973   8.901   4.394   8.251
21338SOL    HW265974   8.986   4.518   8.189
21339SOL     OW65975   8.559   5.500   7.685
21339SOL    HW165976   8.499   5.438   7.735
21339SOL    HW265977   8.590   5.456   7.600
21340SOL     OW65978   7.650   4.009   8.946
21340SOL    HW165979   7.570   4.069   8.933
21340SOL    HW265980   7.640   3.960   9.032
21341SOL     OW65981   0.080   5.101   7.529
21341SOL    HW165982   0.048   5.195   7.519
21341SOL    HW265983   0.004   5.038   7.517
21342SOL     OW65984   7.912   5.467   7.771
21342SOL    HW165985   7.945   5.506   7.857
21342SOL    HW265986   7.988   5.460   7.706
21343SOL     OW65987   8.848   3.831   7.874
21343SOL    HW165988   8.824   3.794   7.784
21343SOL    HW265989   8.947   3.847   7.878
21344SOL     OW65990   7.697   5.509   8.689
21344SOL    HW165991   7.754   5.444   8.739
21344SOL    HW265992   7.681   5.476   8.596
21345SOL     OW65993   8.388   5.422   8.352
21345SOL    HW165994   8.468   5.365   8.373
21345SOL    HW265995   8.339   5.382   8.275
21346SOL     OW65996   7.830   4.424   7.928
21346SOL    HW165997   7.875   4.334   7.925
21346SOL    HW265998   7.736   4.413   7.961
21347SOL     OW65999   8.062   3.846   7.565
21347SOL    HW166000   8.160   3.824   7.572
21347SOL    HW266001   8.031   3.829   7.472
21348SOL     OW66002   8.336   5.238   8.643
21348SOL    HW166003   8.313   5.213   8.549
21348SOL    HW266004   8.397   5.169   8.682
21349SOL     OW66005   8.251   5.126   8.372
21349SOL    HW166006   8.341   5.140   8.330
21349SOL    HW266007   8.180   5.128   8.301
21350SOL     OW66008   8.370   4.227   8.347
21350SOL    HW166009   8.345   4.218   8.251
21350SOL    HW266010   8.418   4.145   8.378
21351SOL     OW66011   7.987   3.788   7.960
21351SOL    HW166012   7.906   3.789   8.018
21351SOL    HW266013   7.990   3.871   7.905
21352SOL     OW66014   8.882   4.912   7.489
21352SOL    HW166015   8.914   4.836   7.546
21352SOL    HW266016   8.790   4.939   7.519
21353SOL     OW66017   7.745   3.759   7.619
21353SOL    HW166018   7.794   3.843   7.598
21353SOL    HW266019   7.807   3.694   7.664
21354SOL     OW66020   8.383   3.960   7.928
21354SOL    HW166021   8.335   4.001   7.850
21354SOL    HW266022   8.482   3.958   7.909
21355SOL     OW66023   8.675   5.294   8.241
21355SOL    HW166024   8.696   5.368   8.176
21355SOL    HW266025   8.743   5.294   8.314
21356SOL     OW66026   7.907   4.876   8.189
21356SOL    HW166027   7.836   4.849   8.254
21356SOL    HW266028   7.881   4.848   8.096
21357SOL     OW66029   8.719   5.521   8.039
21357SOL    HW166030   8.763   5.585   7.975
21357SOL    HW266031   8.669   5.573   8.109
21358SOL     OW66032   8.480   4.273   7.464
21358SOL    HW166033   8.439   4.355   7.425
21358SOL    HW266034   8.544   4.299   7.537
21359SOL     OW66035   7.526   4.280   8.834
21359SOL    HW166036   7.618   4.279   8.793
21359SOL    HW266037   7.520   4.354   8.901
21360SOL     OW66038   8.009   3.946   8.595
21360SOL    HW166039   8.047   3.862   8.632
21360SOL    HW266040   7.921   3.965   8.639
21361SOL     OW66041   8.314   4.178   8.090
21361SOL    HW166042   8.282   4.250   8.028
21361SOL    HW266043   8.338   4.097   8.037
21362SOL     OW66044   8.465   3.763   8.201
21362SOL    HW166045   8.393   3.768   8.132
21362SOL    HW266046   8.441   3.694   8.270
21363SOL     OW66047   8.877   4.897   8.315
21363SOL    HW166048   8.822   4.813   8.308
21363SOL    HW266049   8.903   4.926   8.223
21364SOL     OW66050   8.914   4.314   8.440
21364SOL    HW166051   8.884   4.219   8.447
21364SOL    HW266052   8.987   4.330   8.506
21365SOL     OW66053   7.936   5.109   7.622
21365SOL    HW166054   7.849   5.094   7.669
21365SOL    HW266055   7.919   5.135   7.527
21366SOL     OW66056   0.112   5.004   8.105
21366SOL    HW166057   0.211   5.012   8.119
21366SOL    HW266058   0.067   5.088   8.136
21367SOL     OW66059   8.838   4.299   7.526
21367SOL    HW166060   8.784   4.278   7.607
21367SOL    HW266061   8.929   4.258   7.535
21368SOL     OW66062   7.975   3.980   7.776
21368SOL    HW166063   8.002   3.921   7.701
21368SOL    HW266064   7.975   4.075   7.745
21369SOL     OW66065   8.512   5.071   8.788
21369SOL    HW166066   8.432   5.048   8.843
21369SOL    HW266067   8.595   5.045   8.837
21370SOL     OW66068   8.559   4.919   8.548
21370SOL    HW166069   8.519   4.963   8.629
21370SOL    HW266070   8.518   4.956   8.465
21371SOL     OW66071   0.086   4.823   8.527
21371SOL    HW166072   0.091   4.904   8.586
21371SOL    HW266073   0.000   4.825   8.476
21372SOL     OW66074   8.363   3.813   8.850
21372SOL    HW166075   8.388   3.793   8.755
21372SOL    HW266076   8.435   3.869   8.892
21373SOL     OW66077   8.153   4.774   7.816
21373SOL    HW166078   8.139   4.781   7.915
21373SOL    HW266079   8.237   4.723   7.798
21374SOL     OW66080   7.858   4.537   8.699
21374SOL    HW166081   7.944   4.549   8.749
21374SOL    HW266082   7.816   4.450   8.726
21375SOL     OW66083   8.722   4.110   8.710
21375SOL    HW166084   8.743   4.184   8.774
21375SOL    HW266085   8.633   4.127   8.667
21376SOL     OW66086   7.512   5.288   8.779
21376SOL    HW166087   7.466   5.370   8.745
21376SOL    HW266088   7.610   5.307   8.788
21377SOL     OW66089   7.815   4.824   7.949
21377SOL    HW166090   7.808   4.907   7.893
21377SOL    HW266091   7.819   4.744   7.889
21378SOL     OW66092   8.014   4.261   8.313
21378SOL    HW166093   8.026   4.327   8.239
21378SOL    HW266094   8.060   4.295   8.396
21379SOL     OW66095   8.700   5.072   7.836
21379SOL    HW166096   8.750   5.149   7.876
21379SOL    HW266097   8.605   5.074   7.868
21380SOL     OW66098   8.720   5.169   8.590
21380SOL    HW166099   8.767   5.182   8.677
21380SOL    HW266100   8.654   5.095   8.599
21381SOL     OW66101   0.030   4.363   7.920
21381SOL    HW166102  -0.001   4.424   7.993
21381SOL    HW266103   0.080   4.415   7.851
21382SOL     OW66104   7.802   5.234   8.777
21382SOL    HW166105   7.781   5.190   8.690
21382SOL    HW266106   7.899   5.260   8.780
21383SOL     OW66107   7.850   4.475   0.046
21383SOL    HW166108   7.918   4.530  -0.001
21383SOL    HW266109   7.890   4.387   0.073
21384SOL     OW66110   0.035   4.503   0.118
21384SOL    HW166111  -0.057   4.541   0.113
21384SOL    HW266112   0.095   4.550   0.053
21385SOL     OW66113   8.021   4.594   8.477
21385SOL    HW166114   8.065   4.683   8.468
21385SOL    HW266115   7.958   4.594   8.554
21386SOL     OW66116   8.808   4.586   8.493
21386SOL    HW166117   8.733   4.586   8.427
21386SOL    HW266118   8.845   4.494   8.502
21387SOL     OW66119   8.657   4.249   7.723
21387SOL    HW166120   8.670   4.165   7.777
21387SOL    HW266121   8.628   4.323   7.783
21388SOL     OW66122   7.755   3.937   8.679
21388SOL    HW166123   7.732   3.974   8.769
21388SOL    HW266124   7.725   3.842   8.673
21389SOL     OW66125   7.485   5.034   8.730
21389SOL    HW166126   7.538   4.985   8.798
21389SOL    HW266127   7.507   5.132   8.735
21390SOL     OW66128   8.180   4.358   8.512
21390SOL    HW166129   8.239   4.332   8.436
21390SOL    HW266130   8.152   4.454   8.501
21391SOL     OW66131   7.755   3.787   8.066
21391SOL    HW166132   7.744   3.881   8.099
21391SOL    HW266133   7.750   3.724   8.143
21392SOL     OW66134   0.070   4.091   7.822
21392SOL    HW166135   0.072   4.015   7.886
21392SOL    HW266136   0.022   4.168   7.862
21393SOL     OW66137   8.471   4.490   8.414
21393SOL    HW166138   8.486   4.511   8.510
21393SOL    HW266139   8.441   4.395   8.405
21394SOL     OW66140   8.428   5.297   0.148
21394SOL    HW166141   8.408   5.341   0.060
21394SOL    HW266142   8.467   5.206   0.132
21395SOL     OW66143   8.988   3.998   7.573
21395SOL    HW166144   8.927   3.923   7.596
21395SOL    HW266145   9.010   4.050   7.656
21396SOL     OW66146   8.751   4.562   7.490
21396SOL    HW166147   8.785   4.469   7.505
21396SOL    HW266148   8.769   4.589   7.395
21397SOL     OW66149   8.516   5.057   8.297
21397SOL    HW166150   8.523   4.973   8.242
21397SOL    HW266151   8.578   5.126   8.261
21398SOL     OW66152   7.767   4.534   8.397
21398SOL    HW166153   7.860   4.570   8.402
21398SOL    HW266154   7.761   4.449   8.449
21399SOL     OW66155   7.787   4.233   8.454
21399SOL    HW166156   7.735   4.150   8.437
21399SOL    HW266157   7.864   4.238   8.390
21400SOL     OW66158   8.586   4.104   0.126
21400SOL    HW166159   8.541   4.167   0.190
21400SOL    HW266160   8.679   4.135   0.109
21401SOL     OW66161   8.608   3.931   8.925
21401SOL    HW166162   8.608   3.995   9.002
21401SOL    HW266163   8.636   3.979   8.842
21402SOL     OW66164   7.456   5.050   7.648
21402SOL    HW166165   7.363   5.071   7.617
21402SOL    HW266166   7.466   4.951   7.661
21403SOL     OW66167   7.536   5.525   8.375
21403SOL    HW166168   7.494   5.439   8.348
21403SOL    HW266169   7.630   5.528   8.341
21404SOL     OW66170   7.952   5.292   8.358
21404SOL    HW166171   8.018   5.366   8.367
21404SOL    HW266172   7.996   5.213   8.316
21405SOL     OW66173   8.450   4.520   8.686
21405SOL    HW166174   8.491   4.488   8.772
21405SOL    HW266175   8.354   4.493   8.683
21406SOL     OW66176   7.488   4.268   8.562
21406SOL    HW166177   7.573   4.235   8.521
21406SOL    HW266178   7.501   4.283   8.660
21407SOL     OW66179   8.263   4.296   7.773
21407SOL    HW166180   8.270   4.207   7.727
21407SOL    HW266181   8.169   4.330   7.765
21408SOL     OW66182   0.105   4.328   8.654
21408SOL    HW166183   0.067   4.259   8.716
21408SOL    HW266184   0.187   4.292   8.610
21409SOL     OW66185   8.119   4.188   8.717
21409SOL    HW166186   8.085   4.099   8.687
21409SOL    HW266187   8.145   4.242   8.637
21410SOL     OW66188   8.378   5.402   8.913
21410SOL    HW166189   8.354   5.384   8.818
21410SOL    HW266190   8.408   5.496   8.923
21411SOL     OW66191   7.921   4.224   7.639
21411SOL    HW166192   7.982   4.304   7.643
21411SOL    HW266193   7.826   4.255   7.646
21412SOL     OW66194   7.607   4.861   8.914
21412SOL    HW166195   7.629   4.800   8.990
21412SOL    HW266196   7.617   4.812   8.828
21413SOL     OW66197   8.795   4.783   8.682
21413SOL    HW166198   8.819   4.720   8.608
21413SOL    HW266199   8.705   4.823   8.664
21414SOL     OW66200   8.750   4.579   7.757
21414SOL    HW166201   8.664   4.548   7.799
21414SOL    HW266202   8.746   4.565   7.658
21415SOL     OW66203   8.700   5.455   8.576
21415SOL    HW166204   8.784   5.460   8.522
21415SOL    HW266205   8.677   5.359   8.594
21416SOL     OW66206   7.531   4.982   8.470
21416SOL    HW166207   7.526   4.981   8.570
21416SOL    HW266208   7.448   4.941   8.432
21417SOL     OW66209   8.351   3.810   7.581
21417SOL    HW166210   8.402   3.811   7.495
21417SOL    HW266211   8.407   3.768   7.652
21418SOL     OW66212   0.174   3.859   7.971
21418SOL    HW166213   0.247   3.842   7.904
21418SOL    HW266214   0.143   3.772   8.009
21419SOL     OW66215   8.836   5.297   7.925
21419SOL    HW166216   8.903   5.309   7.851
21419SOL    HW266217   8.796   5.386   7.948
21420SOL     OW66218   8.728   4.651   8.120
21420SOL    HW166219   8.788   4.570   8.122
21420SOL    HW266220   8.768   4.720   8.060
21421SOL     OW66221   8.120   5.340   7.602
21421SOL    HW166222   8.129   5.350   7.503
21421SOL    HW266223   8.080   5.251   7.623
21422SOL     OW66224   0.098   5.444   8.842
21422SOL    HW166225   0.151   5.454   8.758
21422SOL    HW266226   0.071   5.534   8.876
21423SOL     OW66227   7.711   4.050   8.168
21423SOL    HW166228   7.632   4.101   8.134
21423SOL    HW266229   7.702   4.035   8.266
21424SOL     OW66230   8.642   5.336   7.479
21424SOL    HW166231   8.648   5.243   7.516
21424SOL    HW266232   8.583   5.336   7.399
21425SOL     OW66233   8.270   4.726   8.820
21425SOL    HW166234   8.310   4.725   8.728
21425SOL    HW266235   8.280   4.818   8.860
21426SOL     OW66236   8.364   4.634   7.739
21426SOL    HW166237   8.427   4.672   7.671
21426SOL    HW266238   8.404   4.551   7.778
21427SOL     OW66239   8.952   5.331   7.492
21427SOL    HW166240   8.860   5.368   7.499
21427SOL    HW266241   8.990   5.351   7.402
21428SOL     OW66242   7.820   5.012   8.938
21428SOL    HW166243   7.807   5.105   8.904
21428SOL    HW266244   7.736   4.960   8.925
21429SOL     OW66245   0.062   5.016   8.737
21429SOL    HW166246   0.122   5.019   8.817
21429SOL    HW266247  -0.013   5.080   8.750
21430SOL     OW66248   8.487   4.822   8.144
21430SOL    HW166249   8.417   4.775   8.198
21430SOL    HW266250   8.546   4.754   8.101
21431SOL     OW66251   8.462   3.960   8.419
21431SOL    HW166252   8.454   3.924   8.326
21431SOL    HW266253   8.460   3.884   8.484
21432SOL     OW66254   8.038   5.211   7.939
21432SOL    HW166255   8.080   5.153   7.869
21432SOL    HW266256   7.994   5.290   7.895
21433SOL     OW66257   0.157   4.109   8.829
21433SOL    HW166258   0.230   4.178   8.833
21433SOL    HW266259   0.185   4.034   8.770
21434SOL     OW66260   7.703   5.072   7.738
21434SOL    HW166261   7.607   5.073   7.711
21434SOL    HW266262   7.715   5.125   7.822
21435SOL     OW66263   7.523   4.069   7.481
21435SOL    HW166264   7.431   4.041   7.452
21435SOL    HW266265   7.554   4.146   7.425
21436SOL     OW66266   8.888   4.580   8.846
21436SOL    HW166267   8.831   4.632   8.783
21436SOL    HW266268   8.984   4.592   8.822
21437SOL     OW66269   7.520   3.890   7.766
21437SOL    HW166270   7.503   3.973   7.712
21437SOL    HW266271   7.610   3.853   7.744
21438SOL     OW66272   8.631   5.059   7.567
21438SOL    HW166273   8.532   5.048   7.569
21438SOL    HW266274   8.665   5.074   7.660
21439SOL     OW66275   8.061   4.566   8.879
21439SOL    HW166276   8.117   4.647   8.862
21439SOL    HW266277   8.120   4.486   8.882
21440SOL     OW66278   8.941   5.491   8.407
21440SOL    HW166279   8.974   5.555   8.338
21440SOL    HW266280   9.007   5.485   8.482
21441SOL     OW66281   7.838   5.465   0.008
21441SOL    HW166282   7.747   5.506   0.006
21441SOL    HW266283   7.831   5.371   0.040
21442SOL     OW66284   0.122   4.607   8.702
21442SOL    HW166285   0.095   4.518   8.665
21442SOL    HW266286   0.123   4.675   8.629
21443SOL     OW66287   8.673   4.049   7.897
21443SOL    HW166288   8.738   3.975   7.886
21443SOL    HW266289   8.693   4.099   7.981
21444SOL     OW66290   8.042   4.469   8.100
21444SOL    HW166291   8.092   4.554   8.081
21444SOL    HW266292   7.954   4.471   8.052
21445SOL     OW66293   0.225   4.066   0.090
21445SOL    HW166294   0.208   4.097  -0.004
21445SOL    HW266295   0.141   4.029   0.128
21446SOL     OW66296   0.178   4.658   8.965
21446SOL    HW166297   0.216   4.749   8.980
21446SOL    HW266298   0.170   4.641   8.866
21447SOL     OW66299   8.307   5.098   7.464
21447SOL    HW166300   8.261   5.113   7.552
21447SOL    HW266301   8.351   5.183   7.434
21448SOL     OW66302   8.109   5.514   8.401
21448SOL    HW166303   8.063   5.602   8.388
21448SOL    HW266304   8.208   5.526   8.394
21449SOL     OW66305   8.856   5.575   0.168
21449SOL    HW166306   8.760   5.564   0.141
21449SOL    HW266307   8.912   5.508   0.120
21450SOL     OW66308   8.307   4.680   8.309
21450SOL    HW166309   8.361   4.611   8.357
21450SOL    HW266310   8.275   4.749   8.375
21451SOL     OW66311   8.531   4.708   7.535
21451SOL    HW166312   8.508   4.761   7.453
21451SOL    HW266313   8.612   4.652   7.516
21452SOL     OW66314   7.527   4.964   8.101
21452SOL    HW166315   7.526   4.917   8.189
21452SOL    HW266316   7.609   4.936   8.050
21453SOL     OW66317   7.876   4.148   7.968
21453SOL    HW166318   7.906   4.076   7.906
21453SOL    HW266319   7.837   4.108   8.051
21454SOL     OW66320   0.153   5.211   8.552
21454SOL    HW166321   0.060   5.186   8.525
21454SOL    HW266322   0.179   5.161   8.634
21455SOL     OW66323   7.765   4.271   8.728
21455SOL    HW166324   7.803   4.212   8.800
21455SOL    HW266325   7.805   4.245   8.640
21456SOL     OW66326   8.260   5.310   8.135
21456SOL    HW166327   8.292   5.320   8.041
21456SOL    HW266328   8.181   5.248   8.137
21457SOL     OW66329   8.872   3.938   8.560
21457SOL    HW166330   8.924   3.873   8.615
21457SOL    HW266331   8.823   4.001   8.621
21458SOL     OW66332   8.449   3.758   8.602
21458SOL    HW166333   8.386   3.686   8.571
21458SOL    HW266334   8.542   3.722   8.602
21459SOL     OW66335   8.218   5.054   7.749
21459SOL    HW166336   8.172   4.967   7.766
21459SOL    HW266337   8.309   5.051   7.790
21460SOL     OW66338   8.066   5.291   8.732
21460SOL    HW166339   8.061   5.373   8.789
21460SOL    HW266340   8.155   5.288   8.687
21461SOL     OW66341   8.800   3.776   7.616
21461SOL    HW166342   8.835   3.735   7.532
21461SOL    HW266343   8.710   3.738   7.636
21462SOL     OW66344   8.748   4.177   8.139
21462SOL    HW166345   8.689   4.257   8.143
21462SOL    HW266346   8.763   4.142   8.232
21463SOL     OW66347   0.041   3.945   8.330
21463SOL    HW166348  -0.043   3.944   8.384
21463SOL    HW266349   0.043   4.028   8.274
21464SOL     OW66350   7.487   4.801   7.748
21464SOL    HW166351   7.586   4.790   7.739
21464SOL    HW266352   7.447   4.715   7.780
21465SOL     OW66353   8.323   5.370   7.785
21465SOL    HW166354   8.246   5.335   7.731
21465SOL    HW266355   8.291   5.441   7.847
21466SOL     OW66356   7.678   6.214   0.113
21466SOL    HW166357   7.585   6.212   0.150
21466SOL    HW266358   7.679   6.175   0.021
21467SOL     OW66359   7.673   5.861   0.996
21467SOL    HW166360   7.708   5.844   1.088
21467SOL    HW266361   7.585   5.816   0.984
21468SOL     OW66362   7.467   5.954   0.647
21468SOL    HW166363   7.385   5.997   0.686
21468SOL    HW266364   7.439   5.881   0.584
21469SOL     OW66365   8.017   6.861   1.165
21469SOL    HW166366   7.924   6.854   1.128
21469SOL    HW266367   8.028   6.950   1.209
21470SOL     OW66368   0.003   7.097   0.703
21470SOL    HW166369  -0.054   7.081   0.784
21470SOL    HW266370  -0.056   7.107   0.623
21471SOL     OW66371   0.191   6.204   0.856
21471SOL    HW166372   0.224   6.298   0.856
21471SOL    HW266373   0.242   6.150   0.922
21472SOL     OW66374   8.583   6.289   0.717
21472SOL    HW166375   8.640   6.367   0.692
21472SOL    HW266376   8.523   6.315   0.793
21473SOL     OW66377   0.203   6.193   0.231
21473SOL    HW166378   0.191   6.180   0.132
21473SOL    HW266379   0.173   6.112   0.280
21474SOL     OW66380   8.216   6.730   1.023
21474SOL    HW166381   8.138   6.747   1.083
21474SOL    HW266382   8.250   6.817   0.987
21475SOL     OW66383   8.298   6.384   1.823
21475SOL    HW166384   8.294   6.460   1.888
21475SOL    HW266385   8.320   6.420   1.732
21476SOL     OW66386   8.133   6.598   0.665
21476SOL    HW166387   8.202   6.582   0.735
21476SOL    HW266388   8.060   6.655   0.703
21477SOL     OW66389   8.134   6.747   1.803
21477SOL    HW166390   8.194   6.826   1.817
21477SOL    HW266391   8.048   6.778   1.762
21478SOL     OW66392   7.783   7.021   1.061
21478SOL    HW166393   7.705   6.990   1.008
21478SOL    HW266394   7.841   7.079   1.004
21479SOL     OW66395   8.908   7.091   1.339
21479SOL    HW166396   8.932   7.185   1.365
21479SOL    HW266397   8.892   7.037   1.421
21480SOL     OW66398   7.886   5.978   1.499
21480SOL    HW166399   7.968   5.922   1.508
21480SOL    HW266400   7.805   5.920   1.503
21481SOL     OW66401   7.679   7.299   0.483
21481SOL    HW166402   7.713   7.376   0.537
21481SOL    HW266403   7.723   7.299   0.393
21482SOL     OW66404   8.575   6.927   1.690
21482SOL    HW166405   8.622   6.927   1.778
21482SOL    HW266406   8.527   6.840   1.679
21483SOL     OW66407   7.678   7.020   0.538
21483SOL    HW166408   7.652   7.116   0.538
21483SOL    HW266409   7.607   6.966   0.583
21484SOL     OW66410   7.688   6.677   0.886
21484SOL    HW166411   7.702   6.593   0.938
21484SOL    HW266412   7.633   6.741   0.941
21485SOL     OW66413   8.068   7.372   1.439
21485SOL    HW166414   7.976   7.355   1.474
21485SOL    HW266415   8.096   7.464   1.465
21486SOL     OW66416   8.054   6.550   0.123
21486SOL    HW166417   8.061   6.634   0.069
21486SOL    HW266418   8.100   6.563   0.211
21487SOL     OW66419   0.042   5.700   1.480
21487SOL    HW166420   0.024   5.767   1.408
21487SOL    HW266421   0.039   5.746   1.569
21488SOL     OW66422   7.570   6.229   0.563
21488SOL    HW166423   7.525   6.141   0.580
21488SOL    HW266424   7.569   6.283   0.647
21489SOL     OW66425   0.137   6.508   0.612
21489SOL    HW166426   0.232   6.479   0.620
21489SOL    HW266427   0.129   6.573   0.537
21490SOL     OW66428   0.089   6.694   0.432
21490SOL    HW166429   0.175   6.696   0.380
21490SOL    HW266430   0.103   6.741   0.520
21491SOL     OW66431   7.561   6.323   1.597
21491SOL    HW166432   7.649   6.310   1.642
21491SOL    HW266433   7.548   6.420   1.575
21492SOL     OW66434   8.061   6.951   0.726
21492SOL    HW166435   8.012   6.864   0.735
21492SOL    HW266436   8.038   6.994   0.639
21493SOL     OW66437   8.741   6.814   1.423
21493SOL    HW166438   8.778   6.741   1.365
21493SOL    HW266439   8.793   6.819   1.508
21494SOL     OW66440   8.257   5.590   0.502
21494SOL    HW166441   8.297   5.681   0.493
21494SOL    HW266442   8.157   5.598   0.508
21495SOL     OW66443   7.645   6.562   1.264
21495SOL    HW166444   7.734   6.517   1.250
21495SOL    HW266445   7.572   6.497   1.245
21496SOL     OW66446   8.973   6.585   0.190
21496SOL    HW166447   8.910   6.509   0.203
21496SOL    HW266448   9.021   6.603   0.276
21497SOL     OW66449   8.635   7.378   1.616
21497SOL    HW166450   8.659   7.438   1.540
21497SOL    HW266451   8.642   7.283   1.586
21498SOL     OW66452   7.765   5.837   1.801
21498SOL    HW166453   7.836   5.908   1.807
21498SOL    HW266454   7.677   5.876   1.829
21499SOL     OW66455   8.914   7.003   0.953
21499SOL    HW166456   8.855   7.009   1.033
21499SOL    HW266457   8.899   6.915   0.907
21500SOL     OW66458   0.115   7.300   0.572
21500SOL    HW166459   0.074   7.277   0.484
21500SOL    HW266460   0.097   7.226   0.637
21501SOL     OW66461   8.046   6.315   0.270
21501SOL    HW166462   8.070   6.384   0.202
21501SOL    HW266463   7.968   6.348   0.324
21502SOL     OW66464   8.729   5.931   0.944
21502SOL    HW166465   8.643   5.881   0.931
21502SOL    HW266466   8.791   5.877   1.000
21503SOL     OW66467   0.024   7.248   0.307
21503SOL    HW166468   0.113   7.294   0.310
21503SOL    HW266469   0.003   7.224   0.212
21504SOL     OW66470   8.255   6.191   1.465
21504SOL    HW166471   8.208   6.188   1.554
21504SOL    HW266472   8.204   6.136   1.399
21505SOL     OW66473   8.842   6.055   1.674
21505SOL    HW166474   8.822   6.098   1.762
21505SOL    HW266475   8.920   5.993   1.683
21506SOL     OW66476   8.421   6.476   1.572
21506SOL    HW166477   8.467   6.392   1.543
21506SOL    HW266478   8.365   6.510   1.497
21507SOL     OW66479   8.439   5.996   1.242
21507SOL    HW166480   8.362   6.030   1.296
21507SOL    HW266481   8.405   5.945   1.163
21508SOL     OW66482   8.489   6.287   0.429
21508SOL    HW166483   8.515   6.283   0.525
21508SOL    HW266484   8.404   6.236   0.415
21509SOL     OW66485   7.524   6.397   0.789
21509SOL    HW166486   7.623   6.385   0.798
21509SOL    HW266487   7.500   6.492   0.810
21510SOL     OW66488   7.578   7.407   1.571
21510SOL    HW166489   7.568   7.392   1.670
21510SOL    HW266490   7.492   7.443   1.535
21511SOL     OW66491   8.313   5.934   0.195
21511SOL    HW166492   8.372   5.997   0.146
21511SOL    HW266493   8.332   5.840   0.166
21512SOL     OW66494   0.167   6.171   1.831
21512SOL    HW166495   0.141   6.260   1.795
21512SOL    HW266496   0.165   6.103   1.758
21513SOL     OW66497   8.810   6.730   0.545
21513SOL    HW166498   8.893   6.701   0.497
21513SOL    HW266499   8.761   6.797   0.489
21514SOL     OW66500   7.998   5.782   0.885
21514SOL    HW166501   7.993   5.777   0.985
21514SOL    HW266502   8.000   5.878   0.856
21515SOL     OW66503   8.456   7.042   0.477
21515SOL    HW166504   8.410   7.114   0.425
21515SOL    HW266505   8.452   7.062   0.575
21516SOL     OW66506   7.799   7.387   0.853
21516SOL    HW166507   7.849   7.301   0.859
21516SOL    HW266508   7.864   7.464   0.850
21517SOL     OW66509   0.243   6.652   0.873
21517SOL    HW166510   0.181   6.637   0.797
21517SOL    HW266511   0.191   6.663   0.958
21518SOL     OW66512   8.675   7.136   1.506
21518SOL    HW166513   8.681   7.059   1.570
21518SOL    HW266514   8.623   7.110   1.426
21519SOL     OW66515   7.769   6.529   0.242
21519SOL    HW166516   7.851   6.568   0.200
21519SOL    HW266517   7.742   6.447   0.193
21520SOL     OW66518   8.906   6.321   0.728
21520SOL    HW166519   8.901   6.256   0.803
21520SOL    HW266520   8.986   6.380   0.741
21521SOL     OW66521   7.909   6.852   1.727
21521SOL    HW166522   7.859   6.853   1.641
21521SOL    HW266523   7.846   6.834   1.803
21522SOL     OW66524   8.559   7.362   0.237
21522SOL    HW166525   8.499   7.300   0.287
21522SOL    HW266526   8.590   7.318   0.152
21523SOL     OW66527   7.650   5.871   1.498
21523SOL    HW166528   7.570   5.931   1.485
21523SOL    HW266529   7.640   5.822   1.584
21524SOL     OW66530   0.080   6.963   0.081
21524SOL    HW166531   0.048   7.057   0.071
21524SOL    HW266532   0.004   6.900   0.069
21525SOL     OW66533   7.912   7.329   0.323
21525SOL    HW166534   7.945   7.368   0.409
21525SOL    HW266535   7.988   7.322   0.258
21526SOL     OW66536   8.848   5.693   0.426
21526SOL    HW166537   8.824   5.656   0.336
21526SOL    HW266538   8.947   5.709   0.430
21527SOL     OW66539   7.697   7.371   1.241
21527SOL    HW166540   7.754   7.306   1.291
21527SOL    HW266541   7.681   7.338   1.148
21528SOL     OW66542   8.388   7.284   0.904
21528SOL    HW166543   8.468   7.227   0.925
21528SOL    HW266544   8.339   7.244   0.827
21529SOL     OW66545   7.830   6.286   0.480
21529SOL    HW166546   7.875   6.196   0.477
21529SOL    HW266547   7.736   6.275   0.513
21530SOL     OW66548   8.995   5.808   1.729
21530SOL    HW166549   8.990   5.845   1.821
21530SOL    HW266550   8.923   5.739   1.717
21531SOL     OW66551   8.062   5.708   0.117
21531SOL    HW166552   8.160   5.686   0.124
21531SOL    HW266553   8.031   5.691   0.024
21532SOL     OW66554   8.229   5.850   1.749
21532SOL    HW166555   8.296   5.789   1.792
21532SOL    HW266556   8.156   5.869   1.814
21533SOL     OW66557   8.336   7.100   1.195
21533SOL    HW166558   8.313   7.075   1.101
21533SOL    HW266559   8.397   7.031   1.234
21534SOL     OW66560   8.799   6.176   1.433
21534SOL    HW166561   8.827   6.133   1.518
21534SOL    HW266562   8.824   6.272   1.434
21535SOL     OW66563   8.251   6.988   0.924
21535SOL    HW166564   8.341   7.002   0.882
21535SOL    HW266565   8.180   6.990   0.853
21536SOL     OW66566   8.370   6.089   0.899
21536SOL    HW166567   8.345   6.080   0.803
21536SOL    HW266568   8.418   6.007   0.930
21537SOL     OW66569   7.987   5.650   0.512
21537SOL    HW166570   7.906   5.651   0.570
21537SOL    HW266571   7.990   5.733   0.457
21538SOL     OW66572   8.882   6.774   0.041
21538SOL    HW166573   8.914   6.698   0.098
21538SOL    HW266574   8.790   6.801   0.071
21539SOL     OW66575   7.745   5.621   0.171
21539SOL    HW166576   7.794   5.705   0.150
21539SOL    HW266577   7.807   5.556   0.216
21540SOL     OW66578   8.383   5.822   0.480
21540SOL    HW166579   8.335   5.863   0.402
21540SOL    HW266580   8.482   5.820   0.461
21541SOL     OW66581   8.524   6.269   1.464
21541SOL    HW166582   8.444   6.208   1.467
21541SOL    HW266583   8.605   6.216   1.440
21542SOL     OW66584   8.675   7.156   0.793
21542SOL    HW166585   8.696   7.230   0.728
21542SOL    HW266586   8.743   7.156   0.866
21543SOL     OW66587   7.907   6.738   0.741
21543SOL    HW166588   7.836   6.711   0.806
21543SOL    HW266589   7.881   6.710   0.648
21544SOL     OW66590   8.719   7.383   0.591
21544SOL    HW166591   8.763   7.447   0.527
21544SOL    HW266592   8.669   7.435   0.661
21545SOL     OW66593   8.480   6.135   0.016
21545SOL    HW166594   8.439   6.217  -0.023
21545SOL    HW266595   8.544   6.161   0.089
21546SOL     OW66596   7.526   6.142   1.386
21546SOL    HW166597   7.618   6.141   1.345
21546SOL    HW266598   7.520   6.216   1.453
21547SOL     OW66599   8.009   5.808   1.147
21547SOL    HW166600   8.047   5.724   1.184
21547SOL    HW266601   7.921   5.827   1.191
21548SOL     OW66602   8.314   6.040   0.642
21548SOL    HW166603   8.282   6.112   0.580
21548SOL    HW266604   8.338   5.959   0.589
21549SOL     OW66605   8.465   5.625   0.753
21549SOL    HW166606   8.393   5.630   0.684
21549SOL    HW266607   8.441   5.556   0.822
21550SOL     OW66608   8.877   6.759   0.867
21550SOL    HW166609   8.822   6.675   0.860
21550SOL    HW266610   8.903   6.788   0.775
21551SOL     OW66611   8.914   6.176   0.992
21551SOL    HW166612   8.884   6.081   0.999
21551SOL    HW266613   8.987   6.192   1.058
21552SOL     OW66614   7.936   6.971   0.174
21552SOL    HW166615   7.849   6.956   0.221
21552SOL    HW266616   7.919   6.997   0.079
21553SOL     OW66617   0.112   6.866   0.657
21553SOL    HW166618   0.211   6.874   0.671
21553SOL    HW266619   0.067   6.950   0.688
21554SOL     OW66620   8.838   6.161   0.078
21554SOL    HW166621   8.784   6.140   0.159
21554SOL    HW266622   8.929   6.120   0.087
21555SOL     OW66623   7.975   5.842   0.328
21555SOL    HW166624   8.002   5.783   0.253
21555SOL    HW266625   7.975   5.937   0.297
21556SOL     OW66626   8.512   6.933   1.340
21556SOL    HW166627   8.432   6.910   1.395
21556SOL    HW266628   8.595   6.907   1.389
21557SOL     OW66629   0.040   7.215   1.625
21557SOL    HW166630   0.067   7.249   1.535
21557SOL    HW266631   0.119   7.177   1.671
21558SOL     OW66632   8.559   6.781   1.100
21558SOL    HW166633   8.519   6.825   1.181
21558SOL    HW266634   8.518   6.818   1.017
21559SOL     OW66635   0.086   6.685   1.079
21559SOL    HW166636   0.091   6.766   1.138
21559SOL    HW266637   0.000   6.687   1.028
21560SOL     OW66638   8.363   5.675   1.402
21560SOL    HW166639   8.388   5.655   1.307
21560SOL    HW266640   8.435   5.731   1.444
21561SOL     OW66641   8.428   6.702   1.719
21561SOL    HW166642   8.329   6.708   1.729
21561SOL    HW266643   8.451   6.622   1.663
21562SOL     OW66644   8.153   6.636   0.368
21562SOL    HW166645   8.139   6.643   0.467
21562SOL    HW266646   8.237   6.585   0.350
21563SOL     OW66647   7.858   6.399   1.251
21563SOL    HW166648   7.944   6.411   1.301
21563SOL    HW266649   7.816   6.312   1.278
21564SOL     OW66650   8.722   5.972   1.262
21564SOL    HW166651   8.743   6.046   1.326
21564SOL    HW266652   8.633   5.989   1.219
21565SOL     OW66653   7.512   7.150   1.331
21565SOL    HW166654   7.466   7.232   1.297
21565SOL    HW266655   7.610   7.169   1.340
21566SOL     OW66656   7.815   6.686   0.501
21566SOL    HW166657   7.808   6.769   0.445
21566SOL    HW266658   7.819   6.606   0.441
21567SOL     OW66659   8.014   6.123   0.865
21567SOL    HW166660   8.026   6.189   0.791
21567SOL    HW266661   8.060   6.157   0.948
21568SOL     OW66662   8.700   6.934   0.388
21568SOL    HW166663   8.750   7.011   0.428
21568SOL    HW266664   8.605   6.936   0.420
21569SOL     OW66665   8.720   7.031   1.142
21569SOL    HW166666   8.767   7.044   1.229
21569SOL    HW266667   8.654   6.957   1.151
21570SOL     OW66668   0.030   6.225   0.472
21570SOL    HW166669  -0.001   6.286   0.545
21570SOL    HW266670   0.080   6.277   0.403
21571SOL     OW66671   7.802   7.096   1.329
21571SOL    HW166672   7.781   7.052   1.242
21571SOL    HW266673   7.899   7.122   1.332
21572SOL     OW66674   7.850   6.337   1.598
21572SOL    HW166675   7.918   6.392   1.551
21572SOL    HW266676   7.890   6.249   1.625
21573SOL     OW66677   0.035   6.365   1.670
21573SOL    HW166678  -0.057   6.403   1.665
21573SOL    HW266679   0.095   6.412   1.605
21574SOL     OW66680   8.461   5.691   1.770
21574SOL    HW166681   8.467   5.776   1.718
21574SOL    HW266682   8.493   5.615   1.713
21575SOL     OW66683   7.952   5.636   1.740
21575SOL    HW166684   7.910   5.579   1.670
21575SOL    HW266685   7.886   5.705   1.772
21576SOL     OW66686   8.021   6.456   1.029
21576SOL    HW166687   8.065   6.545   1.020
21576SOL    HW266688   7.958   6.456   1.106
21577SOL     OW66689   8.808   6.448   1.045
21577SOL    HW166690   8.733   6.448   0.979
21577SOL    HW266691   8.845   6.356   1.054
21578SOL     OW66692   8.657   6.111   0.275
21578SOL    HW166693   8.670   6.027   0.329
21578SOL    HW266694   8.628   6.185   0.335
21579SOL     OW66695   7.755   5.799   1.231
21579SOL    HW166696   7.732   5.836   1.321
21579SOL    HW266697   7.725   5.704   1.225
21580SOL     OW66698   7.485   6.896   1.282
21580SOL    HW166699   7.538   6.847   1.350
21580SOL    HW266700   7.507   6.994   1.287
21581SOL     OW66701   8.180   6.220   1.064
21581SOL    HW166702   8.239   6.194   0.988
21581SOL    HW266703   8.152   6.316   1.053
21582SOL     OW66704   0.176   6.521   1.854
21582SOL    HW166705   0.130   6.514   1.765
21582SOL    HW266706   0.114   6.565   1.920
21583SOL     OW66707   7.755   5.649   0.618
21583SOL    HW166708   7.744   5.743   0.651
21583SOL    HW266709   7.750   5.586   0.695
21584SOL     OW66710   0.070   5.953   0.374
21584SOL    HW166711   0.072   5.877   0.438
21584SOL    HW266712   0.022   6.030   0.414
21585SOL     OW66713   8.471   6.352   0.966
21585SOL    HW166714   8.486   6.373   1.062
21585SOL    HW266715   8.441   6.257   0.957
21586SOL     OW66716   8.428   7.159   1.700
21586SOL    HW166717   8.408   7.203   1.612
21586SOL    HW266718   8.467   7.068   1.684
21587SOL     OW66719   7.798   6.484   1.804
21587SOL    HW166720   7.874   6.528   1.852
21587SOL    HW266721   7.833   6.437   1.722
21588SOL     OW66722   8.988   5.860   0.125
21588SOL    HW166723   8.927   5.785   0.148
21588SOL    HW266724   9.010   5.912   0.208
21589SOL     OW66725   8.751   6.424   0.042
21589SOL    HW166726   8.785   6.331   0.057
21589SOL    HW266727   8.769   6.451  -0.053
21590SOL     OW66728   8.516   6.919   0.849
21590SOL    HW166729   8.523   6.835   0.794
21590SOL    HW266730   8.578   6.988   0.813
21591SOL     OW66731   7.767   6.396   0.949
21591SOL    HW166732   7.860   6.432   0.954
21591SOL    HW266733   7.761   6.311   1.001
21592SOL     OW66734   7.787   6.095   1.006
21592SOL    HW166735   7.735   6.012   0.989
21592SOL    HW266736   7.864   6.100   0.942
21593SOL     OW66737   7.959   6.001   1.808
21593SOL    HW166738   7.941   6.046   1.896
21593SOL    HW266739   8.001   6.066   1.745
21594SOL     OW66740   8.586   5.966   1.678
21594SOL    HW166741   8.541   6.029   1.742
21594SOL    HW266742   8.679   5.997   1.661
21595SOL     OW66743   8.608   5.793   1.477
21595SOL    HW166744   8.608   5.857   1.554
21595SOL    HW266745   8.636   5.841   1.394
21596SOL     OW66746   7.456   6.912   0.200
21596SOL    HW166747   7.363   6.933   0.169
21596SOL    HW266748   7.466   6.813   0.213
21597SOL     OW66749   7.536   7.387   0.927
21597SOL    HW166750   7.494   7.301   0.900
21597SOL    HW266751   7.630   7.390   0.893
21598SOL     OW66752   7.952   7.154   0.910
21598SOL    HW166753   8.018   7.228   0.919
21598SOL    HW266754   7.996   7.075   0.868
21599SOL     OW66755   8.450   6.382   1.238
21599SOL    HW166756   8.491   6.350   1.324
21599SOL    HW266757   8.354   6.355   1.235
21600SOL     OW66758   7.488   6.130   1.114
21600SOL    HW166759   7.573   6.097   1.073
21600SOL    HW266760   7.501   6.145   1.212
21601SOL     OW66761   7.637   6.106   1.722
21601SOL    HW166762   7.696   6.066   1.652
21601SOL    HW266763   7.579   6.177   1.681
21602SOL     OW66764   8.817   6.536   1.660
21602SOL    HW166765   8.856   6.625   1.680
21602SOL    HW266766   8.827   6.516   1.563
21603SOL     OW66767   8.263   6.158   0.325
21603SOL    HW166768   8.270   6.069   0.279
21603SOL    HW266769   8.169   6.192   0.317
21604SOL     OW66770   0.105   6.190   1.206
21604SOL    HW166771   0.067   6.121   1.268
21604SOL    HW266772   0.187   6.154   1.162
21605SOL     OW66773   7.700   7.150   1.744
21605SOL    HW166774   7.670   7.207   1.820
21605SOL    HW266775   7.693   7.053   1.770
21606SOL     OW66776   8.119   6.050   1.269
21606SOL    HW166777   8.085   5.961   1.239
21606SOL    HW266778   8.145   6.104   1.189
21607SOL     OW66779   8.378   7.264   1.465
21607SOL    HW166780   8.354   7.246   1.370
21607SOL    HW266781   8.408   7.358   1.475
21608SOL     OW66782   7.921   6.086   0.191
21608SOL    HW166783   7.982   6.166   0.195
21608SOL    HW266784   7.826   6.117   0.198
21609SOL     OW66785   7.607   6.723   1.466
21609SOL    HW166786   7.629   6.662   1.542
21609SOL    HW266787   7.617   6.674   1.380
21610SOL     OW66788   8.795   6.645   1.234
21610SOL    HW166789   8.819   6.582   1.160
21610SOL    HW266790   8.705   6.685   1.216
21611SOL     OW66791   8.750   6.441   0.309
21611SOL    HW166792   8.664   6.410   0.351
21611SOL    HW266793   8.746   6.427   0.210
21612SOL     OW66794   8.700   7.317   1.128
21612SOL    HW166795   8.784   7.322   1.074
21612SOL    HW266796   8.677   7.221   1.146
21613SOL     OW66797   7.531   6.844   1.022
21613SOL    HW166798   7.526   6.843   1.122
21613SOL    HW266799   7.448   6.803   0.984
21614SOL     OW66800   8.136   7.248   1.716
21614SOL    HW166801   8.080   7.329   1.725
21614SOL    HW266802   8.188   7.252   1.630
21615SOL     OW66803   8.351   5.672   0.133
21615SOL    HW166804   8.402   5.673   0.047
21615SOL    HW266805   8.407   5.630   0.204
21616SOL     OW66806   0.174   5.721   0.523
21616SOL    HW166807   0.247   5.704   0.456
21616SOL    HW266808   0.143   5.634   0.561
21617SOL     OW66809   8.836   7.159   0.477
21617SOL    HW166810   8.903   7.171   0.403
21617SOL    HW266811   8.796   7.248   0.500
21618SOL     OW66812   7.578   7.380   1.851
21618SOL    HW166813   7.537   7.306   1.904
21618SOL    HW266814   7.642   7.431   1.909
21619SOL     OW66815   8.728   6.513   0.672
21619SOL    HW166816   8.788   6.432   0.674
21619SOL    HW266817   8.768   6.582   0.612
21620SOL     OW66818   8.278   6.859   1.422
21620SOL    HW166819   8.273   6.892   1.517
21620SOL    HW266820   8.192   6.878   1.376
21621SOL     OW66821   8.120   7.202   0.154
21621SOL    HW166822   8.129   7.212   0.055
21621SOL    HW266823   8.080   7.113   0.175
21622SOL     OW66824   0.098   7.306   1.394
21622SOL    HW166825   0.151   7.316   1.310
21622SOL    HW266826   0.071   7.396   1.428
21623SOL     OW66827   7.711   5.912   0.720
21623SOL    HW166828   7.632   5.963   0.686
21623SOL    HW266829   7.702   5.897   0.818
21624SOL     OW66830   8.642   7.198   0.031
21624SOL    HW166831   8.648   7.105   0.068
21624SOL    HW266832   8.583   7.198  -0.049
21625SOL     OW66833   8.270   6.588   1.372
21625SOL    HW166834   8.310   6.587   1.280
21625SOL    HW266835   8.280   6.680   1.412
21626SOL     OW66836   8.364   6.496   0.291
21626SOL    HW166837   8.427   6.534   0.223
21626SOL    HW266838   8.404   6.413   0.330
21627SOL     OW66839   8.952   7.193   0.044
21627SOL    HW166840   8.860   7.230   0.051
21627SOL    HW266841   8.990   7.213  -0.046
21628SOL     OW66842   7.820   6.874   1.490
21628SOL    HW166843   7.807   6.967   1.456
21628SOL    HW266844   7.736   6.822   1.477
21629SOL     OW66845   0.062   6.878   1.289
21629SOL    HW166846   0.122   6.881   1.369
21629SOL    HW266847  -0.013   6.942   1.302
21630SOL     OW66848   8.487   6.684   0.696
21630SOL    HW166849   8.417   6.637   0.750
21630SOL    HW266850   8.546   6.616   0.653
21631SOL     OW66851   8.462   5.822   0.971
21631SOL    HW166852   8.454   5.786   0.878
21631SOL    HW266853   8.460   5.746   1.036
21632SOL     OW66854   8.038   7.073   0.491
21632SOL    HW166855   8.080   7.015   0.421
21632SOL    HW266856   7.994   7.152   0.447
21633SOL     OW66857   0.157   5.971   1.381
21633SOL    HW166858   0.230   6.040   1.385
21633SOL    HW266859   0.185   5.896   1.322
21634SOL     OW66860   7.703   6.934   0.290
21634SOL    HW166861   7.607   6.935   0.263
21634SOL    HW266862   7.715   6.987   0.374
21635SOL     OW66863   7.553   6.599   1.726
21635SOL    HW166864   7.476   6.566   1.780
21635SOL    HW266865   7.638   6.569   1.768
21636SOL     OW66866   8.120   5.789   1.489
21636SOL    HW166867   8.210   5.773   1.449
21636SOL    HW266868   8.128   5.794   1.588
21637SOL     OW66869   8.888   6.442   1.398
21637SOL    HW166870   8.831   6.494   1.335
21637SOL    HW266871   8.984   6.454   1.374
21638SOL     OW66872   7.520   5.752   0.318
21638SOL    HW166873   7.503   5.835   0.264
21638SOL    HW266874   7.610   5.715   0.296
21639SOL     OW66875   8.631   6.921   0.119
21639SOL    HW166876   8.532   6.910   0.121
21639SOL    HW266877   8.665   6.936   0.212
21640SOL     OW66878   8.061   6.428   1.431
21640SOL    HW166879   8.117   6.509   1.414
21640SOL    HW266880   8.120   6.348   1.434
21641SOL     OW66881   8.941   7.353   0.959
21641SOL    HW166882   8.974   7.417   0.890
21641SOL    HW266883   9.007   7.347   1.034
21642SOL     OW66884   8.164   6.151   1.708
21642SOL    HW166885   8.183   6.216   1.782
21642SOL    HW266886   8.224   6.071   1.717
21643SOL     OW66887   8.898   6.806   1.633
21643SOL    HW166888   8.889   6.796   1.732
21643SOL    HW266889   8.994   6.799   1.607
21644SOL     OW66890   7.838   7.327   1.560
21644SOL    HW166891   7.747   7.368   1.558
21644SOL    HW266892   7.831   7.233   1.592
21645SOL     OW66893   0.122   6.469   1.254
21645SOL    HW166894   0.095   6.380   1.217
21645SOL    HW266895   0.123   6.537   1.181
21646SOL     OW66896   8.673   5.911   0.449
21646SOL    HW166897   8.738   5.837   0.438
21646SOL    HW266898   8.693   5.961   0.533
21647SOL     OW66899   8.042   6.331   0.652
21647SOL    HW166900   8.092   6.416   0.633
21647SOL    HW266901   7.954   6.333   0.604
21648SOL     OW66902   0.225   5.928   1.642
21648SOL    HW166903   0.208   5.959   1.548
21648SOL    HW266904   0.141   5.891   1.680
21649SOL     OW66905   0.178   6.520   1.517
21649SOL    HW166906   0.216   6.611   1.532
21649SOL    HW266907   0.170   6.503   1.418
21650SOL     OW66908   8.307   6.960   0.016
21650SOL    HW166909   8.261   6.975   0.104
21650SOL    HW266910   8.351   7.045  -0.014
21651SOL     OW66911   8.109   7.376   0.953
21651SOL    HW166912   8.063   7.464   0.940
21651SOL    HW266913   8.208   7.388   0.946
21652SOL     OW66914   8.307   6.542   0.861
21652SOL    HW166915   8.361   6.473   0.909
21652SOL    HW266916   8.275   6.611   0.927
21653SOL     OW66917   8.531   6.570   0.087
21653SOL    HW166918   8.508   6.623   0.005
21653SOL    HW266919   8.612   6.514   0.068
21654SOL     OW66920   7.669   6.900   1.844
21654SOL    HW166921   7.604   6.827   1.823
21654SOL    HW266922   7.673   6.914   1.942
21655SOL     OW66923   7.527   6.826   0.653
21655SOL    HW166924   7.526   6.779   0.741
21655SOL    HW266925   7.609   6.798   0.602
21656SOL     OW66926   8.120   6.977   1.624
21656SOL    HW166927   8.042   6.927   1.662
21656SOL    HW266928   8.117   7.072   1.655
21657SOL     OW66929   7.876   6.010   0.520
21657SOL    HW166930   7.906   5.938   0.458
21657SOL    HW266931   7.837   5.970   0.603
21658SOL     OW66932   0.153   7.073   1.104
21658SOL    HW166933   0.060   7.048   1.077
21658SOL    HW266934   0.179   7.023   1.186
21659SOL     OW66935   7.765   6.133   1.280
21659SOL    HW166936   7.803   6.074   1.352
21659SOL    HW266937   7.805   6.107   1.192
21660SOL     OW66938   8.260   7.172   0.687
21660SOL    HW166939   8.292   7.182   0.593
21660SOL    HW266940   8.181   7.110   0.689
21661SOL     OW66941   8.872   5.800   1.112
21661SOL    HW166942   8.924   5.735   1.167
21661SOL    HW266943   8.823   5.863   1.173
21662SOL     OW66944   8.449   5.620   1.154
21662SOL    HW166945   8.386   5.548   1.123
21662SOL    HW266946   8.542   5.584   1.154
21663SOL     OW66947   8.218   6.916   0.301
21663SOL    HW166948   8.172   6.829   0.318
21663SOL    HW266949   8.309   6.913   0.342
21664SOL     OW66950   8.066   7.153   1.284
21664SOL    HW166951   8.061   7.235   1.341
21664SOL    HW266952   8.155   7.150   1.239
21665SOL     OW66953   8.748   6.039   0.691
21665SOL    HW166954   8.689   6.119   0.695
21665SOL    HW266955   8.763   6.004   0.784
21666SOL     OW66956   0.041   5.807   0.882
21666SOL    HW166957  -0.043   5.806   0.936
21666SOL    HW266958   0.043   5.890   0.826
21667SOL     OW66959   7.487   6.663   0.300
21667SOL    HW166960   7.586   6.652   0.291
21667SOL    HW266961   7.447   6.577   0.332
21668SOL     OW66962   8.323   7.232   0.337
21668SOL    HW166963   8.246   7.197   0.283
21668SOL    HW266964   8.291   7.303   0.399
21669SOL     OW66965   7.678   6.214   1.975
21669SOL    HW166966   7.585   6.212   2.012
21669SOL    HW266967   7.679   6.175   1.883
21670SOL     OW66968   8.017   6.861   3.027
21670SOL    HW166969   7.924   6.854   2.990
21670SOL    HW266970   8.028   6.950   3.071
21671SOL     OW66971   0.003   7.097   2.565
21671SOL    HW166972  -0.054   7.081   2.646
21671SOL    HW266973  -0.056   7.107   2.485
21672SOL     OW66974   0.191   6.204   2.718
21672SOL    HW166975   0.224   6.298   2.718
21672SOL    HW266976   0.242   6.150   2.784
21673SOL     OW66977   8.583   6.289   2.579
21673SOL    HW166978   8.640   6.367   2.554
21673SOL    HW266979   8.523   6.315   2.655
21674SOL     OW66980   0.203   6.193   2.093
21674SOL    HW166981   0.191   6.180   1.994
21674SOL    HW266982   0.173   6.112   2.142
21675SOL     OW66983   8.298   6.384   3.685
21675SOL    HW166984   8.294   6.460   3.750
21675SOL    HW266985   8.320   6.420   3.594
21676SOL     OW66986   8.133   6.598   2.527
21676SOL    HW166987   8.202   6.582   2.597
21676SOL    HW266988   8.060   6.655   2.565
21677SOL     OW66989   8.134   6.747   3.665
21677SOL    HW166990   8.194   6.826   3.679
21677SOL    HW266991   8.048   6.778   3.624
21678SOL     OW66992   7.783   7.021   2.923
21678SOL    HW166993   7.705   6.990   2.870
21678SOL    HW266994   7.841   7.079   2.866
21679SOL     OW66995   8.908   7.091   3.201
21679SOL    HW166996   8.932   7.185   3.227
21679SOL    HW266997   8.892   7.037   3.283
21680SOL     OW66998   7.679   7.299   2.345
21680SOL    HW166999   7.713   7.376   2.399
21680SOL    HW267000   7.723   7.299   2.255
21681SOL     OW67001   8.575   6.927   3.552
21681SOL    HW167002   8.622   6.927   3.640
21681SOL    HW267003   8.527   6.840   3.541
21682SOL     OW67004   7.678   7.020   2.400
21682SOL    HW167005   7.652   7.116   2.400
21682SOL    HW267006   7.607   6.966   2.445
21683SOL     OW67007   7.688   6.677   2.748
21683SOL    HW167008   7.702   6.593   2.800
21683SOL    HW267009   7.633   6.741   2.803
21684SOL     OW67010   8.068   7.372   3.301
21684SOL    HW167011   7.976   7.355   3.336
21684SOL    HW267012   8.096   7.464   3.327
21685SOL     OW67013   8.054   6.550   1.985
21685SOL    HW167014   8.061   6.634   1.931
21685SOL    HW267015   8.100   6.563   2.073
21686SOL     OW67016   0.042   5.700   3.342
21686SOL    HW167017   0.024   5.767   3.270
21686SOL    HW267018   0.039   5.746   3.431
21687SOL     OW67019   7.475   7.182   1.979
21687SOL    HW167020   7.456   7.086   2.000
21687SOL    HW267021   7.442   7.240   2.054
21688SOL     OW67022   0.137   6.508   2.474
21688SOL    HW167023   0.232   6.479   2.482
21688SOL    HW267024   0.129   6.573   2.399
21689SOL     OW67025   0.089   6.694   2.294
21689SOL    HW167026   0.175   6.696   2.242
21689SOL    HW267027   0.103   6.741   2.382
21690SOL     OW67028   7.561   6.323   3.459
21690SOL    HW167029   7.649   6.310   3.504
21690SOL    HW267030   7.548   6.420   3.437
21691SOL     OW67031   8.061   6.951   2.588
21691SOL    HW167032   8.012   6.864   2.597
21691SOL    HW267033   8.038   6.994   2.501
21692SOL     OW67034   8.741   6.814   3.285
21692SOL    HW167035   8.778   6.741   3.227
21692SOL    HW267036   8.793   6.819   3.370
21693SOL     OW67037   8.257   5.590   2.364
21693SOL    HW167038   8.297   5.681   2.355
21693SOL    HW267039   8.157   5.598   2.370
21694SOL     OW67040   7.645   6.562   3.126
21694SOL    HW167041   7.734   6.517   3.112
21694SOL    HW267042   7.572   6.497   3.107
21695SOL     OW67043   8.973   6.585   2.052
21695SOL    HW167044   8.910   6.509   2.065
21695SOL    HW267045   9.021   6.603   2.138
21696SOL     OW67046   8.635   7.378   3.478
21696SOL    HW167047   8.659   7.438   3.402
21696SOL    HW267048   8.642   7.283   3.448
21697SOL     OW67049   7.765   5.837   3.663
21697SOL    HW167050   7.836   5.908   3.669
21697SOL    HW267051   7.677   5.876   3.691
21698SOL     OW67052   8.914   7.003   2.815
21698SOL    HW167053   8.855   7.009   2.895
21698SOL    HW267054   8.899   6.915   2.769
21699SOL     OW67055   0.115   7.300   2.434
21699SOL    HW167056   0.074   7.277   2.346
21699SOL    HW267057   0.097   7.226   2.499
21700SOL     OW67058   8.046   6.315   2.132
21700SOL    HW167059   8.070   6.384   2.064
21700SOL    HW267060   7.968   6.348   2.186
21701SOL     OW67061   8.729   5.931   2.806
21701SOL    HW167062   8.643   5.881   2.793
21701SOL    HW267063   8.791   5.877   2.862
21702SOL     OW67064   0.024   7.248   2.169
21702SOL    HW167065   0.113   7.294   2.172
21702SOL    HW267066   0.003   7.224   2.074
21703SOL     OW67067   8.255   6.191   3.327
21703SOL    HW167068   8.208   6.188   3.416
21703SOL    HW267069   8.204   6.136   3.261
21704SOL     OW67070   8.842   6.055   3.536
21704SOL    HW167071   8.822   6.098   3.624
21704SOL    HW267072   8.920   5.993   3.545
21705SOL     OW67073   8.421   6.476   3.434
21705SOL    HW167074   8.467   6.392   3.405
21705SOL    HW267075   8.365   6.510   3.359
21706SOL     OW67076   8.439   5.996   3.104
21706SOL    HW167077   8.362   6.030   3.158
21706SOL    HW267078   8.405   5.945   3.025
21707SOL     OW67079   8.489   6.287   2.291
21707SOL    HW167080   8.515   6.283   2.387
21707SOL    HW267081   8.404   6.236   2.277
21708SOL     OW67082   7.524   6.397   2.651
21708SOL    HW167083   7.623   6.385   2.660
21708SOL    HW267084   7.500   6.492   2.672
21709SOL     OW67085   7.578   7.407   3.433
21709SOL    HW167086   7.568   7.392   3.532
21709SOL    HW267087   7.492   7.443   3.397
21710SOL     OW67088   8.313   5.934   2.057
21710SOL    HW167089   8.372   5.997   2.008
21710SOL    HW267090   8.332   5.840   2.028
21711SOL     OW67091   0.167   6.171   3.693
21711SOL    HW167092   0.141   6.260   3.657
21711SOL    HW267093   0.165   6.103   3.620
21712SOL     OW67094   8.810   6.730   2.407
21712SOL    HW167095   8.893   6.701   2.359
21712SOL    HW267096   8.761   6.797   2.351
21713SOL     OW67097   7.998   5.782   2.747
21713SOL    HW167098   7.993   5.777   2.847
21713SOL    HW267099   8.000   5.878   2.718
21714SOL     OW67100   8.456   7.042   2.339
21714SOL    HW167101   8.410   7.114   2.287
21714SOL    HW267102   8.452   7.062   2.437
21715SOL     OW67103   7.799   7.387   2.715
21715SOL    HW167104   7.849   7.301   2.721
21715SOL    HW267105   7.864   7.464   2.712
21716SOL     OW67106   0.243   6.652   2.735
21716SOL    HW167107   0.181   6.637   2.659
21716SOL    HW267108   0.191   6.663   2.820
21717SOL     OW67109   8.675   7.136   3.368
21717SOL    HW167110   8.681   7.059   3.432
21717SOL    HW267111   8.623   7.110   3.288
21718SOL     OW67112   7.769   6.529   2.104
21718SOL    HW167113   7.851   6.568   2.062
21718SOL    HW267114   7.742   6.447   2.055
21719SOL     OW67115   8.906   6.321   2.590
21719SOL    HW167116   8.901   6.256   2.665
21719SOL    HW267117   8.986   6.380   2.603
21720SOL     OW67118   7.909   6.852   3.589
21720SOL    HW167119   7.859   6.853   3.503
21720SOL    HW267120   7.846   6.834   3.665
21721SOL     OW67121   8.559   7.362   2.099
21721SOL    HW167122   8.499   7.300   2.149
21721SOL    HW267123   8.590   7.318   2.014
21722SOL     OW67124   7.650   5.871   3.360
21722SOL    HW167125   7.570   5.931   3.347
21722SOL    HW267126   7.640   5.822   3.446
21723SOL     OW67127   0.080   6.963   1.943
21723SOL    HW167128   0.048   7.057   1.933
21723SOL    HW267129   0.004   6.900   1.931
21724SOL     OW67130   7.912   7.329   2.185
21724SOL    HW167131   7.945   7.368   2.271
21724SOL    HW267132   7.988   7.322   2.120
21725SOL     OW67133   8.848   5.693   2.288
21725SOL    HW167134   8.824   5.656   2.198
21725SOL    HW267135   8.947   5.709   2.292
21726SOL     OW67136   7.697   7.371   3.103
21726SOL    HW167137   7.754   7.306   3.153
21726SOL    HW267138   7.681   7.338   3.010
21727SOL     OW67139   8.388   7.284   2.766
21727SOL    HW167140   8.468   7.227   2.787
21727SOL    HW267141   8.339   7.244   2.689
21728SOL     OW67142   7.830   6.286   2.342
21728SOL    HW167143   7.875   6.196   2.339
21728SOL    HW267144   7.736   6.275   2.375
21729SOL     OW67145   8.995   5.808   3.591
21729SOL    HW167146   8.990   5.845   3.683
21729SOL    HW267147   8.923   5.739   3.579
21730SOL     OW67148   8.062   5.708   1.979
21730SOL    HW167149   8.160   5.686   1.986
21730SOL    HW267150   8.031   5.691   1.886
21731SOL     OW67151   8.229   5.850   3.611
21731SOL    HW167152   8.296   5.789   3.654
21731SOL    HW267153   8.156   5.869   3.676
21732SOL     OW67154   8.336   7.100   3.057
21732SOL    HW167155   8.313   7.075   2.963
21732SOL    HW267156   8.397   7.031   3.096
21733SOL     OW67157   8.799   6.176   3.295
21733SOL    HW167158   8.827   6.133   3.380
21733SOL    HW267159   8.824   6.272   3.296
21734SOL     OW67160   8.251   6.988   2.786
21734SOL    HW167161   8.341   7.002   2.744
21734SOL    HW267162   8.180   6.990   2.715
21735SOL     OW67163   8.370   6.089   2.761
21735SOL    HW167164   8.345   6.080   2.665
21735SOL    HW267165   8.418   6.007   2.792
21736SOL     OW67166   7.987   5.650   2.374
21736SOL    HW167167   7.906   5.651   2.432
21736SOL    HW267168   7.990   5.733   2.319
21737SOL     OW67169   8.882   6.774   1.903
21737SOL    HW167170   8.914   6.698   1.960
21737SOL    HW267171   8.790   6.801   1.933
21738SOL     OW67172   8.383   5.822   2.342
21738SOL    HW167173   8.335   5.863   2.264
21738SOL    HW267174   8.482   5.820   2.323
21739SOL     OW67175   8.524   6.269   3.326
21739SOL    HW167176   8.444   6.208   3.329
21739SOL    HW267177   8.605   6.216   3.302
21740SOL     OW67178   8.675   7.156   2.655
21740SOL    HW167179   8.696   7.230   2.590
21740SOL    HW267180   8.743   7.156   2.728
21741SOL     OW67181   7.907   6.738   2.603
21741SOL    HW167182   7.836   6.711   2.668
21741SOL    HW267183   7.881   6.710   2.510
21742SOL     OW67184   8.719   7.383   2.453
21742SOL    HW167185   8.763   7.447   2.389
21742SOL    HW267186   8.669   7.435   2.523
21743SOL     OW67187   8.480   6.135   1.878
21743SOL    HW167188   8.439   6.217   1.839
21743SOL    HW267189   8.544   6.161   1.951
21744SOL     OW67190   7.526   6.142   3.248
21744SOL    HW167191   7.618   6.141   3.207
21744SOL    HW267192   7.520   6.216   3.315
21745SOL     OW67193   8.314   6.040   2.504
21745SOL    HW167194   8.282   6.112   2.442
21745SOL    HW267195   8.338   5.959   2.451
21746SOL     OW67196   8.465   5.625   2.615
21746SOL    HW167197   8.393   5.630   2.546
21746SOL    HW267198   8.441   5.556   2.684
21747SOL     OW67199   8.877   6.759   2.729
21747SOL    HW167200   8.822   6.675   2.722
21747SOL    HW267201   8.903   6.788   2.637
21748SOL     OW67202   8.914   6.176   2.854
21748SOL    HW167203   8.884   6.081   2.861
21748SOL    HW267204   8.987   6.192   2.920
21749SOL     OW67205   7.936   6.971   2.036
21749SOL    HW167206   7.849   6.956   2.083
21749SOL    HW267207   7.919   6.997   1.941
21750SOL     OW67208   0.112   6.866   2.519
21750SOL    HW167209   0.211   6.874   2.533
21750SOL    HW267210   0.067   6.950   2.550
21751SOL     OW67211   8.838   6.161   1.940
21751SOL    HW167212   8.784   6.140   2.021
21751SOL    HW267213   8.929   6.120   1.949
21752SOL     OW67214   7.975   5.842   2.190
21752SOL    HW167215   8.002   5.783   2.115
21752SOL    HW267216   7.975   5.937   2.159
21753SOL     OW67217   8.512   6.933   3.202
21753SOL    HW167218   8.432   6.910   3.257
21753SOL    HW267219   8.595   6.907   3.251
21754SOL     OW67220   0.040   7.215   3.487
21754SOL    HW167221   0.067   7.249   3.397
21754SOL    HW267222   0.119   7.177   3.533
21755SOL     OW67223   8.559   6.781   2.962
21755SOL    HW167224   8.519   6.825   3.043
21755SOL    HW267225   8.518   6.818   2.879
21756SOL     OW67226   0.086   6.685   2.941
21756SOL    HW167227   0.091   6.766   3.000
21756SOL    HW267228   0.000   6.687   2.890
21757SOL     OW67229   8.363   5.675   3.264
21757SOL    HW167230   8.388   5.655   3.169
21757SOL    HW267231   8.435   5.731   3.306
21758SOL     OW67232   8.428   6.702   3.581
21758SOL    HW167233   8.329   6.708   3.591
21758SOL    HW267234   8.451   6.622   3.525
21759SOL     OW67235   8.153   6.636   2.230
21759SOL    HW167236   8.139   6.643   2.329
21759SOL    HW267237   8.237   6.585   2.212
21760SOL     OW67238   7.858   6.399   3.113
21760SOL    HW167239   7.944   6.411   3.163
21760SOL    HW267240   7.816   6.312   3.140
21761SOL     OW67241   8.722   5.972   3.124
21761SOL    HW167242   8.743   6.046   3.188
21761SOL    HW267243   8.633   5.989   3.081
21762SOL     OW67244   7.512   7.150   3.193
21762SOL    HW167245   7.466   7.232   3.159
21762SOL    HW267246   7.610   7.169   3.202
21763SOL     OW67247   7.815   6.686   2.363
21763SOL    HW167248   7.808   6.769   2.307
21763SOL    HW267249   7.819   6.606   2.303
21764SOL     OW67250   8.014   6.123   2.727
21764SOL    HW167251   8.026   6.189   2.653
21764SOL    HW267252   8.060   6.157   2.810
21765SOL     OW67253   8.700   6.934   2.250
21765SOL    HW167254   8.750   7.011   2.290
21765SOL    HW267255   8.605   6.936   2.282
21766SOL     OW67256   8.720   7.031   3.004
21766SOL    HW167257   8.767   7.044   3.091
21766SOL    HW267258   8.654   6.957   3.013
21767SOL     OW67259   0.030   6.225   2.334
21767SOL    HW167260  -0.001   6.286   2.407
21767SOL    HW267261   0.080   6.277   2.265
21768SOL     OW67262   7.802   7.096   3.191
21768SOL    HW167263   7.781   7.052   3.104
21768SOL    HW267264   7.899   7.122   3.194
21769SOL     OW67265   7.850   6.337   3.460
21769SOL    HW167266   7.918   6.392   3.413
21769SOL    HW267267   7.890   6.249   3.487
21770SOL     OW67268   0.035   6.365   3.532
21770SOL    HW167269  -0.057   6.403   3.527
21770SOL    HW267270   0.095   6.412   3.467
21771SOL     OW67271   8.461   5.691   3.632
21771SOL    HW167272   8.467   5.776   3.580
21771SOL    HW267273   8.493   5.615   3.575
21772SOL     OW67274   7.952   5.636   3.602
21772SOL    HW167275   7.910   5.579   3.532
21772SOL    HW267276   7.886   5.705   3.634
21773SOL     OW67277   8.021   6.456   2.891
21773SOL    HW167278   8.065   6.545   2.882
21773SOL    HW267279   7.958   6.456   2.968
21774SOL     OW67280   8.657   6.111   2.137
21774SOL    HW167281   8.670   6.027   2.191
21774SOL    HW267282   8.628   6.185   2.197
21775SOL     OW67283   7.485   6.896   3.144
21775SOL    HW167284   7.538   6.847   3.212
21775SOL    HW267285   7.507   6.994   3.149
21776SOL     OW67286   8.180   6.220   2.926
21776SOL    HW167287   8.239   6.194   2.850
21776SOL    HW267288   8.152   6.316   2.915
21777SOL     OW67289   0.176   6.521   3.716
21777SOL    HW167290   0.130   6.514   3.627
21777SOL    HW267291   0.114   6.565   3.782
21778SOL     OW67292   0.070   5.953   2.236
21778SOL    HW167293   0.072   5.877   2.300
21778SOL    HW267294   0.022   6.030   2.276
21779SOL     OW67295   8.471   6.352   2.828
21779SOL    HW167296   8.486   6.373   2.924
21779SOL    HW267297   8.441   6.257   2.819
21780SOL     OW67298   8.428   7.159   3.562
21780SOL    HW167299   8.408   7.203   3.474
21780SOL    HW267300   8.467   7.068   3.546
21781SOL     OW67301   7.798   6.484   3.666
21781SOL    HW167302   7.874   6.528   3.714
21781SOL    HW267303   7.833   6.437   3.584
21782SOL     OW67304   8.988   5.860   1.987
21782SOL    HW167305   8.927   5.785   2.010
21782SOL    HW267306   9.010   5.912   2.070
21783SOL     OW67307   8.751   6.424   1.904
21783SOL    HW167308   8.785   6.331   1.919
21783SOL    HW267309   8.769   6.451   1.809
21784SOL     OW67310   8.516   6.919   2.711
21784SOL    HW167311   8.523   6.835   2.656
21784SOL    HW267312   8.578   6.988   2.675
21785SOL     OW67313   7.767   6.396   2.811
21785SOL    HW167314   7.860   6.432   2.816
21785SOL    HW267315   7.761   6.311   2.863
21786SOL     OW67316   7.959   6.001   3.670
21786SOL    HW167317   7.941   6.046   3.758
21786SOL    HW267318   8.001   6.066   3.607
21787SOL     OW67319   8.586   5.966   3.540
21787SOL    HW167320   8.541   6.029   3.604
21787SOL    HW267321   8.679   5.997   3.523
21788SOL     OW67322   8.608   5.793   3.339
21788SOL    HW167323   8.608   5.857   3.416
21788SOL    HW267324   8.636   5.841   3.256
21789SOL     OW67325   7.456   6.912   2.062
21789SOL    HW167326   7.363   6.933   2.031
21789SOL    HW267327   7.466   6.813   2.075
21790SOL     OW67328   7.536   7.387   2.789
21790SOL    HW167329   7.494   7.301   2.762
21790SOL    HW267330   7.630   7.390   2.755
21791SOL     OW67331   7.952   7.154   2.772
21791SOL    HW167332   8.018   7.228   2.781
21791SOL    HW267333   7.996   7.075   2.730
21792SOL     OW67334   7.488   6.130   2.976
21792SOL    HW167335   7.573   6.097   2.935
21792SOL    HW267336   7.501   6.145   3.074
21793SOL     OW67337   7.637   6.106   3.584
21793SOL    HW167338   7.696   6.066   3.514
21793SOL    HW267339   7.579   6.177   3.543
21794SOL     OW67340   8.817   6.536   3.522
21794SOL    HW167341   8.856   6.625   3.542
21794SOL    HW267342   8.827   6.516   3.425
21795SOL     OW67343   8.263   6.158   2.187
21795SOL    HW167344   8.270   6.069   2.141
21795SOL    HW267345   8.169   6.192   2.179
21796SOL     OW67346   0.105   6.190   3.068
21796SOL    HW167347   0.067   6.121   3.130
21796SOL    HW267348   0.187   6.154   3.024
21797SOL     OW67349   7.700   7.150   3.606
21797SOL    HW167350   7.670   7.207   3.682
21797SOL    HW267351   7.693   7.053   3.632
21798SOL     OW67352   8.378   7.264   3.327
21798SOL    HW167353   8.354   7.246   3.232
21798SOL    HW267354   8.408   7.358   3.337
21799SOL     OW67355   7.921   6.086   2.053
21799SOL    HW167356   7.982   6.166   2.057
21799SOL    HW267357   7.826   6.117   2.060
21800SOL     OW67358   7.607   6.723   3.328
21800SOL    HW167359   7.629   6.662   3.404
21800SOL    HW267360   7.617   6.674   3.242
21801SOL     OW67361   8.795   6.645   3.096
21801SOL    HW167362   8.819   6.582   3.022
21801SOL    HW267363   8.705   6.685   3.078
21802SOL     OW67364   8.750   6.441   2.171
21802SOL    HW167365   8.664   6.410   2.213
21802SOL    HW267366   8.746   6.427   2.072
21803SOL     OW67367   8.700   7.317   2.990
21803SOL    HW167368   8.784   7.322   2.936
21803SOL    HW267369   8.677   7.221   3.008
21804SOL     OW67370   7.531   6.844   2.884
21804SOL    HW167371   7.526   6.843   2.984
21804SOL    HW267372   7.448   6.803   2.846
21805SOL     OW67373   8.136   7.248   3.578
21805SOL    HW167374   8.080   7.329   3.587
21805SOL    HW267375   8.188   7.252   3.492
21806SOL     OW67376   8.351   5.672   1.995
21806SOL    HW167377   8.402   5.673   1.909
21806SOL    HW267378   8.407   5.630   2.066
21807SOL     OW67379   0.174   5.721   2.385
21807SOL    HW167380   0.247   5.704   2.318
21807SOL    HW267381   0.143   5.634   2.423
21808SOL     OW67382   8.836   7.159   2.339
21808SOL    HW167383   8.903   7.171   2.265
21808SOL    HW267384   8.796   7.248   2.362
21809SOL     OW67385   7.578   7.380   3.713
21809SOL    HW167386   7.537   7.306   3.766
21809SOL    HW267387   7.642   7.431   3.771
21810SOL     OW67388   8.728   6.513   2.534
21810SOL    HW167389   8.788   6.432   2.536
21810SOL    HW267390   8.768   6.582   2.474
21811SOL     OW67391   8.278   6.859   3.284
21811SOL    HW167392   8.273   6.892   3.379
21811SOL    HW267393   8.192   6.878   3.238
21812SOL     OW67394   8.120   7.202   2.016
21812SOL    HW167395   8.129   7.212   1.917
21812SOL    HW267396   8.080   7.113   2.037
21813SOL     OW67397   0.098   7.306   3.256
21813SOL    HW167398   0.151   7.316   3.172
21813SOL    HW267399   0.071   7.396   3.290
21814SOL     OW67400   8.642   7.198   1.893
21814SOL    HW167401   8.648   7.105   1.930
21814SOL    HW267402   8.583   7.198   1.813
21815SOL     OW67403   8.364   6.496   2.153
21815SOL    HW167404   8.427   6.534   2.085
21815SOL    HW267405   8.404   6.413   2.192
21816SOL     OW67406   8.952   7.193   1.906
21816SOL    HW167407   8.860   7.230   1.913
21816SOL    HW267408   8.990   7.213   1.816
21817SOL     OW67409   7.820   6.874   3.352
21817SOL    HW167410   7.807   6.967   3.318
21817SOL    HW267411   7.736   6.822   3.339
21818SOL     OW67412   0.062   6.878   3.151
21818SOL    HW167413   0.122   6.881   3.231
21818SOL    HW267414  -0.013   6.942   3.164
21819SOL     OW67415   8.487   6.684   2.558
21819SOL    HW167416   8.417   6.637   2.612
21819SOL    HW267417   8.546   6.616   2.515
21820SOL     OW67418   8.462   5.822   2.833
21820SOL    HW167419   8.454   5.786   2.740
21820SOL    HW267420   8.460   5.746   2.898
21821SOL     OW67421   8.038   7.073   2.353
21821SOL    HW167422   8.080   7.015   2.283
21821SOL    HW267423   7.994   7.152   2.309
21822SOL     OW67424   0.157   5.971   3.243
21822SOL    HW167425   0.230   6.040   3.247
21822SOL    HW267426   0.185   5.896   3.184
21823SOL     OW67427   7.703   6.934   2.152
21823SOL    HW167428   7.607   6.935   2.125
21823SOL    HW267429   7.715   6.987   2.236
21824SOL     OW67430   7.553   6.599   3.588
21824SOL    HW167431   7.476   6.566   3.642
21824SOL    HW267432   7.638   6.569   3.630
21825SOL     OW67433   8.120   5.789   3.351
21825SOL    HW167434   8.210   5.773   3.311
21825SOL    HW267435   8.128   5.794   3.450
21826SOL     OW67436   8.888   6.442   3.260
21826SOL    HW167437   8.831   6.494   3.197
21826SOL    HW267438   8.984   6.454   3.236
21827SOL     OW67439   7.520   5.752   2.180
21827SOL    HW167440   7.503   5.835   2.126
21827SOL    HW267441   7.610   5.715   2.158
21828SOL     OW67442   8.631   6.921   1.981
21828SOL    HW167443   8.532   6.910   1.983
21828SOL    HW267444   8.665   6.936   2.074
21829SOL     OW67445   8.061   6.428   3.293
21829SOL    HW167446   8.117   6.509   3.276
21829SOL    HW267447   8.120   6.348   3.296
21830SOL     OW67448   8.941   7.353   2.821
21830SOL    HW167449   8.974   7.417   2.752
21830SOL    HW267450   9.007   7.347   2.896
21831SOL     OW67451   8.164   6.151   3.570
21831SOL    HW167452   8.183   6.216   3.644
21831SOL    HW267453   8.224   6.071   3.579
21832SOL     OW67454   8.898   6.806   3.495
21832SOL    HW167455   8.889   6.796   3.594
21832SOL    HW267456   8.994   6.799   3.469
21833SOL     OW67457   7.838   7.327   3.422
21833SOL    HW167458   7.747   7.368   3.420
21833SOL    HW267459   7.831   7.233   3.454
21834SOL     OW67460   0.122   6.469   3.116
21834SOL    HW167461   0.095   6.380   3.079
21834SOL    HW267462   0.123   6.537   3.043
21835SOL     OW67463   8.673   5.911   2.311
21835SOL    HW167464   8.738   5.837   2.300
21835SOL    HW267465   8.693   5.961   2.395
21836SOL     OW67466   8.042   6.331   2.514
21836SOL    HW167467   8.092   6.416   2.495
21836SOL    HW267468   7.954   6.333   2.466
21837SOL     OW67469   0.225   5.928   3.504
21837SOL    HW167470   0.208   5.959   3.410
21837SOL    HW267471   0.141   5.891   3.542
21838SOL     OW67472   0.178   6.520   3.379
21838SOL    HW167473   0.216   6.611   3.394
21838SOL    HW267474   0.170   6.503   3.280
21839SOL     OW67475   8.307   6.960   1.878
21839SOL    HW167476   8.261   6.975   1.966
21839SOL    HW267477   8.351   7.045   1.848
21840SOL     OW67478   8.109   7.376   2.815
21840SOL    HW167479   8.063   7.464   2.802
21840SOL    HW267480   8.208   7.388   2.808
21841SOL     OW67481   8.531   6.570   1.949
21841SOL    HW167482   8.508   6.623   1.867
21841SOL    HW267483   8.612   6.514   1.930
21842SOL     OW67484   7.669   6.900   3.706
21842SOL    HW167485   7.604   6.827   3.685
21842SOL    HW267486   7.673   6.914   3.804
21843SOL     OW67487   7.527   6.826   2.515
21843SOL    HW167488   7.526   6.779   2.603
21843SOL    HW267489   7.609   6.798   2.464
21844SOL     OW67490   8.120   6.977   3.486
21844SOL    HW167491   8.042   6.927   3.524
21844SOL    HW267492   8.117   7.072   3.517
21845SOL     OW67493   7.876   6.010   2.382
21845SOL    HW167494   7.906   5.938   2.320
21845SOL    HW267495   7.837   5.970   2.465
21846SOL     OW67496   0.153   7.073   2.966
21846SOL    HW167497   0.060   7.048   2.939
21846SOL    HW267498   0.179   7.023   3.048
21847SOL     OW67499   8.260   7.172   2.549
21847SOL    HW167500   8.292   7.182   2.455
21847SOL    HW267501   8.181   7.110   2.551
21848SOL     OW67502   8.872   5.800   2.974
21848SOL    HW167503   8.924   5.735   3.029
21848SOL    HW267504   8.823   5.863   3.035
21849SOL     OW67505   8.449   5.620   3.016
21849SOL    HW167506   8.386   5.548   2.985
21849SOL    HW267507   8.542   5.584   3.016
21850SOL     OW67508   8.218   6.916   2.163
21850SOL    HW167509   8.172   6.829   2.180
21850SOL    HW267510   8.309   6.913   2.204
21851SOL     OW67511   8.066   7.153   3.146
21851SOL    HW167512   8.061   7.235   3.203
21851SOL    HW267513   8.155   7.150   3.101
21852SOL     OW67514   8.800   5.638   2.030
21852SOL    HW167515   8.835   5.597   1.946
21852SOL    HW267516   8.710   5.600   2.050
21853SOL     OW67517   8.748   6.039   2.553
21853SOL    HW167518   8.689   6.119   2.557
21853SOL    HW267519   8.763   6.004   2.646
21854SOL     OW67520   0.041   5.807   2.744
21854SOL    HW167521  -0.043   5.806   2.798
21854SOL    HW267522   0.043   5.890   2.688
21855SOL     OW67523   7.487   6.663   2.162
21855SOL    HW167524   7.586   6.652   2.153
21855SOL    HW267525   7.447   6.577   2.194
21856SOL     OW67526   8.323   7.232   2.199
21856SOL    HW167527   8.246   7.197   2.145
21856SOL    HW267528   8.291   7.303   2.261
21857SOL     OW67529   7.678   6.214   3.837
21857SOL    HW167530   7.585   6.212   3.874
21857SOL    HW267531   7.679   6.175   3.745
21858SOL     OW67532   7.673   5.861   4.720
21858SOL    HW167533   7.708   5.844   4.812
21858SOL    HW267534   7.585   5.816   4.708
21859SOL     OW67535   7.467   5.954   4.371
21859SOL    HW167536   7.385   5.997   4.410
21859SOL    HW267537   7.439   5.881   4.308
21860SOL     OW67538   8.017   6.861   4.889
21860SOL    HW167539   7.924   6.854   4.852
21860SOL    HW267540   8.028   6.950   4.933
21861SOL     OW67541   0.003   7.097   4.427
21861SOL    HW167542  -0.054   7.081   4.508
21861SOL    HW267543  -0.056   7.107   4.347
21862SOL     OW67544   0.191   6.204   4.580
21862SOL    HW167545   0.224   6.298   4.580
21862SOL    HW267546   0.242   6.150   4.646
21863SOL     OW67547   8.583   6.289   4.441
21863SOL    HW167548   8.640   6.367   4.416
21863SOL    HW267549   8.523   6.315   4.517
21864SOL     OW67550   0.203   6.193   3.955
21864SOL    HW167551   0.191   6.180   3.856
21864SOL    HW267552   0.173   6.112   4.004
21865SOL     OW67553   8.216   6.730   4.747
21865SOL    HW167554   8.138   6.747   4.807
21865SOL    HW267555   8.250   6.817   4.711
21866SOL     OW67556   8.298   6.384   5.547
21866SOL    HW167557   8.294   6.460   5.612
21866SOL    HW267558   8.320   6.420   5.456
21867SOL     OW67559   8.133   6.598   4.389
21867SOL    HW167560   8.202   6.582   4.459
21867SOL    HW267561   8.060   6.655   4.427
21868SOL     OW67562   8.134   6.747   5.527
21868SOL    HW167563   8.194   6.826   5.541
21868SOL    HW267564   8.048   6.778   5.486
21869SOL     OW67565   7.783   7.021   4.785
21869SOL    HW167566   7.705   6.990   4.732
21869SOL    HW267567   7.841   7.079   4.728
21870SOL     OW67568   8.908   7.091   5.063
21870SOL    HW167569   8.932   7.185   5.089
21870SOL    HW267570   8.892   7.037   5.145
21871SOL     OW67571   7.886   5.978   5.223
21871SOL    HW167572   7.968   5.922   5.232
21871SOL    HW267573   7.805   5.920   5.227
21872SOL     OW67574   7.679   7.299   4.207
21872SOL    HW167575   7.713   7.376   4.261
21872SOL    HW267576   7.723   7.299   4.117
21873SOL     OW67577   8.575   6.927   5.414
21873SOL    HW167578   8.622   6.927   5.502
21873SOL    HW267579   8.527   6.840   5.403
21874SOL     OW67580   7.678   7.020   4.262
21874SOL    HW167581   7.652   7.116   4.262
21874SOL    HW267582   7.607   6.966   4.307
21875SOL     OW67583   7.688   6.677   4.610
21875SOL    HW167584   7.702   6.593   4.662
21875SOL    HW267585   7.633   6.741   4.665
21876SOL     OW67586   8.068   7.372   5.163
21876SOL    HW167587   7.976   7.355   5.198
21876SOL    HW267588   8.096   7.464   5.189
21877SOL     OW67589   8.054   6.550   3.847
21877SOL    HW167590   8.061   6.634   3.793
21877SOL    HW267591   8.100   6.563   3.935
21878SOL     OW67592   0.042   5.700   5.204
21878SOL    HW167593   0.024   5.767   5.132
21878SOL    HW267594   0.039   5.746   5.293
21879SOL     OW67595   7.570   6.229   4.287
21879SOL    HW167596   7.525   6.141   4.304
21879SOL    HW267597   7.569   6.283   4.371
21880SOL     OW67598   7.475   7.182   3.841
21880SOL    HW167599   7.456   7.086   3.862
21880SOL    HW267600   7.442   7.240   3.916
21881SOL     OW67601   0.137   6.508   4.336
21881SOL    HW167602   0.232   6.479   4.344
21881SOL    HW267603   0.129   6.573   4.261
21882SOL     OW67604   0.089   6.694   4.156
21882SOL    HW167605   0.175   6.696   4.104
21882SOL    HW267606   0.103   6.741   4.244
21883SOL     OW67607   7.561   6.323   5.321
21883SOL    HW167608   7.649   6.310   5.366
21883SOL    HW267609   7.548   6.420   5.299
21884SOL     OW67610   8.061   6.951   4.450
21884SOL    HW167611   8.012   6.864   4.459
21884SOL    HW267612   8.038   6.994   4.363
21885SOL     OW67613   8.741   6.814   5.147
21885SOL    HW167614   8.778   6.741   5.089
21885SOL    HW267615   8.793   6.819   5.232
21886SOL     OW67616   8.257   5.590   4.226
21886SOL    HW167617   8.297   5.681   4.217
21886SOL    HW267618   8.157   5.598   4.232
21887SOL     OW67619   7.645   6.562   4.988
21887SOL    HW167620   7.734   6.517   4.974
21887SOL    HW267621   7.572   6.497   4.969
21888SOL     OW67622   8.973   6.585   3.914
21888SOL    HW167623   8.910   6.509   3.927
21888SOL    HW267624   9.021   6.603   4.000
21889SOL     OW67625   8.635   7.378   5.340
21889SOL    HW167626   8.659   7.438   5.264
21889SOL    HW267627   8.642   7.283   5.310
21890SOL     OW67628   7.765   5.837   5.525
21890SOL    HW167629   7.836   5.908   5.531
21890SOL    HW267630   7.677   5.876   5.553
21891SOL     OW67631   8.914   7.003   4.677
21891SOL    HW167632   8.855   7.009   4.757
21891SOL    HW267633   8.899   6.915   4.631
21892SOL     OW67634   0.115   7.300   4.296
21892SOL    HW167635   0.074   7.277   4.208
21892SOL    HW267636   0.097   7.226   4.361
21893SOL     OW67637   8.046   6.315   3.994
21893SOL    HW167638   8.070   6.384   3.926
21893SOL    HW267639   7.968   6.348   4.048
21894SOL     OW67640   8.729   5.931   4.668
21894SOL    HW167641   8.643   5.881   4.655
21894SOL    HW267642   8.791   5.877   4.724
21895SOL     OW67643   0.024   7.248   4.031
21895SOL    HW167644   0.113   7.294   4.034
21895SOL    HW267645   0.003   7.224   3.936
21896SOL     OW67646   8.255   6.191   5.189
21896SOL    HW167647   8.208   6.188   5.278
21896SOL    HW267648   8.204   6.136   5.123
21897SOL     OW67649   8.842   6.055   5.398
21897SOL    HW167650   8.822   6.098   5.486
21897SOL    HW267651   8.920   5.993   5.407
21898SOL     OW67652   8.421   6.476   5.296
21898SOL    HW167653   8.467   6.392   5.267
21898SOL    HW267654   8.365   6.510   5.221
21899SOL     OW67655   8.439   5.996   4.966
21899SOL    HW167656   8.362   6.030   5.020
21899SOL    HW267657   8.405   5.945   4.887
21900SOL     OW67658   8.489   6.287   4.153
21900SOL    HW167659   8.515   6.283   4.249
21900SOL    HW267660   8.404   6.236   4.139
21901SOL     OW67661   7.524   6.397   4.513
21901SOL    HW167662   7.623   6.385   4.522
21901SOL    HW267663   7.500   6.492   4.534
21902SOL     OW67664   7.578   7.407   5.295
21902SOL    HW167665   7.568   7.392   5.394
21902SOL    HW267666   7.492   7.443   5.259
21903SOL     OW67667   8.313   5.934   3.919
21903SOL    HW167668   8.372   5.997   3.870
21903SOL    HW267669   8.332   5.840   3.890
21904SOL     OW67670   0.167   6.171   5.555
21904SOL    HW167671   0.141   6.260   5.519
21904SOL    HW267672   0.165   6.103   5.482
21905SOL     OW67673   8.810   6.730   4.269
21905SOL    HW167674   8.893   6.701   4.221
21905SOL    HW267675   8.761   6.797   4.213
21906SOL     OW67676   7.998   5.782   4.609
21906SOL    HW167677   7.993   5.777   4.709
21906SOL    HW267678   8.000   5.878   4.580
21907SOL     OW67679   8.456   7.042   4.201
21907SOL    HW167680   8.410   7.114   4.149
21907SOL    HW267681   8.452   7.062   4.299
21908SOL     OW67682   7.799   7.387   4.577
21908SOL    HW167683   7.849   7.301   4.583
21908SOL    HW267684   7.864   7.464   4.574
21909SOL     OW67685   0.243   6.652   4.597
21909SOL    HW167686   0.181   6.637   4.521
21909SOL    HW267687   0.191   6.663   4.682
21910SOL     OW67688   8.675   7.136   5.230
21910SOL    HW167689   8.681   7.059   5.294
21910SOL    HW267690   8.623   7.110   5.150
21911SOL     OW67691   7.769   6.529   3.966
21911SOL    HW167692   7.851   6.568   3.924
21911SOL    HW267693   7.742   6.447   3.917
21912SOL     OW67694   8.906   6.321   4.452
21912SOL    HW167695   8.901   6.256   4.527
21912SOL    HW267696   8.986   6.380   4.465
21913SOL     OW67697   7.909   6.852   5.451
21913SOL    HW167698   7.859   6.853   5.365
21913SOL    HW267699   7.846   6.834   5.527
21914SOL     OW67700   8.559   7.362   3.961
21914SOL    HW167701   8.499   7.300   4.011
21914SOL    HW267702   8.590   7.318   3.876
21915SOL     OW67703   7.650   5.871   5.222
21915SOL    HW167704   7.570   5.931   5.209
21915SOL    HW267705   7.640   5.822   5.308
21916SOL     OW67706   0.080   6.963   3.805
21916SOL    HW167707   0.048   7.057   3.795
21916SOL    HW267708   0.004   6.900   3.793
21917SOL     OW67709   7.912   7.329   4.047
21917SOL    HW167710   7.945   7.368   4.133
21917SOL    HW267711   7.988   7.322   3.982
21918SOL     OW67712   8.848   5.693   4.150
21918SOL    HW167713   8.824   5.656   4.060
21918SOL    HW267714   8.947   5.709   4.154
21919SOL     OW67715   7.697   7.371   4.965
21919SOL    HW167716   7.754   7.306   5.015
21919SOL    HW267717   7.681   7.338   4.872
21920SOL     OW67718   8.388   7.284   4.628
21920SOL    HW167719   8.468   7.227   4.649
21920SOL    HW267720   8.339   7.244   4.551
21921SOL     OW67721   7.830   6.286   4.204
21921SOL    HW167722   7.875   6.196   4.201
21921SOL    HW267723   7.736   6.275   4.237
21922SOL     OW67724   8.995   5.808   5.453
21922SOL    HW167725   8.990   5.845   5.545
21922SOL    HW267726   8.923   5.739   5.441
21923SOL     OW67727   8.062   5.708   3.841
21923SOL    HW167728   8.160   5.686   3.848
21923SOL    HW267729   8.031   5.691   3.748
21924SOL     OW67730   8.229   5.850   5.473
21924SOL    HW167731   8.296   5.789   5.516
21924SOL    HW267732   8.156   5.869   5.538
21925SOL     OW67733   8.336   7.100   4.919
21925SOL    HW167734   8.313   7.075   4.825
21925SOL    HW267735   8.397   7.031   4.958
21926SOL     OW67736   8.799   6.176   5.157
21926SOL    HW167737   8.827   6.133   5.242
21926SOL    HW267738   8.824   6.272   5.158
21927SOL     OW67739   8.251   6.988   4.648
21927SOL    HW167740   8.341   7.002   4.606
21927SOL    HW267741   8.180   6.990   4.577
21928SOL     OW67742   8.370   6.089   4.623
21928SOL    HW167743   8.345   6.080   4.527
21928SOL    HW267744   8.418   6.007   4.654
21929SOL     OW67745   7.987   5.650   4.236
21929SOL    HW167746   7.906   5.651   4.294
21929SOL    HW267747   7.990   5.733   4.181
21930SOL     OW67748   8.882   6.774   3.765
21930SOL    HW167749   8.914   6.698   3.822
21930SOL    HW267750   8.790   6.801   3.795
21931SOL     OW67751   7.745   5.621   3.895
21931SOL    HW167752   7.794   5.705   3.874
21931SOL    HW267753   7.807   5.556   3.940
21932SOL     OW67754   8.383   5.822   4.204
21932SOL    HW167755   8.335   5.863   4.126
21932SOL    HW267756   8.482   5.820   4.185
21933SOL     OW67757   8.524   6.269   5.188
21933SOL    HW167758   8.444   6.208   5.191
21933SOL    HW267759   8.605   6.216   5.164
21934SOL     OW67760   8.675   7.156   4.517
21934SOL    HW167761   8.696   7.230   4.452
21934SOL    HW267762   8.743   7.156   4.590
21935SOL     OW67763   7.907   6.738   4.465
21935SOL    HW167764   7.836   6.711   4.530
21935SOL    HW267765   7.881   6.710   4.372
21936SOL     OW67766   8.719   7.383   4.315
21936SOL    HW167767   8.763   7.447   4.251
21936SOL    HW267768   8.669   7.435   4.385
21937SOL     OW67769   8.480   6.135   3.740
21937SOL    HW167770   8.439   6.217   3.701
21937SOL    HW267771   8.544   6.161   3.813
21938SOL     OW67772   7.526   6.142   5.110
21938SOL    HW167773   7.618   6.141   5.069
21938SOL    HW267774   7.520   6.216   5.177
21939SOL     OW67775   8.009   5.808   4.871
21939SOL    HW167776   8.047   5.724   4.908
21939SOL    HW267777   7.921   5.827   4.915
21940SOL     OW67778   8.314   6.040   4.366
21940SOL    HW167779   8.282   6.112   4.304
21940SOL    HW267780   8.338   5.959   4.313
21941SOL     OW67781   8.465   5.625   4.477
21941SOL    HW167782   8.393   5.630   4.408
21941SOL    HW267783   8.441   5.556   4.546
21942SOL     OW67784   8.877   6.759   4.591
21942SOL    HW167785   8.822   6.675   4.584
21942SOL    HW267786   8.903   6.788   4.499
21943SOL     OW67787   8.914   6.176   4.716
21943SOL    HW167788   8.884   6.081   4.723
21943SOL    HW267789   8.987   6.192   4.782
21944SOL     OW67790   7.936   6.971   3.898
21944SOL    HW167791   7.849   6.956   3.945
21944SOL    HW267792   7.919   6.997   3.803
21945SOL     OW67793   0.112   6.866   4.381
21945SOL    HW167794   0.211   6.874   4.395
21945SOL    HW267795   0.067   6.950   4.412
21946SOL     OW67796   8.838   6.161   3.802
21946SOL    HW167797   8.784   6.140   3.883
21946SOL    HW267798   8.929   6.120   3.811
21947SOL     OW67799   7.975   5.842   4.052
21947SOL    HW167800   8.002   5.783   3.977
21947SOL    HW267801   7.975   5.937   4.021
21948SOL     OW67802   8.512   6.933   5.064
21948SOL    HW167803   8.432   6.910   5.119
21948SOL    HW267804   8.595   6.907   5.113
21949SOL     OW67805   0.040   7.215   5.349
21949SOL    HW167806   0.067   7.249   5.259
21949SOL    HW267807   0.119   7.177   5.395
21950SOL     OW67808   8.559   6.781   4.824
21950SOL    HW167809   8.519   6.825   4.905
21950SOL    HW267810   8.518   6.818   4.741
21951SOL     OW67811   0.086   6.685   4.803
21951SOL    HW167812   0.091   6.766   4.862
21951SOL    HW267813   0.000   6.687   4.752
21952SOL     OW67814   8.363   5.675   5.126
21952SOL    HW167815   8.388   5.655   5.031
21952SOL    HW267816   8.435   5.731   5.168
21953SOL     OW67817   8.428   6.702   5.443
21953SOL    HW167818   8.329   6.708   5.453
21953SOL    HW267819   8.451   6.622   5.387
21954SOL     OW67820   8.153   6.636   4.092
21954SOL    HW167821   8.139   6.643   4.191
21954SOL    HW267822   8.237   6.585   4.074
21955SOL     OW67823   7.858   6.399   4.975
21955SOL    HW167824   7.944   6.411   5.025
21955SOL    HW267825   7.816   6.312   5.002
21956SOL     OW67826   8.722   5.972   4.986
21956SOL    HW167827   8.743   6.046   5.050
21956SOL    HW267828   8.633   5.989   4.943
21957SOL     OW67829   7.512   7.150   5.055
21957SOL    HW167830   7.466   7.232   5.021
21957SOL    HW267831   7.610   7.169   5.064
21958SOL     OW67832   7.815   6.686   4.225
21958SOL    HW167833   7.808   6.769   4.169
21958SOL    HW267834   7.819   6.606   4.165
21959SOL     OW67835   8.014   6.123   4.589
21959SOL    HW167836   8.026   6.189   4.515
21959SOL    HW267837   8.060   6.157   4.672
21960SOL     OW67838   8.700   6.934   4.112
21960SOL    HW167839   8.750   7.011   4.152
21960SOL    HW267840   8.605   6.936   4.144
21961SOL     OW67841   8.720   7.031   4.866
21961SOL    HW167842   8.767   7.044   4.953
21961SOL    HW267843   8.654   6.957   4.875
21962SOL     OW67844   0.030   6.225   4.196
21962SOL    HW167845  -0.001   6.286   4.269
21962SOL    HW267846   0.080   6.277   4.127
21963SOL     OW67847   7.802   7.096   5.053
21963SOL    HW167848   7.781   7.052   4.966
21963SOL    HW267849   7.899   7.122   5.056
21964SOL     OW67850   7.850   6.337   5.322
21964SOL    HW167851   7.918   6.392   5.275
21964SOL    HW267852   7.890   6.249   5.349
21965SOL     OW67853   0.035   6.365   5.394
21965SOL    HW167854  -0.057   6.403   5.389
21965SOL    HW267855   0.095   6.412   5.329
21966SOL     OW67856   8.461   5.691   5.494
21966SOL    HW167857   8.467   5.776   5.442
21966SOL    HW267858   8.493   5.615   5.437
21967SOL     OW67859   7.952   5.636   5.464
21967SOL    HW167860   7.910   5.579   5.394
21967SOL    HW267861   7.886   5.705   5.496
21968SOL     OW67862   8.021   6.456   4.753
21968SOL    HW167863   8.065   6.545   4.744
21968SOL    HW267864   7.958   6.456   4.830
21969SOL     OW67865   8.808   6.448   4.769
21969SOL    HW167866   8.733   6.448   4.703
21969SOL    HW267867   8.845   6.356   4.778
21970SOL     OW67868   8.657   6.111   3.999
21970SOL    HW167869   8.670   6.027   4.053
21970SOL    HW267870   8.628   6.185   4.059
21971SOL     OW67871   7.755   5.799   4.955
21971SOL    HW167872   7.732   5.836   5.045
21971SOL    HW267873   7.725   5.704   4.949
21972SOL     OW67874   7.485   6.896   5.006
21972SOL    HW167875   7.538   6.847   5.074
21972SOL    HW267876   7.507   6.994   5.011
21973SOL     OW67877   8.180   6.220   4.788
21973SOL    HW167878   8.239   6.194   4.712
21973SOL    HW267879   8.152   6.316   4.777
21974SOL     OW67880   0.176   6.521   5.578
21974SOL    HW167881   0.130   6.514   5.489
21974SOL    HW267882   0.114   6.565   5.644
21975SOL     OW67883   7.755   5.649   4.342
21975SOL    HW167884   7.744   5.743   4.375
21975SOL    HW267885   7.750   5.586   4.419
21976SOL     OW67886   0.070   5.953   4.098
21976SOL    HW167887   0.072   5.877   4.162
21976SOL    HW267888   0.022   6.030   4.138
21977SOL     OW67889   8.471   6.352   4.690
21977SOL    HW167890   8.486   6.373   4.786
21977SOL    HW267891   8.441   6.257   4.681
21978SOL     OW67892   8.428   7.159   5.424
21978SOL    HW167893   8.408   7.203   5.336
21978SOL    HW267894   8.467   7.068   5.408
21979SOL     OW67895   7.798   6.484   5.528
21979SOL    HW167896   7.874   6.528   5.576
21979SOL    HW267897   7.833   6.437   5.446
21980SOL     OW67898   8.988   5.860   3.849
21980SOL    HW167899   8.927   5.785   3.872
21980SOL    HW267900   9.010   5.912   3.932
21981SOL     OW67901   8.751   6.424   3.766
21981SOL    HW167902   8.785   6.331   3.781
21981SOL    HW267903   8.769   6.451   3.671
21982SOL     OW67904   8.516   6.919   4.573
21982SOL    HW167905   8.523   6.835   4.518
21982SOL    HW267906   8.578   6.988   4.537
21983SOL     OW67907   7.767   6.396   4.673
21983SOL    HW167908   7.860   6.432   4.678
21983SOL    HW267909   7.761   6.311   4.725
21984SOL     OW67910   7.787   6.095   4.730
21984SOL    HW167911   7.735   6.012   4.713
21984SOL    HW267912   7.864   6.100   4.666
21985SOL     OW67913   7.959   6.001   5.532
21985SOL    HW167914   7.941   6.046   5.620
21985SOL    HW267915   8.001   6.066   5.469
21986SOL     OW67916   8.586   5.966   5.402
21986SOL    HW167917   8.541   6.029   5.466
21986SOL    HW267918   8.679   5.997   5.385
21987SOL     OW67919   8.608   5.793   5.201
21987SOL    HW167920   8.608   5.857   5.278
21987SOL    HW267921   8.636   5.841   5.118
21988SOL     OW67922   7.456   6.912   3.924
21988SOL    HW167923   7.363   6.933   3.893
21988SOL    HW267924   7.466   6.813   3.937
21989SOL     OW67925   7.536   7.387   4.651
21989SOL    HW167926   7.494   7.301   4.624
21989SOL    HW267927   7.630   7.390   4.617
21990SOL     OW67928   7.952   7.154   4.634
21990SOL    HW167929   8.018   7.228   4.643
21990SOL    HW267930   7.996   7.075   4.592
21991SOL     OW67931   8.450   6.382   4.962
21991SOL    HW167932   8.491   6.350   5.048
21991SOL    HW267933   8.354   6.355   4.959
21992SOL     OW67934   7.488   6.130   4.838
21992SOL    HW167935   7.573   6.097   4.797
21992SOL    HW267936   7.501   6.145   4.936
21993SOL     OW67937   7.637   6.106   5.446
21993SOL    HW167938   7.696   6.066   5.376
21993SOL    HW267939   7.579   6.177   5.405
21994SOL     OW67940   8.817   6.536   5.384
21994SOL    HW167941   8.856   6.625   5.404
21994SOL    HW267942   8.827   6.516   5.287
21995SOL     OW67943   8.263   6.158   4.049
21995SOL    HW167944   8.270   6.069   4.003
21995SOL    HW267945   8.169   6.192   4.041
21996SOL     OW67946   0.105   6.190   4.930
21996SOL    HW167947   0.067   6.121   4.992
21996SOL    HW267948   0.187   6.154   4.886
21997SOL     OW67949   7.700   7.150   5.468
21997SOL    HW167950   7.670   7.207   5.544
21997SOL    HW267951   7.693   7.053   5.494
21998SOL     OW67952   8.119   6.050   4.993
21998SOL    HW167953   8.085   5.961   4.963
21998SOL    HW267954   8.145   6.104   4.913
21999SOL     OW67955   8.378   7.264   5.189
21999SOL    HW167956   8.354   7.246   5.094
21999SOL    HW267957   8.408   7.358   5.199
22000SOL     OW67958   7.921   6.086   3.915
22000SOL    HW167959   7.982   6.166   3.919
22000SOL    HW267960   7.826   6.117   3.922
22001SOL     OW67961   7.607   6.723   5.190
22001SOL    HW167962   7.629   6.662   5.266
22001SOL    HW267963   7.617   6.674   5.104
22002SOL     OW67964   8.795   6.645   4.958
22002SOL    HW167965   8.819   6.582   4.884
22002SOL    HW267966   8.705   6.685   4.940
22003SOL     OW67967   8.750   6.441   4.033
22003SOL    HW167968   8.664   6.410   4.075
22003SOL    HW267969   8.746   6.427   3.934
22004SOL     OW67970   8.700   7.317   4.852
22004SOL    HW167971   8.784   7.322   4.798
22004SOL    HW267972   8.677   7.221   4.870
22005SOL     OW67973   7.531   6.844   4.746
22005SOL    HW167974   7.526   6.843   4.846
22005SOL    HW267975   7.448   6.803   4.708
22006SOL     OW67976   8.136   7.248   5.440
22006SOL    HW167977   8.080   7.329   5.449
22006SOL    HW267978   8.188   7.252   5.354
22007SOL     OW67979   8.351   5.672   3.857
22007SOL    HW167980   8.402   5.673   3.771
22007SOL    HW267981   8.407   5.630   3.928
22008SOL     OW67982   0.174   5.721   4.247
22008SOL    HW167983   0.247   5.704   4.180
22008SOL    HW267984   0.143   5.634   4.285
22009SOL     OW67985   8.836   7.159   4.201
22009SOL    HW167986   8.903   7.171   4.127
22009SOL    HW267987   8.796   7.248   4.224
22010SOL     OW67988   7.578   7.380   5.575
22010SOL    HW167989   7.537   7.306   5.628
22010SOL    HW267990   7.642   7.431   5.633
22011SOL     OW67991   8.728   6.513   4.396
22011SOL    HW167992   8.788   6.432   4.398
22011SOL    HW267993   8.768   6.582   4.336
22012SOL     OW67994   8.278   6.859   5.146
22012SOL    HW167995   8.273   6.892   5.241
22012SOL    HW267996   8.192   6.878   5.100
22013SOL     OW67997   8.120   7.202   3.878
22013SOL    HW167998   8.129   7.212   3.779
22013SOL    HW267999   8.080   7.113   3.899
22014SOL     OW68000   0.098   7.306   5.118
22014SOL    HW168001   0.151   7.316   5.034
22014SOL    HW268002   0.071   7.396   5.152
22015SOL     OW68003   7.711   5.912   4.444
22015SOL    HW168004   7.632   5.963   4.410
22015SOL    HW268005   7.702   5.897   4.542
22016SOL     OW68006   8.642   7.198   3.755
22016SOL    HW168007   8.648   7.105   3.792
22016SOL    HW268008   8.583   7.198   3.675
22017SOL     OW68009   8.270   6.588   5.096
22017SOL    HW168010   8.310   6.587   5.004
22017SOL    HW268011   8.280   6.680   5.136
22018SOL     OW68012   8.364   6.496   4.015
22018SOL    HW168013   8.427   6.534   3.947
22018SOL    HW268014   8.404   6.413   4.054
22019SOL     OW68015   8.952   7.193   3.768
22019SOL    HW168016   8.860   7.230   3.775
22019SOL    HW268017   8.990   7.213   3.678
22020SOL     OW68018   7.820   6.874   5.214
22020SOL    HW168019   7.807   6.967   5.180
22020SOL    HW268020   7.736   6.822   5.201
22021SOL     OW68021   0.062   6.878   5.013
22021SOL    HW168022   0.122   6.881   5.093
22021SOL    HW268023  -0.013   6.942   5.026
22022SOL     OW68024   8.487   6.684   4.420
22022SOL    HW168025   8.417   6.637   4.474
22022SOL    HW268026   8.546   6.616   4.377
22023SOL     OW68027   8.462   5.822   4.695
22023SOL    HW168028   8.454   5.786   4.602
22023SOL    HW268029   8.460   5.746   4.760
22024SOL     OW68030   8.038   7.073   4.215
22024SOL    HW168031   8.080   7.015   4.145
22024SOL    HW268032   7.994   7.152   4.171
22025SOL     OW68033   0.157   5.971   5.105
22025SOL    HW168034   0.230   6.040   5.109
22025SOL    HW268035   0.185   5.896   5.046
22026SOL     OW68036   7.703   6.934   4.014
22026SOL    HW168037   7.607   6.935   3.987
22026SOL    HW268038   7.715   6.987   4.098
22027SOL     OW68039   7.553   6.599   5.450
22027SOL    HW168040   7.476   6.566   5.504
22027SOL    HW268041   7.638   6.569   5.492
22028SOL     OW68042   8.120   5.789   5.213
22028SOL    HW168043   8.210   5.773   5.173
22028SOL    HW268044   8.128   5.794   5.312
22029SOL     OW68045   7.523   5.931   3.757
22029SOL    HW168046   7.431   5.903   3.728
22029SOL    HW268047   7.554   6.008   3.701
22030SOL     OW68048   8.888   6.442   5.122
22030SOL    HW168049   8.831   6.494   5.059
22030SOL    HW268050   8.984   6.454   5.098
22031SOL     OW68051   7.520   5.752   4.042
22031SOL    HW168052   7.503   5.835   3.988
22031SOL    HW268053   7.610   5.715   4.020
22032SOL     OW68054   8.631   6.921   3.843
22032SOL    HW168055   8.532   6.910   3.845
22032SOL    HW268056   8.665   6.936   3.936
22033SOL     OW68057   8.061   6.428   5.155
22033SOL    HW168058   8.117   6.509   5.138
22033SOL    HW268059   8.120   6.348   5.158
22034SOL     OW68060   8.941   7.353   4.683
22034SOL    HW168061   8.974   7.417   4.614
22034SOL    HW268062   9.007   7.347   4.758
22035SOL     OW68063   8.164   6.151   5.432
22035SOL    HW168064   8.183   6.216   5.506
22035SOL    HW268065   8.224   6.071   5.441
22036SOL     OW68066   8.898   6.806   5.357
22036SOL    HW168067   8.889   6.796   5.456
22036SOL    HW268068   8.994   6.799   5.331
22037SOL     OW68069   7.838   7.327   5.284
22037SOL    HW168070   7.747   7.368   5.282
22037SOL    HW268071   7.831   7.233   5.316
22038SOL     OW68072   0.122   6.469   4.978
22038SOL    HW168073   0.095   6.380   4.941
22038SOL    HW268074   0.123   6.537   4.905
22039SOL     OW68075   8.673   5.911   4.173
22039SOL    HW168076   8.738   5.837   4.162
22039SOL    HW268077   8.693   5.961   4.257
22040SOL     OW68078   8.042   6.331   4.376
22040SOL    HW168079   8.092   6.416   4.357
22040SOL    HW268080   7.954   6.333   4.328
22041SOL     OW68081   0.225   5.928   5.366
22041SOL    HW168082   0.208   5.959   5.272
22041SOL    HW268083   0.141   5.891   5.404
22042SOL     OW68084   0.178   6.520   5.241
22042SOL    HW168085   0.216   6.611   5.256
22042SOL    HW268086   0.170   6.503   5.142
22043SOL     OW68087   8.307   6.960   3.740
22043SOL    HW168088   8.261   6.975   3.828
22043SOL    HW268089   8.351   7.045   3.710
22044SOL     OW68090   8.109   7.376   4.677
22044SOL    HW168091   8.063   7.464   4.664
22044SOL    HW268092   8.208   7.388   4.670
22045SOL     OW68093   8.307   6.542   4.585
22045SOL    HW168094   8.361   6.473   4.633
22045SOL    HW268095   8.275   6.611   4.651
22046SOL     OW68096   8.531   6.570   3.811
22046SOL    HW168097   8.508   6.623   3.729
22046SOL    HW268098   8.612   6.514   3.792
22047SOL     OW68099   7.669   6.900   5.568
22047SOL    HW168100   7.604   6.827   5.547
22047SOL    HW268101   7.673   6.914   5.666
22048SOL     OW68102   7.527   6.826   4.377
22048SOL    HW168103   7.526   6.779   4.465
22048SOL    HW268104   7.609   6.798   4.326
22049SOL     OW68105   8.120   6.977   5.348
22049SOL    HW168106   8.042   6.927   5.386
22049SOL    HW268107   8.117   7.072   5.379
22050SOL     OW68108   7.876   6.010   4.244
22050SOL    HW168109   7.906   5.938   4.182
22050SOL    HW268110   7.837   5.970   4.327
22051SOL     OW68111   0.153   7.073   4.828
22051SOL    HW168112   0.060   7.048   4.801
22051SOL    HW268113   0.179   7.023   4.910
22052SOL     OW68114   7.765   6.133   5.004
22052SOL    HW168115   7.803   6.074   5.076
22052SOL    HW268116   7.805   6.107   4.916
22053SOL     OW68117   8.260   7.172   4.411
22053SOL    HW168118   8.292   7.182   4.317
22053SOL    HW268119   8.181   7.110   4.413
22054SOL     OW68120   8.872   5.800   4.836
22054SOL    HW168121   8.924   5.735   4.891
22054SOL    HW268122   8.823   5.863   4.897
22055SOL     OW68123   8.449   5.620   4.878
22055SOL    HW168124   8.386   5.548   4.847
22055SOL    HW268125   8.542   5.584   4.878
22056SOL     OW68126   8.218   6.916   4.025
22056SOL    HW168127   8.172   6.829   4.042
22056SOL    HW268128   8.309   6.913   4.066
22057SOL     OW68129   8.066   7.153   5.008
22057SOL    HW168130   8.061   7.235   5.065
22057SOL    HW268131   8.155   7.150   4.963
22058SOL     OW68132   8.800   5.638   3.892
22058SOL    HW168133   8.835   5.597   3.808
22058SOL    HW268134   8.710   5.600   3.912
22059SOL     OW68135   8.748   6.039   4.415
22059SOL    HW168136   8.689   6.119   4.419
22059SOL    HW268137   8.763   6.004   4.508
22060SOL     OW68138   0.041   5.807   4.606
22060SOL    HW168139  -0.043   5.806   4.660
22060SOL    HW268140   0.043   5.890   4.550
22061SOL     OW68141   7.487   6.663   4.024
22061SOL    HW168142   7.586   6.652   4.015
22061SOL    HW268143   7.447   6.577   4.056
22062SOL     OW68144   8.323   7.232   4.061
22062SOL    HW168145   8.246   7.197   4.007
22062SOL    HW268146   8.291   7.303   4.123
22063SOL     OW68147   7.678   6.214   5.699
22063SOL    HW168148   7.585   6.212   5.736
22063SOL    HW268149   7.679   6.175   5.607
22064SOL     OW68150   7.673   5.861   6.582
22064SOL    HW168151   7.708   5.844   6.674
22064SOL    HW268152   7.585   5.816   6.570
22065SOL     OW68153   7.467   5.954   6.233
22065SOL    HW168154   7.385   5.997   6.272
22065SOL    HW268155   7.439   5.881   6.170
22066SOL     OW68156   8.017   6.861   6.751
22066SOL    HW168157   7.924   6.854   6.714
22066SOL    HW268158   8.028   6.950   6.795
22067SOL     OW68159   0.003   7.097   6.289
22067SOL    HW168160  -0.054   7.081   6.370
22067SOL    HW268161  -0.056   7.107   6.209
22068SOL     OW68162   0.191   6.204   6.442
22068SOL    HW168163   0.224   6.298   6.442
22068SOL    HW268164   0.242   6.150   6.508
22069SOL     OW68165   8.583   6.289   6.303
22069SOL    HW168166   8.640   6.367   6.278
22069SOL    HW268167   8.523   6.315   6.379
22070SOL     OW68168   0.203   6.193   5.817
22070SOL    HW168169   0.191   6.180   5.718
22070SOL    HW268170   0.173   6.112   5.866
22071SOL     OW68171   8.216   6.730   6.609
22071SOL    HW168172   8.138   6.747   6.669
22071SOL    HW268173   8.250   6.817   6.573
22072SOL     OW68174   8.298   6.384   7.409
22072SOL    HW168175   8.294   6.460   7.474
22072SOL    HW268176   8.320   6.420   7.318
22073SOL     OW68177   8.133   6.598   6.251
22073SOL    HW168178   8.202   6.582   6.321
22073SOL    HW268179   8.060   6.655   6.289
22074SOL     OW68180   8.134   6.747   7.389
22074SOL    HW168181   8.194   6.826   7.403
22074SOL    HW268182   8.048   6.778   7.348
22075SOL     OW68183   7.783   7.021   6.647
22075SOL    HW168184   7.705   6.990   6.594
22075SOL    HW268185   7.841   7.079   6.590
22076SOL     OW68186   8.908   7.091   6.925
22076SOL    HW168187   8.932   7.185   6.951
22076SOL    HW268188   8.892   7.037   7.007
22077SOL     OW68189   7.886   5.978   7.085
22077SOL    HW168190   7.968   5.922   7.094
22077SOL    HW268191   7.805   5.920   7.089
22078SOL     OW68192   7.679   7.299   6.069
22078SOL    HW168193   7.713   7.376   6.123
22078SOL    HW268194   7.723   7.299   5.979
22079SOL     OW68195   8.575   6.927   7.276
22079SOL    HW168196   8.622   6.927   7.364
22079SOL    HW268197   8.527   6.840   7.265
22080SOL     OW68198   7.678   7.020   6.124
22080SOL    HW168199   7.652   7.116   6.124
22080SOL    HW268200   7.607   6.966   6.169
22081SOL     OW68201   7.688   6.677   6.472
22081SOL    HW168202   7.702   6.593   6.524
22081SOL    HW268203   7.633   6.741   6.527
22082SOL     OW68204   8.068   7.372   7.025
22082SOL    HW168205   7.976   7.355   7.060
22082SOL    HW268206   8.096   7.464   7.051
22083SOL     OW68207   8.054   6.550   5.709
22083SOL    HW168208   8.061   6.634   5.655
22083SOL    HW268209   8.100   6.563   5.797
22084SOL     OW68210   0.042   5.700   7.066
22084SOL    HW168211   0.024   5.767   6.994
22084SOL    HW268212   0.039   5.746   7.155
22085SOL     OW68213   7.570   6.229   6.149
22085SOL    HW168214   7.525   6.141   6.166
22085SOL    HW268215   7.569   6.283   6.233
22086SOL     OW68216   7.475   7.182   5.703
22086SOL    HW168217   7.456   7.086   5.724
22086SOL    HW268218   7.442   7.240   5.778
22087SOL     OW68219   0.137   6.508   6.198
22087SOL    HW168220   0.232   6.479   6.206
22087SOL    HW268221   0.129   6.573   6.123
22088SOL     OW68222   0.089   6.694   6.018
22088SOL    HW168223   0.175   6.696   5.966
22088SOL    HW268224   0.103   6.741   6.106
22089SOL     OW68225   7.561   6.323   7.183
22089SOL    HW168226   7.649   6.310   7.228
22089SOL    HW268227   7.548   6.420   7.161
22090SOL     OW68228   8.061   6.951   6.312
22090SOL    HW168229   8.012   6.864   6.321
22090SOL    HW268230   8.038   6.994   6.225
22091SOL     OW68231   8.741   6.814   7.009
22091SOL    HW168232   8.778   6.741   6.951
22091SOL    HW268233   8.793   6.819   7.094
22092SOL     OW68234   8.257   5.590   6.088
22092SOL    HW168235   8.297   5.681   6.079
22092SOL    HW268236   8.157   5.598   6.094
22093SOL     OW68237   7.645   6.562   6.850
22093SOL    HW168238   7.734   6.517   6.836
22093SOL    HW268239   7.572   6.497   6.831
22094SOL     OW68240   8.973   6.585   5.776
22094SOL    HW168241   8.910   6.509   5.789
22094SOL    HW268242   9.021   6.603   5.862
22095SOL     OW68243   8.635   7.378   7.202
22095SOL    HW168244   8.659   7.438   7.126
22095SOL    HW268245   8.642   7.283   7.172
22096SOL     OW68246   7.765   5.837   7.387
22096SOL    HW168247   7.836   5.908   7.393
22096SOL    HW268248   7.677   5.876   7.415
22097SOL     OW68249   8.914   7.003   6.539
22097SOL    HW168250   8.855   7.009   6.619
22097SOL    HW268251   8.899   6.915   6.493
22098SOL     OW68252   0.115   7.300   6.158
22098SOL    HW168253   0.074   7.277   6.070
22098SOL    HW268254   0.097   7.226   6.223
22099SOL     OW68255   8.046   6.315   5.856
22099SOL    HW168256   8.070   6.384   5.788
22099SOL    HW268257   7.968   6.348   5.910
22100SOL     OW68258   8.729   5.931   6.530
22100SOL    HW168259   8.643   5.881   6.517
22100SOL    HW268260   8.791   5.877   6.586
22101SOL     OW68261   0.024   7.248   5.893
22101SOL    HW168262   0.113   7.294   5.896
22101SOL    HW268263   0.003   7.224   5.798
22102SOL     OW68264   8.255   6.191   7.051
22102SOL    HW168265   8.208   6.188   7.140
22102SOL    HW268266   8.204   6.136   6.985
22103SOL     OW68267   8.842   6.055   7.260
22103SOL    HW168268   8.822   6.098   7.348
22103SOL    HW268269   8.920   5.993   7.269
22104SOL     OW68270   8.421   6.476   7.158
22104SOL    HW168271   8.467   6.392   7.129
22104SOL    HW268272   8.365   6.510   7.083
22105SOL     OW68273   8.439   5.996   6.828
22105SOL    HW168274   8.362   6.030   6.882
22105SOL    HW268275   8.405   5.945   6.749
22106SOL     OW68276   8.489   6.287   6.015
22106SOL    HW168277   8.515   6.283   6.111
22106SOL    HW268278   8.404   6.236   6.001
22107SOL     OW68279   7.524   6.397   6.375
22107SOL    HW168280   7.623   6.385   6.384
22107SOL    HW268281   7.500   6.492   6.396
22108SOL     OW68282   7.578   7.407   7.157
22108SOL    HW168283   7.568   7.392   7.256
22108SOL    HW268284   7.492   7.443   7.121
22109SOL     OW68285   8.313   5.934   5.781
22109SOL    HW168286   8.372   5.997   5.732
22109SOL    HW268287   8.332   5.840   5.752
22110SOL     OW68288   0.167   6.171   7.417
22110SOL    HW168289   0.141   6.260   7.381
22110SOL    HW268290   0.165   6.103   7.344
22111SOL     OW68291   8.810   6.730   6.131
22111SOL    HW168292   8.893   6.701   6.083
22111SOL    HW268293   8.761   6.797   6.075
22112SOL     OW68294   7.998   5.782   6.471
22112SOL    HW168295   7.993   5.777   6.571
22112SOL    HW268296   8.000   5.878   6.442
22113SOL     OW68297   8.456   7.042   6.063
22113SOL    HW168298   8.410   7.114   6.011
22113SOL    HW268299   8.452   7.062   6.161
22114SOL     OW68300   7.799   7.387   6.439
22114SOL    HW168301   7.849   7.301   6.445
22114SOL    HW268302   7.864   7.464   6.436
22115SOL     OW68303   0.243   6.652   6.459
22115SOL    HW168304   0.181   6.637   6.383
22115SOL    HW268305   0.191   6.663   6.544
22116SOL     OW68306   8.675   7.136   7.092
22116SOL    HW168307   8.681   7.059   7.156
22116SOL    HW268308   8.623   7.110   7.012
22117SOL     OW68309   7.769   6.529   5.828
22117SOL    HW168310   7.851   6.568   5.786
22117SOL    HW268311   7.742   6.447   5.779
22118SOL     OW68312   8.906   6.321   6.314
22118SOL    HW168313   8.901   6.256   6.389
22118SOL    HW268314   8.986   6.380   6.327
22119SOL     OW68315   7.909   6.852   7.313
22119SOL    HW168316   7.859   6.853   7.227
22119SOL    HW268317   7.846   6.834   7.389
22120SOL     OW68318   8.559   7.362   5.823
22120SOL    HW168319   8.499   7.300   5.873
22120SOL    HW268320   8.590   7.318   5.738
22121SOL     OW68321   7.650   5.871   7.084
22121SOL    HW168322   7.570   5.931   7.071
22121SOL    HW268323   7.640   5.822   7.170
22122SOL     OW68324   0.080   6.963   5.667
22122SOL    HW168325   0.048   7.057   5.657
22122SOL    HW268326   0.004   6.900   5.655
22123SOL     OW68327   7.912   7.329   5.909
22123SOL    HW168328   7.945   7.368   5.995
22123SOL    HW268329   7.988   7.322   5.844
22124SOL     OW68330   8.848   5.693   6.012
22124SOL    HW168331   8.824   5.656   5.922
22124SOL    HW268332   8.947   5.709   6.016
22125SOL     OW68333   7.697   7.371   6.827
22125SOL    HW168334   7.754   7.306   6.877
22125SOL    HW268335   7.681   7.338   6.734
22126SOL     OW68336   8.388   7.284   6.490
22126SOL    HW168337   8.468   7.227   6.511
22126SOL    HW268338   8.339   7.244   6.413
22127SOL     OW68339   7.830   6.286   6.066
22127SOL    HW168340   7.875   6.196   6.063
22127SOL    HW268341   7.736   6.275   6.099
22128SOL     OW68342   8.995   5.808   7.315
22128SOL    HW168343   8.990   5.845   7.407
22128SOL    HW268344   8.923   5.739   7.303
22129SOL     OW68345   8.062   5.708   5.703
22129SOL    HW168346   8.160   5.686   5.710
22129SOL    HW268347   8.031   5.691   5.610
22130SOL     OW68348   8.229   5.850   7.335
22130SOL    HW168349   8.296   5.789   7.378
22130SOL    HW268350   8.156   5.869   7.400
22131SOL     OW68351   8.336   7.100   6.781
22131SOL    HW168352   8.313   7.075   6.687
22131SOL    HW268353   8.397   7.031   6.820
22132SOL     OW68354   8.799   6.176   7.019
22132SOL    HW168355   8.827   6.133   7.104
22132SOL    HW268356   8.824   6.272   7.020
22133SOL     OW68357   8.251   6.988   6.510
22133SOL    HW168358   8.341   7.002   6.468
22133SOL    HW268359   8.180   6.990   6.439
22134SOL     OW68360   8.370   6.089   6.485
22134SOL    HW168361   8.345   6.080   6.389
22134SOL    HW268362   8.418   6.007   6.516
22135SOL     OW68363   7.987   5.650   6.098
22135SOL    HW168364   7.906   5.651   6.156
22135SOL    HW268365   7.990   5.733   6.043
22136SOL     OW68366   8.882   6.774   5.627
22136SOL    HW168367   8.914   6.698   5.684
22136SOL    HW268368   8.790   6.801   5.657
22137SOL     OW68369   7.745   5.621   5.757
22137SOL    HW168370   7.794   5.705   5.736
22137SOL    HW268371   7.807   5.556   5.802
22138SOL     OW68372   8.383   5.822   6.066
22138SOL    HW168373   8.335   5.863   5.988
22138SOL    HW268374   8.482   5.820   6.047
22139SOL     OW68375   8.524   6.269   7.050
22139SOL    HW168376   8.444   6.208   7.053
22139SOL    HW268377   8.605   6.216   7.026
22140SOL     OW68378   8.675   7.156   6.379
22140SOL    HW168379   8.696   7.230   6.314
22140SOL    HW268380   8.743   7.156   6.452
22141SOL     OW68381   7.907   6.738   6.327
22141SOL    HW168382   7.836   6.711   6.392
22141SOL    HW268383   7.881   6.710   6.234
22142SOL     OW68384   8.719   7.383   6.177
22142SOL    HW168385   8.763   7.447   6.113
22142SOL    HW268386   8.669   7.435   6.247
22143SOL     OW68387   8.480   6.135   5.602
22143SOL    HW168388   8.439   6.217   5.563
22143SOL    HW268389   8.544   6.161   5.675
22144SOL     OW68390   7.526   6.142   6.972
22144SOL    HW168391   7.618   6.141   6.931
22144SOL    HW268392   7.520   6.216   7.039
22145SOL     OW68393   8.009   5.808   6.733
22145SOL    HW168394   8.047   5.724   6.770
22145SOL    HW268395   7.921   5.827   6.777
22146SOL     OW68396   8.314   6.040   6.228
22146SOL    HW168397   8.282   6.112   6.166
22146SOL    HW268398   8.338   5.959   6.175
22147SOL     OW68399   8.465   5.625   6.339
22147SOL    HW168400   8.393   5.630   6.270
22147SOL    HW268401   8.441   5.556   6.408
22148SOL     OW68402   8.877   6.759   6.453
22148SOL    HW168403   8.822   6.675   6.446
22148SOL    HW268404   8.903   6.788   6.361
22149SOL     OW68405   8.914   6.176   6.578
22149SOL    HW168406   8.884   6.081   6.585
22149SOL    HW268407   8.987   6.192   6.644
22150SOL     OW68408   7.936   6.971   5.760
22150SOL    HW168409   7.849   6.956   5.807
22150SOL    HW268410   7.919   6.997   5.665
22151SOL     OW68411   0.112   6.866   6.243
22151SOL    HW168412   0.211   6.874   6.257
22151SOL    HW268413   0.067   6.950   6.274
22152SOL     OW68414   8.838   6.161   5.664
22152SOL    HW168415   8.784   6.140   5.745
22152SOL    HW268416   8.929   6.120   5.673
22153SOL     OW68417   7.975   5.842   5.914
22153SOL    HW168418   8.002   5.783   5.839
22153SOL    HW268419   7.975   5.937   5.883
22154SOL     OW68420   8.512   6.933   6.926
22154SOL    HW168421   8.432   6.910   6.981
22154SOL    HW268422   8.595   6.907   6.975
22155SOL     OW68423   0.040   7.215   7.211
22155SOL    HW168424   0.067   7.249   7.121
22155SOL    HW268425   0.119   7.177   7.257
22156SOL     OW68426   8.559   6.781   6.686
22156SOL    HW168427   8.519   6.825   6.767
22156SOL    HW268428   8.518   6.818   6.603
22157SOL     OW68429   0.086   6.685   6.665
22157SOL    HW168430   0.091   6.766   6.724
22157SOL    HW268431   0.000   6.687   6.614
22158SOL     OW68432   8.363   5.675   6.988
22158SOL    HW168433   8.388   5.655   6.893
22158SOL    HW268434   8.435   5.731   7.030
22159SOL     OW68435   8.428   6.702   7.305
22159SOL    HW168436   8.329   6.708   7.315
22159SOL    HW268437   8.451   6.622   7.249
22160SOL     OW68438   8.153   6.636   5.954
22160SOL    HW168439   8.139   6.643   6.053
22160SOL    HW268440   8.237   6.585   5.936
22161SOL     OW68441   7.858   6.399   6.837
22161SOL    HW168442   7.944   6.411   6.887
22161SOL    HW268443   7.816   6.312   6.864
22162SOL     OW68444   8.722   5.972   6.848
22162SOL    HW168445   8.743   6.046   6.912
22162SOL    HW268446   8.633   5.989   6.805
22163SOL     OW68447   7.512   7.150   6.917
22163SOL    HW168448   7.466   7.232   6.883
22163SOL    HW268449   7.610   7.169   6.926
22164SOL     OW68450   7.815   6.686   6.087
22164SOL    HW168451   7.808   6.769   6.031
22164SOL    HW268452   7.819   6.606   6.027
22165SOL     OW68453   8.014   6.123   6.451
22165SOL    HW168454   8.026   6.189   6.377
22165SOL    HW268455   8.060   6.157   6.534
22166SOL     OW68456   8.700   6.934   5.974
22166SOL    HW168457   8.750   7.011   6.014
22166SOL    HW268458   8.605   6.936   6.006
22167SOL     OW68459   8.720   7.031   6.728
22167SOL    HW168460   8.767   7.044   6.815
22167SOL    HW268461   8.654   6.957   6.737
22168SOL     OW68462   0.030   6.225   6.058
22168SOL    HW168463  -0.001   6.286   6.131
22168SOL    HW268464   0.080   6.277   5.989
22169SOL     OW68465   7.802   7.096   6.915
22169SOL    HW168466   7.781   7.052   6.828
22169SOL    HW268467   7.899   7.122   6.918
22170SOL     OW68468   7.850   6.337   7.184
22170SOL    HW168469   7.918   6.392   7.137
22170SOL    HW268470   7.890   6.249   7.211
22171SOL     OW68471   0.035   6.365   7.256
22171SOL    HW168472  -0.057   6.403   7.251
22171SOL    HW268473   0.095   6.412   7.191
22172SOL     OW68474   8.461   5.691   7.356
22172SOL    HW168475   8.467   5.776   7.304
22172SOL    HW268476   8.493   5.615   7.299
22173SOL     OW68477   7.952   5.636   7.326
22173SOL    HW168478   7.910   5.579   7.256
22173SOL    HW268479   7.886   5.705   7.358
22174SOL     OW68480   8.021   6.456   6.615
22174SOL    HW168481   8.065   6.545   6.606
22174SOL    HW268482   7.958   6.456   6.692
22175SOL     OW68483   8.808   6.448   6.631
22175SOL    HW168484   8.733   6.448   6.565
22175SOL    HW268485   8.845   6.356   6.640
22176SOL     OW68486   8.657   6.111   5.861
22176SOL    HW168487   8.670   6.027   5.915
22176SOL    HW268488   8.628   6.185   5.921
22177SOL     OW68489   7.755   5.799   6.817
22177SOL    HW168490   7.732   5.836   6.907
22177SOL    HW268491   7.725   5.704   6.811
22178SOL     OW68492   7.485   6.896   6.868
22178SOL    HW168493   7.538   6.847   6.936
22178SOL    HW268494   7.507   6.994   6.873
22179SOL     OW68495   8.180   6.220   6.650
22179SOL    HW168496   8.239   6.194   6.574
22179SOL    HW268497   8.152   6.316   6.639
22180SOL     OW68498   0.176   6.521   7.440
22180SOL    HW168499   0.130   6.514   7.351
22180SOL    HW268500   0.114   6.565   7.506
22181SOL     OW68501   7.755   5.649   6.204
22181SOL    HW168502   7.744   5.743   6.237
22181SOL    HW268503   7.750   5.586   6.281
22182SOL     OW68504   0.070   5.953   5.960
22182SOL    HW168505   0.072   5.877   6.024
22182SOL    HW268506   0.022   6.030   6.000
22183SOL     OW68507   8.471   6.352   6.552
22183SOL    HW168508   8.486   6.373   6.648
22183SOL    HW268509   8.441   6.257   6.543
22184SOL     OW68510   8.428   7.159   7.286
22184SOL    HW168511   8.408   7.203   7.198
22184SOL    HW268512   8.467   7.068   7.270
22185SOL     OW68513   7.798   6.484   7.390
22185SOL    HW168514   7.874   6.528   7.438
22185SOL    HW268515   7.833   6.437   7.308
22186SOL     OW68516   8.988   5.860   5.711
22186SOL    HW168517   8.927   5.785   5.734
22186SOL    HW268518   9.010   5.912   5.794
22187SOL     OW68519   8.751   6.424   5.628
22187SOL    HW168520   8.785   6.331   5.643
22187SOL    HW268521   8.769   6.451   5.533
22188SOL     OW68522   8.516   6.919   6.435
22188SOL    HW168523   8.523   6.835   6.380
22188SOL    HW268524   8.578   6.988   6.399
22189SOL     OW68525   7.767   6.396   6.535
22189SOL    HW168526   7.860   6.432   6.540
22189SOL    HW268527   7.761   6.311   6.587
22190SOL     OW68528   7.787   6.095   6.592
22190SOL    HW168529   7.735   6.012   6.575
22190SOL    HW268530   7.864   6.100   6.528
22191SOL     OW68531   7.959   6.001   7.394
22191SOL    HW168532   7.941   6.046   7.482
22191SOL    HW268533   8.001   6.066   7.331
22192SOL     OW68534   8.586   5.966   7.264
22192SOL    HW168535   8.541   6.029   7.328
22192SOL    HW268536   8.679   5.997   7.247
22193SOL     OW68537   8.608   5.793   7.063
22193SOL    HW168538   8.608   5.857   7.140
22193SOL    HW268539   8.636   5.841   6.980
22194SOL     OW68540   7.456   6.912   5.786
22194SOL    HW168541   7.363   6.933   5.755
22194SOL    HW268542   7.466   6.813   5.799
22195SOL     OW68543   7.536   7.387   6.513
22195SOL    HW168544   7.494   7.301   6.486
22195SOL    HW268545   7.630   7.390   6.479
22196SOL     OW68546   7.952   7.154   6.496
22196SOL    HW168547   8.018   7.228   6.505
22196SOL    HW268548   7.996   7.075   6.454
22197SOL     OW68549   8.450   6.382   6.824
22197SOL    HW168550   8.491   6.350   6.910
22197SOL    HW268551   8.354   6.355   6.821
22198SOL     OW68552   7.488   6.130   6.700
22198SOL    HW168553   7.573   6.097   6.659
22198SOL    HW268554   7.501   6.145   6.798
22199SOL     OW68555   7.637   6.106   7.308
22199SOL    HW168556   7.696   6.066   7.238
22199SOL    HW268557   7.579   6.177   7.267
22200SOL     OW68558   8.817   6.536   7.246
22200SOL    HW168559   8.856   6.625   7.266
22200SOL    HW268560   8.827   6.516   7.149
22201SOL     OW68561   8.263   6.158   5.911
22201SOL    HW168562   8.270   6.069   5.865
22201SOL    HW268563   8.169   6.192   5.903
22202SOL     OW68564   0.105   6.190   6.792
22202SOL    HW168565   0.067   6.121   6.854
22202SOL    HW268566   0.187   6.154   6.748
22203SOL     OW68567   7.700   7.150   7.330
22203SOL    HW168568   7.670   7.207   7.406
22203SOL    HW268569   7.693   7.053   7.356
22204SOL     OW68570   8.119   6.050   6.855
22204SOL    HW168571   8.085   5.961   6.825
22204SOL    HW268572   8.145   6.104   6.775
22205SOL     OW68573   8.378   7.264   7.051
22205SOL    HW168574   8.354   7.246   6.956
22205SOL    HW268575   8.408   7.358   7.061
22206SOL     OW68576   7.921   6.086   5.777
22206SOL    HW168577   7.982   6.166   5.781
22206SOL    HW268578   7.826   6.117   5.784
22207SOL     OW68579   7.607   6.723   7.052
22207SOL    HW168580   7.629   6.662   7.128
22207SOL    HW268581   7.617   6.674   6.966
22208SOL     OW68582   8.795   6.645   6.820
22208SOL    HW168583   8.819   6.582   6.746
22208SOL    HW268584   8.705   6.685   6.802
22209SOL     OW68585   8.750   6.441   5.895
22209SOL    HW168586   8.664   6.410   5.937
22209SOL    HW268587   8.746   6.427   5.796
22210SOL     OW68588   8.700   7.317   6.714
22210SOL    HW168589   8.784   7.322   6.660
22210SOL    HW268590   8.677   7.221   6.732
22211SOL     OW68591   7.531   6.844   6.608
22211SOL    HW168592   7.526   6.843   6.708
22211SOL    HW268593   7.448   6.803   6.570
22212SOL     OW68594   8.136   7.248   7.302
22212SOL    HW168595   8.080   7.329   7.311
22212SOL    HW268596   8.188   7.252   7.216
22213SOL     OW68597   8.351   5.672   5.719
22213SOL    HW168598   8.402   5.673   5.633
22213SOL    HW268599   8.407   5.630   5.790
22214SOL     OW68600   0.174   5.721   6.109
22214SOL    HW168601   0.247   5.704   6.042
22214SOL    HW268602   0.143   5.634   6.147
22215SOL     OW68603   8.836   7.159   6.063
22215SOL    HW168604   8.903   7.171   5.989
22215SOL    HW268605   8.796   7.248   6.086
22216SOL     OW68606   7.578   7.380   7.437
22216SOL    HW168607   7.537   7.306   7.490
22216SOL    HW268608   7.642   7.431   7.495
22217SOL     OW68609   8.728   6.513   6.258
22217SOL    HW168610   8.788   6.432   6.260
22217SOL    HW268611   8.768   6.582   6.198
22218SOL     OW68612   8.278   6.859   7.008
22218SOL    HW168613   8.273   6.892   7.103
22218SOL    HW268614   8.192   6.878   6.962
22219SOL     OW68615   8.120   7.202   5.740
22219SOL    HW168616   8.129   7.212   5.641
22219SOL    HW268617   8.080   7.113   5.761
22220SOL     OW68618   0.098   7.306   6.980
22220SOL    HW168619   0.151   7.316   6.896
22220SOL    HW268620   0.071   7.396   7.014
22221SOL     OW68621   7.711   5.912   6.306
22221SOL    HW168622   7.632   5.963   6.272
22221SOL    HW268623   7.702   5.897   6.404
22222SOL     OW68624   8.642   7.198   5.617
22222SOL    HW168625   8.648   7.105   5.654
22222SOL    HW268626   8.583   7.198   5.537
22223SOL     OW68627   8.270   6.588   6.958
22223SOL    HW168628   8.310   6.587   6.866
22223SOL    HW268629   8.280   6.680   6.998
22224SOL     OW68630   8.364   6.496   5.877
22224SOL    HW168631   8.427   6.534   5.809
22224SOL    HW268632   8.404   6.413   5.916
22225SOL     OW68633   8.952   7.193   5.630
22225SOL    HW168634   8.860   7.230   5.637
22225SOL    HW268635   8.990   7.213   5.540
22226SOL     OW68636   7.820   6.874   7.076
22226SOL    HW168637   7.807   6.967   7.042
22226SOL    HW268638   7.736   6.822   7.063
22227SOL     OW68639   0.062   6.878   6.875
22227SOL    HW168640   0.122   6.881   6.955
22227SOL    HW268641  -0.013   6.942   6.888
22228SOL     OW68642   8.487   6.684   6.282
22228SOL    HW168643   8.417   6.637   6.336
22228SOL    HW268644   8.546   6.616   6.239
22229SOL     OW68645   8.462   5.822   6.557
22229SOL    HW168646   8.454   5.786   6.464
22229SOL    HW268647   8.460   5.746   6.622
22230SOL     OW68648   8.038   7.073   6.077
22230SOL    HW168649   8.080   7.015   6.007
22230SOL    HW268650   7.994   7.152   6.033
22231SOL     OW68651   0.157   5.971   6.967
22231SOL    HW168652   0.230   6.040   6.971
22231SOL    HW268653   0.185   5.896   6.908
22232SOL     OW68654   7.703   6.934   5.876
22232SOL    HW168655   7.607   6.935   5.849
22232SOL    HW268656   7.715   6.987   5.960
22233SOL     OW68657   7.553   6.599   7.312
22233SOL    HW168658   7.476   6.566   7.366
22233SOL    HW268659   7.638   6.569   7.354
22234SOL     OW68660   8.120   5.789   7.075
22234SOL    HW168661   8.210   5.773   7.035
22234SOL    HW268662   8.128   5.794   7.174
22235SOL     OW68663   7.523   5.931   5.619
22235SOL    HW168664   7.431   5.903   5.590
22235SOL    HW268665   7.554   6.008   5.563
22236SOL     OW68666   8.888   6.442   6.984
22236SOL    HW168667   8.831   6.494   6.921
22236SOL    HW268668   8.984   6.454   6.960
22237SOL     OW68669   7.520   5.752   5.904
22237SOL    HW168670   7.503   5.835   5.850
22237SOL    HW268671   7.610   5.715   5.882
22238SOL     OW68672   8.631   6.921   5.705
22238SOL    HW168673   8.532   6.910   5.707
22238SOL    HW268674   8.665   6.936   5.798
22239SOL     OW68675   8.061   6.428   7.017
22239SOL    HW168676   8.117   6.509   7.000
22239SOL    HW268677   8.120   6.348   7.020
22240SOL     OW68678   8.941   7.353   6.545
22240SOL    HW168679   8.974   7.417   6.476
22240SOL    HW268680   9.007   7.347   6.620
22241SOL     OW68681   8.164   6.151   7.294
22241SOL    HW168682   8.183   6.216   7.368
22241SOL    HW268683   8.224   6.071   7.303
22242SOL     OW68684   8.898   6.806   7.219
22242SOL    HW168685   8.889   6.796   7.318
22242SOL    HW268686   8.994   6.799   7.193
22243SOL     OW68687   7.838   7.327   7.146
22243SOL    HW168688   7.747   7.368   7.144
22243SOL    HW268689   7.831   7.233   7.178
22244SOL     OW68690   0.122   6.469   6.840
22244SOL    HW168691   0.095   6.380   6.803
22244SOL    HW268692   0.123   6.537   6.767
22245SOL     OW68693   8.673   5.911   6.035
22245SOL    HW168694   8.738   5.837   6.024
22245SOL    HW268695   8.693   5.961   6.119
22246SOL     OW68696   8.042   6.331   6.238
22246SOL    HW168697   8.092   6.416   6.219
22246SOL    HW268698   7.954   6.333   6.190
22247SOL     OW68699   0.225   5.928   7.228
22247SOL    HW168700   0.208   5.959   7.134
22247SOL    HW268701   0.141   5.891   7.266
22248SOL     OW68702   0.178   6.520   7.103
22248SOL    HW168703   0.216   6.611   7.118
22248SOL    HW268704   0.170   6.503   7.004
22249SOL     OW68705   8.307   6.960   5.602
22249SOL    HW168706   8.261   6.975   5.690
22249SOL    HW268707   8.351   7.045   5.572
22250SOL     OW68708   8.109   7.376   6.539
22250SOL    HW168709   8.063   7.464   6.526
22250SOL    HW268710   8.208   7.388   6.532
22251SOL     OW68711   8.307   6.542   6.447
22251SOL    HW168712   8.361   6.473   6.495
22251SOL    HW268713   8.275   6.611   6.513
22252SOL     OW68714   8.531   6.570   5.673
22252SOL    HW168715   8.508   6.623   5.591
22252SOL    HW268716   8.612   6.514   5.654
22253SOL     OW68717   7.669   6.900   7.430
22253SOL    HW168718   7.604   6.827   7.409
22253SOL    HW268719   7.673   6.914   7.528
22254SOL     OW68720   7.527   6.826   6.239
22254SOL    HW168721   7.526   6.779   6.327
22254SOL    HW268722   7.609   6.798   6.188
22255SOL     OW68723   8.120   6.977   7.210
22255SOL    HW168724   8.042   6.927   7.248
22255SOL    HW268725   8.117   7.072   7.241
22256SOL     OW68726   7.876   6.010   6.106
22256SOL    HW168727   7.906   5.938   6.044
22256SOL    HW268728   7.837   5.970   6.189
22257SOL     OW68729   0.153   7.073   6.690
22257SOL    HW168730   0.060   7.048   6.663
22257SOL    HW268731   0.179   7.023   6.772
22258SOL     OW68732   7.765   6.133   6.866
22258SOL    HW168733   7.803   6.074   6.938
22258SOL    HW268734   7.805   6.107   6.778
22259SOL     OW68735   8.260   7.172   6.273
22259SOL    HW168736   8.292   7.182   6.179
22259SOL    HW268737   8.181   7.110   6.275
22260SOL     OW68738   8.872   5.800   6.698
22260SOL    HW168739   8.924   5.735   6.753
22260SOL    HW268740   8.823   5.863   6.759
22261SOL     OW68741   8.449   5.620   6.740
22261SOL    HW168742   8.386   5.548   6.709
22261SOL    HW268743   8.542   5.584   6.740
22262SOL     OW68744   8.218   6.916   5.887
22262SOL    HW168745   8.172   6.829   5.904
22262SOL    HW268746   8.309   6.913   5.928
22263SOL     OW68747   8.066   7.153   6.870
22263SOL    HW168748   8.061   7.235   6.927
22263SOL    HW268749   8.155   7.150   6.825
22264SOL     OW68750   8.800   5.638   5.754
22264SOL    HW168751   8.835   5.597   5.670
22264SOL    HW268752   8.710   5.600   5.774
22265SOL     OW68753   8.748   6.039   6.277
22265SOL    HW168754   8.689   6.119   6.281
22265SOL    HW268755   8.763   6.004   6.370
22266SOL     OW68756   0.041   5.807   6.468
22266SOL    HW168757  -0.043   5.806   6.522
22266SOL    HW268758   0.043   5.890   6.412
22267SOL     OW68759   7.487   6.663   5.886
22267SOL    HW168760   7.586   6.652   5.877
22267SOL    HW268761   7.447   6.577   5.918
22268SOL     OW68762   8.323   7.232   5.923
22268SOL    HW168763   8.246   7.197   5.869
22268SOL    HW268764   8.291   7.303   5.985
22269SOL     OW68765   7.678   6.214   7.561
22269SOL    HW168766   7.585   6.212   7.598
22269SOL    HW268767   7.679   6.175   7.469
22270SOL     OW68768   7.673   5.861   8.444
22270SOL    HW168769   7.708   5.844   8.536
22270SOL    HW268770   7.585   5.816   8.432
22271SOL     OW68771   7.467   5.954   8.095
22271SOL    HW168772   7.385   5.997   8.134
22271SOL    HW268773   7.439   5.881   8.032
22272SOL     OW68774   8.017   6.861   8.613
22272SOL    HW168775   7.924   6.854   8.576
22272SOL    HW268776   8.028   6.950   8.657
22273SOL     OW68777   0.003   7.097   8.151
22273SOL    HW168778  -0.054   7.081   8.232
22273SOL    HW268779  -0.056   7.107   8.071
22274SOL     OW68780   0.191   6.204   8.304
22274SOL    HW168781   0.224   6.298   8.304
22274SOL    HW268782   0.242   6.150   8.370
22275SOL     OW68783   8.583   6.289   8.165
22275SOL    HW168784   8.640   6.367   8.140
22275SOL    HW268785   8.523   6.315   8.241
22276SOL     OW68786   0.203   6.193   7.679
22276SOL    HW168787   0.191   6.180   7.580
22276SOL    HW268788   0.173   6.112   7.728
22277SOL     OW68789   8.216   6.730   8.471
22277SOL    HW168790   8.138   6.747   8.531
22277SOL    HW268791   8.250   6.817   8.435
22278SOL     OW68792   8.133   6.598   8.113
22278SOL    HW168793   8.202   6.582   8.183
22278SOL    HW268794   8.060   6.655   8.151
22279SOL     OW68795   7.783   7.021   8.509
22279SOL    HW168796   7.705   6.990   8.456
22279SOL    HW268797   7.841   7.079   8.452
22280SOL     OW68798   8.908   7.091   8.787
22280SOL    HW168799   8.932   7.185   8.813
22280SOL    HW268800   8.892   7.037   8.869
22281SOL     OW68801   7.886   5.978   8.947
22281SOL    HW168802   7.968   5.922   8.956
22281SOL    HW268803   7.805   5.920   8.951
22282SOL     OW68804   7.679   7.299   7.931
22282SOL    HW168805   7.713   7.376   7.985
22282SOL    HW268806   7.723   7.299   7.841
22283SOL     OW68807   7.678   7.020   7.986
22283SOL    HW168808   7.652   7.116   7.986
22283SOL    HW268809   7.607   6.966   8.031
22284SOL     OW68810   7.688   6.677   8.334
22284SOL    HW168811   7.702   6.593   8.386
22284SOL    HW268812   7.633   6.741   8.389
22285SOL     OW68813   8.068   7.372   8.887
22285SOL    HW168814   7.976   7.355   8.922
22285SOL    HW268815   8.096   7.464   8.913
22286SOL     OW68816   8.054   6.550   7.571
22286SOL    HW168817   8.061   6.634   7.517
22286SOL    HW268818   8.100   6.563   7.659
22287SOL     OW68819   0.042   5.700   8.928
22287SOL    HW168820   0.024   5.767   8.856
22287SOL    HW268821   0.039   5.746   9.017
22288SOL     OW68822   7.570   6.229   8.011
22288SOL    HW168823   7.525   6.141   8.028
22288SOL    HW268824   7.569   6.283   8.095
22289SOL     OW68825   7.475   7.182   7.565
22289SOL    HW168826   7.456   7.086   7.586
22289SOL    HW268827   7.442   7.240   7.640
22290SOL     OW68828   0.137   6.508   8.060
22290SOL    HW168829   0.232   6.479   8.068
22290SOL    HW268830   0.129   6.573   7.985
22291SOL     OW68831   0.089   6.694   7.880
22291SOL    HW168832   0.175   6.696   7.828
22291SOL    HW268833   0.103   6.741   7.968
22292SOL     OW68834   8.061   6.951   8.174
22292SOL    HW168835   8.012   6.864   8.183
22292SOL    HW268836   8.038   6.994   8.087
22293SOL     OW68837   8.257   5.590   7.950
22293SOL    HW168838   8.297   5.681   7.941
22293SOL    HW268839   8.157   5.598   7.956
22294SOL     OW68840   7.645   6.562   8.712
22294SOL    HW168841   7.734   6.517   8.698
22294SOL    HW268842   7.572   6.497   8.693
22295SOL     OW68843   8.973   6.585   7.638
22295SOL    HW168844   8.910   6.509   7.651
22295SOL    HW268845   9.021   6.603   7.724
22296SOL     OW68846   8.914   7.003   8.401
22296SOL    HW168847   8.855   7.009   8.481
22296SOL    HW268848   8.899   6.915   8.355
22297SOL     OW68849   0.115   7.300   8.020
22297SOL    HW168850   0.074   7.277   7.932
22297SOL    HW268851   0.097   7.226   8.085
22298SOL     OW68852   8.046   6.315   7.718
22298SOL    HW168853   8.070   6.384   7.650
22298SOL    HW268854   7.968   6.348   7.772
22299SOL     OW68855   8.729   5.931   8.392
22299SOL    HW168856   8.643   5.881   8.379
22299SOL    HW268857   8.791   5.877   8.448
22300SOL     OW68858   0.024   7.248   7.755
22300SOL    HW168859   0.113   7.294   7.758
22300SOL    HW268860   0.003   7.224   7.660
22301SOL     OW68861   8.255   6.191   8.913
22301SOL    HW168862   8.208   6.188   9.002
22301SOL    HW268863   8.204   6.136   8.847
22302SOL     OW68864   8.439   5.996   8.690
22302SOL    HW168865   8.362   6.030   8.744
22302SOL    HW268866   8.405   5.945   8.611
22303SOL     OW68867   8.489   6.287   7.877
22303SOL    HW168868   8.515   6.283   7.973
22303SOL    HW268869   8.404   6.236   7.863
22304SOL     OW68870   7.524   6.397   8.237
22304SOL    HW168871   7.623   6.385   8.246
22304SOL    HW268872   7.500   6.492   8.258
22305SOL     OW68873   7.578   7.407   0.019
22305SOL    HW168874   7.568   7.392   0.118
22305SOL    HW268875   7.492   7.443  -0.017
22306SOL     OW68876   8.313   5.934   7.643
22306SOL    HW168877   8.372   5.997   7.594
22306SOL    HW268878   8.332   5.840   7.614
22307SOL     OW68879   8.810   6.730   7.993
22307SOL    HW168880   8.893   6.701   7.945
22307SOL    HW268881   8.761   6.797   7.937
22308SOL     OW68882   7.998   5.782   8.333
22308SOL    HW168883   7.993   5.777   8.433
22308SOL    HW268884   8.000   5.878   8.304
22309SOL     OW68885   8.456   7.042   7.925
22309SOL    HW168886   8.410   7.114   7.873
22309SOL    HW268887   8.452   7.062   8.023
22310SOL     OW68888   7.799   7.387   8.301
22310SOL    HW168889   7.849   7.301   8.307
22310SOL    HW268890   7.864   7.464   8.298
22311SOL     OW68891   0.243   6.652   8.321
22311SOL    HW168892   0.181   6.637   8.245
22311SOL    HW268893   0.191   6.663   8.406
22312SOL     OW68894   7.769   6.529   7.690
22312SOL    HW168895   7.851   6.568   7.648
22312SOL    HW268896   7.742   6.447   7.641
22313SOL     OW68897   8.906   6.321   8.176
22313SOL    HW168898   8.901   6.256   8.251
22313SOL    HW268899   8.986   6.380   8.189
22314SOL     OW68900   8.559   7.362   7.685
22314SOL    HW168901   8.499   7.300   7.735
22314SOL    HW268902   8.590   7.318   7.600
22315SOL     OW68903   7.650   5.871   8.946
22315SOL    HW168904   7.570   5.931   8.933
22315SOL    HW268905   7.640   5.822   9.032
22316SOL     OW68906   0.080   6.963   7.529
22316SOL    HW168907   0.048   7.057   7.519
22316SOL    HW268908   0.004   6.900   7.517
22317SOL     OW68909   7.912   7.329   7.771
22317SOL    HW168910   7.945   7.368   7.857
22317SOL    HW268911   7.988   7.322   7.706
22318SOL     OW68912   8.848   5.693   7.874
22318SOL    HW168913   8.824   5.656   7.784
22318SOL    HW268914   8.947   5.709   7.878
22319SOL     OW68915   7.697   7.371   8.689
22319SOL    HW168916   7.754   7.306   8.739
22319SOL    HW268917   7.681   7.338   8.596
22320SOL     OW68918   8.388   7.284   8.352
22320SOL    HW168919   8.468   7.227   8.373
22320SOL    HW268920   8.339   7.244   8.275
22321SOL     OW68921   7.830   6.286   7.928
22321SOL    HW168922   7.875   6.196   7.925
22321SOL    HW268923   7.736   6.275   7.961
22322SOL     OW68924   8.062   5.708   7.565
22322SOL    HW168925   8.160   5.686   7.572
22322SOL    HW268926   8.031   5.691   7.472
22323SOL     OW68927   8.336   7.100   8.643
22323SOL    HW168928   8.313   7.075   8.549
22323SOL    HW268929   8.397   7.031   8.682
22324SOL     OW68930   8.251   6.988   8.372
22324SOL    HW168931   8.341   7.002   8.330
22324SOL    HW268932   8.180   6.990   8.301
22325SOL     OW68933   8.370   6.089   8.347
22325SOL    HW168934   8.345   6.080   8.251
22325SOL    HW268935   8.418   6.007   8.378
22326SOL     OW68936   7.987   5.650   7.960
22326SOL    HW168937   7.906   5.651   8.018
22326SOL    HW268938   7.990   5.733   7.905
22327SOL     OW68939   8.882   6.774   7.489
22327SOL    HW168940   8.914   6.698   7.546
22327SOL    HW268941   8.790   6.801   7.519
22328SOL     OW68942   7.745   5.621   7.619
22328SOL    HW168943   7.794   5.705   7.598
22328SOL    HW268944   7.807   5.556   7.664
22329SOL     OW68945   8.383   5.822   7.928
22329SOL    HW168946   8.335   5.863   7.850
22329SOL    HW268947   8.482   5.820   7.909
22330SOL     OW68948   8.675   7.156   8.241
22330SOL    HW168949   8.696   7.230   8.176
22330SOL    HW268950   8.743   7.156   8.314
22331SOL     OW68951   7.907   6.738   8.189
22331SOL    HW168952   7.836   6.711   8.254
22331SOL    HW268953   7.881   6.710   8.096
22332SOL     OW68954   8.719   7.383   8.039
22332SOL    HW168955   8.763   7.447   7.975
22332SOL    HW268956   8.669   7.435   8.109
22333SOL     OW68957   8.480   6.135   7.464
22333SOL    HW168958   8.439   6.217   7.425
22333SOL    HW268959   8.544   6.161   7.537
22334SOL     OW68960   7.526   6.142   8.834
22334SOL    HW168961   7.618   6.141   8.793
22334SOL    HW268962   7.520   6.216   8.901
22335SOL     OW68963   8.009   5.808   8.595
22335SOL    HW168964   8.047   5.724   8.632
22335SOL    HW268965   7.921   5.827   8.639
22336SOL     OW68966   8.314   6.040   8.090
22336SOL    HW168967   8.282   6.112   8.028
22336SOL    HW268968   8.338   5.959   8.037
22337SOL     OW68969   8.465   5.625   8.201
22337SOL    HW168970   8.393   5.630   8.132
22337SOL    HW268971   8.441   5.556   8.270
22338SOL     OW68972   8.877   6.759   8.315
22338SOL    HW168973   8.822   6.675   8.308
22338SOL    HW268974   8.903   6.788   8.223
22339SOL     OW68975   8.914   6.176   8.440
22339SOL    HW168976   8.884   6.081   8.447
22339SOL    HW268977   8.987   6.192   8.506
22340SOL     OW68978   7.936   6.971   7.622
22340SOL    HW168979   7.849   6.956   7.669
22340SOL    HW268980   7.919   6.997   7.527
22341SOL     OW68981   0.112   6.866   8.105
22341SOL    HW168982   0.211   6.874   8.119
22341SOL    HW268983   0.067   6.950   8.136
22342SOL     OW68984   8.838   6.161   7.526
22342SOL    HW168985   8.784   6.140   7.607
22342SOL    HW268986   8.929   6.120   7.535
22343SOL     OW68987   7.975   5.842   7.776
22343SOL    HW168988   8.002   5.783   7.701
22343SOL    HW268989   7.975   5.937   7.745
22344SOL     OW68990   8.512   6.933   8.788
22344SOL    HW168991   8.432   6.910   8.843
22344SOL    HW268992   8.595   6.907   8.837
22345SOL     OW68993   8.559   6.781   8.548
22345SOL    HW168994   8.519   6.825   8.629
22345SOL    HW268995   8.518   6.818   8.465
22346SOL     OW68996   0.086   6.685   8.527
22346SOL    HW168997   0.091   6.766   8.586
22346SOL    HW268998   0.000   6.687   8.476
22347SOL     OW68999   8.363   5.675   8.850
22347SOL    HW169000   8.388   5.655   8.755
22347SOL    HW269001   8.435   5.731   8.892
22348SOL     OW69002   8.153   6.636   7.816
22348SOL    HW169003   8.139   6.643   7.915
22348SOL    HW269004   8.237   6.585   7.798
22349SOL     OW69005   7.858   6.399   8.699
22349SOL    HW169006   7.944   6.411   8.749
22349SOL    HW269007   7.816   6.312   8.726
22350SOL     OW69008   8.722   5.972   8.710
22350SOL    HW169009   8.743   6.046   8.774
22350SOL    HW269010   8.633   5.989   8.667
22351SOL     OW69011   7.512   7.150   8.779
22351SOL    HW169012   7.466   7.232   8.745
22351SOL    HW269013   7.610   7.169   8.788
22352SOL     OW69014   7.815   6.686   7.949
22352SOL    HW169015   7.808   6.769   7.893
22352SOL    HW269016   7.819   6.606   7.889
22353SOL     OW69017   8.014   6.123   8.313
22353SOL    HW169018   8.026   6.189   8.239
22353SOL    HW269019   8.060   6.157   8.396
22354SOL     OW69020   8.700   6.934   7.836
22354SOL    HW169021   8.750   7.011   7.876
22354SOL    HW269022   8.605   6.936   7.868
22355SOL     OW69023   8.720   7.031   8.590
22355SOL    HW169024   8.767   7.044   8.677
22355SOL    HW269025   8.654   6.957   8.599
22356SOL     OW69026   0.030   6.225   7.920
22356SOL    HW169027  -0.001   6.286   7.993
22356SOL    HW269028   0.080   6.277   7.851
22357SOL     OW69029   7.802   7.096   8.777
22357SOL    HW169030   7.781   7.052   8.690
22357SOL    HW269031   7.899   7.122   8.780
22358SOL     OW69032   7.850   6.337   0.046
22358SOL    HW169033   7.918   6.392  -0.001
22358SOL    HW269034   7.890   6.249   0.073
22359SOL     OW69035   0.035   6.365   0.118
22359SOL    HW169036  -0.057   6.403   0.113
22359SOL    HW269037   0.095   6.412   0.053
22360SOL     OW69038   8.021   6.456   8.477
22360SOL    HW169039   8.065   6.545   8.468
22360SOL    HW269040   7.958   6.456   8.554
22361SOL     OW69041   8.808   6.448   8.493
22361SOL    HW169042   8.733   6.448   8.427
22361SOL    HW269043   8.845   6.356   8.502
22362SOL     OW69044   8.657   6.111   7.723
22362SOL    HW169045   8.670   6.027   7.777
22362SOL    HW269046   8.628   6.185   7.783
22363SOL     OW69047   7.755   5.799   8.679
22363SOL    HW169048   7.732   5.836   8.769
22363SOL    HW269049   7.725   5.704   8.673
22364SOL     OW69050   7.485   6.896   8.730
22364SOL    HW169051   7.538   6.847   8.798
22364SOL    HW269052   7.507   6.994   8.735
22365SOL     OW69053   8.180   6.220   8.512
22365SOL    HW169054   8.239   6.194   8.436
22365SOL    HW269055   8.152   6.316   8.501
22366SOL     OW69056   7.755   5.649   8.066
22366SOL    HW169057   7.744   5.743   8.099
22366SOL    HW269058   7.750   5.586   8.143
22367SOL     OW69059   0.070   5.953   7.822
22367SOL    HW169060   0.072   5.877   7.886
22367SOL    HW269061   0.022   6.030   7.862
22368SOL     OW69062   8.471   6.352   8.414
22368SOL    HW169063   8.486   6.373   8.510
22368SOL    HW269064   8.441   6.257   8.405
22369SOL     OW69065   8.428   7.159   0.148
22369SOL    HW169066   8.408   7.203   0.060
22369SOL    HW269067   8.467   7.068   0.132
22370SOL     OW69068   8.988   5.860   7.573
22370SOL    HW169069   8.927   5.785   7.596
22370SOL    HW269070   9.010   5.912   7.656
22371SOL     OW69071   8.751   6.424   7.490
22371SOL    HW169072   8.785   6.331   7.505
22371SOL    HW269073   8.769   6.451   7.395
22372SOL     OW69074   8.516   6.919   8.297
22372SOL    HW169075   8.523   6.835   8.242
22372SOL    HW269076   8.578   6.988   8.261
22373SOL     OW69077   7.767   6.396   8.397
22373SOL    HW169078   7.860   6.432   8.402
22373SOL    HW269079   7.761   6.311   8.449
22374SOL     OW69080   7.787   6.095   8.454
22374SOL    HW169081   7.735   6.012   8.437
22374SOL    HW269082   7.864   6.100   8.390
22375SOL     OW69083   8.586   5.966   0.126
22375SOL    HW169084   8.541   6.029   0.190
22375SOL    HW269085   8.679   5.997   0.109
22376SOL     OW69086   8.608   5.793   8.925
22376SOL    HW169087   8.608   5.857   9.002
22376SOL    HW269088   8.636   5.841   8.842
22377SOL     OW69089   7.456   6.912   7.648
22377SOL    HW169090   7.363   6.933   7.617
22377SOL    HW269091   7.466   6.813   7.661
22378SOL     OW69092   7.536   7.387   8.375
22378SOL    HW169093   7.494   7.301   8.348
22378SOL    HW269094   7.630   7.390   8.341
22379SOL     OW69095   7.952   7.154   8.358
22379SOL    HW169096   8.018   7.228   8.367
22379SOL    HW269097   7.996   7.075   8.316
22380SOL     OW69098   8.450   6.382   8.686
22380SOL    HW169099   8.491   6.350   8.772
22380SOL    HW269100   8.354   6.355   8.683
22381SOL     OW69101   7.488   6.130   8.562
22381SOL    HW169102   7.573   6.097   8.521
22381SOL    HW269103   7.501   6.145   8.660
22382SOL     OW69104   8.263   6.158   7.773
22382SOL    HW169105   8.270   6.069   7.727
22382SOL    HW269106   8.169   6.192   7.765
22383SOL     OW69107   0.105   6.190   8.654
22383SOL    HW169108   0.067   6.121   8.716
22383SOL    HW269109   0.187   6.154   8.610
22384SOL     OW69110   8.119   6.050   8.717
22384SOL    HW169111   8.085   5.961   8.687
22384SOL    HW269112   8.145   6.104   8.637
22385SOL     OW69113   8.378   7.264   8.913
22385SOL    HW169114   8.354   7.246   8.818
22385SOL    HW269115   8.408   7.358   8.923
22386SOL     OW69116   7.921   6.086   7.639
22386SOL    HW169117   7.982   6.166   7.643
22386SOL    HW269118   7.826   6.117   7.646
22387SOL     OW69119   7.607   6.723   8.914
22387SOL    HW169120   7.629   6.662   8.990
22387SOL    HW269121   7.617   6.674   8.828
22388SOL     OW69122   8.795   6.645   8.682
22388SOL    HW169123   8.819   6.582   8.608
22388SOL    HW269124   8.705   6.685   8.664
22389SOL     OW69125   8.750   6.441   7.757
22389SOL    HW169126   8.664   6.410   7.799
22389SOL    HW269127   8.746   6.427   7.658
22390SOL     OW69128   8.700   7.317   8.576
22390SOL    HW169129   8.784   7.322   8.522
22390SOL    HW269130   8.677   7.221   8.594
22391SOL     OW69131   7.531   6.844   8.470
22391SOL    HW169132   7.526   6.843   8.570
22391SOL    HW269133   7.448   6.803   8.432
22392SOL     OW69134   8.351   5.672   7.581
22392SOL    HW169135   8.402   5.673   7.495
22392SOL    HW269136   8.407   5.630   7.652
22393SOL     OW69137   0.174   5.721   7.971
22393SOL    HW169138   0.247   5.704   7.904
22393SOL    HW269139   0.143   5.634   8.009
22394SOL     OW69140   8.836   7.159   7.925
22394SOL    HW169141   8.903   7.171   7.851
22394SOL    HW269142   8.796   7.248   7.948
22395SOL     OW69143   8.728   6.513   8.120
22395SOL    HW169144   8.788   6.432   8.122
22395SOL    HW269145   8.768   6.582   8.060
22396SOL     OW69146   8.120   7.202   7.602
22396SOL    HW169147   8.129   7.212   7.503
22396SOL    HW269148   8.080   7.113   7.623
22397SOL     OW69149   0.098   7.306   8.842
22397SOL    HW169150   0.151   7.316   8.758
22397SOL    HW269151   0.071   7.396   8.876
22398SOL     OW69152   7.711   5.912   8.168
22398SOL    HW169153   7.632   5.963   8.134
22398SOL    HW269154   7.702   5.897   8.266
22399SOL     OW69155   8.642   7.198   7.479
22399SOL    HW169156   8.648   7.105   7.516
22399SOL    HW269157   8.583   7.198   7.399
22400SOL     OW69158   8.270   6.588   8.820
22400SOL    HW169159   8.310   6.587   8.728
22400SOL    HW269160   8.280   6.680   8.860
22401SOL     OW69161   8.364   6.496   7.739
22401SOL    HW169162   8.427   6.534   7.671
22401SOL    HW269163   8.404   6.413   7.778
22402SOL     OW69164   8.952   7.193   7.492
22402SOL    HW169165   8.860   7.230   7.499
22402SOL    HW269166   8.990   7.213   7.402
22403SOL     OW69167   7.820   6.874   8.938
22403SOL    HW169168   7.807   6.967   8.904
22403SOL    HW269169   7.736   6.822   8.925
22404SOL     OW69170   0.062   6.878   8.737
22404SOL    HW169171   0.122   6.881   8.817
22404SOL    HW269172  -0.013   6.942   8.750
22405SOL     OW69173   8.487   6.684   8.144
22405SOL    HW169174   8.417   6.637   8.198
22405SOL    HW269175   8.546   6.616   8.101
22406SOL     OW69176   8.462   5.822   8.419
22406SOL    HW169177   8.454   5.786   8.326
22406SOL    HW269178   8.460   5.746   8.484
22407SOL     OW69179   8.038   7.073   7.939
22407SOL    HW169180   8.080   7.015   7.869
22407SOL    HW269181   7.994   7.152   7.895
22408SOL     OW69182   0.157   5.971   8.829
22408SOL    HW169183   0.230   6.040   8.833
22408SOL    HW269184   0.185   5.896   8.770
22409SOL     OW69185   7.703   6.934   7.738
22409SOL    HW169186   7.607   6.935   7.711
22409SOL    HW269187   7.715   6.987   7.822
22410SOL     OW69188   7.523   5.931   7.481
22410SOL    HW169189   7.431   5.903   7.452
22410SOL    HW269190   7.554   6.008   7.425
22411SOL     OW69191   8.888   6.442   8.846
22411SOL    HW169192   8.831   6.494   8.783
22411SOL    HW269193   8.984   6.454   8.822
22412SOL     OW69194   7.520   5.752   7.766
22412SOL    HW169195   7.503   5.835   7.712
22412SOL    HW269196   7.610   5.715   7.744
22413SOL     OW69197   8.631   6.921   7.567
22413SOL    HW169198   8.532   6.910   7.569
22413SOL    HW269199   8.665   6.936   7.660
22414SOL     OW69200   8.061   6.428   8.879
22414SOL    HW169201   8.117   6.509   8.862
22414SOL    HW269202   8.120   6.348   8.882
22415SOL     OW69203   8.941   7.353   8.407
22415SOL    HW169204   8.974   7.417   8.338
22415SOL    HW269205   9.007   7.347   8.482
22416SOL     OW69206   7.838   7.327   0.008
22416SOL    HW169207   7.747   7.368   0.006
22416SOL    HW269208   7.831   7.233   0.040
22417SOL     OW69209   0.122   6.469   8.702
22417SOL    HW169210   0.095   6.380   8.665
22417SOL    HW269211   0.123   6.537   8.629
22418SOL     OW69212   8.673   5.911   7.897
22418SOL    HW169213   8.738   5.837   7.886
22418SOL    HW269214   8.693   5.961   7.981
22419SOL     OW69215   8.042   6.331   8.100
22419SOL    HW169216   8.092   6.416   8.081
22419SOL    HW269217   7.954   6.333   8.052
22420SOL     OW69218   0.225   5.928   0.090
22420SOL    HW169219   0.208   5.959  -0.004
22420SOL    HW269220   0.141   5.891   0.128
22421SOL     OW69221   0.178   6.520   8.965
22421SOL    HW169222   0.216   6.611   8.980
22421SOL    HW269223   0.170   6.503   8.866
22422SOL     OW69224   8.307   6.960   7.464
22422SOL    HW169225   8.261   6.975   7.552
22422SOL    HW269226   8.351   7.045   7.434
22423SOL     OW69227   8.109   7.376   8.401
22423SOL    HW169228   8.063   7.464   8.388
22423SOL    HW269229   8.208   7.388   8.394
22424SOL     OW69230   8.856   7.437   0.168
22424SOL    HW169231   8.760   7.426   0.141
22424SOL    HW269232   8.912   7.370   0.120
22425SOL     OW69233   8.307   6.542   8.309
22425SOL    HW169234   8.361   6.473   8.357
22425SOL    HW269235   8.275   6.611   8.375
22426SOL     OW69236   8.531   6.570   7.535
22426SOL    HW169237   8.508   6.623   7.453
22426SOL    HW269238   8.612   6.514   7.516
22427SOL     OW69239   7.527   6.826   8.101
22427SOL    HW169240   7.526   6.779   8.189
22427SOL    HW269241   7.609   6.798   8.050
22428SOL     OW69242   7.876   6.010   7.968
22428SOL    HW169243   7.906   5.938   7.906
22428SOL    HW269244   7.837   5.970   8.051
22429SOL     OW69245   0.153   7.073   8.552
22429SOL    HW169246   0.060   7.048   8.525
22429SOL    HW269247   0.179   7.023   8.634
22430SOL     OW69248   7.765   6.133   8.728
22430SOL    HW169249   7.803   6.074   8.800
22430SOL    HW269250   7.805   6.107   8.640
22431SOL     OW69251   8.260   7.172   8.135
22431SOL    HW169252   8.292   7.182   8.041
22431SOL    HW269253   8.181   7.110   8.137
22432SOL     OW69254   8.872   5.800   8.560
22432SOL    HW169255   8.924   5.735   8.615
22432SOL    HW269256   8.823   5.863   8.621
22433SOL     OW69257   8.449   5.620   8.602
22433SOL    HW169258   8.386   5.548   8.571
22433SOL    HW269259   8.542   5.584   8.602
22434SOL     OW69260   8.218   6.916   7.749
22434SOL    HW169261   8.172   6.829   7.766
22434SOL    HW269262   8.309   6.913   7.790
22435SOL     OW69263   8.066   7.153   8.732
22435SOL    HW169264   8.061   7.235   8.789
22435SOL    HW269265   8.155   7.150   8.687
22436SOL     OW69266   8.800   5.638   7.616
22436SOL    HW169267   8.835   5.597   7.532
22436SOL    HW269268   8.710   5.600   7.636
22437SOL     OW69269   8.748   6.039   8.139
22437SOL    HW169270   8.689   6.119   8.143
22437SOL    HW269271   8.763   6.004   8.232
22438SOL     OW69272   0.041   5.807   8.330
22438SOL    HW169273  -0.043   5.806   8.384
22438SOL    HW269274   0.043   5.890   8.274
22439SOL     OW69275   7.487   6.663   7.748
22439SOL    HW169276   7.586   6.652   7.739
22439SOL    HW269277   7.447   6.577   7.780
22440SOL     OW69278   8.323   7.232   7.785
22440SOL    HW169279   8.246   7.197   7.731
22440SOL    HW269280   8.291   7.303   7.847
22441SOL     OW69281   7.678   8.076   0.113
22441SOL    HW169282   7.585   8.074   0.150
22441SOL    HW269283   7.679   8.037   0.021
22442SOL     OW69284   7.673   7.723   0.996
22442SOL    HW169285   7.708   7.706   1.088
22442SOL    HW269286   7.585   7.678   0.984
22443SOL     OW69287   7.467   7.816   0.647
22443SOL    HW169288   7.385   7.859   0.686
22443SOL    HW269289   7.439   7.743   0.584
22444SOL     OW69290   8.017   8.723   1.165
22444SOL    HW169291   7.924   8.716   1.128
22444SOL    HW269292   8.028   8.812   1.209
22445SOL     OW69293   0.003   8.959   0.703
22445SOL    HW169294  -0.054   8.943   0.784
22445SOL    HW269295  -0.056   8.969   0.623
22446SOL     OW69296   0.191   8.066   0.856
22446SOL    HW169297   0.224   8.160   0.856
22446SOL    HW269298   0.242   8.012   0.922
22447SOL     OW69299   8.583   8.151   0.717
22447SOL    HW169300   8.640   8.229   0.692
22447SOL    HW269301   8.523   8.177   0.793
22448SOL     OW69302   0.203   8.055   0.231
22448SOL    HW169303   0.191   8.042   0.132
22448SOL    HW269304   0.173   7.974   0.280
22449SOL     OW69305   8.216   8.592   1.023
22449SOL    HW169306   8.138   8.609   1.083
22449SOL    HW269307   8.250   8.679   0.987
22450SOL     OW69308   8.298   8.246   1.823
22450SOL    HW169309   8.294   8.322   1.888
22450SOL    HW269310   8.320   8.282   1.732
22451SOL     OW69311   8.133   8.460   0.665
22451SOL    HW169312   8.202   8.444   0.735
22451SOL    HW269313   8.060   8.517   0.703
22452SOL     OW69314   8.134   8.609   1.803
22452SOL    HW169315   8.194   8.688   1.817
22452SOL    HW269316   8.048   8.640   1.762
22453SOL     OW69317   7.783   8.883   1.061
22453SOL    HW169318   7.705   8.852   1.008
22453SOL    HW269319   7.841   8.941   1.004
22454SOL     OW69320   8.908   8.953   1.339
22454SOL    HW169321   8.932   9.047   1.365
22454SOL    HW269322   8.892   8.899   1.421
22455SOL     OW69323   7.886   7.840   1.499
22455SOL    HW169324   7.968   7.784   1.508
22455SOL    HW269325   7.805   7.782   1.503
22456SOL     OW69326   7.679   0.161   0.483
22456SOL    HW169327   7.713   0.238   0.537
22456SOL    HW269328   7.723   0.161   0.393
22457SOL     OW69329   8.575   8.789   1.690
22457SOL    HW169330   8.622   8.789   1.778
22457SOL    HW269331   8.527   8.702   1.679
22458SOL     OW69332   7.678   8.882   0.538
22458SOL    HW169333   7.652   8.978   0.538
22458SOL    HW269334   7.607   8.828   0.583
22459SOL     OW69335   7.688   8.539   0.886
22459SOL    HW169336   7.702   8.455   0.938
22459SOL    HW269337   7.633   8.603   0.941
22460SOL     OW69338   8.054   8.412   0.123
22460SOL    HW169339   8.061   8.496   0.069
22460SOL    HW269340   8.100   8.425   0.211
22461SOL     OW69341   0.042   7.562   1.480
22461SOL    HW169342   0.024   7.629   1.408
22461SOL    HW269343   0.039   7.608   1.569
22462SOL     OW69344   7.570   8.091   0.563
22462SOL    HW169345   7.525   8.003   0.580
22462SOL    HW269346   7.569   8.145   0.647
22463SOL     OW69347   0.137   8.370   0.612
22463SOL    HW169348   0.232   8.341   0.620
22463SOL    HW269349   0.129   8.435   0.537
22464SOL     OW69350   0.089   8.556   0.432
22464SOL    HW169351   0.175   8.558   0.380
22464SOL    HW269352   0.103   8.603   0.520
22465SOL     OW69353   7.561   8.185   1.597
22465SOL    HW169354   7.649   8.172   1.642
22465SOL    HW269355   7.548   8.282   1.575
22466SOL     OW69356   8.061   8.813   0.726
22466SOL    HW169357   8.012   8.726   0.735
22466SOL    HW269358   8.038   8.856   0.639
22467SOL     OW69359   8.741   8.676   1.423
22467SOL    HW169360   8.778   8.603   1.365
22467SOL    HW269361   8.793   8.681   1.508
22468SOL     OW69362   8.257   7.452   0.502
22468SOL    HW169363   8.297   7.543   0.493
22468SOL    HW269364   8.157   7.460   0.508
22469SOL     OW69365   7.645   8.424   1.264
22469SOL    HW169366   7.734   8.379   1.250
22469SOL    HW269367   7.572   8.359   1.245
22470SOL     OW69368   8.973   8.447   0.190
22470SOL    HW169369   8.910   8.371   0.203
22470SOL    HW269370   9.021   8.465   0.276
22471SOL     OW69371   7.765   7.699   1.801
22471SOL    HW169372   7.836   7.770   1.807
22471SOL    HW269373   7.677   7.738   1.829
22472SOL     OW69374   8.914   8.865   0.953
22472SOL    HW169375   8.855   8.871   1.033
22472SOL    HW269376   8.899   8.777   0.907
22473SOL     OW69377   8.046   8.177   0.270
22473SOL    HW169378   8.070   8.246   0.202
22473SOL    HW269379   7.968   8.210   0.324
22474SOL     OW69380   8.729   7.793   0.944
22474SOL    HW169381   8.643   7.743   0.931
22474SOL    HW269382   8.791   7.739   1.000
22475SOL     OW69383   8.255   8.053   1.465
22475SOL    HW169384   8.208   8.050   1.554
22475SOL    HW269385   8.204   7.998   1.399
22476SOL     OW69386   8.842   7.917   1.674
22476SOL    HW169387   8.822   7.960   1.762
22476SOL    HW269388   8.920   7.855   1.683
22477SOL     OW69389   8.421   8.338   1.572
22477SOL    HW169390   8.467   8.254   1.543
22477SOL    HW269391   8.365   8.372   1.497
22478SOL     OW69392   8.439   7.858   1.242
22478SOL    HW169393   8.362   7.892   1.296
22478SOL    HW269394   8.405   7.807   1.163
22479SOL     OW69395   8.489   8.149   0.429
22479SOL    HW169396   8.515   8.145   0.525
22479SOL    HW269397   8.404   8.098   0.415
22480SOL     OW69398   7.524   8.259   0.789
22480SOL    HW169399   7.623   8.247   0.798
22480SOL    HW269400   7.500   8.354   0.810
22481SOL     OW69401   8.313   7.796   0.195
22481SOL    HW169402   8.372   7.859   0.146
22481SOL    HW269403   8.332   7.702   0.166
22482SOL     OW69404   0.167   8.033   1.831
22482SOL    HW169405   0.141   8.122   1.795
22482SOL    HW269406   0.165   7.965   1.758
22483SOL     OW69407   8.810   8.592   0.545
22483SOL    HW169408   8.893   8.563   0.497
22483SOL    HW269409   8.761   8.659   0.489
22484SOL     OW69410   7.998   7.644   0.885
22484SOL    HW169411   7.993   7.639   0.985
22484SOL    HW269412   8.000   7.740   0.856
22485SOL     OW69413   8.456   8.904   0.477
22485SOL    HW169414   8.410   8.976   0.425
22485SOL    HW269415   8.452   8.924   0.575
22486SOL     OW69416   0.243   8.514   0.873
22486SOL    HW169417   0.181   8.499   0.797
22486SOL    HW269418   0.191   8.525   0.958
22487SOL     OW69419   8.675   8.998   1.506
22487SOL    HW169420   8.681   8.921   1.570
22487SOL    HW269421   8.623   8.972   1.426
22488SOL     OW69422   7.769   8.391   0.242
22488SOL    HW169423   7.851   8.430   0.200
22488SOL    HW269424   7.742   8.309   0.193
22489SOL     OW69425   8.906   8.183   0.728
22489SOL    HW169426   8.901   8.118   0.803
22489SOL    HW269427   8.986   8.242   0.741
22490SOL     OW69428   7.909   8.714   1.727
22490SOL    HW169429   7.859   8.715   1.641
22490SOL    HW269430   7.846   8.696   1.803
22491SOL     OW69431   8.559   0.224   0.237
22491SOL    HW169432   8.499   0.162   0.287
22491SOL    HW269433   8.590   0.180   0.152
22492SOL     OW69434   7.650   7.733   1.498
22492SOL    HW169435   7.570   7.793   1.485
22492SOL    HW269436   7.640   7.684   1.584
22493SOL     OW69437   0.080   8.825   0.081
22493SOL    HW169438   0.048   8.919   0.071
22493SOL    HW269439   0.004   8.762   0.069
22494SOL     OW69440   8.848   7.555   0.426
22494SOL    HW169441   8.824   7.518   0.336
22494SOL    HW269442   8.947   7.571   0.430
22495SOL     OW69443   7.830   8.148   0.480
22495SOL    HW169444   7.875   8.058   0.477
22495SOL    HW269445   7.736   8.137   0.513
22496SOL     OW69446   8.995   7.670   1.729
22496SOL    HW169447   8.990   7.707   1.821
22496SOL    HW269448   8.923   7.601   1.717
22497SOL     OW69449   8.062   7.570   0.117
22497SOL    HW169450   8.160   7.548   0.124
22497SOL    HW269451   8.031   7.553   0.024
22498SOL     OW69452   8.229   7.712   1.749
22498SOL    HW169453   8.296   7.651   1.792
22498SOL    HW269454   8.156   7.731   1.814
22499SOL     OW69455   8.799   8.038   1.433
22499SOL    HW169456   8.827   7.995   1.518
22499SOL    HW269457   8.824   8.134   1.434
22500SOL     OW69458   8.251   8.850   0.924
22500SOL    HW169459   8.341   8.864   0.882
22500SOL    HW269460   8.180   8.852   0.853
22501SOL     OW69461   8.370   7.951   0.899
22501SOL    HW169462   8.345   7.942   0.803
22501SOL    HW269463   8.418   7.869   0.930
22502SOL     OW69464   7.987   7.512   0.512
22502SOL    HW169465   7.906   7.513   0.570
22502SOL    HW269466   7.990   7.595   0.457
22503SOL     OW69467   8.882   8.636   0.041
22503SOL    HW169468   8.914   8.560   0.098
22503SOL    HW269469   8.790   8.663   0.071
22504SOL     OW69470   7.745   7.483   0.171
22504SOL    HW169471   7.794   7.567   0.150
22504SOL    HW269472   7.807   7.418   0.216
22505SOL     OW69473   8.383   7.684   0.480
22505SOL    HW169474   8.335   7.725   0.402
22505SOL    HW269475   8.482   7.682   0.461
22506SOL     OW69476   8.524   8.131   1.464
22506SOL    HW169477   8.444   8.070   1.467
22506SOL    HW269478   8.605   8.078   1.440
22507SOL     OW69479   8.675   0.018   0.793
22507SOL    HW169480   8.696   0.092   0.728
22507SOL    HW269481   8.743   0.018   0.866
22508SOL     OW69482   7.907   8.600   0.741
22508SOL    HW169483   7.836   8.573   0.806
22508SOL    HW269484   7.881   8.572   0.648
22509SOL     OW69485   8.480   7.997   0.016
22509SOL    HW169486   8.439   8.079  -0.023
22509SOL    HW269487   8.544   8.023   0.089
22510SOL     OW69488   7.526   8.004   1.386
22510SOL    HW169489   7.618   8.003   1.345
22510SOL    HW269490   7.520   8.078   1.453
22511SOL     OW69491   8.009   7.670   1.147
22511SOL    HW169492   8.047   7.586   1.184
22511SOL    HW269493   7.921   7.689   1.191
22512SOL     OW69494   8.314   7.902   0.642
22512SOL    HW169495   8.282   7.974   0.580
22512SOL    HW269496   8.338   7.821   0.589
22513SOL     OW69497   8.465   7.487   0.753
22513SOL    HW169498   8.393   7.492   0.684
22513SOL    HW269499   8.441   7.418   0.822
22514SOL     OW69500   8.877   8.621   0.867
22514SOL    HW169501   8.822   8.537   0.860
22514SOL    HW269502   8.903   8.650   0.775
22515SOL     OW69503   8.914   8.038   0.992
22515SOL    HW169504   8.884   7.943   0.999
22515SOL    HW269505   8.987   8.054   1.058
22516SOL     OW69506   7.936   8.833   0.174
22516SOL    HW169507   7.849   8.818   0.221
22516SOL    HW269508   7.919   8.859   0.079
22517SOL     OW69509   0.112   8.728   0.657
22517SOL    HW169510   0.211   8.736   0.671
22517SOL    HW269511   0.067   8.812   0.688
22518SOL     OW69512   8.838   8.023   0.078
22518SOL    HW169513   8.784   8.002   0.159
22518SOL    HW269514   8.929   7.982   0.087
22519SOL     OW69515   7.975   7.704   0.328
22519SOL    HW169516   8.002   7.645   0.253
22519SOL    HW269517   7.975   7.799   0.297
22520SOL     OW69518   8.512   8.795   1.340
22520SOL    HW169519   8.432   8.772   1.395
22520SOL    HW269520   8.595   8.769   1.389
22521SOL     OW69521   8.559   8.643   1.100
22521SOL    HW169522   8.519   8.687   1.181
22521SOL    HW269523   8.518   8.680   1.017
22522SOL     OW69524   0.086   8.547   1.079
22522SOL    HW169525   0.091   8.628   1.138
22522SOL    HW269526   0.000   8.549   1.028
22523SOL     OW69527   8.363   7.537   1.402
22523SOL    HW169528   8.388   7.517   1.307
22523SOL    HW269529   8.435   7.593   1.444
22524SOL     OW69530   8.428   8.564   1.719
22524SOL    HW169531   8.329   8.570   1.729
22524SOL    HW269532   8.451   8.484   1.663
22525SOL     OW69533   8.153   8.498   0.368
22525SOL    HW169534   8.139   8.505   0.467
22525SOL    HW269535   8.237   8.447   0.350
22526SOL     OW69536   7.858   8.261   1.251
22526SOL    HW169537   7.944   8.273   1.301
22526SOL    HW269538   7.816   8.174   1.278
22527SOL     OW69539   8.722   7.834   1.262
22527SOL    HW169540   8.743   7.908   1.326
22527SOL    HW269541   8.633   7.851   1.219
22528SOL     OW69542   7.815   8.548   0.501
22528SOL    HW169543   7.808   8.631   0.445
22528SOL    HW269544   7.819   8.468   0.441
22529SOL     OW69545   8.014   7.985   0.865
22529SOL    HW169546   8.026   8.051   0.791
22529SOL    HW269547   8.060   8.019   0.948
22530SOL     OW69548   8.700   8.796   0.388
22530SOL    HW169549   8.750   8.873   0.428
22530SOL    HW269550   8.605   8.798   0.420
22531SOL     OW69551   8.720   8.893   1.142
22531SOL    HW169552   8.767   8.906   1.229
22531SOL    HW269553   8.654   8.819   1.151
22532SOL     OW69554   0.030   8.087   0.472
22532SOL    HW169555  -0.001   8.148   0.545
22532SOL    HW269556   0.080   8.139   0.403
22533SOL     OW69557   7.802   8.958   1.329
22533SOL    HW169558   7.781   8.914   1.242
22533SOL    HW269559   7.899   8.984   1.332
22534SOL     OW69560   7.850   8.199   1.598
22534SOL    HW169561   7.918   8.254   1.551
22534SOL    HW269562   7.890   8.111   1.625
22535SOL     OW69563   0.035   8.227   1.670
22535SOL    HW169564  -0.057   8.265   1.665
22535SOL    HW269565   0.095   8.274   1.605
22536SOL     OW69566   8.461   7.553   1.770
22536SOL    HW169567   8.467   7.638   1.718
22536SOL    HW269568   8.493   7.477   1.713
22537SOL     OW69569   7.952   7.498   1.740
22537SOL    HW169570   7.910   7.441   1.670
22537SOL    HW269571   7.886   7.567   1.772
22538SOL     OW69572   8.021   8.318   1.029
22538SOL    HW169573   8.065   8.407   1.020
22538SOL    HW269574   7.958   8.318   1.106
22539SOL     OW69575   8.808   8.310   1.045
22539SOL    HW169576   8.733   8.310   0.979
22539SOL    HW269577   8.845   8.218   1.054
22540SOL     OW69578   8.657   7.973   0.275
22540SOL    HW169579   8.670   7.889   0.329
22540SOL    HW269580   8.628   8.047   0.335
22541SOL     OW69581   7.755   7.661   1.231
22541SOL    HW169582   7.732   7.698   1.321
22541SOL    HW269583   7.725   7.566   1.225
22542SOL     OW69584   7.485   8.758   1.282
22542SOL    HW169585   7.538   8.709   1.350
22542SOL    HW269586   7.507   8.856   1.287
22543SOL     OW69587   8.180   8.082   1.064
22543SOL    HW169588   8.239   8.056   0.988
22543SOL    HW269589   8.152   8.178   1.053
22544SOL     OW69590   0.176   8.383   1.854
22544SOL    HW169591   0.130   8.376   1.765
22544SOL    HW269592   0.114   8.427   1.920
22545SOL     OW69593   7.755   7.511   0.618
22545SOL    HW169594   7.744   7.605   0.651
22545SOL    HW269595   7.750   7.448   0.695
22546SOL     OW69596   0.070   7.815   0.374
22546SOL    HW169597   0.072   7.739   0.438
22546SOL    HW269598   0.022   7.892   0.414
22547SOL     OW69599   8.471   8.214   0.966
22547SOL    HW169600   8.486   8.235   1.062
22547SOL    HW269601   8.441   8.119   0.957
22548SOL     OW69602   7.798   8.346   1.804
22548SOL    HW169603   7.874   8.390   1.852
22548SOL    HW269604   7.833   8.299   1.722
22549SOL     OW69605   8.988   7.722   0.125
22549SOL    HW169606   8.927   7.647   0.148
22549SOL    HW269607   9.010   7.774   0.208
22550SOL     OW69608   8.751   8.286   0.042
22550SOL    HW169609   8.785   8.193   0.057
22550SOL    HW269610   8.769   8.313  -0.053
22551SOL     OW69611   8.516   8.781   0.849
22551SOL    HW169612   8.523   8.697   0.794
22551SOL    HW269613   8.578   8.850   0.813
22552SOL     OW69614   7.767   8.258   0.949
22552SOL    HW169615   7.860   8.294   0.954
22552SOL    HW269616   7.761   8.173   1.001
22553SOL     OW69617   7.787   7.957   1.006
22553SOL    HW169618   7.735   7.874   0.989
22553SOL    HW269619   7.864   7.962   0.942
22554SOL     OW69620   7.959   7.863   1.808
22554SOL    HW169621   7.941   7.908   1.896
22554SOL    HW269622   8.001   7.928   1.745
22555SOL     OW69623   8.586   7.828   1.678
22555SOL    HW169624   8.541   7.891   1.742
22555SOL    HW269625   8.679   7.859   1.661
22556SOL     OW69626   8.608   7.655   1.477
22556SOL    HW169627   8.608   7.719   1.554
22556SOL    HW269628   8.636   7.703   1.394
22557SOL     OW69629   7.456   8.774   0.200
22557SOL    HW169630   7.363   8.795   0.169
22557SOL    HW269631   7.466   8.675   0.213
22558SOL     OW69632   8.450   8.244   1.238
22558SOL    HW169633   8.491   8.212   1.324
22558SOL    HW269634   8.354   8.217   1.235
22559SOL     OW69635   7.488   7.992   1.114
22559SOL    HW169636   7.573   7.959   1.073
22559SOL    HW269637   7.501   8.007   1.212
22560SOL     OW69638   7.637   7.968   1.722
22560SOL    HW169639   7.696   7.928   1.652
22560SOL    HW269640   7.579   8.039   1.681
22561SOL     OW69641   8.817   8.398   1.660
22561SOL    HW169642   8.856   8.487   1.680
22561SOL    HW269643   8.827   8.378   1.563
22562SOL     OW69644   8.263   8.020   0.325
22562SOL    HW169645   8.270   7.931   0.279
22562SOL    HW269646   8.169   8.054   0.317
22563SOL     OW69647   0.105   8.052   1.206
22563SOL    HW169648   0.067   7.983   1.268
22563SOL    HW269649   0.187   8.016   1.162
22564SOL     OW69650   7.700   0.012   1.744
22564SOL    HW169651   7.670   0.069   1.820
22564SOL    HW269652   7.693  -0.085   1.770
22565SOL     OW69653   8.119   7.912   1.269
22565SOL    HW169654   8.085   7.823   1.239
22565SOL    HW269655   8.145   7.966   1.189
22566SOL     OW69656   7.921   7.948   0.191
22566SOL    HW169657   7.982   8.028   0.195
22566SOL    HW269658   7.826   7.979   0.198
22567SOL     OW69659   7.607   8.585   1.466
22567SOL    HW169660   7.629   8.524   1.542
22567SOL    HW269661   7.617   8.536   1.380
22568SOL     OW69662   8.795   8.507   1.234
22568SOL    HW169663   8.819   8.444   1.160
22568SOL    HW269664   8.705   8.547   1.216
22569SOL     OW69665   8.750   8.303   0.309
22569SOL    HW169666   8.664   8.272   0.351
22569SOL    HW269667   8.746   8.289   0.210
22570SOL     OW69668   7.531   8.706   1.022
22570SOL    HW169669   7.526   8.705   1.122
22570SOL    HW269670   7.448   8.665   0.984
22571SOL     OW69671   8.351   7.534   0.133
22571SOL    HW169672   8.402   7.535   0.047
22571SOL    HW269673   8.407   7.492   0.204
22572SOL     OW69674   0.174   7.583   0.523
22572SOL    HW169675   0.247   7.566   0.456
22572SOL    HW269676   0.143   7.496   0.561
22573SOL     OW69677   8.728   8.375   0.672
22573SOL    HW169678   8.788   8.294   0.674
22573SOL    HW269679   8.768   8.444   0.612
22574SOL     OW69680   8.278   8.721   1.422
22574SOL    HW169681   8.273   8.754   1.517
22574SOL    HW269682   8.192   8.740   1.376
22575SOL     OW69683   7.711   7.774   0.720
22575SOL    HW169684   7.632   7.825   0.686
22575SOL    HW269685   7.702   7.759   0.818
22576SOL     OW69686   8.270   8.450   1.372
22576SOL    HW169687   8.310   8.449   1.280
22576SOL    HW269688   8.280   8.542   1.412
22577SOL     OW69689   8.364   8.358   0.291
22577SOL    HW169690   8.427   8.396   0.223
22577SOL    HW269691   8.404   8.275   0.330
22578SOL     OW69692   7.820   8.736   1.490
22578SOL    HW169693   7.807   8.829   1.456
22578SOL    HW269694   7.736   8.684   1.477
22579SOL     OW69695   0.062   8.740   1.289
22579SOL    HW169696   0.122   8.743   1.369
22579SOL    HW269697  -0.013   8.804   1.302
22580SOL     OW69698   8.487   8.546   0.696
22580SOL    HW169699   8.417   8.499   0.750
22580SOL    HW269700   8.546   8.478   0.653
22581SOL     OW69701   8.462   7.684   0.971
22581SOL    HW169702   8.454   7.648   0.878
22581SOL    HW269703   8.460   7.608   1.036
22582SOL     OW69704   0.157   7.833   1.381
22582SOL    HW169705   0.230   7.902   1.385
22582SOL    HW269706   0.185   7.758   1.322
22583SOL     OW69707   7.703   8.796   0.290
22583SOL    HW169708   7.607   8.797   0.263
22583SOL    HW269709   7.715   8.849   0.374
22584SOL     OW69710   7.553   8.461   1.726
22584SOL    HW169711   7.476   8.428   1.780
22584SOL    HW269712   7.638   8.431   1.768
22585SOL     OW69713   8.120   7.651   1.489
22585SOL    HW169714   8.210   7.635   1.449
22585SOL    HW269715   8.128   7.656   1.588
22586SOL     OW69716   8.888   8.304   1.398
22586SOL    HW169717   8.831   8.356   1.335
22586SOL    HW269718   8.984   8.316   1.374
22587SOL     OW69719   7.520   7.614   0.318
22587SOL    HW169720   7.503   7.697   0.264
22587SOL    HW269721   7.610   7.577   0.296
22588SOL     OW69722   8.631   8.783   0.119
22588SOL    HW169723   8.532   8.772   0.121
22588SOL    HW269724   8.665   8.798   0.212
22589SOL     OW69725   8.061   8.290   1.431
22589SOL    HW169726   8.117   8.371   1.414
22589SOL    HW269727   8.120   8.210   1.434
22590SOL     OW69728   8.164   8.013   1.708
22590SOL    HW169729   8.183   8.078   1.782
22590SOL    HW269730   8.224   7.933   1.717
22591SOL     OW69731   8.898   8.668   1.633
22591SOL    HW169732   8.889   8.658   1.732
22591SOL    HW269733   8.994   8.661   1.607
22592SOL     OW69734   0.122   8.331   1.254
22592SOL    HW169735   0.095   8.242   1.217
22592SOL    HW269736   0.123   8.399   1.181
22593SOL     OW69737   8.673   7.773   0.449
22593SOL    HW169738   8.738   7.699   0.438
22593SOL    HW269739   8.693   7.823   0.533
22594SOL     OW69740   8.042   8.193   0.652
22594SOL    HW169741   8.092   8.278   0.633
22594SOL    HW269742   7.954   8.195   0.604
22595SOL     OW69743   0.225   7.790   1.642
22595SOL    HW169744   0.208   7.821   1.548
22595SOL    HW269745   0.141   7.753   1.680
22596SOL     OW69746   0.178   8.382   1.517
22596SOL    HW169747   0.216   8.473   1.532
22596SOL    HW269748   0.170   8.365   1.418
22597SOL     OW69749   8.307   8.822   0.016
22597SOL    HW169750   8.261   8.837   0.104
22597SOL    HW269751   8.351   8.907  -0.014
22598SOL     OW69752   8.307   8.404   0.861
22598SOL    HW169753   8.361   8.335   0.909
22598SOL    HW269754   8.275   8.473   0.927
22599SOL     OW69755   8.531   8.432   0.087
22599SOL    HW169756   8.508   8.485   0.005
22599SOL    HW269757   8.612   8.376   0.068
22600SOL     OW69758   7.669   8.762   1.844
22600SOL    HW169759   7.604   8.689   1.823
22600SOL    HW269760   7.673   8.776   1.942
22601SOL     OW69761   7.527   8.688   0.653
22601SOL    HW169762   7.526   8.641   0.741
22601SOL    HW269763   7.609   8.660   0.602
22602SOL     OW69764   8.120   8.839   1.624
22602SOL    HW169765   8.042   8.789   1.662
22602SOL    HW269766   8.117   8.934   1.655
22603SOL     OW69767   7.876   7.872   0.520
22603SOL    HW169768   7.906   7.800   0.458
22603SOL    HW269769   7.837   7.832   0.603
22604SOL     OW69770   0.153   8.935   1.104
22604SOL    HW169771   0.060   8.910   1.077
22604SOL    HW269772   0.179   8.885   1.186
22605SOL     OW69773   7.765   7.995   1.280
22605SOL    HW169774   7.803   7.936   1.352
22605SOL    HW269775   7.805   7.969   1.192
22606SOL     OW69776   8.872   7.662   1.112
22606SOL    HW169777   8.924   7.597   1.167
22606SOL    HW269778   8.823   7.725   1.173
22607SOL     OW69779   8.449   7.482   1.154
22607SOL    HW169780   8.386   7.410   1.123
22607SOL    HW269781   8.542   7.446   1.154
22608SOL     OW69782   8.218   8.778   0.301
22608SOL    HW169783   8.172   8.691   0.318
22608SOL    HW269784   8.309   8.775   0.342
22609SOL     OW69785   8.066   0.015   1.284
22609SOL    HW169786   8.061   0.097   1.341
22609SOL    HW269787   8.155   0.012   1.239
22610SOL     OW69788   8.748   7.901   0.691
22610SOL    HW169789   8.689   7.981   0.695
22610SOL    HW269790   8.763   7.866   0.784
22611SOL     OW69791   0.041   7.669   0.882
22611SOL    HW169792  -0.043   7.668   0.936
22611SOL    HW269793   0.043   7.752   0.826
22612SOL     OW69794   7.487   8.525   0.300
22612SOL    HW169795   7.586   8.514   0.291
22612SOL    HW269796   7.447   8.439   0.332
22613SOL     OW69797   7.678   8.076   1.975
22613SOL    HW169798   7.585   8.074   2.012
22613SOL    HW269799   7.679   8.037   1.883
22614SOL     OW69800   7.673   7.723   2.858
22614SOL    HW169801   7.708   7.706   2.950
22614SOL    HW269802   7.585   7.678   2.846
22615SOL     OW69803   7.467   7.816   2.509
22615SOL    HW169804   7.385   7.859   2.548
22615SOL    HW269805   7.439   7.743   2.446
22616SOL     OW69806   8.017   8.723   3.027
22616SOL    HW169807   7.924   8.716   2.990
22616SOL    HW269808   8.028   8.812   3.071
22617SOL     OW69809   0.003   8.959   2.565
22617SOL    HW169810  -0.054   8.943   2.646
22617SOL    HW269811  -0.056   8.969   2.485
22618SOL     OW69812   0.191   8.066   2.718
22618SOL    HW169813   0.224   8.160   2.718
22618SOL    HW269814   0.242   8.012   2.784
22619SOL     OW69815   8.583   8.151   2.579
22619SOL    HW169816   8.640   8.229   2.554
22619SOL    HW269817   8.523   8.177   2.655
22620SOL     OW69818   0.203   8.055   2.093
22620SOL    HW169819   0.191   8.042   1.994
22620SOL    HW269820   0.173   7.974   2.142
22621SOL     OW69821   8.216   8.592   2.885
22621SOL    HW169822   8.138   8.609   2.945
22621SOL    HW269823   8.250   8.679   2.849
22622SOL     OW69824   8.298   8.246   3.685
22622SOL    HW169825   8.294   8.322   3.750
22622SOL    HW269826   8.320   8.282   3.594
22623SOL     OW69827   8.133   8.460   2.527
22623SOL    HW169828   8.202   8.444   2.597
22623SOL    HW269829   8.060   8.517   2.565
22624SOL     OW69830   8.134   8.609   3.665
22624SOL    HW169831   8.194   8.688   3.679
22624SOL    HW269832   8.048   8.640   3.624
22625SOL     OW69833   7.783   8.883   2.923
22625SOL    HW169834   7.705   8.852   2.870
22625SOL    HW269835   7.841   8.941   2.866
22626SOL     OW69836   8.908   8.953   3.201
22626SOL    HW169837   8.932   9.047   3.227
22626SOL    HW269838   8.892   8.899   3.283
22627SOL     OW69839   7.886   7.840   3.361
22627SOL    HW169840   7.968   7.784   3.370
22627SOL    HW269841   7.805   7.782   3.365
22628SOL     OW69842   7.679   0.161   2.345
22628SOL    HW169843   7.713   0.238   2.399
22628SOL    HW269844   7.723   0.161   2.255
22629SOL     OW69845   8.575   8.789   3.552
22629SOL    HW169846   8.622   8.789   3.640
22629SOL    HW269847   8.527   8.702   3.541
22630SOL     OW69848   7.678   8.882   2.400
22630SOL    HW169849   7.652   8.978   2.400
22630SOL    HW269850   7.607   8.828   2.445
22631SOL     OW69851   7.688   8.539   2.748
22631SOL    HW169852   7.702   8.455   2.800
22631SOL    HW269853   7.633   8.603   2.803
22632SOL     OW69854   8.054   8.412   1.985
22632SOL    HW169855   8.061   8.496   1.931
22632SOL    HW269856   8.100   8.425   2.073
22633SOL     OW69857   0.042   7.562   3.342
22633SOL    HW169858   0.024   7.629   3.270
22633SOL    HW269859   0.039   7.608   3.431
22634SOL     OW69860   7.570   8.091   2.425
22634SOL    HW169861   7.525   8.003   2.442
22634SOL    HW269862   7.569   8.145   2.509
22635SOL     OW69863   7.475   0.044   1.979
22635SOL    HW169864   7.456  -0.052   2.000
22635SOL    HW269865   7.442   0.102   2.054
22636SOL     OW69866   0.137   8.370   2.474
22636SOL    HW169867   0.232   8.341   2.482
22636SOL    HW269868   0.129   8.435   2.399
22637SOL     OW69869   0.089   8.556   2.294
22637SOL    HW169870   0.175   8.558   2.242
22637SOL    HW269871   0.103   8.603   2.382
22638SOL     OW69872   7.561   8.185   3.459
22638SOL    HW169873   7.649   8.172   3.504
22638SOL    HW269874   7.548   8.282   3.437
22639SOL     OW69875   8.061   8.813   2.588
22639SOL    HW169876   8.012   8.726   2.597
22639SOL    HW269877   8.038   8.856   2.501
22640SOL     OW69878   8.741   8.676   3.285
22640SOL    HW169879   8.778   8.603   3.227
22640SOL    HW269880   8.793   8.681   3.370
22641SOL     OW69881   8.257   7.452   2.364
22641SOL    HW169882   8.297   7.543   2.355
22641SOL    HW269883   8.157   7.460   2.370
22642SOL     OW69884   7.645   8.424   3.126
22642SOL    HW169885   7.734   8.379   3.112
22642SOL    HW269886   7.572   8.359   3.107
22643SOL     OW69887   8.973   8.447   2.052
22643SOL    HW169888   8.910   8.371   2.065
22643SOL    HW269889   9.021   8.465   2.138
22644SOL     OW69890   7.765   7.699   3.663
22644SOL    HW169891   7.836   7.770   3.669
22644SOL    HW269892   7.677   7.738   3.691
22645SOL     OW69893   8.914   8.865   2.815
22645SOL    HW169894   8.855   8.871   2.895
22645SOL    HW269895   8.899   8.777   2.769
22646SOL     OW69896   8.046   8.177   2.132
22646SOL    HW169897   8.070   8.246   2.064
22646SOL    HW269898   7.968   8.210   2.186
22647SOL     OW69899   8.729   7.793   2.806
22647SOL    HW169900   8.643   7.743   2.793
22647SOL    HW269901   8.791   7.739   2.862
22648SOL     OW69902   8.255   8.053   3.327
22648SOL    HW169903   8.208   8.050   3.416
22648SOL    HW269904   8.204   7.998   3.261
22649SOL     OW69905   8.842   7.917   3.536
22649SOL    HW169906   8.822   7.960   3.624
22649SOL    HW269907   8.920   7.855   3.545
22650SOL     OW69908   8.421   8.338   3.434
22650SOL    HW169909   8.467   8.254   3.405
22650SOL    HW269910   8.365   8.372   3.359
22651SOL     OW69911   8.439   7.858   3.104
22651SOL    HW169912   8.362   7.892   3.158
22651SOL    HW269913   8.405   7.807   3.025
22652SOL     OW69914   8.489   8.149   2.291
22652SOL    HW169915   8.515   8.145   2.387
22652SOL    HW269916   8.404   8.098   2.277
22653SOL     OW69917   7.524   8.259   2.651
22653SOL    HW169918   7.623   8.247   2.660
22653SOL    HW269919   7.500   8.354   2.672
22654SOL     OW69920   8.313   7.796   2.057
22654SOL    HW169921   8.372   7.859   2.008
22654SOL    HW269922   8.332   7.702   2.028
22655SOL     OW69923   0.167   8.033   3.693
22655SOL    HW169924   0.141   8.122   3.657
22655SOL    HW269925   0.165   7.965   3.620
22656SOL     OW69926   8.810   8.592   2.407
22656SOL    HW169927   8.893   8.563   2.359
22656SOL    HW269928   8.761   8.659   2.351
22657SOL     OW69929   7.998   7.644   2.747
22657SOL    HW169930   7.993   7.639   2.847
22657SOL    HW269931   8.000   7.740   2.718
22658SOL     OW69932   8.456   8.904   2.339
22658SOL    HW169933   8.410   8.976   2.287
22658SOL    HW269934   8.452   8.924   2.437
22659SOL     OW69935   0.243   8.514   2.735
22659SOL    HW169936   0.181   8.499   2.659
22659SOL    HW269937   0.191   8.525   2.820
22660SOL     OW69938   8.675   8.998   3.368
22660SOL    HW169939   8.681   8.921   3.432
22660SOL    HW269940   8.623   8.972   3.288
22661SOL     OW69941   7.769   8.391   2.104
22661SOL    HW169942   7.851   8.430   2.062
22661SOL    HW269943   7.742   8.309   2.055
22662SOL     OW69944   8.906   8.183   2.590
22662SOL    HW169945   8.901   8.118   2.665
22662SOL    HW269946   8.986   8.242   2.603
22663SOL     OW69947   7.909   8.714   3.589
22663SOL    HW169948   7.859   8.715   3.503
22663SOL    HW269949   7.846   8.696   3.665
22664SOL     OW69950   8.559   0.224   2.099
22664SOL    HW169951   8.499   0.162   2.149
22664SOL    HW269952   8.590   0.180   2.014
22665SOL     OW69953   7.650   7.733   3.360
22665SOL    HW169954   7.570   7.793   3.347
22665SOL    HW269955   7.640   7.684   3.446
22666SOL     OW69956   0.080   8.825   1.943
22666SOL    HW169957   0.048   8.919   1.933
22666SOL    HW269958   0.004   8.762   1.931
22667SOL     OW69959   8.848   7.555   2.288
22667SOL    HW169960   8.824   7.518   2.198
22667SOL    HW269961   8.947   7.571   2.292
22668SOL     OW69962   7.830   8.148   2.342
22668SOL    HW169963   7.875   8.058   2.339
22668SOL    HW269964   7.736   8.137   2.375
22669SOL     OW69965   8.995   7.670   3.591
22669SOL    HW169966   8.990   7.707   3.683
22669SOL    HW269967   8.923   7.601   3.579
22670SOL     OW69968   8.062   7.570   1.979
22670SOL    HW169969   8.160   7.548   1.986
22670SOL    HW269970   8.031   7.553   1.886
22671SOL     OW69971   8.229   7.712   3.611
22671SOL    HW169972   8.296   7.651   3.654
22671SOL    HW269973   8.156   7.731   3.676
22672SOL     OW69974   8.799   8.038   3.295
22672SOL    HW169975   8.827   7.995   3.380
22672SOL    HW269976   8.824   8.134   3.296
22673SOL     OW69977   8.251   8.850   2.786
22673SOL    HW169978   8.341   8.864   2.744
22673SOL    HW269979   8.180   8.852   2.715
22674SOL     OW69980   8.370   7.951   2.761
22674SOL    HW169981   8.345   7.942   2.665
22674SOL    HW269982   8.418   7.869   2.792
22675SOL     OW69983   7.987   7.512   2.374
22675SOL    HW169984   7.906   7.513   2.432
22675SOL    HW269985   7.990   7.595   2.319
22676SOL     OW69986   8.882   8.636   1.903
22676SOL    HW169987   8.914   8.560   1.960
22676SOL    HW269988   8.790   8.663   1.933
22677SOL     OW69989   7.745   7.483   2.033
22677SOL    HW169990   7.794   7.567   2.012
22677SOL    HW269991   7.807   7.418   2.078
22678SOL     OW69992   8.383   7.684   2.342
22678SOL    HW169993   8.335   7.725   2.264
22678SOL    HW269994   8.482   7.682   2.323
22679SOL     OW69995   8.524   8.131   3.326
22679SOL    HW169996   8.444   8.070   3.329
22679SOL    HW269997   8.605   8.078   3.302
22680SOL     OW69998   8.675   0.018   2.655
22680SOL    HW169999   8.696   0.092   2.590
22680SOL    HW270000   8.743   0.018   2.728
22681SOL     OW70001   7.907   8.600   2.603
22681SOL    HW170002   7.836   8.573   2.668
22681SOL    HW270003   7.881   8.572   2.510
22682SOL     OW70004   8.480   7.997   1.878
22682SOL    HW170005   8.439   8.079   1.839
22682SOL    HW270006   8.544   8.023   1.951
22683SOL     OW70007   7.526   8.004   3.248
22683SOL    HW170008   7.618   8.003   3.207
22683SOL    HW270009   7.520   8.078   3.315
22684SOL     OW70010   8.009   7.670   3.009
22684SOL    HW170011   8.047   7.586   3.046
22684SOL    HW270012   7.921   7.689   3.053
22685SOL     OW70013   8.314   7.902   2.504
22685SOL    HW170014   8.282   7.974   2.442
22685SOL    HW270015   8.338   7.821   2.451
22686SOL     OW70016   8.465   7.487   2.615
22686SOL    HW170017   8.393   7.492   2.546
22686SOL    HW270018   8.441   7.418   2.684
22687SOL     OW70019   8.877   8.621   2.729
22687SOL    HW170020   8.822   8.537   2.722
22687SOL    HW270021   8.903   8.650   2.637
22688SOL     OW70022   8.914   8.038   2.854
22688SOL    HW170023   8.884   7.943   2.861
22688SOL    HW270024   8.987   8.054   2.920
22689SOL     OW70025   7.936   8.833   2.036
22689SOL    HW170026   7.849   8.818   2.083
22689SOL    HW270027   7.919   8.859   1.941
22690SOL     OW70028   0.112   8.728   2.519
22690SOL    HW170029   0.211   8.736   2.533
22690SOL    HW270030   0.067   8.812   2.550
22691SOL     OW70031   8.838   8.023   1.940
22691SOL    HW170032   8.784   8.002   2.021
22691SOL    HW270033   8.929   7.982   1.949
22692SOL     OW70034   7.975   7.704   2.190
22692SOL    HW170035   8.002   7.645   2.115
22692SOL    HW270036   7.975   7.799   2.159
22693SOL     OW70037   8.512   8.795   3.202
22693SOL    HW170038   8.432   8.772   3.257
22693SOL    HW270039   8.595   8.769   3.251
22694SOL     OW70040   8.559   8.643   2.962
22694SOL    HW170041   8.519   8.687   3.043
22694SOL    HW270042   8.518   8.680   2.879
22695SOL     OW70043   0.086   8.547   2.941
22695SOL    HW170044   0.091   8.628   3.000
22695SOL    HW270045   0.000   8.549   2.890
22696SOL     OW70046   8.363   7.537   3.264
22696SOL    HW170047   8.388   7.517   3.169
22696SOL    HW270048   8.435   7.593   3.306
22697SOL     OW70049   8.428   8.564   3.581
22697SOL    HW170050   8.329   8.570   3.591
22697SOL    HW270051   8.451   8.484   3.525
22698SOL     OW70052   8.153   8.498   2.230
22698SOL    HW170053   8.139   8.505   2.329
22698SOL    HW270054   8.237   8.447   2.212
22699SOL     OW70055   7.858   8.261   3.113
22699SOL    HW170056   7.944   8.273   3.163
22699SOL    HW270057   7.816   8.174   3.140
22700SOL     OW70058   8.722   7.834   3.124
22700SOL    HW170059   8.743   7.908   3.188
22700SOL    HW270060   8.633   7.851   3.081
22701SOL     OW70061   7.815   8.548   2.363
22701SOL    HW170062   7.808   8.631   2.307
22701SOL    HW270063   7.819   8.468   2.303
22702SOL     OW70064   8.014   7.985   2.727
22702SOL    HW170065   8.026   8.051   2.653
22702SOL    HW270066   8.060   8.019   2.810
22703SOL     OW70067   8.700   8.796   2.250
22703SOL    HW170068   8.750   8.873   2.290
22703SOL    HW270069   8.605   8.798   2.282
22704SOL     OW70070   8.720   8.893   3.004
22704SOL    HW170071   8.767   8.906   3.091
22704SOL    HW270072   8.654   8.819   3.013
22705SOL     OW70073   0.030   8.087   2.334
22705SOL    HW170074  -0.001   8.148   2.407
22705SOL    HW270075   0.080   8.139   2.265
22706SOL     OW70076   7.802   8.958   3.191
22706SOL    HW170077   7.781   8.914   3.104
22706SOL    HW270078   7.899   8.984   3.194
22707SOL     OW70079   7.850   8.199   3.460
22707SOL    HW170080   7.918   8.254   3.413
22707SOL    HW270081   7.890   8.111   3.487
22708SOL     OW70082   0.035   8.227   3.532
22708SOL    HW170083  -0.057   8.265   3.527
22708SOL    HW270084   0.095   8.274   3.467
22709SOL     OW70085   8.461   7.553   3.632
22709SOL    HW170086   8.467   7.638   3.580
22709SOL    HW270087   8.493   7.477   3.575
22710SOL     OW70088   7.952   7.498   3.602
22710SOL    HW170089   7.910   7.441   3.532
22710SOL    HW270090   7.886   7.567   3.634
22711SOL     OW70091   8.021   8.318   2.891
22711SOL    HW170092   8.065   8.407   2.882
22711SOL    HW270093   7.958   8.318   2.968
22712SOL     OW70094   8.808   8.310   2.907
22712SOL    HW170095   8.733   8.310   2.841
22712SOL    HW270096   8.845   8.218   2.916
22713SOL     OW70097   8.657   7.973   2.137
22713SOL    HW170098   8.670   7.889   2.191
22713SOL    HW270099   8.628   8.047   2.197
22714SOL     OW70100   7.755   7.661   3.093
22714SOL    HW170101   7.732   7.698   3.183
22714SOL    HW270102   7.725   7.566   3.087
22715SOL     OW70103   7.485   8.758   3.144
22715SOL    HW170104   7.538   8.709   3.212
22715SOL    HW270105   7.507   8.856   3.149
22716SOL     OW70106   8.180   8.082   2.926
22716SOL    HW170107   8.239   8.056   2.850
22716SOL    HW270108   8.152   8.178   2.915
22717SOL     OW70109   0.176   8.383   3.716
22717SOL    HW170110   0.130   8.376   3.627
22717SOL    HW270111   0.114   8.427   3.782
22718SOL     OW70112   7.755   7.511   2.480
22718SOL    HW170113   7.744   7.605   2.513
22718SOL    HW270114   7.750   7.448   2.557
22719SOL     OW70115   0.070   7.815   2.236
22719SOL    HW170116   0.072   7.739   2.300
22719SOL    HW270117   0.022   7.892   2.276
22720SOL     OW70118   8.471   8.214   2.828
22720SOL    HW170119   8.486   8.235   2.924
22720SOL    HW270120   8.441   8.119   2.819
22721SOL     OW70121   7.798   8.346   3.666
22721SOL    HW170122   7.874   8.390   3.714
22721SOL    HW270123   7.833   8.299   3.584
22722SOL     OW70124   8.988   7.722   1.987
22722SOL    HW170125   8.927   7.647   2.010
22722SOL    HW270126   9.010   7.774   2.070
22723SOL     OW70127   8.751   8.286   1.904
22723SOL    HW170128   8.785   8.193   1.919
22723SOL    HW270129   8.769   8.313   1.809
22724SOL     OW70130   8.516   8.781   2.711
22724SOL    HW170131   8.523   8.697   2.656
22724SOL    HW270132   8.578   8.850   2.675
22725SOL     OW70133   7.767   8.258   2.811
22725SOL    HW170134   7.860   8.294   2.816
22725SOL    HW270135   7.761   8.173   2.863
22726SOL     OW70136   7.787   7.957   2.868
22726SOL    HW170137   7.735   7.874   2.851
22726SOL    HW270138   7.864   7.962   2.804
22727SOL     OW70139   7.959   7.863   3.670
22727SOL    HW170140   7.941   7.908   3.758
22727SOL    HW270141   8.001   7.928   3.607
22728SOL     OW70142   8.586   7.828   3.540
22728SOL    HW170143   8.541   7.891   3.604
22728SOL    HW270144   8.679   7.859   3.523
22729SOL     OW70145   8.608   7.655   3.339
22729SOL    HW170146   8.608   7.719   3.416
22729SOL    HW270147   8.636   7.703   3.256
22730SOL     OW70148   7.456   8.774   2.062
22730SOL    HW170149   7.363   8.795   2.031
22730SOL    HW270150   7.466   8.675   2.075
22731SOL     OW70151   8.450   8.244   3.100
22731SOL    HW170152   8.491   8.212   3.186
22731SOL    HW270153   8.354   8.217   3.097
22732SOL     OW70154   7.488   7.992   2.976
22732SOL    HW170155   7.573   7.959   2.935
22732SOL    HW270156   7.501   8.007   3.074
22733SOL     OW70157   7.637   7.968   3.584
22733SOL    HW170158   7.696   7.928   3.514
22733SOL    HW270159   7.579   8.039   3.543
22734SOL     OW70160   8.817   8.398   3.522
22734SOL    HW170161   8.856   8.487   3.542
22734SOL    HW270162   8.827   8.378   3.425
22735SOL     OW70163   8.263   8.020   2.187
22735SOL    HW170164   8.270   7.931   2.141
22735SOL    HW270165   8.169   8.054   2.179
22736SOL     OW70166   0.105   8.052   3.068
22736SOL    HW170167   0.067   7.983   3.130
22736SOL    HW270168   0.187   8.016   3.024
22737SOL     OW70169   7.700   0.012   3.606
22737SOL    HW170170   7.670   0.069   3.682
22737SOL    HW270171   7.693  -0.085   3.632
22738SOL     OW70172   8.119   7.912   3.131
22738SOL    HW170173   8.085   7.823   3.101
22738SOL    HW270174   8.145   7.966   3.051
22739SOL     OW70175   7.921   7.948   2.053
22739SOL    HW170176   7.982   8.028   2.057
22739SOL    HW270177   7.826   7.979   2.060
22740SOL     OW70178   7.607   8.585   3.328
22740SOL    HW170179   7.629   8.524   3.404
22740SOL    HW270180   7.617   8.536   3.242
22741SOL     OW70181   8.795   8.507   3.096
22741SOL    HW170182   8.819   8.444   3.022
22741SOL    HW270183   8.705   8.547   3.078
22742SOL     OW70184   8.750   8.303   2.171
22742SOL    HW170185   8.664   8.272   2.213
22742SOL    HW270186   8.746   8.289   2.072
22743SOL     OW70187   7.531   8.706   2.884
22743SOL    HW170188   7.526   8.705   2.984
22743SOL    HW270189   7.448   8.665   2.846
22744SOL     OW70190   8.351   7.534   1.995
22744SOL    HW170191   8.402   7.535   1.909
22744SOL    HW270192   8.407   7.492   2.066
22745SOL     OW70193   0.174   7.583   2.385
22745SOL    HW170194   0.247   7.566   2.318
22745SOL    HW270195   0.143   7.496   2.423
22746SOL     OW70196   8.728   8.375   2.534
22746SOL    HW170197   8.788   8.294   2.536
22746SOL    HW270198   8.768   8.444   2.474
22747SOL     OW70199   8.278   8.721   3.284
22747SOL    HW170200   8.273   8.754   3.379
22747SOL    HW270201   8.192   8.740   3.238
22748SOL     OW70202   7.711   7.774   2.582
22748SOL    HW170203   7.632   7.825   2.548
22748SOL    HW270204   7.702   7.759   2.680
22749SOL     OW70205   8.270   8.450   3.234
22749SOL    HW170206   8.310   8.449   3.142
22749SOL    HW270207   8.280   8.542   3.274
22750SOL     OW70208   8.364   8.358   2.153
22750SOL    HW170209   8.427   8.396   2.085
22750SOL    HW270210   8.404   8.275   2.192
22751SOL     OW70211   7.820   8.736   3.352
22751SOL    HW170212   7.807   8.829   3.318
22751SOL    HW270213   7.736   8.684   3.339
22752SOL     OW70214   0.062   8.740   3.151
22752SOL    HW170215   0.122   8.743   3.231
22752SOL    HW270216  -0.013   8.804   3.164
22753SOL     OW70217   8.487   8.546   2.558
22753SOL    HW170218   8.417   8.499   2.612
22753SOL    HW270219   8.546   8.478   2.515
22754SOL     OW70220   8.462   7.684   2.833
22754SOL    HW170221   8.454   7.648   2.740
22754SOL    HW270222   8.460   7.608   2.898
22755SOL     OW70223   0.157   7.833   3.243
22755SOL    HW170224   0.230   7.902   3.247
22755SOL    HW270225   0.185   7.758   3.184
22756SOL     OW70226   7.703   8.796   2.152
22756SOL    HW170227   7.607   8.797   2.125
22756SOL    HW270228   7.715   8.849   2.236
22757SOL     OW70229   7.553   8.461   3.588
22757SOL    HW170230   7.476   8.428   3.642
22757SOL    HW270231   7.638   8.431   3.630
22758SOL     OW70232   8.120   7.651   3.351
22758SOL    HW170233   8.210   7.635   3.311
22758SOL    HW270234   8.128   7.656   3.450
22759SOL     OW70235   7.523   7.793   1.895
22759SOL    HW170236   7.431   7.765   1.866
22759SOL    HW270237   7.554   7.870   1.839
22760SOL     OW70238   8.888   8.304   3.260
22760SOL    HW170239   8.831   8.356   3.197
22760SOL    HW270240   8.984   8.316   3.236
22761SOL     OW70241   7.520   7.614   2.180
22761SOL    HW170242   7.503   7.697   2.126
22761SOL    HW270243   7.610   7.577   2.158
22762SOL     OW70244   8.631   8.783   1.981
22762SOL    HW170245   8.532   8.772   1.983
22762SOL    HW270246   8.665   8.798   2.074
22763SOL     OW70247   8.061   8.290   3.293
22763SOL    HW170248   8.117   8.371   3.276
22763SOL    HW270249   8.120   8.210   3.296
22764SOL     OW70250   8.164   8.013   3.570
22764SOL    HW170251   8.183   8.078   3.644
22764SOL    HW270252   8.224   7.933   3.579
22765SOL     OW70253   8.898   8.668   3.495
22765SOL    HW170254   8.889   8.658   3.594
22765SOL    HW270255   8.994   8.661   3.469
22766SOL     OW70256   0.122   8.331   3.116
22766SOL    HW170257   0.095   8.242   3.079
22766SOL    HW270258   0.123   8.399   3.043
22767SOL     OW70259   8.673   7.773   2.311
22767SOL    HW170260   8.738   7.699   2.300
22767SOL    HW270261   8.693   7.823   2.395
22768SOL     OW70262   8.042   8.193   2.514
22768SOL    HW170263   8.092   8.278   2.495
22768SOL    HW270264   7.954   8.195   2.466
22769SOL     OW70265   0.225   7.790   3.504
22769SOL    HW170266   0.208   7.821   3.410
22769SOL    HW270267   0.141   7.753   3.542
22770SOL     OW70268   0.178   8.382   3.379
22770SOL    HW170269   0.216   8.473   3.394
22770SOL    HW270270   0.170   8.365   3.280
22771SOL     OW70271   8.307   8.822   1.878
22771SOL    HW170272   8.261   8.837   1.966
22771SOL    HW270273   8.351   8.907   1.848
22772SOL     OW70274   8.307   8.404   2.723
22772SOL    HW170275   8.361   8.335   2.771
22772SOL    HW270276   8.275   8.473   2.789
22773SOL     OW70277   8.531   8.432   1.949
22773SOL    HW170278   8.508   8.485   1.867
22773SOL    HW270279   8.612   8.376   1.930
22774SOL     OW70280   7.669   8.762   3.706
22774SOL    HW170281   7.604   8.689   3.685
22774SOL    HW270282   7.673   8.776   3.804
22775SOL     OW70283   7.527   8.688   2.515
22775SOL    HW170284   7.526   8.641   2.603
22775SOL    HW270285   7.609   8.660   2.464
22776SOL     OW70286   8.120   8.839   3.486
22776SOL    HW170287   8.042   8.789   3.524
22776SOL    HW270288   8.117   8.934   3.517
22777SOL     OW70289   7.876   7.872   2.382
22777SOL    HW170290   7.906   7.800   2.320
22777SOL    HW270291   7.837   7.832   2.465
22778SOL     OW70292   0.153   8.935   2.966
22778SOL    HW170293   0.060   8.910   2.939
22778SOL    HW270294   0.179   8.885   3.048
22779SOL     OW70295   7.765   7.995   3.142
22779SOL    HW170296   7.803   7.936   3.214
22779SOL    HW270297   7.805   7.969   3.054
22780SOL     OW70298   8.872   7.662   2.974
22780SOL    HW170299   8.924   7.597   3.029
22780SOL    HW270300   8.823   7.725   3.035
22781SOL     OW70301   8.449   7.482   3.016
22781SOL    HW170302   8.386   7.410   2.985
22781SOL    HW270303   8.542   7.446   3.016
22782SOL     OW70304   8.218   8.778   2.163
22782SOL    HW170305   8.172   8.691   2.180
22782SOL    HW270306   8.309   8.775   2.204
22783SOL     OW70307   8.066   0.015   3.146
22783SOL    HW170308   8.061   0.097   3.203
22783SOL    HW270309   8.155   0.012   3.101
22784SOL     OW70310   8.800   7.500   2.030
22784SOL    HW170311   8.835   7.459   1.946
22784SOL    HW270312   8.710   7.462   2.050
22785SOL     OW70313   8.748   7.901   2.553
22785SOL    HW170314   8.689   7.981   2.557
22785SOL    HW270315   8.763   7.866   2.646
22786SOL     OW70316   0.041   7.669   2.744
22786SOL    HW170317  -0.043   7.668   2.798
22786SOL    HW270318   0.043   7.752   2.688
22787SOL     OW70319   7.487   8.525   2.162
22787SOL    HW170320   7.586   8.514   2.153
22787SOL    HW270321   7.447   8.439   2.194
22788SOL     OW70322   7.678   8.076   3.837
22788SOL    HW170323   7.585   8.074   3.874
22788SOL    HW270324   7.679   8.037   3.745
22789SOL     OW70325   7.673   7.723   4.720
22789SOL    HW170326   7.708   7.706   4.812
22789SOL    HW270327   7.585   7.678   4.708
22790SOL     OW70328   7.467   7.816   4.371
22790SOL    HW170329   7.385   7.859   4.410
22790SOL    HW270330   7.439   7.743   4.308
22791SOL     OW70331   8.017   8.723   4.889
22791SOL    HW170332   7.924   8.716   4.852
22791SOL    HW270333   8.028   8.812   4.933
22792SOL     OW70334   0.003   8.959   4.427
22792SOL    HW170335  -0.054   8.943   4.508
22792SOL    HW270336  -0.056   8.969   4.347
22793SOL     OW70337   0.191   8.066   4.580
22793SOL    HW170338   0.224   8.160   4.580
22793SOL    HW270339   0.242   8.012   4.646
22794SOL     OW70340   8.583   8.151   4.441
22794SOL    HW170341   8.640   8.229   4.416
22794SOL    HW270342   8.523   8.177   4.517
22795SOL     OW70343   0.203   8.055   3.955
22795SOL    HW170344   0.191   8.042   3.856
22795SOL    HW270345   0.173   7.974   4.004
22796SOL     OW70346   8.216   8.592   4.747
22796SOL    HW170347   8.138   8.609   4.807
22796SOL    HW270348   8.250   8.679   4.711
22797SOL     OW70349   8.298   8.246   5.547
22797SOL    HW170350   8.294   8.322   5.612
22797SOL    HW270351   8.320   8.282   5.456
22798SOL     OW70352   8.133   8.460   4.389
22798SOL    HW170353   8.202   8.444   4.459
22798SOL    HW270354   8.060   8.517   4.427
22799SOL     OW70355   8.134   8.609   5.527
22799SOL    HW170356   8.194   8.688   5.541
22799SOL    HW270357   8.048   8.640   5.486
22800SOL     OW70358   7.783   8.883   4.785
22800SOL    HW170359   7.705   8.852   4.732
22800SOL    HW270360   7.841   8.941   4.728
22801SOL     OW70361   8.908   8.953   5.063
22801SOL    HW170362   8.932   9.047   5.089
22801SOL    HW270363   8.892   8.899   5.145
22802SOL     OW70364   7.886   7.840   5.223
22802SOL    HW170365   7.968   7.784   5.232
22802SOL    HW270366   7.805   7.782   5.227
22803SOL     OW70367   7.679   0.161   4.207
22803SOL    HW170368   7.713   0.238   4.261
22803SOL    HW270369   7.723   0.161   4.117
22804SOL     OW70370   8.575   8.789   5.414
22804SOL    HW170371   8.622   8.789   5.502
22804SOL    HW270372   8.527   8.702   5.403
22805SOL     OW70373   7.678   8.882   4.262
22805SOL    HW170374   7.652   8.978   4.262
22805SOL    HW270375   7.607   8.828   4.307
22806SOL     OW70376   7.688   8.539   4.610
22806SOL    HW170377   7.702   8.455   4.662
22806SOL    HW270378   7.633   8.603   4.665
22807SOL     OW70379   8.054   8.412   3.847
22807SOL    HW170380   8.061   8.496   3.793
22807SOL    HW270381   8.100   8.425   3.935
22808SOL     OW70382   0.042   7.562   5.204
22808SOL    HW170383   0.024   7.629   5.132
22808SOL    HW270384   0.039   7.608   5.293
22809SOL     OW70385   7.570   8.091   4.287
22809SOL    HW170386   7.525   8.003   4.304
22809SOL    HW270387   7.569   8.145   4.371
22810SOL     OW70388   7.475   0.044   3.841
22810SOL    HW170389   7.456  -0.052   3.862
22810SOL    HW270390   7.442   0.102   3.916
22811SOL     OW70391   0.137   8.370   4.336
22811SOL    HW170392   0.232   8.341   4.344
22811SOL    HW270393   0.129   8.435   4.261
22812SOL     OW70394   0.089   8.556   4.156
22812SOL    HW170395   0.175   8.558   4.104
22812SOL    HW270396   0.103   8.603   4.244
22813SOL     OW70397   7.561   8.185   5.321
22813SOL    HW170398   7.649   8.172   5.366
22813SOL    HW270399   7.548   8.282   5.299
22814SOL     OW70400   8.061   8.813   4.450
22814SOL    HW170401   8.012   8.726   4.459
22814SOL    HW270402   8.038   8.856   4.363
22815SOL     OW70403   8.741   8.676   5.147
22815SOL    HW170404   8.778   8.603   5.089
22815SOL    HW270405   8.793   8.681   5.232
22816SOL     OW70406   8.257   7.452   4.226
22816SOL    HW170407   8.297   7.543   4.217
22816SOL    HW270408   8.157   7.460   4.232
22817SOL     OW70409   7.645   8.424   4.988
22817SOL    HW170410   7.734   8.379   4.974
22817SOL    HW270411   7.572   8.359   4.969
22818SOL     OW70412   8.973   8.447   3.914
22818SOL    HW170413   8.910   8.371   3.927
22818SOL    HW270414   9.021   8.465   4.000
22819SOL     OW70415   7.765   7.699   5.525
22819SOL    HW170416   7.836   7.770   5.531
22819SOL    HW270417   7.677   7.738   5.553
22820SOL     OW70418   8.914   8.865   4.677
22820SOL    HW170419   8.855   8.871   4.757
22820SOL    HW270420   8.899   8.777   4.631
22821SOL     OW70421   8.046   8.177   3.994
22821SOL    HW170422   8.070   8.246   3.926
22821SOL    HW270423   7.968   8.210   4.048
22822SOL     OW70424   8.729   7.793   4.668
22822SOL    HW170425   8.643   7.743   4.655
22822SOL    HW270426   8.791   7.739   4.724
22823SOL     OW70427   8.255   8.053   5.189
22823SOL    HW170428   8.208   8.050   5.278
22823SOL    HW270429   8.204   7.998   5.123
22824SOL     OW70430   8.842   7.917   5.398
22824SOL    HW170431   8.822   7.960   5.486
22824SOL    HW270432   8.920   7.855   5.407
22825SOL     OW70433   8.421   8.338   5.296
22825SOL    HW170434   8.467   8.254   5.267
22825SOL    HW270435   8.365   8.372   5.221
22826SOL     OW70436   8.439   7.858   4.966
22826SOL    HW170437   8.362   7.892   5.020
22826SOL    HW270438   8.405   7.807   4.887
22827SOL     OW70439   8.489   8.149   4.153
22827SOL    HW170440   8.515   8.145   4.249
22827SOL    HW270441   8.404   8.098   4.139
22828SOL     OW70442   7.524   8.259   4.513
22828SOL    HW170443   7.623   8.247   4.522
22828SOL    HW270444   7.500   8.354   4.534
22829SOL     OW70445   8.313   7.796   3.919
22829SOL    HW170446   8.372   7.859   3.870
22829SOL    HW270447   8.332   7.702   3.890
22830SOL     OW70448   0.167   8.033   5.555
22830SOL    HW170449   0.141   8.122   5.519
22830SOL    HW270450   0.165   7.965   5.482
22831SOL     OW70451   8.810   8.592   4.269
22831SOL    HW170452   8.893   8.563   4.221
22831SOL    HW270453   8.761   8.659   4.213
22832SOL     OW70454   7.998   7.644   4.609
22832SOL    HW170455   7.993   7.639   4.709
22832SOL    HW270456   8.000   7.740   4.580
22833SOL     OW70457   8.456   8.904   4.201
22833SOL    HW170458   8.410   8.976   4.149
22833SOL    HW270459   8.452   8.924   4.299
22834SOL     OW70460   0.243   8.514   4.597
22834SOL    HW170461   0.181   8.499   4.521
22834SOL    HW270462   0.191   8.525   4.682
22835SOL     OW70463   8.675   8.998   5.230
22835SOL    HW170464   8.681   8.921   5.294
22835SOL    HW270465   8.623   8.972   5.150
22836SOL     OW70466   7.769   8.391   3.966
22836SOL    HW170467   7.851   8.430   3.924
22836SOL    HW270468   7.742   8.309   3.917
22837SOL     OW70469   8.906   8.183   4.452
22837SOL    HW170470   8.901   8.118   4.527
22837SOL    HW270471   8.986   8.242   4.465
22838SOL     OW70472   7.909   8.714   5.451
22838SOL    HW170473   7.859   8.715   5.365
22838SOL    HW270474   7.846   8.696   5.527
22839SOL     OW70475   8.559   0.224   3.961
22839SOL    HW170476   8.499   0.162   4.011
22839SOL    HW270477   8.590   0.180   3.876
22840SOL     OW70478   7.650   7.733   5.222
22840SOL    HW170479   7.570   7.793   5.209
22840SOL    HW270480   7.640   7.684   5.308
22841SOL     OW70481   0.080   8.825   3.805
22841SOL    HW170482   0.048   8.919   3.795
22841SOL    HW270483   0.004   8.762   3.793
22842SOL     OW70484   8.848   7.555   4.150
22842SOL    HW170485   8.824   7.518   4.060
22842SOL    HW270486   8.947   7.571   4.154
22843SOL     OW70487   7.830   8.148   4.204
22843SOL    HW170488   7.875   8.058   4.201
22843SOL    HW270489   7.736   8.137   4.237
22844SOL     OW70490   8.995   7.670   5.453
22844SOL    HW170491   8.990   7.707   5.545
22844SOL    HW270492   8.923   7.601   5.441
22845SOL     OW70493   8.062   7.570   3.841
22845SOL    HW170494   8.160   7.548   3.848
22845SOL    HW270495   8.031   7.553   3.748
22846SOL     OW70496   8.229   7.712   5.473
22846SOL    HW170497   8.296   7.651   5.516
22846SOL    HW270498   8.156   7.731   5.538
22847SOL     OW70499   8.799   8.038   5.157
22847SOL    HW170500   8.827   7.995   5.242
22847SOL    HW270501   8.824   8.134   5.158
22848SOL     OW70502   8.251   8.850   4.648
22848SOL    HW170503   8.341   8.864   4.606
22848SOL    HW270504   8.180   8.852   4.577
22849SOL     OW70505   8.370   7.951   4.623
22849SOL    HW170506   8.345   7.942   4.527
22849SOL    HW270507   8.418   7.869   4.654
22850SOL     OW70508   7.987   7.512   4.236
22850SOL    HW170509   7.906   7.513   4.294
22850SOL    HW270510   7.990   7.595   4.181
22851SOL     OW70511   8.882   8.636   3.765
22851SOL    HW170512   8.914   8.560   3.822
22851SOL    HW270513   8.790   8.663   3.795
22852SOL     OW70514   7.745   7.483   3.895
22852SOL    HW170515   7.794   7.567   3.874
22852SOL    HW270516   7.807   7.418   3.940
22853SOL     OW70517   8.383   7.684   4.204
22853SOL    HW170518   8.335   7.725   4.126
22853SOL    HW270519   8.482   7.682   4.185
22854SOL     OW70520   8.524   8.131   5.188
22854SOL    HW170521   8.444   8.070   5.191
22854SOL    HW270522   8.605   8.078   5.164
22855SOL     OW70523   8.675   0.018   4.517
22855SOL    HW170524   8.696   0.092   4.452
22855SOL    HW270525   8.743   0.018   4.590
22856SOL     OW70526   7.907   8.600   4.465
22856SOL    HW170527   7.836   8.573   4.530
22856SOL    HW270528   7.881   8.572   4.372
22857SOL     OW70529   8.480   7.997   3.740
22857SOL    HW170530   8.439   8.079   3.701
22857SOL    HW270531   8.544   8.023   3.813
22858SOL     OW70532   7.526   8.004   5.110
22858SOL    HW170533   7.618   8.003   5.069
22858SOL    HW270534   7.520   8.078   5.177
22859SOL     OW70535   8.009   7.670   4.871
22859SOL    HW170536   8.047   7.586   4.908
22859SOL    HW270537   7.921   7.689   4.915
22860SOL     OW70538   8.314   7.902   4.366
22860SOL    HW170539   8.282   7.974   4.304
22860SOL    HW270540   8.338   7.821   4.313
22861SOL     OW70541   8.465   7.487   4.477
22861SOL    HW170542   8.393   7.492   4.408
22861SOL    HW270543   8.441   7.418   4.546
22862SOL     OW70544   8.877   8.621   4.591
22862SOL    HW170545   8.822   8.537   4.584
22862SOL    HW270546   8.903   8.650   4.499
22863SOL     OW70547   8.914   8.038   4.716
22863SOL    HW170548   8.884   7.943   4.723
22863SOL    HW270549   8.987   8.054   4.782
22864SOL     OW70550   7.936   8.833   3.898
22864SOL    HW170551   7.849   8.818   3.945
22864SOL    HW270552   7.919   8.859   3.803
22865SOL     OW70553   0.112   8.728   4.381
22865SOL    HW170554   0.211   8.736   4.395
22865SOL    HW270555   0.067   8.812   4.412
22866SOL     OW70556   8.838   8.023   3.802
22866SOL    HW170557   8.784   8.002   3.883
22866SOL    HW270558   8.929   7.982   3.811
22867SOL     OW70559   7.975   7.704   4.052
22867SOL    HW170560   8.002   7.645   3.977
22867SOL    HW270561   7.975   7.799   4.021
22868SOL     OW70562   8.512   8.795   5.064
22868SOL    HW170563   8.432   8.772   5.119
22868SOL    HW270564   8.595   8.769   5.113
22869SOL     OW70565   8.559   8.643   4.824
22869SOL    HW170566   8.519   8.687   4.905
22869SOL    HW270567   8.518   8.680   4.741
22870SOL     OW70568   0.086   8.547   4.803
22870SOL    HW170569   0.091   8.628   4.862
22870SOL    HW270570   0.000   8.549   4.752
22871SOL     OW70571   8.363   7.537   5.126
22871SOL    HW170572   8.388   7.517   5.031
22871SOL    HW270573   8.435   7.593   5.168
22872SOL     OW70574   8.428   8.564   5.443
22872SOL    HW170575   8.329   8.570   5.453
22872SOL    HW270576   8.451   8.484   5.387
22873SOL     OW70577   8.153   8.498   4.092
22873SOL    HW170578   8.139   8.505   4.191
22873SOL    HW270579   8.237   8.447   4.074
22874SOL     OW70580   7.858   8.261   4.975
22874SOL    HW170581   7.944   8.273   5.025
22874SOL    HW270582   7.816   8.174   5.002
22875SOL     OW70583   8.722   7.834   4.986
22875SOL    HW170584   8.743   7.908   5.050
22875SOL    HW270585   8.633   7.851   4.943
22876SOL     OW70586   7.815   8.548   4.225
22876SOL    HW170587   7.808   8.631   4.169
22876SOL    HW270588   7.819   8.468   4.165
22877SOL     OW70589   8.014   7.985   4.589
22877SOL    HW170590   8.026   8.051   4.515
22877SOL    HW270591   8.060   8.019   4.672
22878SOL     OW70592   8.700   8.796   4.112
22878SOL    HW170593   8.750   8.873   4.152
22878SOL    HW270594   8.605   8.798   4.144
22879SOL     OW70595   8.720   8.893   4.866
22879SOL    HW170596   8.767   8.906   4.953
22879SOL    HW270597   8.654   8.819   4.875
22880SOL     OW70598   0.030   8.087   4.196
22880SOL    HW170599  -0.001   8.148   4.269
22880SOL    HW270600   0.080   8.139   4.127
22881SOL     OW70601   7.802   8.958   5.053
22881SOL    HW170602   7.781   8.914   4.966
22881SOL    HW270603   7.899   8.984   5.056
22882SOL     OW70604   7.850   8.199   5.322
22882SOL    HW170605   7.918   8.254   5.275
22882SOL    HW270606   7.890   8.111   5.349
22883SOL     OW70607   0.035   8.227   5.394
22883SOL    HW170608  -0.057   8.265   5.389
22883SOL    HW270609   0.095   8.274   5.329
22884SOL     OW70610   8.461   7.553   5.494
22884SOL    HW170611   8.467   7.638   5.442
22884SOL    HW270612   8.493   7.477   5.437
22885SOL     OW70613   7.952   7.498   5.464
22885SOL    HW170614   7.910   7.441   5.394
22885SOL    HW270615   7.886   7.567   5.496
22886SOL     OW70616   8.021   8.318   4.753
22886SOL    HW170617   8.065   8.407   4.744
22886SOL    HW270618   7.958   8.318   4.830
22887SOL     OW70619   8.808   8.310   4.769
22887SOL    HW170620   8.733   8.310   4.703
22887SOL    HW270621   8.845   8.218   4.778
22888SOL     OW70622   8.657   7.973   3.999
22888SOL    HW170623   8.670   7.889   4.053
22888SOL    HW270624   8.628   8.047   4.059
22889SOL     OW70625   7.755   7.661   4.955
22889SOL    HW170626   7.732   7.698   5.045
22889SOL    HW270627   7.725   7.566   4.949
22890SOL     OW70628   7.485   8.758   5.006
22890SOL    HW170629   7.538   8.709   5.074
22890SOL    HW270630   7.507   8.856   5.011
22891SOL     OW70631   8.180   8.082   4.788
22891SOL    HW170632   8.239   8.056   4.712
22891SOL    HW270633   8.152   8.178   4.777
22892SOL     OW70634   0.176   8.383   5.578
22892SOL    HW170635   0.130   8.376   5.489
22892SOL    HW270636   0.114   8.427   5.644
22893SOL     OW70637   7.755   7.511   4.342
22893SOL    HW170638   7.744   7.605   4.375
22893SOL    HW270639   7.750   7.448   4.419
22894SOL     OW70640   0.070   7.815   4.098
22894SOL    HW170641   0.072   7.739   4.162
22894SOL    HW270642   0.022   7.892   4.138
22895SOL     OW70643   8.471   8.214   4.690
22895SOL    HW170644   8.486   8.235   4.786
22895SOL    HW270645   8.441   8.119   4.681
22896SOL     OW70646   7.798   8.346   5.528
22896SOL    HW170647   7.874   8.390   5.576
22896SOL    HW270648   7.833   8.299   5.446
22897SOL     OW70649   8.988   7.722   3.849
22897SOL    HW170650   8.927   7.647   3.872
22897SOL    HW270651   9.010   7.774   3.932
22898SOL     OW70652   8.751   8.286   3.766
22898SOL    HW170653   8.785   8.193   3.781
22898SOL    HW270654   8.769   8.313   3.671
22899SOL     OW70655   8.516   8.781   4.573
22899SOL    HW170656   8.523   8.697   4.518
22899SOL    HW270657   8.578   8.850   4.537
22900SOL     OW70658   7.767   8.258   4.673
22900SOL    HW170659   7.860   8.294   4.678
22900SOL    HW270660   7.761   8.173   4.725
22901SOL     OW70661   7.787   7.957   4.730
22901SOL    HW170662   7.735   7.874   4.713
22901SOL    HW270663   7.864   7.962   4.666
22902SOL     OW70664   7.959   7.863   5.532
22902SOL    HW170665   7.941   7.908   5.620
22902SOL    HW270666   8.001   7.928   5.469
22903SOL     OW70667   8.586   7.828   5.402
22903SOL    HW170668   8.541   7.891   5.466
22903SOL    HW270669   8.679   7.859   5.385
22904SOL     OW70670   8.608   7.655   5.201
22904SOL    HW170671   8.608   7.719   5.278
22904SOL    HW270672   8.636   7.703   5.118
22905SOL     OW70673   7.456   8.774   3.924
22905SOL    HW170674   7.363   8.795   3.893
22905SOL    HW270675   7.466   8.675   3.937
22906SOL     OW70676   8.450   8.244   4.962
22906SOL    HW170677   8.491   8.212   5.048
22906SOL    HW270678   8.354   8.217   4.959
22907SOL     OW70679   7.488   7.992   4.838
22907SOL    HW170680   7.573   7.959   4.797
22907SOL    HW270681   7.501   8.007   4.936
22908SOL     OW70682   7.637   7.968   5.446
22908SOL    HW170683   7.696   7.928   5.376
22908SOL    HW270684   7.579   8.039   5.405
22909SOL     OW70685   8.817   8.398   5.384
22909SOL    HW170686   8.856   8.487   5.404
22909SOL    HW270687   8.827   8.378   5.287
22910SOL     OW70688   8.263   8.020   4.049
22910SOL    HW170689   8.270   7.931   4.003
22910SOL    HW270690   8.169   8.054   4.041
22911SOL     OW70691   0.105   8.052   4.930
22911SOL    HW170692   0.067   7.983   4.992
22911SOL    HW270693   0.187   8.016   4.886
22912SOL     OW70694   7.700   0.012   5.468
22912SOL    HW170695   7.670   0.069   5.544
22912SOL    HW270696   7.693  -0.085   5.494
22913SOL     OW70697   8.119   7.912   4.993
22913SOL    HW170698   8.085   7.823   4.963
22913SOL    HW270699   8.145   7.966   4.913
22914SOL     OW70700   7.921   7.948   3.915
22914SOL    HW170701   7.982   8.028   3.919
22914SOL    HW270702   7.826   7.979   3.922
22915SOL     OW70703   7.607   8.585   5.190
22915SOL    HW170704   7.629   8.524   5.266
22915SOL    HW270705   7.617   8.536   5.104
22916SOL     OW70706   8.795   8.507   4.958
22916SOL    HW170707   8.819   8.444   4.884
22916SOL    HW270708   8.705   8.547   4.940
22917SOL     OW70709   8.750   8.303   4.033
22917SOL    HW170710   8.664   8.272   4.075
22917SOL    HW270711   8.746   8.289   3.934
22918SOL     OW70712   7.531   8.706   4.746
22918SOL    HW170713   7.526   8.705   4.846
22918SOL    HW270714   7.448   8.665   4.708
22919SOL     OW70715   8.351   7.534   3.857
22919SOL    HW170716   8.402   7.535   3.771
22919SOL    HW270717   8.407   7.492   3.928
22920SOL     OW70718   0.174   7.583   4.247
22920SOL    HW170719   0.247   7.566   4.180
22920SOL    HW270720   0.143   7.496   4.285
22921SOL     OW70721   8.728   8.375   4.396
22921SOL    HW170722   8.788   8.294   4.398
22921SOL    HW270723   8.768   8.444   4.336
22922SOL     OW70724   8.278   8.721   5.146
22922SOL    HW170725   8.273   8.754   5.241
22922SOL    HW270726   8.192   8.740   5.100
22923SOL     OW70727   7.711   7.774   4.444
22923SOL    HW170728   7.632   7.825   4.410
22923SOL    HW270729   7.702   7.759   4.542
22924SOL     OW70730   8.270   8.450   5.096
22924SOL    HW170731   8.310   8.449   5.004
22924SOL    HW270732   8.280   8.542   5.136
22925SOL     OW70733   8.364   8.358   4.015
22925SOL    HW170734   8.427   8.396   3.947
22925SOL    HW270735   8.404   8.275   4.054
22926SOL     OW70736   7.820   8.736   5.214
22926SOL    HW170737   7.807   8.829   5.180
22926SOL    HW270738   7.736   8.684   5.201
22927SOL     OW70739   0.062   8.740   5.013
22927SOL    HW170740   0.122   8.743   5.093
22927SOL    HW270741  -0.013   8.804   5.026
22928SOL     OW70742   8.487   8.546   4.420
22928SOL    HW170743   8.417   8.499   4.474
22928SOL    HW270744   8.546   8.478   4.377
22929SOL     OW70745   8.462   7.684   4.695
22929SOL    HW170746   8.454   7.648   4.602
22929SOL    HW270747   8.460   7.608   4.760
22930SOL     OW70748   0.157   7.833   5.105
22930SOL    HW170749   0.230   7.902   5.109
22930SOL    HW270750   0.185   7.758   5.046
22931SOL     OW70751   7.703   8.796   4.014
22931SOL    HW170752   7.607   8.797   3.987
22931SOL    HW270753   7.715   8.849   4.098
22932SOL     OW70754   7.553   8.461   5.450
22932SOL    HW170755   7.476   8.428   5.504
22932SOL    HW270756   7.638   8.431   5.492
22933SOL     OW70757   8.120   7.651   5.213
22933SOL    HW170758   8.210   7.635   5.173
22933SOL    HW270759   8.128   7.656   5.312
22934SOL     OW70760   7.523   7.793   3.757
22934SOL    HW170761   7.431   7.765   3.728
22934SOL    HW270762   7.554   7.870   3.701
22935SOL     OW70763   8.888   8.304   5.122
22935SOL    HW170764   8.831   8.356   5.059
22935SOL    HW270765   8.984   8.316   5.098
22936SOL     OW70766   7.520   7.614   4.042
22936SOL    HW170767   7.503   7.697   3.988
22936SOL    HW270768   7.610   7.577   4.020
22937SOL     OW70769   8.631   8.783   3.843
22937SOL    HW170770   8.532   8.772   3.845
22937SOL    HW270771   8.665   8.798   3.936
22938SOL     OW70772   8.061   8.290   5.155
22938SOL    HW170773   8.117   8.371   5.138
22938SOL    HW270774   8.120   8.210   5.158
22939SOL     OW70775   8.164   8.013   5.432
22939SOL    HW170776   8.183   8.078   5.506
22939SOL    HW270777   8.224   7.933   5.441
22940SOL     OW70778   8.898   8.668   5.357
22940SOL    HW170779   8.889   8.658   5.456
22940SOL    HW270780   8.994   8.661   5.331
22941SOL     OW70781   0.122   8.331   4.978
22941SOL    HW170782   0.095   8.242   4.941
22941SOL    HW270783   0.123   8.399   4.905
22942SOL     OW70784   8.673   7.773   4.173
22942SOL    HW170785   8.738   7.699   4.162
22942SOL    HW270786   8.693   7.823   4.257
22943SOL     OW70787   8.042   8.193   4.376
22943SOL    HW170788   8.092   8.278   4.357
22943SOL    HW270789   7.954   8.195   4.328
22944SOL     OW70790   0.225   7.790   5.366
22944SOL    HW170791   0.208   7.821   5.272
22944SOL    HW270792   0.141   7.753   5.404
22945SOL     OW70793   0.178   8.382   5.241
22945SOL    HW170794   0.216   8.473   5.256
22945SOL    HW270795   0.170   8.365   5.142
22946SOL     OW70796   8.307   8.822   3.740
22946SOL    HW170797   8.261   8.837   3.828
22946SOL    HW270798   8.351   8.907   3.710
22947SOL     OW70799   8.307   8.404   4.585
22947SOL    HW170800   8.361   8.335   4.633
22947SOL    HW270801   8.275   8.473   4.651
22948SOL     OW70802   8.531   8.432   3.811
22948SOL    HW170803   8.508   8.485   3.729
22948SOL    HW270804   8.612   8.376   3.792
22949SOL     OW70805   7.669   8.762   5.568
22949SOL    HW170806   7.604   8.689   5.547
22949SOL    HW270807   7.673   8.776   5.666
22950SOL     OW70808   7.527   8.688   4.377
22950SOL    HW170809   7.526   8.641   4.465
22950SOL    HW270810   7.609   8.660   4.326
22951SOL     OW70811   8.120   8.839   5.348
22951SOL    HW170812   8.042   8.789   5.386
22951SOL    HW270813   8.117   8.934   5.379
22952SOL     OW70814   7.876   7.872   4.244
22952SOL    HW170815   7.906   7.800   4.182
22952SOL    HW270816   7.837   7.832   4.327
22953SOL     OW70817   0.153   8.935   4.828
22953SOL    HW170818   0.060   8.910   4.801
22953SOL    HW270819   0.179   8.885   4.910
22954SOL     OW70820   7.765   7.995   5.004
22954SOL    HW170821   7.803   7.936   5.076
22954SOL    HW270822   7.805   7.969   4.916
22955SOL     OW70823   8.872   7.662   4.836
22955SOL    HW170824   8.924   7.597   4.891
22955SOL    HW270825   8.823   7.725   4.897
22956SOL     OW70826   8.449   7.482   4.878
22956SOL    HW170827   8.386   7.410   4.847
22956SOL    HW270828   8.542   7.446   4.878
22957SOL     OW70829   8.218   8.778   4.025
22957SOL    HW170830   8.172   8.691   4.042
22957SOL    HW270831   8.309   8.775   4.066
22958SOL     OW70832   8.066   0.015   5.008
22958SOL    HW170833   8.061   0.097   5.065
22958SOL    HW270834   8.155   0.012   4.963
22959SOL     OW70835   8.800   7.500   3.892
22959SOL    HW170836   8.835   7.459   3.808
22959SOL    HW270837   8.710   7.462   3.912
22960SOL     OW70838   8.748   7.901   4.415
22960SOL    HW170839   8.689   7.981   4.419
22960SOL    HW270840   8.763   7.866   4.508
22961SOL     OW70841   0.041   7.669   4.606
22961SOL    HW170842  -0.043   7.668   4.660
22961SOL    HW270843   0.043   7.752   4.550
22962SOL     OW70844   7.487   8.525   4.024
22962SOL    HW170845   7.586   8.514   4.015
22962SOL    HW270846   7.447   8.439   4.056
22963SOL     OW70847   7.678   8.076   5.699
22963SOL    HW170848   7.585   8.074   5.736
22963SOL    HW270849   7.679   8.037   5.607
22964SOL     OW70850   7.673   7.723   6.582
22964SOL    HW170851   7.708   7.706   6.674
22964SOL    HW270852   7.585   7.678   6.570
22965SOL     OW70853   7.467   7.816   6.233
22965SOL    HW170854   7.385   7.859   6.272
22965SOL    HW270855   7.439   7.743   6.170
22966SOL     OW70856   8.017   8.723   6.751
22966SOL    HW170857   7.924   8.716   6.714
22966SOL    HW270858   8.028   8.812   6.795
22967SOL     OW70859   0.003   8.959   6.289
22967SOL    HW170860  -0.054   8.943   6.370
22967SOL    HW270861  -0.056   8.969   6.209
22968SOL     OW70862   0.191   8.066   6.442
22968SOL    HW170863   0.224   8.160   6.442
22968SOL    HW270864   0.242   8.012   6.508
22969SOL     OW70865   8.583   8.151   6.303
22969SOL    HW170866   8.640   8.229   6.278
22969SOL    HW270867   8.523   8.177   6.379
22970SOL     OW70868   0.203   8.055   5.817
22970SOL    HW170869   0.191   8.042   5.718
22970SOL    HW270870   0.173   7.974   5.866
22971SOL     OW70871   8.216   8.592   6.609
22971SOL    HW170872   8.138   8.609   6.669
22971SOL    HW270873   8.250   8.679   6.573
22972SOL     OW70874   8.298   8.246   7.409
22972SOL    HW170875   8.294   8.322   7.474
22972SOL    HW270876   8.320   8.282   7.318
22973SOL     OW70877   8.133   8.460   6.251
22973SOL    HW170878   8.202   8.444   6.321
22973SOL    HW270879   8.060   8.517   6.289
22974SOL     OW70880   8.134   8.609   7.389
22974SOL    HW170881   8.194   8.688   7.403
22974SOL    HW270882   8.048   8.640   7.348
22975SOL     OW70883   7.783   8.883   6.647
22975SOL    HW170884   7.705   8.852   6.594
22975SOL    HW270885   7.841   8.941   6.590
22976SOL     OW70886   8.908   8.953   6.925
22976SOL    HW170887   8.932   9.047   6.951
22976SOL    HW270888   8.892   8.899   7.007
22977SOL     OW70889   7.886   7.840   7.085
22977SOL    HW170890   7.968   7.784   7.094
22977SOL    HW270891   7.805   7.782   7.089
22978SOL     OW70892   7.679   0.161   6.069
22978SOL    HW170893   7.713   0.238   6.123
22978SOL    HW270894   7.723   0.161   5.979
22979SOL     OW70895   8.575   8.789   7.276
22979SOL    HW170896   8.622   8.789   7.364
22979SOL    HW270897   8.527   8.702   7.265
22980SOL     OW70898   7.678   8.882   6.124
22980SOL    HW170899   7.652   8.978   6.124
22980SOL    HW270900   7.607   8.828   6.169
22981SOL     OW70901   7.688   8.539   6.472
22981SOL    HW170902   7.702   8.455   6.524
22981SOL    HW270903   7.633   8.603   6.527
22982SOL     OW70904   8.054   8.412   5.709
22982SOL    HW170905   8.061   8.496   5.655
22982SOL    HW270906   8.100   8.425   5.797
22983SOL     OW70907   0.042   7.562   7.066
22983SOL    HW170908   0.024   7.629   6.994
22983SOL    HW270909   0.039   7.608   7.155
22984SOL     OW70910   7.570   8.091   6.149
22984SOL    HW170911   7.525   8.003   6.166
22984SOL    HW270912   7.569   8.145   6.233
22985SOL     OW70913   7.475   0.044   5.703
22985SOL    HW170914   7.456  -0.052   5.724
22985SOL    HW270915   7.442   0.102   5.778
22986SOL     OW70916   0.137   8.370   6.198
22986SOL    HW170917   0.232   8.341   6.206
22986SOL    HW270918   0.129   8.435   6.123
22987SOL     OW70919   0.089   8.556   6.018
22987SOL    HW170920   0.175   8.558   5.966
22987SOL    HW270921   0.103   8.603   6.106
22988SOL     OW70922   7.561   8.185   7.183
22988SOL    HW170923   7.649   8.172   7.228
22988SOL    HW270924   7.548   8.282   7.161
22989SOL     OW70925   8.061   8.813   6.312
22989SOL    HW170926   8.012   8.726   6.321
22989SOL    HW270927   8.038   8.856   6.225
22990SOL     OW70928   8.741   8.676   7.009
22990SOL    HW170929   8.778   8.603   6.951
22990SOL    HW270930   8.793   8.681   7.094
22991SOL     OW70931   8.257   7.452   6.088
22991SOL    HW170932   8.297   7.543   6.079
22991SOL    HW270933   8.157   7.460   6.094
22992SOL     OW70934   7.645   8.424   6.850
22992SOL    HW170935   7.734   8.379   6.836
22992SOL    HW270936   7.572   8.359   6.831
22993SOL     OW70937   8.973   8.447   5.776
22993SOL    HW170938   8.910   8.371   5.789
22993SOL    HW270939   9.021   8.465   5.862
22994SOL     OW70940   7.765   7.699   7.387
22994SOL    HW170941   7.836   7.770   7.393
22994SOL    HW270942   7.677   7.738   7.415
22995SOL     OW70943   8.914   8.865   6.539
22995SOL    HW170944   8.855   8.871   6.619
22995SOL    HW270945   8.899   8.777   6.493
22996SOL     OW70946   8.046   8.177   5.856
22996SOL    HW170947   8.070   8.246   5.788
22996SOL    HW270948   7.968   8.210   5.910
22997SOL     OW70949   8.729   7.793   6.530
22997SOL    HW170950   8.643   7.743   6.517
22997SOL    HW270951   8.791   7.739   6.586
22998SOL     OW70952   8.255   8.053   7.051
22998SOL    HW170953   8.208   8.050   7.140
22998SOL    HW270954   8.204   7.998   6.985
22999SOL     OW70955   8.842   7.917   7.260
22999SOL    HW170956   8.822   7.960   7.348
22999SOL    HW270957   8.920   7.855   7.269
23000SOL     OW70958   8.421   8.338   7.158
23000SOL    HW170959   8.467   8.254   7.129
23000SOL    HW270960   8.365   8.372   7.083
23001SOL     OW70961   8.439   7.858   6.828
23001SOL    HW170962   8.362   7.892   6.882
23001SOL    HW270963   8.405   7.807   6.749
23002SOL     OW70964   8.489   8.149   6.015
23002SOL    HW170965   8.515   8.145   6.111
23002SOL    HW270966   8.404   8.098   6.001
23003SOL     OW70967   7.524   8.259   6.375
23003SOL    HW170968   7.623   8.247   6.384
23003SOL    HW270969   7.500   8.354   6.396
23004SOL     OW70970   8.313   7.796   5.781
23004SOL    HW170971   8.372   7.859   5.732
23004SOL    HW270972   8.332   7.702   5.752
23005SOL     OW70973   0.167   8.033   7.417
23005SOL    HW170974   0.141   8.122   7.381
23005SOL    HW270975   0.165   7.965   7.344
23006SOL     OW70976   8.810   8.592   6.131
23006SOL    HW170977   8.893   8.563   6.083
23006SOL    HW270978   8.761   8.659   6.075
23007SOL     OW70979   7.998   7.644   6.471
23007SOL    HW170980   7.993   7.639   6.571
23007SOL    HW270981   8.000   7.740   6.442
23008SOL     OW70982   8.456   8.904   6.063
23008SOL    HW170983   8.410   8.976   6.011
23008SOL    HW270984   8.452   8.924   6.161
23009SOL     OW70985   0.243   8.514   6.459
23009SOL    HW170986   0.181   8.499   6.383
23009SOL    HW270987   0.191   8.525   6.544
23010SOL     OW70988   8.675   8.998   7.092
23010SOL    HW170989   8.681   8.921   7.156
23010SOL    HW270990   8.623   8.972   7.012
23011SOL     OW70991   7.769   8.391   5.828
23011SOL    HW170992   7.851   8.430   5.786
23011SOL    HW270993   7.742   8.309   5.779
23012SOL     OW70994   8.906   8.183   6.314
23012SOL    HW170995   8.901   8.118   6.389
23012SOL    HW270996   8.986   8.242   6.327
23013SOL     OW70997   7.909   8.714   7.313
23013SOL    HW170998   7.859   8.715   7.227
23013SOL    HW270999   7.846   8.696   7.389
23014SOL     OW71000   8.559   0.224   5.823
23014SOL    HW171001   8.499   0.162   5.873
23014SOL    HW271002   8.590   0.180   5.738
23015SOL     OW71003   7.650   7.733   7.084
23015SOL    HW171004   7.570   7.793   7.071
23015SOL    HW271005   7.640   7.684   7.170
23016SOL     OW71006   0.080   8.825   5.667
23016SOL    HW171007   0.048   8.919   5.657
23016SOL    HW271008   0.004   8.762   5.655
23017SOL     OW71009   8.848   7.555   6.012
23017SOL    HW171010   8.824   7.518   5.922
23017SOL    HW271011   8.947   7.571   6.016
23018SOL     OW71012   7.830   8.148   6.066
23018SOL    HW171013   7.875   8.058   6.063
23018SOL    HW271014   7.736   8.137   6.099
23019SOL     OW71015   8.995   7.670   7.315
23019SOL    HW171016   8.990   7.707   7.407
23019SOL    HW271017   8.923   7.601   7.303
23020SOL     OW71018   8.062   7.570   5.703
23020SOL    HW171019   8.160   7.548   5.710
23020SOL    HW271020   8.031   7.553   5.610
23021SOL     OW71021   8.229   7.712   7.335
23021SOL    HW171022   8.296   7.651   7.378
23021SOL    HW271023   8.156   7.731   7.400
23022SOL     OW71024   8.799   8.038   7.019
23022SOL    HW171025   8.827   7.995   7.104
23022SOL    HW271026   8.824   8.134   7.020
23023SOL     OW71027   8.251   8.850   6.510
23023SOL    HW171028   8.341   8.864   6.468
23023SOL    HW271029   8.180   8.852   6.439
23024SOL     OW71030   8.370   7.951   6.485
23024SOL    HW171031   8.345   7.942   6.389
23024SOL    HW271032   8.418   7.869   6.516
23025SOL     OW71033   7.987   7.512   6.098
23025SOL    HW171034   7.906   7.513   6.156
23025SOL    HW271035   7.990   7.595   6.043
23026SOL     OW71036   8.882   8.636   5.627
23026SOL    HW171037   8.914   8.560   5.684
23026SOL    HW271038   8.790   8.663   5.657
23027SOL     OW71039   7.745   7.483   5.757
23027SOL    HW171040   7.794   7.567   5.736
23027SOL    HW271041   7.807   7.418   5.802
23028SOL     OW71042   8.383   7.684   6.066
23028SOL    HW171043   8.335   7.725   5.988
23028SOL    HW271044   8.482   7.682   6.047
23029SOL     OW71045   8.524   8.131   7.050
23029SOL    HW171046   8.444   8.070   7.053
23029SOL    HW271047   8.605   8.078   7.026
23030SOL     OW71048   8.675   0.018   6.379
23030SOL    HW171049   8.696   0.092   6.314
23030SOL    HW271050   8.743   0.018   6.452
23031SOL     OW71051   7.907   8.600   6.327
23031SOL    HW171052   7.836   8.573   6.392
23031SOL    HW271053   7.881   8.572   6.234
23032SOL     OW71054   8.480   7.997   5.602
23032SOL    HW171055   8.439   8.079   5.563
23032SOL    HW271056   8.544   8.023   5.675
23033SOL     OW71057   7.526   8.004   6.972
23033SOL    HW171058   7.618   8.003   6.931
23033SOL    HW271059   7.520   8.078   7.039
23034SOL     OW71060   8.009   7.670   6.733
23034SOL    HW171061   8.047   7.586   6.770
23034SOL    HW271062   7.921   7.689   6.777
23035SOL     OW71063   8.314   7.902   6.228
23035SOL    HW171064   8.282   7.974   6.166
23035SOL    HW271065   8.338   7.821   6.175
23036SOL     OW71066   8.465   7.487   6.339
23036SOL    HW171067   8.393   7.492   6.270
23036SOL    HW271068   8.441   7.418   6.408
23037SOL     OW71069   8.877   8.621   6.453
23037SOL    HW171070   8.822   8.537   6.446
23037SOL    HW271071   8.903   8.650   6.361
23038SOL     OW71072   8.914   8.038   6.578
23038SOL    HW171073   8.884   7.943   6.585
23038SOL    HW271074   8.987   8.054   6.644
23039SOL     OW71075   7.936   8.833   5.760
23039SOL    HW171076   7.849   8.818   5.807
23039SOL    HW271077   7.919   8.859   5.665
23040SOL     OW71078   0.112   8.728   6.243
23040SOL    HW171079   0.211   8.736   6.257
23040SOL    HW271080   0.067   8.812   6.274
23041SOL     OW71081   8.838   8.023   5.664
23041SOL    HW171082   8.784   8.002   5.745
23041SOL    HW271083   8.929   7.982   5.673
23042SOL     OW71084   7.975   7.704   5.914
23042SOL    HW171085   8.002   7.645   5.839
23042SOL    HW271086   7.975   7.799   5.883
23043SOL     OW71087   8.512   8.795   6.926
23043SOL    HW171088   8.432   8.772   6.981
23043SOL    HW271089   8.595   8.769   6.975
23044SOL     OW71090   8.559   8.643   6.686
23044SOL    HW171091   8.519   8.687   6.767
23044SOL    HW271092   8.518   8.680   6.603
23045SOL     OW71093   0.086   8.547   6.665
23045SOL    HW171094   0.091   8.628   6.724
23045SOL    HW271095   0.000   8.549   6.614
23046SOL     OW71096   8.363   7.537   6.988
23046SOL    HW171097   8.388   7.517   6.893
23046SOL    HW271098   8.435   7.593   7.030
23047SOL     OW71099   8.428   8.564   7.305
23047SOL    HW171100   8.329   8.570   7.315
23047SOL    HW271101   8.451   8.484   7.249
23048SOL     OW71102   8.153   8.498   5.954
23048SOL    HW171103   8.139   8.505   6.053
23048SOL    HW271104   8.237   8.447   5.936
23049SOL     OW71105   7.858   8.261   6.837
23049SOL    HW171106   7.944   8.273   6.887
23049SOL    HW271107   7.816   8.174   6.864
23050SOL     OW71108   8.722   7.834   6.848
23050SOL    HW171109   8.743   7.908   6.912
23050SOL    HW271110   8.633   7.851   6.805
23051SOL     OW71111   7.815   8.548   6.087
23051SOL    HW171112   7.808   8.631   6.031
23051SOL    HW271113   7.819   8.468   6.027
23052SOL     OW71114   8.014   7.985   6.451
23052SOL    HW171115   8.026   8.051   6.377
23052SOL    HW271116   8.060   8.019   6.534
23053SOL     OW71117   8.700   8.796   5.974
23053SOL    HW171118   8.750   8.873   6.014
23053SOL    HW271119   8.605   8.798   6.006
23054SOL     OW71120   8.720   8.893   6.728
23054SOL    HW171121   8.767   8.906   6.815
23054SOL    HW271122   8.654   8.819   6.737
23055SOL     OW71123   0.030   8.087   6.058
23055SOL    HW171124  -0.001   8.148   6.131
23055SOL    HW271125   0.080   8.139   5.989
23056SOL     OW71126   7.802   8.958   6.915
23056SOL    HW171127   7.781   8.914   6.828
23056SOL    HW271128   7.899   8.984   6.918
23057SOL     OW71129   7.850   8.199   7.184
23057SOL    HW171130   7.918   8.254   7.137
23057SOL    HW271131   7.890   8.111   7.211
23058SOL     OW71132   0.035   8.227   7.256
23058SOL    HW171133  -0.057   8.265   7.251
23058SOL    HW271134   0.095   8.274   7.191
23059SOL     OW71135   8.461   7.553   7.356
23059SOL    HW171136   8.467   7.638   7.304
23059SOL    HW271137   8.493   7.477   7.299
23060SOL     OW71138   7.952   7.498   7.326
23060SOL    HW171139   7.910   7.441   7.256
23060SOL    HW271140   7.886   7.567   7.358
23061SOL     OW71141   8.021   8.318   6.615
23061SOL    HW171142   8.065   8.407   6.606
23061SOL    HW271143   7.958   8.318   6.692
23062SOL     OW71144   8.808   8.310   6.631
23062SOL    HW171145   8.733   8.310   6.565
23062SOL    HW271146   8.845   8.218   6.640
23063SOL     OW71147   8.657   7.973   5.861
23063SOL    HW171148   8.670   7.889   5.915
23063SOL    HW271149   8.628   8.047   5.921
23064SOL     OW71150   7.755   7.661   6.817
23064SOL    HW171151   7.732   7.698   6.907
23064SOL    HW271152   7.725   7.566   6.811
23065SOL     OW71153   7.485   8.758   6.868
23065SOL    HW171154   7.538   8.709   6.936
23065SOL    HW271155   7.507   8.856   6.873
23066SOL     OW71156   8.180   8.082   6.650
23066SOL    HW171157   8.239   8.056   6.574
23066SOL    HW271158   8.152   8.178   6.639
23067SOL     OW71159   0.176   8.383   7.440
23067SOL    HW171160   0.130   8.376   7.351
23067SOL    HW271161   0.114   8.427   7.506
23068SOL     OW71162   7.755   7.511   6.204
23068SOL    HW171163   7.744   7.605   6.237
23068SOL    HW271164   7.750   7.448   6.281
23069SOL     OW71165   0.070   7.815   5.960
23069SOL    HW171166   0.072   7.739   6.024
23069SOL    HW271167   0.022   7.892   6.000
23070SOL     OW71168   8.471   8.214   6.552
23070SOL    HW171169   8.486   8.235   6.648
23070SOL    HW271170   8.441   8.119   6.543
23071SOL     OW71171   7.798   8.346   7.390
23071SOL    HW171172   7.874   8.390   7.438
23071SOL    HW271173   7.833   8.299   7.308
23072SOL     OW71174   8.988   7.722   5.711
23072SOL    HW171175   8.927   7.647   5.734
23072SOL    HW271176   9.010   7.774   5.794
23073SOL     OW71177   8.751   8.286   5.628
23073SOL    HW171178   8.785   8.193   5.643
23073SOL    HW271179   8.769   8.313   5.533
23074SOL     OW71180   8.516   8.781   6.435
23074SOL    HW171181   8.523   8.697   6.380
23074SOL    HW271182   8.578   8.850   6.399
23075SOL     OW71183   7.767   8.258   6.535
23075SOL    HW171184   7.860   8.294   6.540
23075SOL    HW271185   7.761   8.173   6.587
23076SOL     OW71186   7.787   7.957   6.592
23076SOL    HW171187   7.735   7.874   6.575
23076SOL    HW271188   7.864   7.962   6.528
23077SOL     OW71189   7.959   7.863   7.394
23077SOL    HW171190   7.941   7.908   7.482
23077SOL    HW271191   8.001   7.928   7.331
23078SOL     OW71192   8.586   7.828   7.264
23078SOL    HW171193   8.541   7.891   7.328
23078SOL    HW271194   8.679   7.859   7.247
23079SOL     OW71195   8.608   7.655   7.063
23079SOL    HW171196   8.608   7.719   7.140
23079SOL    HW271197   8.636   7.703   6.980
23080SOL     OW71198   7.456   8.774   5.786
23080SOL    HW171199   7.363   8.795   5.755
23080SOL    HW271200   7.466   8.675   5.799
23081SOL     OW71201   8.450   8.244   6.824
23081SOL    HW171202   8.491   8.212   6.910
23081SOL    HW271203   8.354   8.217   6.821
23082SOL     OW71204   7.488   7.992   6.700
23082SOL    HW171205   7.573   7.959   6.659
23082SOL    HW271206   7.501   8.007   6.798
23083SOL     OW71207   7.637   7.968   7.308
23083SOL    HW171208   7.696   7.928   7.238
23083SOL    HW271209   7.579   8.039   7.267
23084SOL     OW71210   8.817   8.398   7.246
23084SOL    HW171211   8.856   8.487   7.266
23084SOL    HW271212   8.827   8.378   7.149
23085SOL     OW71213   8.263   8.020   5.911
23085SOL    HW171214   8.270   7.931   5.865
23085SOL    HW271215   8.169   8.054   5.903
23086SOL     OW71216   0.105   8.052   6.792
23086SOL    HW171217   0.067   7.983   6.854
23086SOL    HW271218   0.187   8.016   6.748
23087SOL     OW71219   7.700   0.012   7.330
23087SOL    HW171220   7.670   0.069   7.406
23087SOL    HW271221   7.693  -0.085   7.356
23088SOL     OW71222   8.119   7.912   6.855
23088SOL    HW171223   8.085   7.823   6.825
23088SOL    HW271224   8.145   7.966   6.775
23089SOL     OW71225   7.921   7.948   5.777
23089SOL    HW171226   7.982   8.028   5.781
23089SOL    HW271227   7.826   7.979   5.784
23090SOL     OW71228   7.607   8.585   7.052
23090SOL    HW171229   7.629   8.524   7.128
23090SOL    HW271230   7.617   8.536   6.966
23091SOL     OW71231   8.795   8.507   6.820
23091SOL    HW171232   8.819   8.444   6.746
23091SOL    HW271233   8.705   8.547   6.802
23092SOL     OW71234   8.750   8.303   5.895
23092SOL    HW171235   8.664   8.272   5.937
23092SOL    HW271236   8.746   8.289   5.796
23093SOL     OW71237   7.531   8.706   6.608
23093SOL    HW171238   7.526   8.705   6.708
23093SOL    HW271239   7.448   8.665   6.570
23094SOL     OW71240   8.351   7.534   5.719
23094SOL    HW171241   8.402   7.535   5.633
23094SOL    HW271242   8.407   7.492   5.790
23095SOL     OW71243   0.174   7.583   6.109
23095SOL    HW171244   0.247   7.566   6.042
23095SOL    HW271245   0.143   7.496   6.147
23096SOL     OW71246   8.728   8.375   6.258
23096SOL    HW171247   8.788   8.294   6.260
23096SOL    HW271248   8.768   8.444   6.198
23097SOL     OW71249   8.278   8.721   7.008
23097SOL    HW171250   8.273   8.754   7.103
23097SOL    HW271251   8.192   8.740   6.962
23098SOL     OW71252   7.711   7.774   6.306
23098SOL    HW171253   7.632   7.825   6.272
23098SOL    HW271254   7.702   7.759   6.404
23099SOL     OW71255   8.270   8.450   6.958
23099SOL    HW171256   8.310   8.449   6.866
23099SOL    HW271257   8.280   8.542   6.998
23100SOL     OW71258   8.364   8.358   5.877
23100SOL    HW171259   8.427   8.396   5.809
23100SOL    HW271260   8.404   8.275   5.916
23101SOL     OW71261   7.820   8.736   7.076
23101SOL    HW171262   7.807   8.829   7.042
23101SOL    HW271263   7.736   8.684   7.063
23102SOL     OW71264   0.062   8.740   6.875
23102SOL    HW171265   0.122   8.743   6.955
23102SOL    HW271266  -0.013   8.804   6.888
23103SOL     OW71267   8.487   8.546   6.282
23103SOL    HW171268   8.417   8.499   6.336
23103SOL    HW271269   8.546   8.478   6.239
23104SOL     OW71270   8.462   7.684   6.557
23104SOL    HW171271   8.454   7.648   6.464
23104SOL    HW271272   8.460   7.608   6.622
23105SOL     OW71273   0.157   7.833   6.967
23105SOL    HW171274   0.230   7.902   6.971
23105SOL    HW271275   0.185   7.758   6.908
23106SOL     OW71276   7.703   8.796   5.876
23106SOL    HW171277   7.607   8.797   5.849
23106SOL    HW271278   7.715   8.849   5.960
23107SOL     OW71279   7.553   8.461   7.312
23107SOL    HW171280   7.476   8.428   7.366
23107SOL    HW271281   7.638   8.431   7.354
23108SOL     OW71282   8.120   7.651   7.075
23108SOL    HW171283   8.210   7.635   7.035
23108SOL    HW271284   8.128   7.656   7.174
23109SOL     OW71285   7.523   7.793   5.619
23109SOL    HW171286   7.431   7.765   5.590
23109SOL    HW271287   7.554   7.870   5.563
23110SOL     OW71288   8.888   8.304   6.984
23110SOL    HW171289   8.831   8.356   6.921
23110SOL    HW271290   8.984   8.316   6.960
23111SOL     OW71291   7.520   7.614   5.904
23111SOL    HW171292   7.503   7.697   5.850
23111SOL    HW271293   7.610   7.577   5.882
23112SOL     OW71294   8.631   8.783   5.705
23112SOL    HW171295   8.532   8.772   5.707
23112SOL    HW271296   8.665   8.798   5.798
23113SOL     OW71297   8.061   8.290   7.017
23113SOL    HW171298   8.117   8.371   7.000
23113SOL    HW271299   8.120   8.210   7.020
23114SOL     OW71300   8.164   8.013   7.294
23114SOL    HW171301   8.183   8.078   7.368
23114SOL    HW271302   8.224   7.933   7.303
23115SOL     OW71303   8.898   8.668   7.219
23115SOL    HW171304   8.889   8.658   7.318
23115SOL    HW271305   8.994   8.661   7.193
23116SOL     OW71306   0.122   8.331   6.840
23116SOL    HW171307   0.095   8.242   6.803
23116SOL    HW271308   0.123   8.399   6.767
23117SOL     OW71309   8.673   7.773   6.035
23117SOL    HW171310   8.738   7.699   6.024
23117SOL    HW271311   8.693   7.823   6.119
23118SOL     OW71312   8.042   8.193   6.238
23118SOL    HW171313   8.092   8.278   6.219
23118SOL    HW271314   7.954   8.195   6.190
23119SOL     OW71315   0.225   7.790   7.228
23119SOL    HW171316   0.208   7.821   7.134
23119SOL    HW271317   0.141   7.753   7.266
23120SOL     OW71318   0.178   8.382   7.103
23120SOL    HW171319   0.216   8.473   7.118
23120SOL    HW271320   0.170   8.365   7.004
23121SOL     OW71321   8.307   8.822   5.602
23121SOL    HW171322   8.261   8.837   5.690
23121SOL    HW271323   8.351   8.907   5.572
23122SOL     OW71324   8.307   8.404   6.447
23122SOL    HW171325   8.361   8.335   6.495
23122SOL    HW271326   8.275   8.473   6.513
23123SOL     OW71327   8.531   8.432   5.673
23123SOL    HW171328   8.508   8.485   5.591
23123SOL    HW271329   8.612   8.376   5.654
23124SOL     OW71330   7.669   8.762   7.430
23124SOL    HW171331   7.604   8.689   7.409
23124SOL    HW271332   7.673   8.776   7.528
23125SOL     OW71333   7.527   8.688   6.239
23125SOL    HW171334   7.526   8.641   6.327
23125SOL    HW271335   7.609   8.660   6.188
23126SOL     OW71336   8.120   8.839   7.210
23126SOL    HW171337   8.042   8.789   7.248
23126SOL    HW271338   8.117   8.934   7.241
23127SOL     OW71339   7.876   7.872   6.106
23127SOL    HW171340   7.906   7.800   6.044
23127SOL    HW271341   7.837   7.832   6.189
23128SOL     OW71342   0.153   8.935   6.690
23128SOL    HW171343   0.060   8.910   6.663
23128SOL    HW271344   0.179   8.885   6.772
23129SOL     OW71345   7.765   7.995   6.866
23129SOL    HW171346   7.803   7.936   6.938
23129SOL    HW271347   7.805   7.969   6.778
23130SOL     OW71348   8.872   7.662   6.698
23130SOL    HW171349   8.924   7.597   6.753
23130SOL    HW271350   8.823   7.725   6.759
23131SOL     OW71351   8.449   7.482   6.740
23131SOL    HW171352   8.386   7.410   6.709
23131SOL    HW271353   8.542   7.446   6.740
23132SOL     OW71354   8.218   8.778   5.887
23132SOL    HW171355   8.172   8.691   5.904
23132SOL    HW271356   8.309   8.775   5.928
23133SOL     OW71357   8.066   0.015   6.870
23133SOL    HW171358   8.061   0.097   6.927
23133SOL    HW271359   8.155   0.012   6.825
23134SOL     OW71360   8.800   7.500   5.754
23134SOL    HW171361   8.835   7.459   5.670
23134SOL    HW271362   8.710   7.462   5.774
23135SOL     OW71363   8.748   7.901   6.277
23135SOL    HW171364   8.689   7.981   6.281
23135SOL    HW271365   8.763   7.866   6.370
23136SOL     OW71366   0.041   7.669   6.468
23136SOL    HW171367  -0.043   7.668   6.522
23136SOL    HW271368   0.043   7.752   6.412
23137SOL     OW71369   7.487   8.525   5.886
23137SOL    HW171370   7.586   8.514   5.877
23137SOL    HW271371   7.447   8.439   5.918
23138SOL     OW71372   7.678   8.076   7.561
23138SOL    HW171373   7.585   8.074   7.598
23138SOL    HW271374   7.679   8.037   7.469
23139SOL     OW71375   7.673   7.723   8.444
23139SOL    HW171376   7.708   7.706   8.536
23139SOL    HW271377   7.585   7.678   8.432
23140SOL     OW71378   7.467   7.816   8.095
23140SOL    HW171379   7.385   7.859   8.134
23140SOL    HW271380   7.439   7.743   8.032
23141SOL     OW71381   8.017   8.723   8.613
23141SOL    HW171382   7.924   8.716   8.576
23141SOL    HW271383   8.028   8.812   8.657
23142SOL     OW71384   0.003   8.959   8.151
23142SOL    HW171385  -0.054   8.943   8.232
23142SOL    HW271386  -0.056   8.969   8.071
23143SOL     OW71387   0.191   8.066   8.304
23143SOL    HW171388   0.224   8.160   8.304
23143SOL    HW271389   0.242   8.012   8.370
23144SOL     OW71390   8.583   8.151   8.165
23144SOL    HW171391   8.640   8.229   8.140
23144SOL    HW271392   8.523   8.177   8.241
23145SOL     OW71393   0.203   8.055   7.679
23145SOL    HW171394   0.191   8.042   7.580
23145SOL    HW271395   0.173   7.974   7.728
23146SOL     OW71396   8.216   8.592   8.471
23146SOL    HW171397   8.138   8.609   8.531
23146SOL    HW271398   8.250   8.679   8.435
23147SOL     OW71399   8.133   8.460   8.113
23147SOL    HW171400   8.202   8.444   8.183
23147SOL    HW271401   8.060   8.517   8.151
23148SOL     OW71402   7.783   8.883   8.509
23148SOL    HW171403   7.705   8.852   8.456
23148SOL    HW271404   7.841   8.941   8.452
23149SOL     OW71405   8.908   8.953   8.787
23149SOL    HW171406   8.932   9.047   8.813
23149SOL    HW271407   8.892   8.899   8.869
23150SOL     OW71408   7.886   7.840   8.947
23150SOL    HW171409   7.968   7.784   8.956
23150SOL    HW271410   7.805   7.782   8.951
23151SOL     OW71411   7.679   0.161   7.931
23151SOL    HW171412   7.713   0.238   7.985
23151SOL    HW271413   7.723   0.161   7.841
23152SOL     OW71414   7.678   8.882   7.986
23152SOL    HW171415   7.652   8.978   7.986
23152SOL    HW271416   7.607   8.828   8.031
23153SOL     OW71417   7.688   8.539   8.334
23153SOL    HW171418   7.702   8.455   8.386
23153SOL    HW271419   7.633   8.603   8.389
23154SOL     OW71420   8.054   8.412   7.571
23154SOL    HW171421   8.061   8.496   7.517
23154SOL    HW271422   8.100   8.425   7.659
23155SOL     OW71423   0.042   7.562   8.928
23155SOL    HW171424   0.024   7.629   8.856
23155SOL    HW271425   0.039   7.608   9.017
23156SOL     OW71426   7.570   8.091   8.011
23156SOL    HW171427   7.525   8.003   8.028
23156SOL    HW271428   7.569   8.145   8.095
23157SOL     OW71429   7.475   0.044   7.565
23157SOL    HW171430   7.456  -0.052   7.586
23157SOL    HW271431   7.442   0.102   7.640
23158SOL     OW71432   0.137   8.370   8.060
23158SOL    HW171433   0.232   8.341   8.068
23158SOL    HW271434   0.129   8.435   7.985
23159SOL     OW71435   0.089   8.556   7.880
23159SOL    HW171436   0.175   8.558   7.828
23159SOL    HW271437   0.103   8.603   7.968
23160SOL     OW71438   8.061   8.813   8.174
23160SOL    HW171439   8.012   8.726   8.183
23160SOL    HW271440   8.038   8.856   8.087
23161SOL     OW71441   8.257   7.452   7.950
23161SOL    HW171442   8.297   7.543   7.941
23161SOL    HW271443   8.157   7.460   7.956
23162SOL     OW71444   7.645   8.424   8.712
23162SOL    HW171445   7.734   8.379   8.698
23162SOL    HW271446   7.572   8.359   8.693
23163SOL     OW71447   8.973   8.447   7.638
23163SOL    HW171448   8.910   8.371   7.651
23163SOL    HW271449   9.021   8.465   7.724
23164SOL     OW71450   8.914   8.865   8.401
23164SOL    HW171451   8.855   8.871   8.481
23164SOL    HW271452   8.899   8.777   8.355
23165SOL     OW71453   8.046   8.177   7.718
23165SOL    HW171454   8.070   8.246   7.650
23165SOL    HW271455   7.968   8.210   7.772
23166SOL     OW71456   8.729   7.793   8.392
23166SOL    HW171457   8.643   7.743   8.379
23166SOL    HW271458   8.791   7.739   8.448
23167SOL     OW71459   8.255   8.053   8.913
23167SOL    HW171460   8.208   8.050   9.002
23167SOL    HW271461   8.204   7.998   8.847
23168SOL     OW71462   8.439   7.858   8.690
23168SOL    HW171463   8.362   7.892   8.744
23168SOL    HW271464   8.405   7.807   8.611
23169SOL     OW71465   8.489   8.149   7.877
23169SOL    HW171466   8.515   8.145   7.973
23169SOL    HW271467   8.404   8.098   7.863
23170SOL     OW71468   7.524   8.259   8.237
23170SOL    HW171469   7.623   8.247   8.246
23170SOL    HW271470   7.500   8.354   8.258
23171SOL     OW71471   8.313   7.796   7.643
23171SOL    HW171472   8.372   7.859   7.594
23171SOL    HW271473   8.332   7.702   7.614
23172SOL     OW71474   8.810   8.592   7.993
23172SOL    HW171475   8.893   8.563   7.945
23172SOL    HW271476   8.761   8.659   7.937
23173SOL     OW71477   7.998   7.644   8.333
23173SOL    HW171478   7.993   7.639   8.433
23173SOL    HW271479   8.000   7.740   8.304
23174SOL     OW71480   8.456   8.904   7.925
23174SOL    HW171481   8.410   8.976   7.873
23174SOL    HW271482   8.452   8.924   8.023
23175SOL     OW71483   0.243   8.514   8.321
23175SOL    HW171484   0.181   8.499   8.245
23175SOL    HW271485   0.191   8.525   8.406
23176SOL     OW71486   8.675   8.998   8.954
23176SOL    HW171487   8.681   8.921   9.018
23176SOL    HW271488   8.623   8.972   8.874
23177SOL     OW71489   7.769   8.391   7.690
23177SOL    HW171490   7.851   8.430   7.648
23177SOL    HW271491   7.742   8.309   7.641
23178SOL     OW71492   8.906   8.183   8.176
23178SOL    HW171493   8.901   8.118   8.251
23178SOL    HW271494   8.986   8.242   8.189
23179SOL     OW71495   8.559   0.224   7.685
23179SOL    HW171496   8.499   0.162   7.735
23179SOL    HW271497   8.590   0.180   7.600
23180SOL     OW71498   7.650   7.733   8.946
23180SOL    HW171499   7.570   7.793   8.933
23180SOL    HW271500   7.640   7.684   9.032
23181SOL     OW71501   0.080   8.825   7.529
23181SOL    HW171502   0.048   8.919   7.519
23181SOL    HW271503   0.004   8.762   7.517
23182SOL     OW71504   8.848   7.555   7.874
23182SOL    HW171505   8.824   7.518   7.784
23182SOL    HW271506   8.947   7.571   7.878
23183SOL     OW71507   7.830   8.148   7.928
23183SOL    HW171508   7.875   8.058   7.925
23183SOL    HW271509   7.736   8.137   7.961
23184SOL     OW71510   8.062   7.570   7.565
23184SOL    HW171511   8.160   7.548   7.572
23184SOL    HW271512   8.031   7.553   7.472
23185SOL     OW71513   8.251   8.850   8.372
23185SOL    HW171514   8.341   8.864   8.330
23185SOL    HW271515   8.180   8.852   8.301
23186SOL     OW71516   8.370   7.951   8.347
23186SOL    HW171517   8.345   7.942   8.251
23186SOL    HW271518   8.418   7.869   8.378
23187SOL     OW71519   7.987   7.512   7.960
23187SOL    HW171520   7.906   7.513   8.018
23187SOL    HW271521   7.990   7.595   7.905
23188SOL     OW71522   8.882   8.636   7.489
23188SOL    HW171523   8.914   8.560   7.546
23188SOL    HW271524   8.790   8.663   7.519
23189SOL     OW71525   7.745   7.483   7.619
23189SOL    HW171526   7.794   7.567   7.598
23189SOL    HW271527   7.807   7.418   7.664
23190SOL     OW71528   8.383   7.684   7.928
23190SOL    HW171529   8.335   7.725   7.850
23190SOL    HW271530   8.482   7.682   7.909
23191SOL     OW71531   8.675   0.018   8.241
23191SOL    HW171532   8.696   0.092   8.176
23191SOL    HW271533   8.743   0.018   8.314
23192SOL     OW71534   7.907   8.600   8.189
23192SOL    HW171535   7.836   8.573   8.254
23192SOL    HW271536   7.881   8.572   8.096
23193SOL     OW71537   8.480   7.997   7.464
23193SOL    HW171538   8.439   8.079   7.425
23193SOL    HW271539   8.544   8.023   7.537
23194SOL     OW71540   7.526   8.004   8.834
23194SOL    HW171541   7.618   8.003   8.793
23194SOL    HW271542   7.520   8.078   8.901
23195SOL     OW71543   8.009   7.670   8.595
23195SOL    HW171544   8.047   7.586   8.632
23195SOL    HW271545   7.921   7.689   8.639
23196SOL     OW71546   8.314   7.902   8.090
23196SOL    HW171547   8.282   7.974   8.028
23196SOL    HW271548   8.338   7.821   8.037
23197SOL     OW71549   8.465   7.487   8.201
23197SOL    HW171550   8.393   7.492   8.132
23197SOL    HW271551   8.441   7.418   8.270
23198SOL     OW71552   8.877   8.621   8.315
23198SOL    HW171553   8.822   8.537   8.308
23198SOL    HW271554   8.903   8.650   8.223
23199SOL     OW71555   8.914   8.038   8.440
23199SOL    HW171556   8.884   7.943   8.447
23199SOL    HW271557   8.987   8.054   8.506
23200SOL     OW71558   7.936   8.833   7.622
23200SOL    HW171559   7.849   8.818   7.669
23200SOL    HW271560   7.919   8.859   7.527
23201SOL     OW71561   0.112   8.728   8.105
23201SOL    HW171562   0.211   8.736   8.119
23201SOL    HW271563   0.067   8.812   8.136
23202SOL     OW71564   8.838   8.023   7.526
23202SOL    HW171565   8.784   8.002   7.607
23202SOL    HW271566   8.929   7.982   7.535
23203SOL     OW71567   7.975   7.704   7.776
23203SOL    HW171568   8.002   7.645   7.701
23203SOL    HW271569   7.975   7.799   7.745
23204SOL     OW71570   8.512   8.795   8.788
23204SOL    HW171571   8.432   8.772   8.843
23204SOL    HW271572   8.595   8.769   8.837
23205SOL     OW71573   8.559   8.643   8.548
23205SOL    HW171574   8.519   8.687   8.629
23205SOL    HW271575   8.518   8.680   8.465
23206SOL     OW71576   0.086   8.547   8.527
23206SOL    HW171577   0.091   8.628   8.586
23206SOL    HW271578   0.000   8.549   8.476
23207SOL     OW71579   8.363   7.537   8.850
23207SOL    HW171580   8.388   7.517   8.755
23207SOL    HW271581   8.435   7.593   8.892
23208SOL     OW71582   8.153   8.498   7.816
23208SOL    HW171583   8.139   8.505   7.915
23208SOL    HW271584   8.237   8.447   7.798
23209SOL     OW71585   7.858   8.261   8.699
23209SOL    HW171586   7.944   8.273   8.749
23209SOL    HW271587   7.816   8.174   8.726
23210SOL     OW71588   8.722   7.834   8.710
23210SOL    HW171589   8.743   7.908   8.774
23210SOL    HW271590   8.633   7.851   8.667
23211SOL     OW71591   7.815   8.548   7.949
23211SOL    HW171592   7.808   8.631   7.893
23211SOL    HW271593   7.819   8.468   7.889
23212SOL     OW71594   8.014   7.985   8.313
23212SOL    HW171595   8.026   8.051   8.239
23212SOL    HW271596   8.060   8.019   8.396
23213SOL     OW71597   8.700   8.796   7.836
23213SOL    HW171598   8.750   8.873   7.876
23213SOL    HW271599   8.605   8.798   7.868
23214SOL     OW71600   8.720   8.893   8.590
23214SOL    HW171601   8.767   8.906   8.677
23214SOL    HW271602   8.654   8.819   8.599
23215SOL     OW71603   0.030   8.087   7.920
23215SOL    HW171604  -0.001   8.148   7.993
23215SOL    HW271605   0.080   8.139   7.851
23216SOL     OW71606   7.802   8.958   8.777
23216SOL    HW171607   7.781   8.914   8.690
23216SOL    HW271608   7.899   8.984   8.780
23217SOL     OW71609   7.850   8.199   0.046
23217SOL    HW171610   7.918   8.254  -0.001
23217SOL    HW271611   7.890   8.111   0.073
23218SOL     OW71612   0.035   8.227   0.118
23218SOL    HW171613  -0.057   8.265   0.113
23218SOL    HW271614   0.095   8.274   0.053
23219SOL     OW71615   8.021   8.318   8.477
23219SOL    HW171616   8.065   8.407   8.468
23219SOL    HW271617   7.958   8.318   8.554
23220SOL     OW71618   8.808   8.310   8.493
23220SOL    HW171619   8.733   8.310   8.427
23220SOL    HW271620   8.845   8.218   8.502
23221SOL     OW71621   8.657   7.973   7.723
23221SOL    HW171622   8.670   7.889   7.777
23221SOL    HW271623   8.628   8.047   7.783
23222SOL     OW71624   7.755   7.661   8.679
23222SOL    HW171625   7.732   7.698   8.769
23222SOL    HW271626   7.725   7.566   8.673
23223SOL     OW71627   7.485   8.758   8.730
23223SOL    HW171628   7.538   8.709   8.798
23223SOL    HW271629   7.507   8.856   8.735
23224SOL     OW71630   8.180   8.082   8.512
23224SOL    HW171631   8.239   8.056   8.436
23224SOL    HW271632   8.152   8.178   8.501
23225SOL     OW71633   7.755   7.511   8.066
23225SOL    HW171634   7.744   7.605   8.099
23225SOL    HW271635   7.750   7.448   8.143
23226SOL     OW71636   0.070   7.815   7.822
23226SOL    HW171637   0.072   7.739   7.886
23226SOL    HW271638   0.022   7.892   7.862
23227SOL     OW71639   8.471   8.214   8.414
23227SOL    HW171640   8.486   8.235   8.510
23227SOL    HW271641   8.441   8.119   8.405
23228SOL     OW71642   8.988   7.722   7.573
23228SOL    HW171643   8.927   7.647   7.596
23228SOL    HW271644   9.010   7.774   7.656
23229SOL     OW71645   8.751   8.286   7.490
23229SOL    HW171646   8.785   8.193   7.505
23229SOL    HW271647   8.769   8.313   7.395
23230SOL     OW71648   8.516   8.781   8.297
23230SOL    HW171649   8.523   8.697   8.242
23230SOL    HW271650   8.578   8.850   8.261
23231SOL     OW71651   7.767   8.258   8.397
23231SOL    HW171652   7.860   8.294   8.402
23231SOL    HW271653   7.761   8.173   8.449
23232SOL     OW71654   7.787   7.957   8.454
23232SOL    HW171655   7.735   7.874   8.437
23232SOL    HW271656   7.864   7.962   8.390
23233SOL     OW71657   8.586   7.828   0.126
23233SOL    HW171658   8.541   7.891   0.190
23233SOL    HW271659   8.679   7.859   0.109
23234SOL     OW71660   8.608   7.655   8.925
23234SOL    HW171661   8.608   7.719   9.002
23234SOL    HW271662   8.636   7.703   8.842
23235SOL     OW71663   7.456   8.774   7.648
23235SOL    HW171664   7.363   8.795   7.617
23235SOL    HW271665   7.466   8.675   7.661
23236SOL     OW71666   8.450   8.244   8.686
23236SOL    HW171667   8.491   8.212   8.772
23236SOL    HW271668   8.354   8.217   8.683
23237SOL     OW71669   7.488   7.992   8.562
23237SOL    HW171670   7.573   7.959   8.521
23237SOL    HW271671   7.501   8.007   8.660
23238SOL     OW71672   8.263   8.020   7.773
23238SOL    HW171673   8.270   7.931   7.727
23238SOL    HW271674   8.169   8.054   7.765
23239SOL     OW71675   0.105   8.052   8.654
23239SOL    HW171676   0.067   7.983   8.716
23239SOL    HW271677   0.187   8.016   8.610
23240SOL     OW71678   8.119   7.912   8.717
23240SOL    HW171679   8.085   7.823   8.687
23240SOL    HW271680   8.145   7.966   8.637
23241SOL     OW71681   7.921   7.948   7.639
23241SOL    HW171682   7.982   8.028   7.643
23241SOL    HW271683   7.826   7.979   7.646
23242SOL     OW71684   7.607   8.585   8.914
23242SOL    HW171685   7.629   8.524   8.990
23242SOL    HW271686   7.617   8.536   8.828
23243SOL     OW71687   8.795   8.507   8.682
23243SOL    HW171688   8.819   8.444   8.608
23243SOL    HW271689   8.705   8.547   8.664
23244SOL     OW71690   8.750   8.303   7.757
23244SOL    HW171691   8.664   8.272   7.799
23244SOL    HW271692   8.746   8.289   7.658
23245SOL     OW71693   7.531   8.706   8.470
23245SOL    HW171694   7.526   8.705   8.570
23245SOL    HW271695   7.448   8.665   8.432
23246SOL     OW71696   8.351   7.534   7.581
23246SOL    HW171697   8.402   7.535   7.495
23246SOL    HW271698   8.407   7.492   7.652
23247SOL     OW71699   0.174   7.583   7.971
23247SOL    HW171700   0.247   7.566   7.904
23247SOL    HW271701   0.143   7.496   8.009
23248SOL     OW71702   8.728   8.375   8.120
23248SOL    HW171703   8.788   8.294   8.122
23248SOL    HW271704   8.768   8.444   8.060
23249SOL     OW71705   7.711   7.774   8.168
23249SOL    HW171706   7.632   7.825   8.134
23249SOL    HW271707   7.702   7.759   8.266
23250SOL     OW71708   8.270   8.450   8.820
23250SOL    HW171709   8.310   8.449   8.728
23250SOL    HW271710   8.280   8.542   8.860
23251SOL     OW71711   8.364   8.358   7.739
23251SOL    HW171712   8.427   8.396   7.671
23251SOL    HW271713   8.404   8.275   7.778
23252SOL     OW71714   7.820   8.736   8.938
23252SOL    HW171715   7.807   8.829   8.904
23252SOL    HW271716   7.736   8.684   8.925
23253SOL     OW71717   0.062   8.740   8.737
23253SOL    HW171718   0.122   8.743   8.817
23253SOL    HW271719  -0.013   8.804   8.750
23254SOL     OW71720   8.487   8.546   8.144
23254SOL    HW171721   8.417   8.499   8.198
23254SOL    HW271722   8.546   8.478   8.101
23255SOL     OW71723   8.462   7.684   8.419
23255SOL    HW171724   8.454   7.648   8.326
23255SOL    HW271725   8.460   7.608   8.484
23256SOL     OW71726   0.157   7.833   8.829
23256SOL    HW171727   0.230   7.902   8.833
23256SOL    HW271728   0.185   7.758   8.770
23257SOL     OW71729   7.703   8.796   7.738
23257SOL    HW171730   7.607   8.797   7.711
23257SOL    HW271731   7.715   8.849   7.822
23258SOL     OW71732   7.523   7.793   7.481
23258SOL    HW171733   7.431   7.765   7.452
23258SOL    HW271734   7.554   7.870   7.425
23259SOL     OW71735   8.888   8.304   8.846
23259SOL    HW171736   8.831   8.356   8.783
23259SOL    HW271737   8.984   8.316   8.822
23260SOL     OW71738   7.520   7.614   7.766
23260SOL    HW171739   7.503   7.697   7.712
23260SOL    HW271740   7.610   7.577   7.744
23261SOL     OW71741   8.631   8.783   7.567
23261SOL    HW171742   8.532   8.772   7.569
23261SOL    HW271743   8.665   8.798   7.660
23262SOL     OW71744   8.061   8.290   8.879
23262SOL    HW171745   8.117   8.371   8.862
23262SOL    HW271746   8.120   8.210   8.882
23263SOL     OW71747   0.122   8.331   8.702
23263SOL    HW171748   0.095   8.242   8.665
23263SOL    HW271749   0.123   8.399   8.629
23264SOL     OW71750   8.673   7.773   7.897
23264SOL    HW171751   8.738   7.699   7.886
23264SOL    HW271752   8.693   7.823   7.981
23265SOL     OW71753   8.042   8.193   8.100
23265SOL    HW171754   8.092   8.278   8.081
23265SOL    HW271755   7.954   8.195   8.052
23266SOL     OW71756   0.225   7.790   0.090
23266SOL    HW171757   0.208   7.821  -0.004
23266SOL    HW271758   0.141   7.753   0.128
23267SOL     OW71759   0.178   8.382   8.965
23267SOL    HW171760   0.216   8.473   8.980
23267SOL    HW271761   0.170   8.365   8.866
23268SOL     OW71762   8.307   8.822   7.464
23268SOL    HW171763   8.261   8.837   7.552
23268SOL    HW271764   8.351   8.907   7.434
23269SOL     OW71765   8.307   8.404   8.309
23269SOL    HW171766   8.361   8.335   8.357
23269SOL    HW271767   8.275   8.473   8.375
23270SOL     OW71768   8.531   8.432   7.535
23270SOL    HW171769   8.508   8.485   7.453
23270SOL    HW271770   8.612   8.376   7.516
23271SOL     OW71771   7.527   8.688   8.101
23271SOL    HW171772   7.526   8.641   8.189
23271SOL    HW271773   7.609   8.660   8.050
23272SOL     OW71774   7.876   7.872   7.968
23272SOL    HW171775   7.906   7.800   7.906
23272SOL    HW271776   7.837   7.832   8.051
23273SOL     OW71777   0.153   8.935   8.552
23273SOL    HW171778   0.060   8.910   8.525
23273SOL    HW271779   0.179   8.885   8.634
23274SOL     OW71780   7.765   7.995   8.728
23274SOL    HW171781   7.803   7.936   8.800
23274SOL    HW271782   7.805   7.969   8.640
23275SOL     OW71783   8.872   7.662   8.560
23275SOL    HW171784   8.924   7.597   8.615
23275SOL    HW271785   8.823   7.725   8.621
23276SOL     OW71786   8.449   7.482   8.602
23276SOL    HW171787   8.386   7.410   8.571
23276SOL    HW271788   8.542   7.446   8.602
23277SOL     OW71789   8.218   8.778   7.749
23277SOL    HW171790   8.172   8.691   7.766
23277SOL    HW271791   8.309   8.775   7.790
23278SOL     OW71792   8.066   0.015   8.732
23278SOL    HW171793   8.061   0.097   8.789
23278SOL    HW271794   8.155   0.012   8.687
23279SOL     OW71795   8.800   7.500   7.616
23279SOL    HW171796   8.835   7.459   7.532
23279SOL    HW271797   8.710   7.462   7.636
23280SOL     OW71798   8.748   7.901   8.139
23280SOL    HW171799   8.689   7.981   8.143
23280SOL    HW271800   8.763   7.866   8.232
23281SOL     OW71801   0.041   7.669   8.330
23281SOL    HW171802  -0.043   7.668   8.384
23281SOL    HW271803   0.043   7.752   8.274
23282SOL     OW71804   7.487   8.525   7.748
23282SOL    HW171805   7.586   8.514   7.739
23282SOL    HW271806   7.447   8.439   7.780
   9.00000   9.00000   9.00000
