; leucine_GMX.top created by acpype (v: 2023.10.27) on Mon Feb  9 17:52:41 2026

[ defaults ]
; nbfunc        comb-rule       gen-pairs       fudgeLJ fudgeQQ
1               2               yes             0.5     0.8333333333

; Include leucine_GMX.itp topology
#include "leucine_GMX.itp"

; Ligand position restraints
#ifdef POSRES_LIG
#include "posre_leucine.itp"
#endif

[ system ]
 leucine

[ molecules ]
; Compound        nmols
 leucine          1     
