6106
    22
   1.1030000  -1.2860000   1.2670000   1.5540000  -1.0510000  -0.9430000
   1.7310000   1.7540000   0.0120000  -1.8020000   0.1910000  -0.4090000
  -0.5640000   1.0790000  -0.6490000   0.6250000   0.8410000   0.2950000
  -2.3420000   0.3180000   1.0160000  -1.4510000  -1.2720000  -0.6980000
   1.1460000  -0.5750000   0.1090000  -2.5820000   0.5080000  -1.1110000
  -0.2440000   0.9570000  -1.6940000  -0.8800000   2.1270000  -0.5530000
   0.3270000   0.9880000   1.3370000  -1.6490000  -0.0800000   1.7630000
  -2.5450000   1.3660000   1.2610000  -3.2830000  -0.2350000   1.1150000
  -0.8590000  -1.3870000  -1.6110000  -0.9910000  -1.7960000   0.1400000
  -2.3870000  -1.8170000  -0.8820000   1.4150000   2.7160000   0.1370000
   1.9990000   1.6790000  -0.9690000   1.4350000  -2.2010000   1.1460000
