leucine_GMX.gro created by acpype (v: 2023.10.27) on Mon Feb  9 17:52:41 2026
 22
    1  LEU    O    1   0.110  -0.129   0.127
    1  LEU  OXT    2   0.155  -0.105  -0.094
    1  LEU    N    3   0.173   0.175   0.001
    1  LEU   CG    4  -0.180   0.019  -0.041
    1  LEU   CB    5  -0.056   0.108  -0.065
    1  LEU   CA    6   0.062   0.084   0.029
    1  LEU  CD1    7  -0.234   0.032   0.102
    1  LEU  CD2    8  -0.145  -0.127  -0.070
    1  LEU    C    9   0.115  -0.057   0.011
    1  LEU   HG   10  -0.258   0.051  -0.111
    1  LEU  HB1   11  -0.024   0.096  -0.169
    1  LEU  HB2   12  -0.088   0.213  -0.055
    1  LEU   HA   13   0.033   0.099   0.134
    1  LEU HD11   14  -0.165  -0.008   0.176
    1  LEU HD12   15  -0.255   0.137   0.126
    1  LEU HD13   16  -0.328  -0.024   0.112
    1  LEU HD21   17  -0.086  -0.139  -0.161
    1  LEU HD22   18  -0.099  -0.180   0.014
    1  LEU HD23   19  -0.239  -0.182  -0.088
    1  LEU   H1   20   0.142   0.272   0.014
    1  LEU   H2   21   0.200   0.168  -0.097
    1  LEU    H   22   0.144  -0.220   0.115
   10.56400     9.83400     6.91400
