; bisphenol-s_GMX.itp created by acpype (v: 2023.10.27) on Mon Feb  9 17:34:25 2026

[ atomtypes ]
;name   bond_type     mass     charge   ptype   sigma         epsilon       Amb
 sy       sy          0.00000  0.00000   A     4.05840e-01   2.56898e-01 ; 2.28  0.0614
 o        o           0.00000  0.00000   A     3.04812e-01   6.12119e-01 ; 1.71  0.1463
 oh       oh          0.00000  0.00000   A     3.24287e-01   3.89112e-01 ; 1.82  0.0930
 ca       ca          0.00000  0.00000   A     3.31521e-01   4.13379e-01 ; 1.86  0.0988
 ha       ha          0.00000  0.00000   A     2.62548e-01   6.73624e-02 ; 1.47  0.0161
 ho       ho          0.00000  0.00000   A     5.37925e-02   1.96648e-02 ; 0.30  0.0047

[ moleculetype ]
;name            nrexcl
 bisphenol-s      3

[ atoms ]
;   nr  type  resi  res  atom  cgnr     charge      mass       ; qtot   bond_type
     1   sy     1   UNL     S    1     1.454600     32.06000 ; qtot 1.455
     2    o     1   UNL     O    2    -0.661800     16.00000 ; qtot 0.793
     3    o     1   UNL    O1    3    -0.661800     16.00000 ; qtot 0.131
     4   oh     1   UNL    O2    4    -0.487100     16.00000 ; qtot -0.356
     5   oh     1   UNL    O3    5    -0.487100     16.00000 ; qtot -0.843
     6   ca     1   UNL     C    6    -0.413500     12.01000 ; qtot -1.257
     7   ca     1   UNL    C1    7    -0.413500     12.01000 ; qtot -1.670
     8   ca     1   UNL    C2    8     0.019500     12.01000 ; qtot -1.651
     9   ca     1   UNL    C3    9     0.019500     12.01000 ; qtot -1.631
    10   ca     1   UNL    C4   10     0.019500     12.01000 ; qtot -1.612
    11   ca     1   UNL    C5   11     0.019500     12.01000 ; qtot -1.592
    12   ca     1   UNL    C6   12    -0.214500     12.01000 ; qtot -1.807
    13   ca     1   UNL    C7   13    -0.214500     12.01000 ; qtot -2.021
    14   ca     1   UNL    C8   14    -0.214500     12.01000 ; qtot -2.236
    15   ca     1   UNL    C9   15    -0.214500     12.01000 ; qtot -2.450
    16   ca     1   UNL   C10   16     0.187100     12.01000 ; qtot -2.263
    17   ca     1   UNL   C11   17     0.187100     12.01000 ; qtot -2.076
    18   ha     1   UNL     H   18     0.154500      1.00800 ; qtot -1.922
    19   ha     1   UNL    H1   19     0.154500      1.00800 ; qtot -1.767
    20   ha     1   UNL    H2   20     0.154500      1.00800 ; qtot -1.613
    21   ha     1   UNL    H3   21     0.154500      1.00800 ; qtot -1.458
    22   ha     1   UNL    H4   22     0.151000      1.00800 ; qtot -1.307
    23   ha     1   UNL    H5   23     0.151000      1.00800 ; qtot -1.156
    24   ha     1   UNL    H6   24     0.151000      1.00800 ; qtot -1.005
    25   ha     1   UNL    H7   25     0.151000      1.00800 ; qtot -0.854
    26   ho     1   UNL    H8   26     0.427000      1.00800 ; qtot -0.427
    27   ho     1   UNL    H9   27     0.427000      1.00800 ; qtot -0.000

[ bonds ]
;   ai     aj funct   r             k
     1      2   1    1.4656e-01    5.1436e+05 ;      S - O     
     1      3   1    1.4656e-01    5.1436e+05 ;      S - O1    
     1      6   1    1.7913e-01    1.7558e+05 ;      S - C     
     1      7   1    1.7913e-01    1.7558e+05 ;      S - C1    
     4     16   1    1.3644e-01    2.9167e+05 ;     O2 - C10   
     4     26   1    9.7250e-02    4.4811e+05 ;     O2 - H8    
     5     17   1    1.3644e-01    2.9167e+05 ;     O3 - C11   
     5     27   1    9.7250e-02    4.4811e+05 ;     O3 - H9    
     6      8   1    1.3986e-01    2.9644e+05 ;      C - C2    
     6     10   1    1.3986e-01    2.9644e+05 ;      C - C4    
     7      9   1    1.3986e-01    2.9644e+05 ;     C1 - C3    
     7     11   1    1.3986e-01    2.9644e+05 ;     C1 - C5    
     8     12   1    1.3986e-01    2.9644e+05 ;     C2 - C6    
     8     18   1    1.0860e-01    3.0183e+05 ;     C2 - H     
     9     13   1    1.3986e-01    2.9644e+05 ;     C3 - C7    
     9     19   1    1.0860e-01    3.0183e+05 ;     C3 - H1    
    10     14   1    1.3986e-01    2.9644e+05 ;     C4 - C8    
    10     20   1    1.0860e-01    3.0183e+05 ;     C4 - H2    
    11     15   1    1.3986e-01    2.9644e+05 ;     C5 - C9    
    11     21   1    1.0860e-01    3.0183e+05 ;     C5 - H3    
    12     16   1    1.3986e-01    2.9644e+05 ;     C6 - C10   
    12     22   1    1.0860e-01    3.0183e+05 ;     C6 - H4    
    13     17   1    1.3986e-01    2.9644e+05 ;     C7 - C11   
    13     23   1    1.0860e-01    3.0183e+05 ;     C7 - H5    
    14     16   1    1.3986e-01    2.9644e+05 ;     C8 - C10   
    14     24   1    1.0860e-01    3.0183e+05 ;     C8 - H6    
    15     17   1    1.3986e-01    2.9644e+05 ;     C9 - C11   
    15     25   1    1.0860e-01    3.0183e+05 ;     C9 - H7    

[ pairs ]
;   ai     aj    funct
     1     12      1 ;      S - C6    
     1     13      1 ;      S - C7    
     1     14      1 ;      S - C8    
     1     15      1 ;      S - C9    
     1     18      1 ;      S - H     
     1     19      1 ;      S - H1    
     1     20      1 ;      S - H2    
     1     21      1 ;      S - H3    
     2      8      1 ;      O - C2    
     2      9      1 ;      O - C3    
     2     10      1 ;      O - C4    
     2     11      1 ;      O - C5    
     3      8      1 ;     O1 - C2    
     3      9      1 ;     O1 - C3    
     3     10      1 ;     O1 - C4    
     3     11      1 ;     O1 - C5    
     4      8      1 ;     O2 - C2    
     4     10      1 ;     O2 - C4    
     4     22      1 ;     O2 - H4    
     4     24      1 ;     O2 - H6    
     5      9      1 ;     O3 - C3    
     5     11      1 ;     O3 - C5    
     5     23      1 ;     O3 - H5    
     5     25      1 ;     O3 - H7    
     6      9      1 ;      C - C3    
     6     11      1 ;      C - C5    
     6     16      1 ;      C - C10   
     6     22      1 ;      C - H4    
     6     24      1 ;      C - H6    
     7      8      1 ;     C1 - C2    
     7     10      1 ;     C1 - C4    
     7     17      1 ;     C1 - C11   
     7     23      1 ;     C1 - H5    
     7     25      1 ;     C1 - H7    
     8     14      1 ;     C2 - C8    
     8     20      1 ;     C2 - H2    
     9     15      1 ;     C3 - C9    
     9     21      1 ;     C3 - H3    
    10     12      1 ;     C4 - C6    
    10     18      1 ;     C4 - H     
    11     13      1 ;     C5 - C7    
    11     19      1 ;     C5 - H1    
    12     24      1 ;     C6 - H6    
    12     26      1 ;     C6 - H8    
    13     25      1 ;     C7 - H7    
    13     27      1 ;     C7 - H9    
    14     22      1 ;     C8 - H4    
    14     26      1 ;     C8 - H8    
    15     23      1 ;     C9 - H5    
    15     27      1 ;     C9 - H9    
    16     18      1 ;    C10 - H     
    16     20      1 ;    C10 - H2    
    17     19      1 ;    C11 - H1    
    17     21      1 ;    C11 - H3    
    18     22      1 ;      H - H4    
    19     23      1 ;     H1 - H5    
    20     24      1 ;     H2 - H6    
    21     25      1 ;     H3 - H7    

[ angles ]
;   ai     aj     ak    funct   theta         cth
     1      6      8      1    1.1941e+02    5.2785e+02 ;      S - C      - C2    
     1      6     10      1    1.1941e+02    5.2785e+02 ;      S - C      - C4    
     1      7      9      1    1.1941e+02    5.2785e+02 ;      S - C1     - C3    
     1      7     11      1    1.1941e+02    5.2785e+02 ;      S - C1     - C5    
     2      1      3      1    1.2138e+02    1.3201e+03 ;      O - S      - O1    
     2      1      6      1    1.0834e+02    1.0078e+03 ;      O - S      - C     
     2      1      7      1    1.0834e+02    1.0078e+03 ;      O - S      - C1    
     3      1      6      1    1.0834e+02    1.0078e+03 ;     O1 - S      - C     
     3      1      7      1    1.0834e+02    1.0078e+03 ;     O1 - S      - C1    
     4     16     12      1    1.1990e+02    6.5990e+02 ;     O2 - C10    - C6    
     4     16     14      1    1.1990e+02    6.5990e+02 ;     O2 - C10    - C8    
     5     17     13      1    1.1990e+02    6.5990e+02 ;     O3 - C11    - C7    
     5     17     15      1    1.1990e+02    6.5990e+02 ;     O3 - C11    - C9    
     6      1      7      1    1.0478e+02    7.7705e+02 ;      C - S      - C1    
     6      8     12      1    1.2002e+02    5.3279e+02 ;      C - C2     - C6    
     6      8     18      1    1.1988e+02    3.7572e+02 ;      C - C2     - H     
     6     10     14      1    1.2002e+02    5.3279e+02 ;      C - C4     - C8    
     6     10     20      1    1.1988e+02    3.7572e+02 ;      C - C4     - H2    
     7      9     13      1    1.2002e+02    5.3279e+02 ;     C1 - C3     - C7    
     7      9     19      1    1.1988e+02    3.7572e+02 ;     C1 - C3     - H1    
     7     11     15      1    1.2002e+02    5.3279e+02 ;     C1 - C5     - C9    
     7     11     21      1    1.1988e+02    3.7572e+02 ;     C1 - C5     - H3    
     8      6     10      1    1.2002e+02    5.3279e+02 ;     C2 - C      - C4    
     8     12     16      1    1.2002e+02    5.3279e+02 ;     C2 - C6     - C10   
     8     12     22      1    1.1988e+02    3.7572e+02 ;     C2 - C6     - H4    
     9      7     11      1    1.2002e+02    5.3279e+02 ;     C3 - C1     - C5    
     9     13     17      1    1.2002e+02    5.3279e+02 ;     C3 - C7     - C11   
     9     13     23      1    1.1988e+02    3.7572e+02 ;     C3 - C7     - H5    
    10     14     16      1    1.2002e+02    5.3279e+02 ;     C4 - C8     - C10   
    10     14     24      1    1.1988e+02    3.7572e+02 ;     C4 - C8     - H6    
    11     15     17      1    1.2002e+02    5.3279e+02 ;     C5 - C9     - C11   
    11     15     25      1    1.1988e+02    3.7572e+02 ;     C5 - C9     - H7    
    12      8     18      1    1.1988e+02    3.7572e+02 ;     C6 - C2     - H     
    12     16     14      1    1.2002e+02    5.3279e+02 ;     C6 - C10    - C8    
    13      9     19      1    1.1988e+02    3.7572e+02 ;     C7 - C3     - H1    
    13     17     15      1    1.2002e+02    5.3279e+02 ;     C7 - C11    - C9    
    14     10     20      1    1.1988e+02    3.7572e+02 ;     C8 - C4     - H2    
    15     11     21      1    1.1988e+02    3.7572e+02 ;     C9 - C5     - H3    
    16      4     26      1    1.0858e+02    5.6409e+02 ;    C10 - O2     - H8    
    16     12     22      1    1.1988e+02    3.7572e+02 ;    C10 - C6     - H4    
    16     14     24      1    1.1988e+02    3.7572e+02 ;    C10 - C8     - H6    
    17      5     27      1    1.0858e+02    5.6409e+02 ;    C11 - O3     - H9    
    17     13     23      1    1.1988e+02    3.7572e+02 ;    C11 - C7     - H5    
    17     15     25      1    1.1988e+02    3.7572e+02 ;    C11 - C9     - H7    

[ dihedrals ] ; propers
; for gromacs 4.5 or higher, using funct 9
;    i      j      k      l   func   phase     kd      pn
     1      6      8     12      9   180.00  15.16700   2 ;      S-     C-    C2-    C6
     1      6      8     18      9   180.00  15.16700   2 ;      S-     C-    C2-     H
     1      6     10     14      9   180.00  15.16700   2 ;      S-     C-    C4-    C8
     1      6     10     20      9   180.00  15.16700   2 ;      S-     C-    C4-    H2
     1      7      9     13      9   180.00  15.16700   2 ;      S-    C1-    C3-    C7
     1      7      9     19      9   180.00  15.16700   2 ;      S-    C1-    C3-    H1
     1      7     11     15      9   180.00  15.16700   2 ;      S-    C1-    C5-    C9
     1      7     11     21      9   180.00  15.16700   2 ;      S-    C1-    C5-    H3
     2      1      6      8      9   180.00   5.43920   2 ;      O-     S-     C-    C2
     2      1      6     10      9   180.00   5.43920   2 ;      O-     S-     C-    C4
     2      1      7      9      9   180.00   5.43920   2 ;      O-     S-    C1-    C3
     2      1      7     11      9   180.00   5.43920   2 ;      O-     S-    C1-    C5
     3      1      6      8      9   180.00   5.43920   2 ;     O1-     S-     C-    C2
     3      1      6     10      9   180.00   5.43920   2 ;     O1-     S-     C-    C4
     3      1      7      9      9   180.00   5.43920   2 ;     O1-     S-    C1-    C3
     3      1      7     11      9   180.00   5.43920   2 ;     O1-     S-    C1-    C5
     4     16     12      8      9   180.00  15.16700   2 ;     O2-   C10-    C6-    C2
     4     16     12     22      9   180.00  15.16700   2 ;     O2-   C10-    C6-    H4
     4     16     14     10      9   180.00  15.16700   2 ;     O2-   C10-    C8-    C4
     4     16     14     24      9   180.00  15.16700   2 ;     O2-   C10-    C8-    H6
     5     17     13      9      9   180.00  15.16700   2 ;     O3-   C11-    C7-    C3
     5     17     13     23      9   180.00  15.16700   2 ;     O3-   C11-    C7-    H5
     5     17     15     11      9   180.00  15.16700   2 ;     O3-   C11-    C9-    C5
     5     17     15     25      9   180.00  15.16700   2 ;     O3-   C11-    C9-    H7
     6      1      7      9      9   180.00   5.43920   2 ;      C-     S-    C1-    C3
     6      1      7     11      9   180.00   5.43920   2 ;      C-     S-    C1-    C5
     6      8     12     16      9   180.00  15.16700   2 ;      C-    C2-    C6-   C10
     6      8     12     22      9   180.00  15.16700   2 ;      C-    C2-    C6-    H4
     6     10     14     16      9   180.00  15.16700   2 ;      C-    C4-    C8-   C10
     6     10     14     24      9   180.00  15.16700   2 ;      C-    C4-    C8-    H6
     7      1      6      8      9   180.00   5.43920   2 ;     C1-     S-     C-    C2
     7      1      6     10      9   180.00   5.43920   2 ;     C1-     S-     C-    C4
     7      9     13     17      9   180.00  15.16700   2 ;     C1-    C3-    C7-   C11
     7      9     13     23      9   180.00  15.16700   2 ;     C1-    C3-    C7-    H5
     7     11     15     17      9   180.00  15.16700   2 ;     C1-    C5-    C9-   C11
     7     11     15     25      9   180.00  15.16700   2 ;     C1-    C5-    C9-    H7
     8      6     10     14      9   180.00  15.16700   2 ;     C2-     C-    C4-    C8
     8      6     10     20      9   180.00  15.16700   2 ;     C2-     C-    C4-    H2
     8     12     16     14      9   180.00  15.16700   2 ;     C2-    C6-   C10-    C8
     9      7     11     15      9   180.00  15.16700   2 ;     C3-    C1-    C5-    C9
     9      7     11     21      9   180.00  15.16700   2 ;     C3-    C1-    C5-    H3
     9     13     17     15      9   180.00  15.16700   2 ;     C3-    C7-   C11-    C9
    10      6      8     12      9   180.00  15.16700   2 ;     C4-     C-    C2-    C6
    10      6      8     18      9   180.00  15.16700   2 ;     C4-     C-    C2-     H
    10     14     16     12      9   180.00  15.16700   2 ;     C4-    C8-   C10-    C6
    11      7      9     13      9   180.00  15.16700   2 ;     C5-    C1-    C3-    C7
    11      7      9     19      9   180.00  15.16700   2 ;     C5-    C1-    C3-    H1
    11     15     17     13      9   180.00  15.16700   2 ;     C5-    C9-   C11-    C7
    12     16      4     26      9   180.00   3.57732   2 ;     C6-   C10-    O2-    H8
    12     16     14     24      9   180.00  15.16700   2 ;     C6-   C10-    C8-    H6
    13     17      5     27      9   180.00   3.57732   2 ;     C7-   C11-    O3-    H9
    13     17     15     25      9   180.00  15.16700   2 ;     C7-   C11-    C9-    H7
    14     16      4     26      9   180.00   3.57732   2 ;     C8-   C10-    O2-    H8
    14     16     12     22      9   180.00  15.16700   2 ;     C8-   C10-    C6-    H4
    15     17      5     27      9   180.00   3.57732   2 ;     C9-   C11-    O3-    H9
    15     17     13     23      9   180.00  15.16700   2 ;     C9-   C11-    C7-    H5
    16     12      8     18      9   180.00  15.16700   2 ;    C10-    C6-    C2-     H
    16     14     10     20      9   180.00  15.16700   2 ;    C10-    C8-    C4-    H2
    17     13      9     19      9   180.00  15.16700   2 ;    C11-    C7-    C3-    H1
    17     15     11     21      9   180.00  15.16700   2 ;    C11-    C9-    C5-    H3
    18      8     12     22      9   180.00  15.16700   2 ;      H-    C2-    C6-    H4
    19      9     13     23      9   180.00  15.16700   2 ;     H1-    C3-    C7-    H5
    20     10     14     24      9   180.00  15.16700   2 ;     H2-    C4-    C8-    H6
    21     11     15     25      9   180.00  15.16700   2 ;     H3-    C5-    C9-    H7

[ dihedrals ] ; impropers
; treated as propers in GROMACS to use correct AMBER analytical function
;    i      j      k      l   func   phase     kd      pn
     1      6     10      8      4   180.00   4.60240   2 ;      S-     C-    C4-    C2
     1      7     11      9      4   180.00   4.60240   2 ;      S-    C1-    C5-    C3
     6     12      8     18      4   180.00   4.60240   2 ;      C-    C6-    C2-     H
     6     14     10     20      4   180.00   4.60240   2 ;      C-    C8-    C4-    H2
     7     13      9     19      4   180.00   4.60240   2 ;     C1-    C7-    C3-    H1
     7     15     11     21      4   180.00   4.60240   2 ;     C1-    C9-    C5-    H3
     8     16     12     22      4   180.00   4.60240   2 ;     C2-   C10-    C6-    H4
     9     17     13     23      4   180.00   4.60240   2 ;     C3-   C11-    C7-    H5
    10     16     14     24      4   180.00   4.60240   2 ;     C4-   C10-    C8-    H6
    11     17     15     25      4   180.00   4.60240   2 ;     C5-   C11-    C9-    H7
    12     14     16      4      4   180.00   4.60240   2 ;     C6-    C8-   C10-    O2
    13     15     17      5      4   180.00   4.60240   2 ;     C7-    C9-   C11-    O3
