; bisphenol-s_GMX.top created by acpype (v: 2023.10.27) on Mon Feb  9 17:34:25 2026

[ defaults ]
; nbfunc        comb-rule       gen-pairs       fudgeLJ fudgeQQ
1               2               yes             0.5     0.8333333333

; Include bisphenol-s_GMX.itp topology
#include "bisphenol-s_GMX.itp"

; Ligand position restraints
#ifdef POSRES_LIG
#include "posre_bisphenol-s.itp"
#endif

[ system ]
 bisphenol-s

[ molecules ]
; Compound        nmols
 bisphenol-s      1     
