; bisphenol-s_GMX_OPLS.itp created by acpype (v: 2023.10.27) on Mon Feb  9 17:34:25 2026

; For OPLS atomtypes manual fine tuning
; AC_at:OPLS_at:OPLScode: Possible_Alternatives (see ffoplsaa.atp and ffoplsaanb.itp)
; sy:x:opls_x: []
; o:O:opls_236: ['272']
; oh:OH:opls_154: ['167']
; ca:CA:opls_145: ['166', '501', '502']
; ha:HA:opls_146: []
; ho:HO:opls_155: ['168']

[ moleculetype ]
;name            nrexcl
 bisphenol-s      3

[ atoms ]
;   nr  type  resi  res  atom  cgnr     charge      mass       ; qtot   bond_type
     1 opls_x     1   UNL     S    1     1.454600      0.00000 ; qtot  1.455  x   
     2 opls_236     1   UNL     O    2    -0.661800     15.99940 ; qtot  0.793  O   
     3 opls_236     1   UNL    O1    3    -0.661800     15.99940 ; qtot  0.131  O   
     4 opls_154     1   UNL    O2    4    -0.487100     15.99940 ; qtot -0.356  OH  
     5 opls_154     1   UNL    O3    5    -0.487100     15.99940 ; qtot -0.843  OH  
     6 opls_145     1   UNL     C    6    -0.413500     12.01100 ; qtot -1.257  CA  
     7 opls_145     1   UNL    C1    7    -0.413500     12.01100 ; qtot -1.670  CA  
     8 opls_145     1   UNL    C2    8     0.019500     12.01100 ; qtot -1.651  CA  
     9 opls_145     1   UNL    C3    9     0.019500     12.01100 ; qtot -1.631  CA  
    10 opls_145     1   UNL    C4   10     0.019500     12.01100 ; qtot -1.612  CA  
    11 opls_145     1   UNL    C5   11     0.019500     12.01100 ; qtot -1.592  CA  
    12 opls_145     1   UNL    C6   12    -0.214500     12.01100 ; qtot -1.807  CA  
    13 opls_145     1   UNL    C7   13    -0.214500     12.01100 ; qtot -2.021  CA  
    14 opls_145     1   UNL    C8   14    -0.214500     12.01100 ; qtot -2.236  CA  
    15 opls_145     1   UNL    C9   15    -0.214500     12.01100 ; qtot -2.450  CA  
    16 opls_145     1   UNL   C10   16     0.187100     12.01100 ; qtot -2.263  CA  
    17 opls_145     1   UNL   C11   17     0.187100     12.01100 ; qtot -2.076  CA  
    18 opls_146     1   UNL     H   18     0.154500      1.00800 ; qtot -1.922  HA  
    19 opls_146     1   UNL    H1   19     0.154500      1.00800 ; qtot -1.767  HA  
    20 opls_146     1   UNL    H2   20     0.154500      1.00800 ; qtot -1.613  HA  
    21 opls_146     1   UNL    H3   21     0.154500      1.00800 ; qtot -1.458  HA  
    22 opls_146     1   UNL    H4   22     0.151000      1.00800 ; qtot -1.307  HA  
    23 opls_146     1   UNL    H5   23     0.151000      1.00800 ; qtot -1.156  HA  
    24 opls_146     1   UNL    H6   24     0.151000      1.00800 ; qtot -1.005  HA  
    25 opls_146     1   UNL    H7   25     0.151000      1.00800 ; qtot -0.854  HA  
    26 opls_155     1   UNL    H8   26     0.427000      1.00800 ; qtot -0.427  HO  
    27 opls_155     1   UNL    H9   27     0.427000      1.00800 ; qtot -0.000  HO  

[ bonds ]
;   ai     aj funct   r             k
     1      2   1 ;    1.4656e-01    5.1436e+05 ;      S - O           x - O     
     1      3   1 ;    1.4656e-01    5.1436e+05 ;      S - O1          x - O     
     1      6   1 ;    1.7913e-01    1.7558e+05 ;      S - C           x - CA    
     1      7   1 ;    1.7913e-01    1.7558e+05 ;      S - C1          x - CA    
     4     16   1 ;    1.3644e-01    2.9167e+05 ;     O2 - C10        OH - CA    
     4     26   1 ;    9.7250e-02    4.4811e+05 ;     O2 - H8         OH - HO    
     5     17   1 ;    1.3644e-01    2.9167e+05 ;     O3 - C11        OH - CA    
     5     27   1 ;    9.7250e-02    4.4811e+05 ;     O3 - H9         OH - HO    
     6      8   1 ;    1.3986e-01    2.9644e+05 ;      C - C2         CA - CA    
     6     10   1 ;    1.3986e-01    2.9644e+05 ;      C - C4         CA - CA    
     7      9   1 ;    1.3986e-01    2.9644e+05 ;     C1 - C3         CA - CA    
     7     11   1 ;    1.3986e-01    2.9644e+05 ;     C1 - C5         CA - CA    
     8     12   1 ;    1.3986e-01    2.9644e+05 ;     C2 - C6         CA - CA    
     8     18   1 ;    1.0860e-01    3.0183e+05 ;     C2 - H          CA - HA    
     9     13   1 ;    1.3986e-01    2.9644e+05 ;     C3 - C7         CA - CA    
     9     19   1 ;    1.0860e-01    3.0183e+05 ;     C3 - H1         CA - HA    
    10     14   1 ;    1.3986e-01    2.9644e+05 ;     C4 - C8         CA - CA    
    10     20   1 ;    1.0860e-01    3.0183e+05 ;     C4 - H2         CA - HA    
    11     15   1 ;    1.3986e-01    2.9644e+05 ;     C5 - C9         CA - CA    
    11     21   1 ;    1.0860e-01    3.0183e+05 ;     C5 - H3         CA - HA    
    12     16   1 ;    1.3986e-01    2.9644e+05 ;     C6 - C10        CA - CA    
    12     22   1 ;    1.0860e-01    3.0183e+05 ;     C6 - H4         CA - HA    
    13     17   1 ;    1.3986e-01    2.9644e+05 ;     C7 - C11        CA - CA    
    13     23   1 ;    1.0860e-01    3.0183e+05 ;     C7 - H5         CA - HA    
    14     16   1 ;    1.3986e-01    2.9644e+05 ;     C8 - C10        CA - CA    
    14     24   1 ;    1.0860e-01    3.0183e+05 ;     C8 - H6         CA - HA    
    15     17   1 ;    1.3986e-01    2.9644e+05 ;     C9 - C11        CA - CA    
    15     25   1 ;    1.0860e-01    3.0183e+05 ;     C9 - H7         CA - HA    

[ pairs ]
;   ai     aj    funct
     1     12      1 ;      S - C6    
     1     13      1 ;      S - C7    
     1     14      1 ;      S - C8    
     1     15      1 ;      S - C9    
     1     18      1 ;      S - H     
     1     19      1 ;      S - H1    
     1     20      1 ;      S - H2    
     1     21      1 ;      S - H3    
     2      8      1 ;      O - C2    
     2      9      1 ;      O - C3    
     2     10      1 ;      O - C4    
     2     11      1 ;      O - C5    
     3      8      1 ;     O1 - C2    
     3      9      1 ;     O1 - C3    
     3     10      1 ;     O1 - C4    
     3     11      1 ;     O1 - C5    
     4      8      1 ;     O2 - C2    
     4     10      1 ;     O2 - C4    
     4     22      1 ;     O2 - H4    
     4     24      1 ;     O2 - H6    
     5      9      1 ;     O3 - C3    
     5     11      1 ;     O3 - C5    
     5     23      1 ;     O3 - H5    
     5     25      1 ;     O3 - H7    
     6      9      1 ;      C - C3    
     6     11      1 ;      C - C5    
     6     16      1 ;      C - C10   
     6     22      1 ;      C - H4    
     6     24      1 ;      C - H6    
     7      8      1 ;     C1 - C2    
     7     10      1 ;     C1 - C4    
     7     17      1 ;     C1 - C11   
     7     23      1 ;     C1 - H5    
     7     25      1 ;     C1 - H7    
     8     14      1 ;     C2 - C8    
     8     20      1 ;     C2 - H2    
     9     15      1 ;     C3 - C9    
     9     21      1 ;     C3 - H3    
    10     12      1 ;     C4 - C6    
    10     18      1 ;     C4 - H     
    11     13      1 ;     C5 - C7    
    11     19      1 ;     C5 - H1    
    12     24      1 ;     C6 - H6    
    12     26      1 ;     C6 - H8    
    13     25      1 ;     C7 - H7    
    13     27      1 ;     C7 - H9    
    14     22      1 ;     C8 - H4    
    14     26      1 ;     C8 - H8    
    15     23      1 ;     C9 - H5    
    15     27      1 ;     C9 - H9    
    16     18      1 ;    C10 - H     
    16     20      1 ;    C10 - H2    
    17     19      1 ;    C11 - H1    
    17     21      1 ;    C11 - H3    
    18     22      1 ;      H - H4    
    19     23      1 ;     H1 - H5    
    20     24      1 ;     H2 - H6    
    21     25      1 ;     H3 - H7    

[ angles ]
;   ai     aj     ak    funct   theta         cth
     1      6      8      1 ;    1.1941e+02    5.2785e+02 ;      S - C    - C2        x -   CA - CA  
     1      6     10      1 ;    1.1941e+02    5.2785e+02 ;      S - C    - C4        x -   CA - CA  
     1      7      9      1 ;    1.1941e+02    5.2785e+02 ;      S - C1   - C3        x -   CA - CA  
     1      7     11      1 ;    1.1941e+02    5.2785e+02 ;      S - C1   - C5        x -   CA - CA  
     2      1      3      1 ;    1.2138e+02    1.3201e+03 ;      O - S    - O1        O -    x - O   
     2      1      6      1 ;    1.0834e+02    1.0078e+03 ;      O - S    - C         O -    x - CA  
     2      1      7      1 ;    1.0834e+02    1.0078e+03 ;      O - S    - C1        O -    x - CA  
     3      1      6      1 ;    1.0834e+02    1.0078e+03 ;     O1 - S    - C         O -    x - CA  
     3      1      7      1 ;    1.0834e+02    1.0078e+03 ;     O1 - S    - C1        O -    x - CA  
     4     16     12      1 ;    1.1990e+02    6.5990e+02 ;     O2 - C10  - C6       OH -   CA - CA  
     4     16     14      1 ;    1.1990e+02    6.5990e+02 ;     O2 - C10  - C8       OH -   CA - CA  
     5     17     13      1 ;    1.1990e+02    6.5990e+02 ;     O3 - C11  - C7       OH -   CA - CA  
     5     17     15      1 ;    1.1990e+02    6.5990e+02 ;     O3 - C11  - C9       OH -   CA - CA  
     6      1      7      1 ;    1.0478e+02    7.7705e+02 ;      C - S    - C1       CA -    x - CA  
     6      8     12      1 ;    1.2002e+02    5.3279e+02 ;      C - C2   - C6       CA -   CA - CA  
     6      8     18      1 ;    1.1988e+02    3.7572e+02 ;      C - C2   - H        CA -   CA - HA  
     6     10     14      1 ;    1.2002e+02    5.3279e+02 ;      C - C4   - C8       CA -   CA - CA  
     6     10     20      1 ;    1.1988e+02    3.7572e+02 ;      C - C4   - H2       CA -   CA - HA  
     7      9     13      1 ;    1.2002e+02    5.3279e+02 ;     C1 - C3   - C7       CA -   CA - CA  
     7      9     19      1 ;    1.1988e+02    3.7572e+02 ;     C1 - C3   - H1       CA -   CA - HA  
     7     11     15      1 ;    1.2002e+02    5.3279e+02 ;     C1 - C5   - C9       CA -   CA - CA  
     7     11     21      1 ;    1.1988e+02    3.7572e+02 ;     C1 - C5   - H3       CA -   CA - HA  
     8      6     10      1 ;    1.2002e+02    5.3279e+02 ;     C2 - C    - C4       CA -   CA - CA  
     8     12     16      1 ;    1.2002e+02    5.3279e+02 ;     C2 - C6   - C10      CA -   CA - CA  
     8     12     22      1 ;    1.1988e+02    3.7572e+02 ;     C2 - C6   - H4       CA -   CA - HA  
     9      7     11      1 ;    1.2002e+02    5.3279e+02 ;     C3 - C1   - C5       CA -   CA - CA  
     9     13     17      1 ;    1.2002e+02    5.3279e+02 ;     C3 - C7   - C11      CA -   CA - CA  
     9     13     23      1 ;    1.1988e+02    3.7572e+02 ;     C3 - C7   - H5       CA -   CA - HA  
    10     14     16      1 ;    1.2002e+02    5.3279e+02 ;     C4 - C8   - C10      CA -   CA - CA  
    10     14     24      1 ;    1.1988e+02    3.7572e+02 ;     C4 - C8   - H6       CA -   CA - HA  
    11     15     17      1 ;    1.2002e+02    5.3279e+02 ;     C5 - C9   - C11      CA -   CA - CA  
    11     15     25      1 ;    1.1988e+02    3.7572e+02 ;     C5 - C9   - H7       CA -   CA - HA  
    12      8     18      1 ;    1.1988e+02    3.7572e+02 ;     C6 - C2   - H        CA -   CA - HA  
    12     16     14      1 ;    1.2002e+02    5.3279e+02 ;     C6 - C10  - C8       CA -   CA - CA  
    13      9     19      1 ;    1.1988e+02    3.7572e+02 ;     C7 - C3   - H1       CA -   CA - HA  
    13     17     15      1 ;    1.2002e+02    5.3279e+02 ;     C7 - C11  - C9       CA -   CA - CA  
    14     10     20      1 ;    1.1988e+02    3.7572e+02 ;     C8 - C4   - H2       CA -   CA - HA  
    15     11     21      1 ;    1.1988e+02    3.7572e+02 ;     C9 - C5   - H3       CA -   CA - HA  
    16      4     26      1 ;    1.0858e+02    5.6409e+02 ;    C10 - O2   - H8       CA -   OH - HO  
    16     12     22      1 ;    1.1988e+02    3.7572e+02 ;    C10 - C6   - H4       CA -   CA - HA  
    16     14     24      1 ;    1.1988e+02    3.7572e+02 ;    C10 - C8   - H6       CA -   CA - HA  
    17      5     27      1 ;    1.0858e+02    5.6409e+02 ;    C11 - O3   - H9       CA -   OH - HO  
    17     13     23      1 ;    1.1988e+02    3.7572e+02 ;    C11 - C7   - H5       CA -   CA - HA  
    17     15     25      1 ;    1.1988e+02    3.7572e+02 ;    C11 - C9   - H7       CA -   CA - HA  

[ dihedrals ] ; propers
; for gromacs 4.5 or higher, using funct 9
;    i      j      k      l   func   phase     kd      pn
     1      6      8     12      9 ;   180.00  15.16700   2 ;      S-     C-    C2-    C6
     1      6      8     18      9 ;   180.00  15.16700   2 ;      S-     C-    C2-     H
     1      6     10     14      9 ;   180.00  15.16700   2 ;      S-     C-    C4-    C8
     1      6     10     20      9 ;   180.00  15.16700   2 ;      S-     C-    C4-    H2
     1      7      9     13      9 ;   180.00  15.16700   2 ;      S-    C1-    C3-    C7
     1      7      9     19      9 ;   180.00  15.16700   2 ;      S-    C1-    C3-    H1
     1      7     11     15      9 ;   180.00  15.16700   2 ;      S-    C1-    C5-    C9
     1      7     11     21      9 ;   180.00  15.16700   2 ;      S-    C1-    C5-    H3
     2      1      6      8      9 ;   180.00   5.43920   2 ;      O-     S-     C-    C2
     2      1      6     10      9 ;   180.00   5.43920   2 ;      O-     S-     C-    C4
     2      1      7      9      9 ;   180.00   5.43920   2 ;      O-     S-    C1-    C3
     2      1      7     11      9 ;   180.00   5.43920   2 ;      O-     S-    C1-    C5
     3      1      6      8      9 ;   180.00   5.43920   2 ;     O1-     S-     C-    C2
     3      1      6     10      9 ;   180.00   5.43920   2 ;     O1-     S-     C-    C4
     3      1      7      9      9 ;   180.00   5.43920   2 ;     O1-     S-    C1-    C3
     3      1      7     11      9 ;   180.00   5.43920   2 ;     O1-     S-    C1-    C5
     4     16     12      8      9 ;   180.00  15.16700   2 ;     O2-   C10-    C6-    C2
     4     16     12     22      9 ;   180.00  15.16700   2 ;     O2-   C10-    C6-    H4
     4     16     14     10      9 ;   180.00  15.16700   2 ;     O2-   C10-    C8-    C4
     4     16     14     24      9 ;   180.00  15.16700   2 ;     O2-   C10-    C8-    H6
     5     17     13      9      9 ;   180.00  15.16700   2 ;     O3-   C11-    C7-    C3
     5     17     13     23      9 ;   180.00  15.16700   2 ;     O3-   C11-    C7-    H5
     5     17     15     11      9 ;   180.00  15.16700   2 ;     O3-   C11-    C9-    C5
     5     17     15     25      9 ;   180.00  15.16700   2 ;     O3-   C11-    C9-    H7
     6      1      7      9      9 ;   180.00   5.43920   2 ;      C-     S-    C1-    C3
     6      1      7     11      9 ;   180.00   5.43920   2 ;      C-     S-    C1-    C5
     6      8     12     16      9 ;   180.00  15.16700   2 ;      C-    C2-    C6-   C10
     6      8     12     22      9 ;   180.00  15.16700   2 ;      C-    C2-    C6-    H4
     6     10     14     16      9 ;   180.00  15.16700   2 ;      C-    C4-    C8-   C10
     6     10     14     24      9 ;   180.00  15.16700   2 ;      C-    C4-    C8-    H6
     7      1      6      8      9 ;   180.00   5.43920   2 ;     C1-     S-     C-    C2
     7      1      6     10      9 ;   180.00   5.43920   2 ;     C1-     S-     C-    C4
     7      9     13     17      9 ;   180.00  15.16700   2 ;     C1-    C3-    C7-   C11
     7      9     13     23      9 ;   180.00  15.16700   2 ;     C1-    C3-    C7-    H5
     7     11     15     17      9 ;   180.00  15.16700   2 ;     C1-    C5-    C9-   C11
     7     11     15     25      9 ;   180.00  15.16700   2 ;     C1-    C5-    C9-    H7
     8      6     10     14      9 ;   180.00  15.16700   2 ;     C2-     C-    C4-    C8
     8      6     10     20      9 ;   180.00  15.16700   2 ;     C2-     C-    C4-    H2
     8     12     16     14      9 ;   180.00  15.16700   2 ;     C2-    C6-   C10-    C8
     9      7     11     15      9 ;   180.00  15.16700   2 ;     C3-    C1-    C5-    C9
     9      7     11     21      9 ;   180.00  15.16700   2 ;     C3-    C1-    C5-    H3
     9     13     17     15      9 ;   180.00  15.16700   2 ;     C3-    C7-   C11-    C9
    10      6      8     12      9 ;   180.00  15.16700   2 ;     C4-     C-    C2-    C6
    10      6      8     18      9 ;   180.00  15.16700   2 ;     C4-     C-    C2-     H
    10     14     16     12      9 ;   180.00  15.16700   2 ;     C4-    C8-   C10-    C6
    11      7      9     13      9 ;   180.00  15.16700   2 ;     C5-    C1-    C3-    C7
    11      7      9     19      9 ;   180.00  15.16700   2 ;     C5-    C1-    C3-    H1
    11     15     17     13      9 ;   180.00  15.16700   2 ;     C5-    C9-   C11-    C7
    12     16      4     26      9 ;   180.00   3.57732   2 ;     C6-   C10-    O2-    H8
    12     16     14     24      9 ;   180.00  15.16700   2 ;     C6-   C10-    C8-    H6
    13     17      5     27      9 ;   180.00   3.57732   2 ;     C7-   C11-    O3-    H9
    13     17     15     25      9 ;   180.00  15.16700   2 ;     C7-   C11-    C9-    H7
    14     16      4     26      9 ;   180.00   3.57732   2 ;     C8-   C10-    O2-    H8
    14     16     12     22      9 ;   180.00  15.16700   2 ;     C8-   C10-    C6-    H4
    15     17      5     27      9 ;   180.00   3.57732   2 ;     C9-   C11-    O3-    H9
    15     17     13     23      9 ;   180.00  15.16700   2 ;     C9-   C11-    C7-    H5
    16     12      8     18      9 ;   180.00  15.16700   2 ;    C10-    C6-    C2-     H
    16     14     10     20      9 ;   180.00  15.16700   2 ;    C10-    C8-    C4-    H2
    17     13      9     19      9 ;   180.00  15.16700   2 ;    C11-    C7-    C3-    H1
    17     15     11     21      9 ;   180.00  15.16700   2 ;    C11-    C9-    C5-    H3
    18      8     12     22      9 ;   180.00  15.16700   2 ;      H-    C2-    C6-    H4
    19      9     13     23      9 ;   180.00  15.16700   2 ;     H1-    C3-    C7-    H5
    20     10     14     24      9 ;   180.00  15.16700   2 ;     H2-    C4-    C8-    H6
    21     11     15     25      9 ;   180.00  15.16700   2 ;     H3-    C5-    C9-    H7

[ dihedrals ] ; impropers
; treated as propers in GROMACS to use correct AMBER analytical function
;    i      j      k      l   func   phase     kd      pn
     1      6     10      8      4 ;   180.00   4.60240   2 ;      S-     C-    C4-    C2
     1      7     11      9      4 ;   180.00   4.60240   2 ;      S-    C1-    C5-    C3
     6     12      8     18      4 ;   180.00   4.60240   2 ;      C-    C6-    C2-     H
     6     14     10     20      4 ;   180.00   4.60240   2 ;      C-    C8-    C4-    H2
     7     13      9     19      4 ;   180.00   4.60240   2 ;     C1-    C7-    C3-    H1
     7     15     11     21      4 ;   180.00   4.60240   2 ;     C1-    C9-    C5-    H3
     8     16     12     22      4 ;   180.00   4.60240   2 ;     C2-   C10-    C6-    H4
     9     17     13     23      4 ;   180.00   4.60240   2 ;     C3-   C11-    C7-    H5
    10     16     14     24      4 ;   180.00   4.60240   2 ;     C4-   C10-    C8-    H6
    11     17     15     25      4 ;   180.00   4.60240   2 ;     C5-   C11-    C9-    H7
    12     14     16      4      4 ;   180.00   4.60240   2 ;     C6-    C8-   C10-    O2
    13     15     17      5      4 ;   180.00   4.60240   2 ;     C7-    C9-   C11-    O3
