bisphenol-s_GMX.gro created by acpype (v: 2023.10.27) on Mon Feb  9 17:34:25 2026
 27
    1  UNL    S    1  -0.000   0.162   0.000
    1  UNL    O    2  -0.002   0.235  -0.126
    1  UNL   O1    3   0.006   0.235   0.126
    1  UNL   O2    4  -0.479  -0.183   0.001
    1  UNL   O3    5   0.478  -0.183  -0.001
    1  UNL    C    6  -0.142   0.060   0.000
    1  UNL   C1    7   0.144   0.058  -0.000
    1  UNL   C2    8  -0.199   0.019   0.121
    1  UNL   C3    9   0.198   0.019  -0.121
    1  UNL   C4   10  -0.199   0.019  -0.121
    1  UNL   C5   11   0.198   0.019   0.121
    1  UNL   C6   12  -0.312  -0.062   0.121
    1  UNL   C7   13   0.311  -0.063  -0.121
    1  UNL   C8   14  -0.312  -0.062  -0.121
    1  UNL   C9   15   0.311  -0.063   0.121
    1  UNL  C10   16  -0.369  -0.103   0.000
    1  UNL  C11   17   0.368  -0.104  -0.000
    1  UNL    H   18  -0.156   0.049   0.216
    1  UNL   H1   19   0.155   0.049  -0.216
    1  UNL   H2   20  -0.156   0.049  -0.216
    1  UNL   H3   21   0.155   0.048   0.216
    1  UNL   H4   22  -0.355  -0.094   0.215
    1  UNL   H5   23   0.354  -0.094  -0.216
    1  UNL   H6   24  -0.355  -0.094  -0.215
    1  UNL   H7   25   0.355  -0.095   0.215
    1  UNL   H8   26  -0.505  -0.201  -0.092
    1  UNL   H9   27   0.504  -0.202  -0.093
   20.16400     8.73000     8.64200
