%VERSION  VERSION_STAMP = V0001.000  DATE = 02/09/26  17:34:34                  
%FLAG TITLE                                                                     
%FORMAT(20a4)                                                                   
6626                                                                            
%FLAG POINTERS                                                                  
%FORMAT(10I8)                                                                   
      27       6      10      18      18      26      40      36       0       0
     136       1      18      26      36       6       8       4       6       0
       0       0       0       0       0       0       0       0      27       0
       0
%FLAG ATOM_NAME                                                                 
%FORMAT(20a4)                                                                   
S   O   O1  O2  O3  C   C1  C2  C3  C4  C5  C6  C7  C8  C9  C10 C11 H   H1  H2  
H3  H4  H5  H6  H7  H8  H9  
%FLAG CHARGE                                                                    
%FORMAT(5E16.8)                                                                 
  2.64697130E+01 -1.20595181E+01 -1.20595181E+01 -8.87608233E+00 -8.87608233E+00
 -7.53492105E+00 -7.53492105E+00  3.55334850E-01  3.55334850E-01  3.55334850E-01
  3.55334850E-01 -3.90868335E+00 -3.90868335E+00 -3.90868335E+00 -3.90868335E+00
  3.40939233E+00  3.40939233E+00  2.81534535E+00  2.81534535E+00  2.81534535E+00
  2.81534535E+00  2.75156730E+00  2.75156730E+00  2.75156730E+00  2.75156730E+00
  7.78092210E+00  7.78092210E+00
%FLAG ATOMIC_NUMBER                                                             
%FORMAT(10I8)                                                                   
      16       8       8       8       8       6       6       6       6       6
       6       6       6       6       6       6       6       1       1       1
       1       1       1       1       1       1       1
%FLAG MASS                                                                      
%FORMAT(5E16.8)                                                                 
  3.20600000E+01  1.60000000E+01  1.60000000E+01  1.60000000E+01  1.60000000E+01
  1.20100000E+01  1.20100000E+01  1.20100000E+01  1.20100000E+01  1.20100000E+01
  1.20100000E+01  1.20100000E+01  1.20100000E+01  1.20100000E+01  1.20100000E+01
  1.20100000E+01  1.20100000E+01  1.00800000E+00  1.00800000E+00  1.00800000E+00
  1.00800000E+00  1.00800000E+00  1.00800000E+00  1.00800000E+00  1.00800000E+00
  1.00800000E+00  1.00800000E+00
%FLAG ATOM_TYPE_INDEX                                                           
%FORMAT(10I8)                                                                   
       1       2       2       3       3       4       4       4       4       4
       4       4       4       4       4       4       4       5       5       5
       5       5       5       5       5       6       6
%FLAG NUMBER_EXCLUDED_ATOMS                                                     
%FORMAT(10I8)                                                                   
      16       7       6       8       8      12      11       7       7       6
       6       6       6       5       5       5       5       1       1       1
       1       1       1       1       1       1       1
%FLAG NONBONDED_PARM_INDEX                                                      
%FORMAT(10I8)                                                                   
       1       2       4       7      11      16       2       3       5       8
      12      17       4       5       6       9      13      18       7       8
       9      10      14      19      11      12      13      14      15      20
      16      17      18      19      20      21
%FLAG RESIDUE_LABEL                                                             
%FORMAT(20a4)                                                                   
UNL 
%FLAG RESIDUE_POINTER                                                           
%FORMAT(10I8)                                                                   
       1
%FLAG BOND_FORCE_CONSTANT                                                       
%FORMAT(5E16.8)                                                                 
  6.14680000E+02  2.09820000E+02  3.48550000E+02  5.35510000E+02  3.54250000E+02
  3.60690000E+02
%FLAG BOND_EQUIL_VALUE                                                          
%FORMAT(5E16.8)                                                                 
  1.46560000E+00  1.79130000E+00  1.36440000E+00  9.72500000E-01  1.39860000E+00
  1.08600000E+00
%FLAG ANGLE_FORCE_CONSTANT                                                      
%FORMAT(5E16.8)                                                                 
  6.30800000E+01  1.57750000E+02  1.20430000E+02  7.88600000E+01  9.28600000E+01
  6.36700000E+01  4.49000000E+01  6.74100000E+01
%FLAG ANGLE_EQUIL_VALUE                                                         
%FORMAT(5E16.8)                                                                 
  2.08409855E+00  2.11848155E+00  1.89089052E+00  2.09265067E+00  1.82875677E+00
  2.09474507E+00  2.09230160E+00  1.89507931E+00
%FLAG DIHEDRAL_FORCE_CONSTANT                                                   
%FORMAT(5E16.8)                                                                 
  3.62500000E+00  1.30000000E+00  8.55000000E-01  1.10000000E+00
%FLAG DIHEDRAL_PERIODICITY                                                      
%FORMAT(5E16.8)                                                                 
  2.00000000E+00  2.00000000E+00  2.00000000E+00  2.00000000E+00
%FLAG DIHEDRAL_PHASE                                                            
%FORMAT(5E16.8)                                                                 
  3.14159400E+00  3.14159400E+00  3.14159400E+00  3.14159400E+00
%FLAG SCEE_SCALE_FACTOR                                                         
%FORMAT(5E16.8)                                                                 
  1.20000000E+00  1.20000000E+00  1.20000000E+00  0.00000000E+00
%FLAG SCNB_SCALE_FACTOR                                                         
%FORMAT(5E16.8)                                                                 
  2.00000000E+00  2.00000000E+00  2.00000000E+00  0.00000000E+00
%FLAG SOLTY                                                                     
%FORMAT(5E16.8)                                                                 
  0.00000000E+00  0.00000000E+00  0.00000000E+00  0.00000000E+00  0.00000000E+00
  0.00000000E+00
%FLAG LENNARD_JONES_ACOEF                                                       
%FORMAT(5E16.8)                                                                 
  4.90327872E+06  1.53564503E+06  3.76435470E+05  1.69358726E+06  4.37717034E+05
  5.03152404E+05  1.96483601E+06  5.17507491E+05  5.92438683E+05  6.96551276E+05
  2.44084252E+05  5.27277400E+04  6.30298721E+04  7.52549148E+04  6.90855956E+03
  1.47489646E+03  1.15813907E+02  1.74176419E+02  2.25372434E+02  8.53132435E+00
  1.10360882E-05
%FLAG LENNARD_JONES_BCOEF                                                       
%FORMAT(5E16.8)                                                                 
  1.09738109E+03  7.63007119E+02  4.69350655E+02  7.15478543E+02  4.51916854E+02
  4.32634597E+02  7.82392141E+02  4.98871431E+02  4.76608379E+02  5.24668528E+02
  1.75205783E+02  1.01173582E+02  9.87712192E+01  1.09570372E+02  2.10929191E+01
  1.00109967E+01  3.48534600E+00  3.81654050E+00  4.40751799E+00  5.44840215E-01
  4.55498033E-04
%FLAG BONDS_INC_HYDROGEN                                                        
%FORMAT(10I8)                                                                   
       9      75       4      12      78       4      21      51       6      24
      54       6      27      57       6      30      60       6      33      63
       6      36      66       6      39      69       6      42      72       6
%FLAG BONDS_WITHOUT_HYDROGEN                                                    
%FORMAT(10I8)                                                                   
       0       3       1       0       6       1       0      15       2       0
      18       2       9      45       3      12      48       3      15      21
       5      15      27       5      18      24       5      18      30       5
      21      33       5      24      36       5      27      39       5      30
      42       5      33      45       5      36      48       5      39      45
       5      42      48       5
%FLAG ANGLES_INC_HYDROGEN                                                       
%FORMAT(10I8)                                                                   
      15      21      51       7      15      27      57       7      18      24
      54       7      18      30      60       7      21      33      63       7
      24      36      66       7      27      39      69       7      30      42
      72       7      33      21      51       7      36      24      54       7
      39      27      57       7      42      30      60       7      45       9
      75       8      45      33      63       7      45      39      69       7
      48      12      78       8      48      36      66       7      48      42
      72       7
%FLAG ANGLES_WITHOUT_HYDROGEN                                                   
%FORMAT(10I8)                                                                   
       0      15      21       1       0      15      27       1       0      18
      24       1       0      18      30       1       3       0       6       2
       3       0      15       3       3       0      18       3       6       0
      15       3       6       0      18       3       9      45      33       4
       9      45      39       4      12      48      36       4      12      48
      42       4      15       0      18       5      15      21      33       6
      15      27      39       6      18      24      36       6      18      30
      42       6      21      15      27       6      21      33      45       6
      24      18      30       6      24      36      48       6      27      39
      45       6      30      42      48       6      33      45      39       6
      36      48      42       6
%FLAG DIHEDRALS_INC_HYDROGEN                                                    
%FORMAT(10I8)                                                                   
       0      15      21      51       1       0      15      27      57       1
       0      18      24      54       1       0      18      30      60       1
       9      45      33      63       1       9      45      39      69       1
      12      48      36      66       1      12      48      42      72       1
      15      21      33      63       1      15      27      39      69       1
      18      24      36      66       1      18      30      42      72       1
      21      15      27      57       1      24      18      30      60       1
      27      15      21      51       1      30      18      24      54       1
      33      45       9      75       3      33      45      39      69       1
      36      48      12      78       3      36      48      42      72       1
      39      45       9      75       3      39      45      33      63       1
      42      48      12      78       3      42      48      36      66       1
      45      33      21      51       1      45      39      27      57       1
      48      36      24      54       1      48      42      30      60       1
      51      21      33      63       1      54      24      36      66       1
      57      27      39      69       1      60      30      42      72       1
      15      33     -21     -51       4      18      36     -24     -54       4
      15      39     -27     -57       4      18      42     -30     -60       4
      21      45     -33     -63       4      24      48     -36     -66       4
      27      45     -39     -69       4      30      48     -42     -72       4
%FLAG DIHEDRALS_WITHOUT_HYDROGEN                                                
%FORMAT(10I8)                                                                   
       0      15      21      33       1       0      15      27      39       1
       0      18      24      36       1       0      18      30      42       1
       3       0      15      21       2       3       0      15      27       2
       3       0      18      24       2       3       0      18      30       2
       6       0      15      21       2       6       0      15      27       2
       6       0      18      24       2       6       0      18      30       2
       9      45      33      21       1       9      45      39      27       1
      12      48      36      24       1      12      48      42      30       1
      15       0      18      24       2      15       0      18      30       2
      15      21      33      45       1      15      27     -39      45       1
      18       0      15      21       2      18       0      15      27       2
      18      24      36      48       1      18      30     -42      48       1
      21      15      27      39       1      21      33     -45      39       1
      24      18      30      42       1      24      36     -48      42       1
      27      15      21      33       1      27      39     -45      33       1
      30      18      24      36       1      30      42     -48      36       1
       0      15     -27     -21       4       0      18     -30     -24       4
      33      39     -45      -9       4      36      42     -48     -12       4
%FLAG EXCLUDED_ATOMS_LIST                                                       
%FORMAT(10I8)                                                                   
       2       3       6       7       8       9      10      11      12      13
      14      15      18      19      20      21       3       6       7       8
       9      10      11       6       7       8       9      10      11       8
      10      12      14      16      22      24      26       9      11      13
      15      17      23      25      27       7       8       9      10      11
      12      14      16      18      20      22      24       8       9      10
      11      13      15      17      19      21      23      25      10      12
      14      16      18      20      22      11      13      15      17      19
      21      23      12      14      16      18      20      24      13      15
      17      19      21      25      14      16      18      22      24      26
      15      17      19      23      25      27      16      20      22      24
      26      17      21      23      25      27      18      20      22      24
      26      19      21      23      25      27      22      23      24      25
       0       0       0       0       0       0
%FLAG HBOND_ACOEF                                                               
%FORMAT(5E16.8)                                                                 

%FLAG HBOND_BCOEF                                                               
%FORMAT(5E16.8)                                                                 

%FLAG HBCUT                                                                     
%FORMAT(5E16.8)                                                                 

%FLAG AMBER_ATOM_TYPE                                                           
%FORMAT(20a4)                                                                   
sy  o   o   oh  oh  ca  ca  ca  ca  ca  ca  ca  ca  ca  ca  ca  ca  ha  ha  ha  
ha  ha  ha  ha  ha  ho  ho  
%FLAG TREE_CHAIN_CLASSIFICATION                                                 
%FORMAT(20a4)                                                                   
BLA BLA BLA BLA BLA BLA BLA BLA BLA BLA BLA BLA BLA BLA BLA BLA BLA BLA BLA BLA 
BLA BLA BLA BLA BLA BLA BLA 
%FLAG JOIN_ARRAY                                                                
%FORMAT(10I8)                                                                   
       0       0       0       0       0       0       0       0       0       0
       0       0       0       0       0       0       0       0       0       0
       0       0       0       0       0       0       0
%FLAG IROTAT                                                                    
%FORMAT(10I8)                                                                   
       0       0       0       0       0       0       0       0       0       0
       0       0       0       0       0       0       0       0       0       0
       0       0       0       0       0       0       0
%FLAG RADIUS_SET                                                                
%FORMAT(1a80)                                                                   
modified Bondi radii (mbondi)                                                   
%FLAG RADII                                                                     
%FORMAT(5E16.8)                                                                 
  1.80000000E+00  1.50000000E+00  1.50000000E+00  1.50000000E+00  1.50000000E+00
  1.70000000E+00  1.70000000E+00  1.70000000E+00  1.70000000E+00  1.70000000E+00
  1.70000000E+00  1.70000000E+00  1.70000000E+00  1.70000000E+00  1.70000000E+00
  1.70000000E+00  1.70000000E+00  1.30000000E+00  1.30000000E+00  1.30000000E+00
  1.30000000E+00  1.30000000E+00  1.30000000E+00  1.30000000E+00  1.30000000E+00
  8.00000000E-01  8.00000000E-01
%FLAG SCREEN                                                                    
%FORMAT(5E16.8)                                                                 
  9.60000000E-01  8.50000000E-01  8.50000000E-01  8.50000000E-01  8.50000000E-01
  7.20000000E-01  7.20000000E-01  7.20000000E-01  7.20000000E-01  7.20000000E-01
  7.20000000E-01  7.20000000E-01  7.20000000E-01  7.20000000E-01  7.20000000E-01
  7.20000000E-01  7.20000000E-01  8.50000000E-01  8.50000000E-01  8.50000000E-01
  8.50000000E-01  8.50000000E-01  8.50000000E-01  8.50000000E-01  8.50000000E-01
  8.50000000E-01  8.50000000E-01
%FLAG IPOL                                                                      
%FORMAT(1I8)                                                                    
       0
