6626
    27
  -0.0020000   1.6160000   0.0000000  -0.0240000   2.3470000  -1.2590000
   0.0600000   2.3460000   1.2600000  -4.7900000  -1.8260000   0.0050000
   4.7800000  -1.8340000  -0.0050000  -1.4200000   0.5970000   0.0010000
   1.4350000   0.5790000  -0.0010000  -1.9860000   0.1900000   1.2100000
   1.9790000   0.1870000  -1.2090000  -1.9880000   0.1900000  -1.2070000
   1.9810000   0.1860000   1.2070000  -3.1180000  -0.6250000   1.2110000
   3.1100000  -0.6290000  -1.2110000  -3.1200000  -0.6250000  -1.2050000
   3.1120000  -0.6300000   1.2050000  -3.6850000  -1.0320000   0.0030000
   3.6760000  -1.0380000  -0.0030000  -1.5560000   0.4900000   2.1610000
   1.5470000   0.4890000  -2.1590000  -1.5610000   0.4870000  -2.1600000
   1.5520000   0.4840000   2.1580000  -3.5530000  -0.9400000   2.1550000
   3.5390000  -0.9420000  -2.1590000  -3.5520000  -0.9370000  -2.1530000
   3.5480000  -0.9470000   2.1490000  -5.0470000  -2.0100000  -0.9150000
   5.0350000  -2.0180000  -0.9250000
