bisphenol-a_GMX.gro created by acpype (v: 2023.10.27) on Mon Feb  9 17:32:51 2026
 33
    1  UNL    O    1   0.470   0.173  -0.011
    1  UNL   O1    2  -0.467   0.176   0.011
    1  UNL    C    3   0.001  -0.139  -0.000
    1  UNL   C1    4   0.125  -0.056  -0.003
    1  UNL   C2    5  -0.129  -0.052   0.003
    1  UNL   C3    6  -0.014  -0.236   0.123
    1  UNL   C4    7   0.003  -0.236  -0.123
    1  UNL   C5    8   0.147   0.033  -0.108
    1  UNL   C6    9  -0.145   0.033   0.108
    1  UNL   C7   10   0.219  -0.068   0.100
    1  UNL   C8   11  -0.217  -0.067  -0.100
    1  UNL   C9   12   0.263   0.110  -0.111
    1  UNL  C10   13  -0.260   0.111   0.111
    1  UNL  C11   14   0.335   0.009   0.097
    1  UNL  C12   15  -0.333   0.011  -0.097
    1  UNL  C13   16   0.357   0.098  -0.008
    1  UNL  C14   17  -0.354   0.100   0.008
    1  UNL    H   18   0.067  -0.310   0.126
    1  UNL   H1   19  -0.013  -0.183   0.219
    1  UNL   H2   20  -0.108  -0.292   0.119
    1  UNL   H3   21   0.094  -0.298  -0.121
    1  UNL   H4   22  -0.082  -0.306  -0.123
    1  UNL   H5   23   0.004  -0.184  -0.219
    1  UNL   H6   24   0.075   0.044  -0.189
    1  UNL   H7   25  -0.072   0.043   0.188
    1  UNL   H8   26   0.206  -0.136   0.183
    1  UNL   H9   27  -0.206  -0.134  -0.184
    1  UNL  H10   28   0.279   0.179  -0.193
    1  UNL  H11   29  -0.276   0.180   0.193
    1  UNL  H12   30   0.408  -0.000   0.177
    1  UNL  H13   31  -0.405   0.002  -0.177
    1  UNL  H14   32   0.469   0.229  -0.091
    1  UNL  H15   33  -0.466   0.232   0.091
   18.75400    10.83000     8.77200
