6623
    33
   4.7040000   1.7340000  -0.1080000  -4.6730000   1.7600000   0.1080000
   0.0070000  -1.3900000  -0.0000000   1.2480000  -0.5640000  -0.0290000
  -1.2910000  -0.5160000   0.0290000  -0.1390000  -2.3590000   1.2340000
   0.0270000  -2.3630000  -1.2320000   1.4700000   0.3250000  -1.0800000
  -1.4470000   0.3330000   1.0800000   2.1870000  -0.6810000   0.9960000
  -2.1700000  -0.6690000  -0.9970000   2.6320000   1.0970000  -1.1070000
  -2.6040000   1.1110000   1.1060000   3.3490000   0.0910000   0.9700000
  -3.3260000   0.1100000  -0.9700000   3.5710000   0.9810000  -0.0820000
  -3.5440000   1.0000000   0.0810000   0.6710000  -3.0980000   1.2560000
  -0.1300000  -1.8290000   2.1930000  -1.0830000  -2.9170000   1.1870000
   0.9350000  -2.9800000  -1.2090000  -0.8220000  -3.0580000  -1.2280000
   0.0420000  -1.8360000  -2.1930000   0.7520000   0.4370000  -1.8880000
  -0.7220000   0.4340000   1.8790000   2.0640000  -1.3570000   1.8350000
  -2.0560000  -1.3370000  -1.8390000   2.7930000   1.7870000  -1.9310000
  -2.7610000   1.8020000   1.9300000   4.0770000  -0.0040000   1.7700000
  -4.0550000   0.0200000  -1.7720000   4.6930000   2.2920000  -0.9050000
  -4.6590000   2.3170000   0.9050000
