; bisphenol-a_GMX.itp created by acpype (v: 2023.10.27) on Mon Feb  9 17:32:51 2026

[ atomtypes ]
;name   bond_type     mass     charge   ptype   sigma         epsilon       Amb
 oh       oh          0.00000  0.00000   A     3.24287e-01   3.89112e-01 ; 1.82  0.0930
 c3       c3          0.00000  0.00000   A     3.39771e-01   4.51035e-01 ; 1.91  0.1078
 ca       ca          0.00000  0.00000   A     3.31521e-01   4.13379e-01 ; 1.86  0.0988
 hc       hc          0.00000  0.00000   A     2.60018e-01   8.70272e-02 ; 1.46  0.0208
 ha       ha          0.00000  0.00000   A     2.62548e-01   6.73624e-02 ; 1.47  0.0161
 ho       ho          0.00000  0.00000   A     5.37925e-02   1.96648e-02 ; 0.30  0.0047

[ moleculetype ]
;name            nrexcl
 bisphenol-a      3

[ atoms ]
;   nr  type  resi  res  atom  cgnr     charge      mass       ; qtot   bond_type
     1   oh     1   UNL     O    1    -0.498600     16.00000 ; qtot -0.499
     2   oh     1   UNL    O1    2    -0.498600     16.00000 ; qtot -0.997
     3   c3     1   UNL     C    3     0.049600     12.01000 ; qtot -0.948
     4   ca     1   UNL    C1    4    -0.107300     12.01000 ; qtot -1.055
     5   ca     1   UNL    C2    5    -0.107300     12.01000 ; qtot -1.162
     6   c3     1   UNL    C3    6    -0.086100     12.01000 ; qtot -1.248
     7   c3     1   UNL    C4    7    -0.086100     12.01000 ; qtot -1.334
     8   ca     1   UNL    C5    8    -0.089500     12.01000 ; qtot -1.424
     9   ca     1   UNL    C6    9    -0.089500     12.01000 ; qtot -1.513
    10   ca     1   UNL    C7   10    -0.089500     12.01000 ; qtot -1.603
    11   ca     1   UNL    C8   11    -0.089500     12.01000 ; qtot -1.692
    12   ca     1   UNL    C9   12    -0.185500     12.01000 ; qtot -1.878
    13   ca     1   UNL   C10   13    -0.185500     12.01000 ; qtot -2.063
    14   ca     1   UNL   C11   14    -0.185500     12.01000 ; qtot -2.249
    15   ca     1   UNL   C12   15    -0.185500     12.01000 ; qtot -2.434
    16   ca     1   UNL   C13   16     0.121100     12.01000 ; qtot -2.313
    17   ca     1   UNL   C14   17     0.121100     12.01000 ; qtot -2.192
    18   hc     1   UNL     H   18     0.039700      1.00800 ; qtot -2.152
    19   hc     1   UNL    H1   19     0.039700      1.00800 ; qtot -2.113
    20   hc     1   UNL    H2   20     0.039700      1.00800 ; qtot -2.073
    21   hc     1   UNL    H3   21     0.039700      1.00800 ; qtot -2.033
    22   hc     1   UNL    H4   22     0.039700      1.00800 ; qtot -1.994
    23   hc     1   UNL    H5   23     0.039700      1.00800 ; qtot -1.954
    24   ha     1   UNL    H6   24     0.138000      1.00800 ; qtot -1.816
    25   ha     1   UNL    H7   25     0.138000      1.00800 ; qtot -1.678
    26   ha     1   UNL    H8   26     0.138000      1.00800 ; qtot -1.540
    27   ha     1   UNL    H9   27     0.138000      1.00800 ; qtot -1.402
    28   ha     1   UNL   H10   28     0.141500      1.00800 ; qtot -1.261
    29   ha     1   UNL   H11   29     0.141500      1.00800 ; qtot -1.119
    30   ha     1   UNL   H12   30     0.141500      1.00800 ; qtot -0.978
    31   ha     1   UNL   H13   31     0.141500      1.00800 ; qtot -0.836
    32   ho     1   UNL   H14   32     0.418000      1.00800 ; qtot -0.418
    33   ho     1   UNL   H15   33     0.418000      1.00800 ; qtot -0.000

[ bonds ]
;   ai     aj funct   r             k
     1     16   1    1.3644e-01    2.9167e+05 ;      O - C13   
     1     32   1    9.7250e-02    4.4811e+05 ;      O - H14   
     2     17   1    1.3644e-01    2.9167e+05 ;     O1 - C14   
     2     33   1    9.7250e-02    4.4811e+05 ;     O1 - H15   
     3      4   1    1.5147e-01    2.0410e+05 ;      C - C1    
     3      5   1    1.5147e-01    2.0410e+05 ;      C - C2    
     3      6   1    1.5354e-01    1.9154e+05 ;      C - C3    
     3      7   1    1.5354e-01    1.9154e+05 ;      C - C4    
     4      8   1    1.3986e-01    2.9644e+05 ;     C1 - C5    
     4     10   1    1.3986e-01    2.9644e+05 ;     C1 - C7    
     5      9   1    1.3986e-01    2.9644e+05 ;     C2 - C6    
     5     11   1    1.3986e-01    2.9644e+05 ;     C2 - C8    
     6     18   1    1.0962e-01    2.8891e+05 ;     C3 - H     
     6     19   1    1.0962e-01    2.8891e+05 ;     C3 - H1    
     6     20   1    1.0962e-01    2.8891e+05 ;     C3 - H2    
     7     21   1    1.0962e-01    2.8891e+05 ;     C4 - H3    
     7     22   1    1.0962e-01    2.8891e+05 ;     C4 - H4    
     7     23   1    1.0962e-01    2.8891e+05 ;     C4 - H5    
     8     12   1    1.3986e-01    2.9644e+05 ;     C5 - C9    
     8     24   1    1.0860e-01    3.0183e+05 ;     C5 - H6    
     9     13   1    1.3986e-01    2.9644e+05 ;     C6 - C10   
     9     25   1    1.0860e-01    3.0183e+05 ;     C6 - H7    
    10     14   1    1.3986e-01    2.9644e+05 ;     C7 - C11   
    10     26   1    1.0860e-01    3.0183e+05 ;     C7 - H8    
    11     15   1    1.3986e-01    2.9644e+05 ;     C8 - C12   
    11     27   1    1.0860e-01    3.0183e+05 ;     C8 - H9    
    12     16   1    1.3986e-01    2.9644e+05 ;     C9 - C13   
    12     28   1    1.0860e-01    3.0183e+05 ;     C9 - H10   
    13     17   1    1.3986e-01    2.9644e+05 ;    C10 - C14   
    13     29   1    1.0860e-01    3.0183e+05 ;    C10 - H11   
    14     16   1    1.3986e-01    2.9644e+05 ;    C11 - C13   
    14     30   1    1.0860e-01    3.0183e+05 ;    C11 - H12   
    15     17   1    1.3986e-01    2.9644e+05 ;    C12 - C14   
    15     31   1    1.0860e-01    3.0183e+05 ;    C12 - H13   

[ pairs ]
;   ai     aj    funct
     1      8      1 ;      O - C5    
     1     10      1 ;      O - C7    
     1     28      1 ;      O - H10   
     1     30      1 ;      O - H12   
     2      9      1 ;     O1 - C6    
     2     11      1 ;     O1 - C8    
     2     29      1 ;     O1 - H11   
     2     31      1 ;     O1 - H13   
     3     12      1 ;      C - C9    
     3     13      1 ;      C - C10   
     3     14      1 ;      C - C11   
     3     15      1 ;      C - C12   
     3     24      1 ;      C - H6    
     3     25      1 ;      C - H7    
     3     26      1 ;      C - H8    
     3     27      1 ;      C - H9    
     4      9      1 ;     C1 - C6    
     4     11      1 ;     C1 - C8    
     4     16      1 ;     C1 - C13   
     4     18      1 ;     C1 - H     
     4     19      1 ;     C1 - H1    
     4     20      1 ;     C1 - H2    
     4     21      1 ;     C1 - H3    
     4     22      1 ;     C1 - H4    
     4     23      1 ;     C1 - H5    
     4     28      1 ;     C1 - H10   
     4     30      1 ;     C1 - H12   
     5      8      1 ;     C2 - C5    
     5     10      1 ;     C2 - C7    
     5     17      1 ;     C2 - C14   
     5     18      1 ;     C2 - H     
     5     19      1 ;     C2 - H1    
     5     20      1 ;     C2 - H2    
     5     21      1 ;     C2 - H3    
     5     22      1 ;     C2 - H4    
     5     23      1 ;     C2 - H5    
     5     29      1 ;     C2 - H11   
     5     31      1 ;     C2 - H13   
     6      8      1 ;     C3 - C5    
     6      9      1 ;     C3 - C6    
     6     10      1 ;     C3 - C7    
     6     11      1 ;     C3 - C8    
     6     21      1 ;     C3 - H3    
     6     22      1 ;     C3 - H4    
     6     23      1 ;     C3 - H5    
     7      8      1 ;     C4 - C5    
     7      9      1 ;     C4 - C6    
     7     10      1 ;     C4 - C7    
     7     11      1 ;     C4 - C8    
     7     18      1 ;     C4 - H     
     7     19      1 ;     C4 - H1    
     7     20      1 ;     C4 - H2    
     8     14      1 ;     C5 - C11   
     8     26      1 ;     C5 - H8    
     9     15      1 ;     C6 - C12   
     9     27      1 ;     C6 - H9    
    10     12      1 ;     C7 - C9    
    10     24      1 ;     C7 - H6    
    11     13      1 ;     C8 - C10   
    11     25      1 ;     C8 - H7    
    12     30      1 ;     C9 - H12   
    13     31      1 ;    C10 - H13   
    13     33      1 ;    C10 - H15   
    14     28      1 ;    C11 - H10   
    15     29      1 ;    C12 - H11   
    15     33      1 ;    C12 - H15   
    16     24      1 ;    C13 - H6    
    16     26      1 ;    C13 - H8    
    17     25      1 ;    C14 - H7    
    17     27      1 ;    C14 - H9    
    24     28      1 ;     H6 - H10   
    25     29      1 ;     H7 - H11   
    26     30      1 ;     H8 - H12   
    27     31      1 ;     H9 - H13   
    32     12      1 ;    H14 - C9    
    32     14      1 ;    H14 - C11   

[ angles ]
;   ai     aj     ak    funct   theta         cth
     1     16     12      1    1.1990e+02    6.5990e+02 ;      O - C13    - C9    
     1     16     14      1    1.1990e+02    6.5990e+02 ;      O - C13    - C11   
     2     17     13      1    1.1990e+02    6.5990e+02 ;     O1 - C14    - C10   
     2     17     15      1    1.1990e+02    6.5990e+02 ;     O1 - C14    - C12   
     3      4      8      1    1.2083e+02    5.0827e+02 ;      C - C1     - C5    
     3      4     10      1    1.2083e+02    5.0827e+02 ;      C - C1     - C7    
     3      5      9      1    1.2083e+02    5.0827e+02 ;      C - C2     - C6    
     3      5     11      1    1.2083e+02    5.0827e+02 ;      C - C2     - C8    
     3      6     18      1    1.0968e+02    3.6208e+02 ;      C - C3     - H     
     3      6     19      1    1.0968e+02    3.6208e+02 ;      C - C3     - H1    
     3      6     20      1    1.0968e+02    3.6208e+02 ;      C - C3     - H2    
     3      7     21      1    1.0968e+02    3.6208e+02 ;      C - C4     - H3    
     3      7     22      1    1.0968e+02    3.6208e+02 ;      C - C4     - H4    
     3      7     23      1    1.0968e+02    3.6208e+02 ;      C - C4     - H5    
     4      3      5      1    1.1231e+02    5.0861e+02 ;     C1 - C      - C2    
     4      3      6      1    1.1242e+02    5.0484e+02 ;     C1 - C      - C3    
     4      3      7      1    1.1242e+02    5.0484e+02 ;     C1 - C      - C4    
     4      8     12      1    1.2002e+02    5.3279e+02 ;     C1 - C5     - C9    
     4      8     24      1    1.1988e+02    3.7572e+02 ;     C1 - C5     - H6    
     4     10     14      1    1.2002e+02    5.3279e+02 ;     C1 - C7     - C11   
     4     10     26      1    1.1988e+02    3.7572e+02 ;     C1 - C7     - H8    
     5      3      6      1    1.1242e+02    5.0484e+02 ;     C2 - C      - C3    
     5      3      7      1    1.1242e+02    5.0484e+02 ;     C2 - C      - C4    
     5      9     13      1    1.2002e+02    5.3279e+02 ;     C2 - C6     - C10   
     5      9     25      1    1.1988e+02    3.7572e+02 ;     C2 - C6     - H7    
     5     11     15      1    1.2002e+02    5.3279e+02 ;     C2 - C8     - C12   
     5     11     27      1    1.1988e+02    3.7572e+02 ;     C2 - C8     - H9    
     6      3      7      1    1.1263e+02    5.0099e+02 ;     C3 - C      - C4    
     8      4     10      1    1.2002e+02    5.3279e+02 ;     C5 - C1     - C7    
     8     12     16      1    1.2002e+02    5.3279e+02 ;     C5 - C9     - C13   
     8     12     28      1    1.1988e+02    3.7572e+02 ;     C5 - C9     - H10   
     9      5     11      1    1.2002e+02    5.3279e+02 ;     C6 - C2     - C8    
     9     13     17      1    1.2002e+02    5.3279e+02 ;     C6 - C10    - C14   
     9     13     29      1    1.1988e+02    3.7572e+02 ;     C6 - C10    - H11   
    10     14     16      1    1.2002e+02    5.3279e+02 ;     C7 - C11    - C13   
    10     14     30      1    1.1988e+02    3.7572e+02 ;     C7 - C11    - H12   
    11     15     17      1    1.2002e+02    5.3279e+02 ;     C8 - C12    - C14   
    11     15     31      1    1.1988e+02    3.7572e+02 ;     C8 - C12    - H13   
    12      8     24      1    1.1988e+02    3.7572e+02 ;     C9 - C5     - H6    
    12     16     14      1    1.2002e+02    5.3279e+02 ;     C9 - C13    - C11   
    13      9     25      1    1.1988e+02    3.7572e+02 ;    C10 - C6     - H7    
    13     17     15      1    1.2002e+02    5.3279e+02 ;    C10 - C14    - C12   
    14     10     26      1    1.1988e+02    3.7572e+02 ;    C11 - C7     - H8    
    15     11     27      1    1.1988e+02    3.7572e+02 ;    C12 - C8     - H9    
    16      1     32      1    1.0858e+02    5.6409e+02 ;    C13 - O      - H14   
    16     12     28      1    1.1988e+02    3.7572e+02 ;    C13 - C9     - H10   
    16     14     30      1    1.1988e+02    3.7572e+02 ;    C13 - C11    - H12   
    17      2     33      1    1.0858e+02    5.6409e+02 ;    C14 - O1     - H15   
    17     13     29      1    1.1988e+02    3.7572e+02 ;    C14 - C10    - H11   
    17     15     31      1    1.1988e+02    3.7572e+02 ;    C14 - C12    - H13   
    18      6     19      1    1.0773e+02    2.9957e+02 ;      H - C3     - H1    
    18      6     20      1    1.0773e+02    2.9957e+02 ;      H - C3     - H2    
    19      6     20      1    1.0773e+02    2.9957e+02 ;     H1 - C3     - H2    
    21      7     22      1    1.0773e+02    2.9957e+02 ;     H3 - C4     - H4    
    21      7     23      1    1.0773e+02    2.9957e+02 ;     H3 - C4     - H5    
    22      7     23      1    1.0773e+02    2.9957e+02 ;     H4 - C4     - H5    

[ dihedrals ] ; propers
; for gromacs 4.5 or higher, using funct 9
;    i      j      k      l   func   phase     kd      pn
     1     16     12      8      9   180.00  15.16700   2 ;      O-   C13-    C9-    C5
     1     16     12     28      9   180.00  15.16700   2 ;      O-   C13-    C9-   H10
     1     16     14     10      9   180.00  15.16700   2 ;      O-   C13-   C11-    C7
     1     16     14     30      9   180.00  15.16700   2 ;      O-   C13-   C11-   H12
     2     17     13      9      9   180.00  15.16700   2 ;     O1-   C14-   C10-    C6
     2     17     13     29      9   180.00  15.16700   2 ;     O1-   C14-   C10-   H11
     2     17     15     11      9   180.00  15.16700   2 ;     O1-   C14-   C12-    C8
     2     17     15     31      9   180.00  15.16700   2 ;     O1-   C14-   C12-   H13
     3      4      8     12      9   180.00  15.16700   2 ;      C-    C1-    C5-    C9
     3      4      8     24      9   180.00  15.16700   2 ;      C-    C1-    C5-    H6
     3      4     10     14      9   180.00  15.16700   2 ;      C-    C1-    C7-   C11
     3      4     10     26      9   180.00  15.16700   2 ;      C-    C1-    C7-    H8
     3      5      9     13      9   180.00  15.16700   2 ;      C-    C2-    C6-   C10
     3      5      9     25      9   180.00  15.16700   2 ;      C-    C2-    C6-    H7
     3      5     11     15      9   180.00  15.16700   2 ;      C-    C2-    C8-   C12
     3      5     11     27      9   180.00  15.16700   2 ;      C-    C2-    C8-    H9
     4      3      5      9      9   180.00   0.00000   2 ;     C1-     C-    C2-    C6
     4      3      5     11      9   180.00   0.00000   2 ;     C1-     C-    C2-    C8
     4      3      6     18      9     0.00   0.65084   3 ;     C1-     C-    C3-     H
     4      3      6     19      9     0.00   0.65084   3 ;     C1-     C-    C3-    H1
     4      3      6     20      9     0.00   0.65084   3 ;     C1-     C-    C3-    H2
     4      3      7     21      9     0.00   0.65084   3 ;     C1-     C-    C4-    H3
     4      3      7     22      9     0.00   0.65084   3 ;     C1-     C-    C4-    H4
     4      3      7     23      9     0.00   0.65084   3 ;     C1-     C-    C4-    H5
     4      8     12     16      9   180.00  15.16700   2 ;     C1-    C5-    C9-   C13
     4      8     12     28      9   180.00  15.16700   2 ;     C1-    C5-    C9-   H10
     4     10     14     16      9   180.00  15.16700   2 ;     C1-    C7-   C11-   C13
     4     10     14     30      9   180.00  15.16700   2 ;     C1-    C7-   C11-   H12
     5      3      4      8      9   180.00   0.00000   2 ;     C2-     C-    C1-    C5
     5      3      4     10      9   180.00   0.00000   2 ;     C2-     C-    C1-    C7
     5      3      6     18      9     0.00   0.65084   3 ;     C2-     C-    C3-     H
     5      3      6     19      9     0.00   0.65084   3 ;     C2-     C-    C3-    H1
     5      3      6     20      9     0.00   0.65084   3 ;     C2-     C-    C3-    H2
     5      3      7     21      9     0.00   0.65084   3 ;     C2-     C-    C4-    H3
     5      3      7     22      9     0.00   0.65084   3 ;     C2-     C-    C4-    H4
     5      3      7     23      9     0.00   0.65084   3 ;     C2-     C-    C4-    H5
     5      9     13     17      9   180.00  15.16700   2 ;     C2-    C6-   C10-   C14
     5      9     13     29      9   180.00  15.16700   2 ;     C2-    C6-   C10-   H11
     5     11     15     17      9   180.00  15.16700   2 ;     C2-    C8-   C12-   C14
     5     11     15     31      9   180.00  15.16700   2 ;     C2-    C8-   C12-   H13
     6      3      4      8      9   180.00   1.00416   2 ;     C3-     C-    C1-    C5
     6      3      4     10      9   180.00   1.00416   2 ;     C3-     C-    C1-    C7
     6      3      5      9      9   180.00   1.00416   2 ;     C3-     C-    C2-    C6
     6      3      5     11      9   180.00   1.00416   2 ;     C3-     C-    C2-    C8
     6      3      7     21      9     0.00   0.54392   3 ;     C3-     C-    C4-    H3
     6      3      7     22      9     0.00   0.54392   3 ;     C3-     C-    C4-    H4
     6      3      7     23      9     0.00   0.54392   3 ;     C3-     C-    C4-    H5
     7      3      4      8      9   180.00   1.00416   2 ;     C4-     C-    C1-    C5
     7      3      4     10      9   180.00   1.00416   2 ;     C4-     C-    C1-    C7
     7      3      5      9      9   180.00   1.00416   2 ;     C4-     C-    C2-    C6
     7      3      5     11      9   180.00   1.00416   2 ;     C4-     C-    C2-    C8
     7      3      6     18      9     0.00   0.54392   3 ;     C4-     C-    C3-     H
     7      3      6     19      9     0.00   0.54392   3 ;     C4-     C-    C3-    H1
     7      3      6     20      9     0.00   0.54392   3 ;     C4-     C-    C3-    H2
     8      4     10     14      9   180.00  15.16700   2 ;     C5-    C1-    C7-   C11
     8      4     10     26      9   180.00  15.16700   2 ;     C5-    C1-    C7-    H8
     8     12     16     14      9   180.00  15.16700   2 ;     C5-    C9-   C13-   C11
     9      5     11     15      9   180.00  15.16700   2 ;     C6-    C2-    C8-   C12
     9      5     11     27      9   180.00  15.16700   2 ;     C6-    C2-    C8-    H9
     9     13     17     15      9   180.00  15.16700   2 ;     C6-   C10-   C14-   C12
    10      4      8     12      9   180.00  15.16700   2 ;     C7-    C1-    C5-    C9
    10      4      8     24      9   180.00  15.16700   2 ;     C7-    C1-    C5-    H6
    10     14     16     12      9   180.00  15.16700   2 ;     C7-   C11-   C13-    C9
    11      5      9     13      9   180.00  15.16700   2 ;     C8-    C2-    C6-   C10
    11      5      9     25      9   180.00  15.16700   2 ;     C8-    C2-    C6-    H7
    11     15     17     13      9   180.00  15.16700   2 ;     C8-   C12-   C14-   C10
    12     16     14     30      9   180.00  15.16700   2 ;     C9-   C13-   C11-   H12
    13     17      2     33      9   180.00   3.57732   2 ;    C10-   C14-    O1-   H15
    13     17     15     31      9   180.00  15.16700   2 ;    C10-   C14-   C12-   H13
    14     16     12     28      9   180.00  15.16700   2 ;    C11-   C13-    C9-   H10
    15     17      2     33      9   180.00   3.57732   2 ;    C12-   C14-    O1-   H15
    15     17     13     29      9   180.00  15.16700   2 ;    C12-   C14-   C10-   H11
    16     12      8     24      9   180.00  15.16700   2 ;    C13-    C9-    C5-    H6
    16     14     10     26      9   180.00  15.16700   2 ;    C13-   C11-    C7-    H8
    17     13      9     25      9   180.00  15.16700   2 ;    C14-   C10-    C6-    H7
    17     15     11     27      9   180.00  15.16700   2 ;    C14-   C12-    C8-    H9
    24      8     12     28      9   180.00  15.16700   2 ;     H6-    C5-    C9-   H10
    25      9     13     29      9   180.00  15.16700   2 ;     H7-    C6-   C10-   H11
    26     10     14     30      9   180.00  15.16700   2 ;     H8-    C7-   C11-   H12
    27     11     15     31      9   180.00  15.16700   2 ;     H9-    C8-   C12-   H13
    32      1     16     12      9   180.00   3.57732   2 ;    H14-     O-   C13-    C9
    32      1     16     14      9   180.00   3.57732   2 ;    H14-     O-   C13-   C11

[ dihedrals ] ; impropers
; treated as propers in GROMACS to use correct AMBER analytical function
;    i      j      k      l   func   phase     kd      pn
     1     16     14     12      4   180.00   4.60240   2 ;      O-   C13-   C11-    C9
     3      9      5     11      4   180.00   4.60240   2 ;      C-    C6-    C2-    C8
     4     12      8     24      4   180.00   4.60240   2 ;     C1-    C9-    C5-    H6
     4     14     10     26      4   180.00   4.60240   2 ;     C1-   C11-    C7-    H8
     5     13      9     25      4   180.00   4.60240   2 ;     C2-   C10-    C6-    H7
     5     15     11     27      4   180.00   4.60240   2 ;     C2-   C12-    C8-    H9
     8     10      4      3      4   180.00   4.60240   2 ;     C5-    C7-    C1-     C
     8     16     12     28      4   180.00   4.60240   2 ;     C5-   C13-    C9-   H10
     9     17     13     29      4   180.00   4.60240   2 ;     C6-   C14-   C10-   H11
    10     16     14     30      4   180.00   4.60240   2 ;     C7-   C13-   C11-   H12
    11     17     15     31      4   180.00   4.60240   2 ;     C8-   C14-   C12-   H13
    13     15     17      2      4   180.00   4.60240   2 ;    C10-   C12-   C14-    O1
