%VERSION  VERSION_STAMP = V0001.000  DATE = 02/09/26  17:33:16                  
%FLAG TITLE                                                                     
%FORMAT(20a4)                                                                   
6623                                                                            
%FLAG POINTERS                                                                  
%FORMAT(10I8)                                                                   
      33       6      16      18      30      26      58      36       0       0
     174       1      18      26      36       7      10       7       6       0
       0       0       0       0       0       0       0       0      33       0
       0
%FLAG ATOM_NAME                                                                 
%FORMAT(20a4)                                                                   
O   O1  C   C1  C2  C3  C4  C5  C6  C7  C8  C9  C10 C11 C12 C13 C14 H   H1  H2  
H3  H4  H5  H6  H7  H8  H9  H10 H11 H12 H13 H14 H15 
%FLAG CHARGE                                                                    
%FORMAT(5E16.8)                                                                 
 -9.07652763E+00 -9.07652763E+00  9.03826080E-01 -1.95525279E+00 -1.95525279E+00
 -1.56894003E+00 -1.56894003E+00 -1.63089585E+00 -1.63089585E+00 -1.63089585E+00
 -1.63089585E+00 -3.38023665E+00 -3.38023665E+00 -3.38023665E+00 -3.38023665E+00
  2.20672053E+00  2.20672053E+00  7.23425310E-01  7.23425310E-01  7.23425310E-01
  7.23425310E-01  7.23425310E-01  7.23425310E-01  2.51467740E+00  2.51467740E+00
  2.51467740E+00  2.51467740E+00  2.57845545E+00  2.57845545E+00  2.57845545E+00
  2.57845545E+00  7.61692140E+00  7.61692140E+00
%FLAG ATOMIC_NUMBER                                                             
%FORMAT(10I8)                                                                   
       8       8       6       6       6       6       6       6       6       6
       6       6       6       6       6       6       6       1       1       1
       1       1       1       1       1       1       1       1       1       1
       1       1       1
%FLAG MASS                                                                      
%FORMAT(5E16.8)                                                                 
  1.60000000E+01  1.60000000E+01  1.20100000E+01  1.20100000E+01  1.20100000E+01
  1.20100000E+01  1.20100000E+01  1.20100000E+01  1.20100000E+01  1.20100000E+01
  1.20100000E+01  1.20100000E+01  1.20100000E+01  1.20100000E+01  1.20100000E+01
  1.20100000E+01  1.20100000E+01  1.00800000E+00  1.00800000E+00  1.00800000E+00
  1.00800000E+00  1.00800000E+00  1.00800000E+00  1.00800000E+00  1.00800000E+00
  1.00800000E+00  1.00800000E+00  1.00800000E+00  1.00800000E+00  1.00800000E+00
  1.00800000E+00  1.00800000E+00  1.00800000E+00
%FLAG ATOM_TYPE_INDEX                                                           
%FORMAT(10I8)                                                                   
       1       1       2       3       3       2       2       3       3       3
       3       3       3       3       3       3       3       4       4       4
       4       4       4       5       5       5       5       5       5       5
       5       6       6
%FLAG NUMBER_EXCLUDED_ATOMS                                                     
%FORMAT(10I8)                                                                   
       8       8      22      20      19      11      10       7       7       6
       6       6       6       5       5       5       5       2       1       1
       2       1       1       1       1       1       1       1       1       1
       1       1       1
%FLAG NONBONDED_PARM_INDEX                                                      
%FORMAT(10I8)                                                                   
       1       2       4       7      11      16       2       3       5       8
      12      17       4       5       6       9      13      18       7       8
       9      10      14      19      11      12      13      14      15      20
      16      17      18      19      20      21
%FLAG RESIDUE_LABEL                                                             
%FORMAT(20a4)                                                                   
UNL 
%FLAG RESIDUE_POINTER                                                           
%FORMAT(10I8)                                                                   
       1
%FLAG BOND_FORCE_CONSTANT                                                       
%FORMAT(5E16.8)                                                                 
  3.48550000E+02  5.35510000E+02  2.43910000E+02  2.28890000E+02  3.54250000E+02
  3.45250000E+02  3.60690000E+02
%FLAG BOND_EQUIL_VALUE                                                          
%FORMAT(5E16.8)                                                                 
  1.36440000E+00  9.72500000E-01  1.51470000E+00  1.53540000E+00  1.39860000E+00
  1.09620000E+00  1.08600000E+00
%FLAG ANGLE_FORCE_CONSTANT                                                      
%FORMAT(5E16.8)                                                                 
  7.88600000E+01  6.07400000E+01  4.32700000E+01  6.07800000E+01  6.03300000E+01
  6.36700000E+01  4.49000000E+01  5.98700000E+01  6.74100000E+01  3.58000000E+01
%FLAG ANGLE_EQUIL_VALUE                                                         
%FORMAT(5E16.8)                                                                 
  2.09265067E+00  2.10888224E+00  1.91427794E+00  1.96018012E+00  1.96209999E+00
  2.09474507E+00  2.09230160E+00  1.96576518E+00  1.89507931E+00  1.88024401E+00
%FLAG DIHEDRAL_FORCE_CONSTANT                                                   
%FORMAT(5E16.8)                                                                 
  3.62500000E+00  0.00000000E+00  1.55555556E-01  2.40000000E-01  1.30000000E-01
  8.55000000E-01  1.10000000E+00
%FLAG DIHEDRAL_PERIODICITY                                                      
%FORMAT(5E16.8)                                                                 
  2.00000000E+00  2.00000000E+00  3.00000000E+00  2.00000000E+00  3.00000000E+00
  2.00000000E+00  2.00000000E+00
%FLAG DIHEDRAL_PHASE                                                            
%FORMAT(5E16.8)                                                                 
  3.14159400E+00  3.14159400E+00  0.00000000E+00  3.14159400E+00  0.00000000E+00
  3.14159400E+00  3.14159400E+00
%FLAG SCEE_SCALE_FACTOR                                                         
%FORMAT(5E16.8)                                                                 
  1.20000000E+00  1.20000000E+00  1.20000000E+00  1.20000000E+00  1.20000000E+00
  1.20000000E+00  0.00000000E+00
%FLAG SCNB_SCALE_FACTOR                                                         
%FORMAT(5E16.8)                                                                 
  2.00000000E+00  2.00000000E+00  2.00000000E+00  2.00000000E+00  2.00000000E+00
  2.00000000E+00  0.00000000E+00
%FLAG SOLTY                                                                     
%FORMAT(5E16.8)                                                                 
  0.00000000E+00  0.00000000E+00  0.00000000E+00  0.00000000E+00  0.00000000E+00
  0.00000000E+00
%FLAG LENNARD_JONES_ACOEF                                                       
%FORMAT(5E16.8)                                                                 
  5.03152404E+05  7.18991463E+05  1.02073671E+06  5.92438683E+05  8.43969952E+05
  6.96551276E+05  6.80216136E+04  1.00235148E+05  8.12662403E+04  7.94617769E+03
  6.30298721E+04  9.27554496E+04  7.52549148E+04  7.41026906E+03  6.90855956E+03
  1.74176419E+02  3.03553352E+02  2.25372434E+02  8.80612241E+00  8.53132435E+00
  1.10360882E-05
%FLAG LENNARD_JONES_BCOEF                                                       
%FORMAT(5E16.8)                                                                 
  4.32634597E+02  5.36620538E+02  6.63431737E+02  4.76608379E+02  5.90251928E+02
  5.24668528E+02  1.09393126E+02  1.37787728E+02  1.21392023E+02  2.57122925E+01
  9.87712192E+01  1.24325688E+02  1.09570372E+02  2.32899892E+01  2.10929191E+01
  3.81654050E+00  5.22789272E+00  4.40751799E+00  5.90150328E-01  5.44840215E-01
  4.55498033E-04
%FLAG BONDS_INC_HYDROGEN                                                        
%FORMAT(10I8)                                                                   
       0      93       2       3      96       2      15      51       6      15
      54       6      15      57       6      18      60       6      18      63
       6      18      66       6      21      69       7      24      72       7
      27      75       7      30      78       7      33      81       7      36
      84       7      39      87       7      42      90       7
%FLAG BONDS_WITHOUT_HYDROGEN                                                    
%FORMAT(10I8)                                                                   
       0      45       1       3      48       1       6       9       3       6
      12       3       6      15       4       6      18       4       9      21
       5       9      27       5      12      24       5      12      30       5
      21      33       5      24      36       5      27      39       5      30
      42       5      33      45       5      36      48       5      39      45
       5      42      48       5
%FLAG ANGLES_INC_HYDROGEN                                                       
%FORMAT(10I8)                                                                   
       6      15      51       3       6      15      54       3       6      15
      57       3       6      18      60       3       6      18      63       3
       6      18      66       3       9      21      69       7       9      27
      75       7      12      24      72       7      12      30      78       7
      21      33      81       7      24      36      84       7      27      39
      87       7      30      42      90       7      33      21      69       7
      36      24      72       7      39      27      75       7      42      30
      78       7      45       0      93       9      45      33      81       7
      45      39      87       7      48       3      96       9      48      36
      84       7      48      42      90       7      51      15      54      10
      51      15      57      10      54      15      57      10      60      18
      63      10      60      18      66      10      63      18      66      10
%FLAG ANGLES_WITHOUT_HYDROGEN                                                   
%FORMAT(10I8)                                                                   
       0      45      33       1       0      45      39       1       3      48
      36       1       3      48      42       1       6       9      21       2
       6       9      27       2       6      12      24       2       6      12
      30       2       9       6      12       4       9       6      15       5
       9       6      18       5       9      21      33       6       9      27
      39       6      12       6      15       5      12       6      18       5
      12      24      36       6      12      30      42       6      15       6
      18       8      21       9      27       6      21      33      45       6
      24      12      30       6      24      36      48       6      27      39
      45       6      30      42      48       6      33      45      39       6
      36      48      42       6
%FLAG DIHEDRALS_INC_HYDROGEN                                                    
%FORMAT(10I8)                                                                   
       0      45      33      81       1       0      45      39      87       1
       3      48      36      84       1       3      48      42      90       1
       6       9      21      69       1       6       9      27      75       1
       6      12      24      72       1       6      12      30      78       1
       9       6      15      51       3       9       6      15      54       3
       9       6      15      57       3       9       6      18      60       3
       9       6      18      63       3       9       6      18      66       3
       9      21      33      81       1       9      27      39      87       1
      12       6      15      51       3      12       6      15      54       3
      12       6      15      57       3      12       6      18      60       3
      12       6      18      63       3      12       6      18      66       3
      12      24      36      84       1      12      30      42      90       1
      15       6      18      60       5      15       6      18      63       5
      15       6      18      66       5      18       6      15      51       5
      18       6      15      54       5      18       6      15      57       5
      21       9      27      75       1      24      12      30      78       1
      27       9      21      69       1      30      12      24      72       1
      93       0      45      33       6      33      45      39      87       1
      36      48       3      96       6      36      48      42      90       1
      93       0      45      39       6      39      45      33      81       1
      42      48       3      96       6      42      48      36      84       1
      45      33      21      69       1      45      39      27      75       1
      48      36      24      72       1      48      42      30      78       1
      69      21      33      81       1      72      24      36      84       1
      75      27      39      87       1      78      30      42      90       1
       9      33     -21     -69       7      12      36     -24     -72       7
       9      39     -27     -75       7      12      42     -30     -78       7
      21      45     -33     -81       7      24      48     -36     -84       7
      27      45     -39     -87       7      30      48     -42     -90       7
%FLAG DIHEDRALS_WITHOUT_HYDROGEN                                                
%FORMAT(10I8)                                                                   
       0      45      33      21       1       0      45      39      27       1
       3      48      36      24       1       3      48      42      30       1
       6       9      21      33       1       6       9      27      39       1
       6      12      24      36       1       6      12      30      42       1
       9       6      12      24       2       9       6      12      30       2
       9      21      33      45       1       9      27     -39      45       1
      12       6       9      21       2      12       6       9      27       2
      12      24      36      48       1      12      30     -42      48       1
      15       6       9      21       4      15       6       9      27       4
      15       6      12      24       4      15       6      12      30       4
      18       6       9      21       4      18       6       9      27       4
      18       6      12      24       4      18       6      12      30       4
      21       9      27      39       1      21      33     -45      39       1
      24      12      30      42       1      24      36     -48      42       1
      27       9      21      33       1      27      39     -45      33       1
      30      12      24      36       1      30      42     -48      36       1
      21      27      -9      -6       7       6      24     -12     -30       7
       0      45     -39     -33       7      36      42     -48      -3       7
%FLAG EXCLUDED_ATOMS_LIST                                                       
%FORMAT(10I8)                                                                   
       8      10      12      14      16      28      30      32       9      11
      13      15      17      29      31      33       4       5       6       7
       8       9      10      11      12      13      14      15      18      19
      20      21      22      23      24      25      26      27       5       6
       7       8       9      10      11      12      14      16      18      19
      20      21      22      23      24      26      28      30       6       7
       8       9      10      11      13      15      17      18      19      20
      21      22      23      25      27      29      31       7       8       9
      10      11      18      19      20      21      22      23       8       9
      10      11      18      19      20      21      22      23      10      12
      14      16      24      26      28      11      13      15      17      25
      27      29      12      14      16      24      26      30      13      15
      17      25      27      31      14      16      24      28      30      32
      15      17      25      29      31      33      16      26      28      30
      32      17      27      29      31      33      24      26      28      30
      32      25      27      29      31      33      19      20      20       0
      22      23      23       0      28      29      30      31       0       0
       0       0       0       0
%FLAG HBOND_ACOEF                                                               
%FORMAT(5E16.8)                                                                 

%FLAG HBOND_BCOEF                                                               
%FORMAT(5E16.8)                                                                 

%FLAG HBCUT                                                                     
%FORMAT(5E16.8)                                                                 

%FLAG AMBER_ATOM_TYPE                                                           
%FORMAT(20a4)                                                                   
oh  oh  c3  ca  ca  c3  c3  ca  ca  ca  ca  ca  ca  ca  ca  ca  ca  hc  hc  hc  
hc  hc  hc  ha  ha  ha  ha  ha  ha  ha  ha  ho  ho  
%FLAG TREE_CHAIN_CLASSIFICATION                                                 
%FORMAT(20a4)                                                                   
BLA BLA BLA BLA BLA BLA BLA BLA BLA BLA BLA BLA BLA BLA BLA BLA BLA BLA BLA BLA 
BLA BLA BLA BLA BLA BLA BLA BLA BLA BLA BLA BLA BLA 
%FLAG JOIN_ARRAY                                                                
%FORMAT(10I8)                                                                   
       0       0       0       0       0       0       0       0       0       0
       0       0       0       0       0       0       0       0       0       0
       0       0       0       0       0       0       0       0       0       0
       0       0       0
%FLAG IROTAT                                                                    
%FORMAT(10I8)                                                                   
       0       0       0       0       0       0       0       0       0       0
       0       0       0       0       0       0       0       0       0       0
       0       0       0       0       0       0       0       0       0       0
       0       0       0
%FLAG RADIUS_SET                                                                
%FORMAT(1a80)                                                                   
modified Bondi radii (mbondi)                                                   
%FLAG RADII                                                                     
%FORMAT(5E16.8)                                                                 
  1.50000000E+00  1.50000000E+00  1.70000000E+00  1.70000000E+00  1.70000000E+00
  1.70000000E+00  1.70000000E+00  1.70000000E+00  1.70000000E+00  1.70000000E+00
  1.70000000E+00  1.70000000E+00  1.70000000E+00  1.70000000E+00  1.70000000E+00
  1.70000000E+00  1.70000000E+00  1.30000000E+00  1.30000000E+00  1.30000000E+00
  1.30000000E+00  1.30000000E+00  1.30000000E+00  1.30000000E+00  1.30000000E+00
  1.30000000E+00  1.30000000E+00  1.30000000E+00  1.30000000E+00  1.30000000E+00
  1.30000000E+00  8.00000000E-01  8.00000000E-01
%FLAG SCREEN                                                                    
%FORMAT(5E16.8)                                                                 
  8.50000000E-01  8.50000000E-01  7.20000000E-01  7.20000000E-01  7.20000000E-01
  7.20000000E-01  7.20000000E-01  7.20000000E-01  7.20000000E-01  7.20000000E-01
  7.20000000E-01  7.20000000E-01  7.20000000E-01  7.20000000E-01  7.20000000E-01
  7.20000000E-01  7.20000000E-01  8.50000000E-01  8.50000000E-01  8.50000000E-01
  8.50000000E-01  8.50000000E-01  8.50000000E-01  8.50000000E-01  8.50000000E-01
  8.50000000E-01  8.50000000E-01  8.50000000E-01  8.50000000E-01  8.50000000E-01
  8.50000000E-01  8.50000000E-01  8.50000000E-01
%FLAG IPOL                                                                      
%FORMAT(1I8)                                                                    
       0
