; bisphenol-a_GMX.top created by acpype (v: 2023.10.27) on Mon Feb  9 17:32:51 2026

[ defaults ]
; nbfunc        comb-rule       gen-pairs       fudgeLJ fudgeQQ
1               2               yes             0.5     0.8333333333

; Include bisphenol-a_GMX.itp topology
#include "bisphenol-a_GMX.itp"

; Ligand position restraints
#ifdef POSRES_LIG
#include "posre_bisphenol-a.itp"
#endif

[ system ]
 bisphenol-a

[ molecules ]
; Compound        nmols
 bisphenol-a      1     
