proline_GMX.gro created by acpype (v: 2023.10.27) on Mon Feb  9 17:56:02 2026
 17
    1  PRO    O    1   0.216  -0.095  -0.011
    1  PRO  OXT    2   0.157   0.122  -0.050
    1  PRO    N    3  -0.078   0.093   0.078
    1  PRO   CA    4   0.008  -0.025   0.072
    1  PRO   CB    5  -0.072  -0.132  -0.000
    1  PRO   CG    6  -0.199  -0.061  -0.048
    1  PRO   CD    7  -0.165   0.086  -0.039
    1  PRO    C    8   0.133   0.012  -0.002
    1  PRO   HA    9   0.036  -0.055   0.174
    1  PRO  HB1   10  -0.099  -0.214   0.067
    1  PRO  HB2   11  -0.019  -0.174  -0.086
    1  PRO  HG1   12  -0.228  -0.092  -0.149
    1  PRO  HG2   13  -0.282  -0.085   0.020
    1  PRO  HD1   14  -0.112   0.119  -0.129
    1  PRO  HD2   15  -0.254   0.148  -0.027
    1  PRO    H   16  -0.025   0.180   0.080
    1  PRO   H1   17   0.298  -0.073  -0.060
   11.60600     7.88600     6.44800
