145742
    17
   2.1620000  -0.9510000  -0.1120000   1.5690000   1.2160000  -0.4950000
  -0.7810000   0.9310000   0.7770000   0.0830000  -0.2480000   0.7250000
  -0.7240000  -1.3170000  -0.0030000  -1.9890000  -0.6110000  -0.4750000
  -1.6500000   0.8640000  -0.3930000   1.3290000   0.1150000  -0.0240000
   0.3620000  -0.5520000   1.7390000  -0.9870000  -2.1430000   0.6670000
  -0.1920000  -1.7410000  -0.8620000  -2.2800000  -0.9160000  -1.4850000
  -2.8190000  -0.8490000   0.2020000  -1.1200000   1.1930000  -1.2940000
  -2.5420000   1.4830000  -0.2690000  -0.2510000   1.8000000   0.8020000
   2.9840000  -0.7340000  -0.6010000
