; proline_GMX.itp created by acpype (v: 2023.10.27) on Mon Feb  9 17:56:02 2026

[ atomtypes ]
;name   bond_type     mass     charge   ptype   sigma         epsilon       Amb
 oh       oh          0.00000  0.00000   A     3.24287e-01   3.89112e-01 ; 1.82  0.0930
 o        o           0.00000  0.00000   A     3.04812e-01   6.12119e-01 ; 1.71  0.1463
 n7       n7          0.00000  0.00000   A     3.50765e-01   2.18405e-01 ; 1.97  0.0522
 c5       c5          0.00000  0.00000   A     3.39771e-01   4.51035e-01 ; 1.91  0.1078
 c        c           0.00000  0.00000   A     3.31521e-01   4.13379e-01 ; 1.86  0.0988
 h1       h1          0.00000  0.00000   A     2.42200e-01   8.70272e-02 ; 1.36  0.0208
 hc       hc          0.00000  0.00000   A     2.60018e-01   8.70272e-02 ; 1.46  0.0208
 hn       hn          0.00000  0.00000   A     1.10650e-01   4.18400e-02 ; 0.62  0.0100
 ho       ho          0.00000  0.00000   A     5.37925e-02   1.96648e-02 ; 0.30  0.0047

[ moleculetype ]
;name            nrexcl
 proline          3

[ atoms ]
;   nr  type  resi  res  atom  cgnr     charge      mass       ; qtot   bond_type
     1   oh     1   PRO     O    1    -0.602100     16.00000 ; qtot -0.602
     2    o     1   PRO   OXT    2    -0.555000     16.00000 ; qtot -1.157
     3   n7     1   PRO     N    3    -0.797200     14.01000 ; qtot -1.954
     4   c5     1   PRO    CA    4     0.125500     12.01000 ; qtot -1.829
     5   c5     1   PRO    CB    5    -0.082400     12.01000 ; qtot -1.911
     6   c5     1   PRO    CG    6    -0.098400     12.01000 ; qtot -2.010
     7   c5     1   PRO    CD    7     0.147800     12.01000 ; qtot -1.862
     8    c     1   PRO     C    8     0.611100     12.01000 ; qtot -1.251
     9   h1     1   PRO    HA    9     0.098700      1.00800 ; qtot -1.152
    10   hc     1   PRO   HB1   10     0.061200      1.00800 ; qtot -1.091
    11   hc     1   PRO   HB2   11     0.061200      1.00800 ; qtot -1.030
    12   hc     1   PRO   HG1   12     0.052700      1.00800 ; qtot -0.977
    13   hc     1   PRO   HG2   13     0.052700      1.00800 ; qtot -0.924
    14   h1     1   PRO   HD1   14     0.048700      1.00800 ; qtot -0.876
    15   h1     1   PRO   HD2   15     0.048700      1.00800 ; qtot -0.827
    16   hn     1   PRO     H   16     0.380800      1.00800 ; qtot -0.446
    17   ho     1   PRO    H1   17     0.446000      1.00800 ; qtot -0.000

[ bonds ]
;   ai     aj funct   r             k
     1      8   1    1.3556e-01    3.0064e+05 ;      O - C     
     1     17   1    9.7250e-02    4.4811e+05 ;      O - H1    
     2      8   1    1.2190e-01    4.9421e+05 ;    OXT - C     
     3      4   1    1.4706e-01    2.0870e+05 ;      N - CA    
     3      7   1    1.4706e-01    2.0870e+05 ;      N - CD    
     3     16   1    1.0195e-01    3.8497e+05 ;      N - H     
     4      5   1    1.5483e-01    1.8418e+05 ;     CA - CB    
     4      8   1    1.5346e-01    1.9200e+05 ;     CA - C     
     4      9   1    1.0972e-01    2.8768e+05 ;     CA - HA    
     5      6   1    1.5483e-01    1.8418e+05 ;     CB - CG    
     5     10   1    1.0954e-01    2.8989e+05 ;     CB - HB1   
     5     11   1    1.0954e-01    2.8989e+05 ;     CB - HB2   
     6      7   1    1.5483e-01    1.8418e+05 ;     CG - CD    
     6     12   1    1.0954e-01    2.8989e+05 ;     CG - HG1   
     6     13   1    1.0954e-01    2.8989e+05 ;     CG - HG2   
     7     14   1    1.0972e-01    2.8768e+05 ;     CD - HD1   
     7     15   1    1.0972e-01    2.8768e+05 ;     CD - HD2   

[ pairs ]
;   ai     aj    funct
     1      3      1 ;      O - N     
     1      5      1 ;      O - CB    
     1      9      1 ;      O - HA    
     2      3      1 ;    OXT - N     
     2      5      1 ;    OXT - CB    
     2      9      1 ;    OXT - HA    
     3     10      1 ;      N - HB1   
     3     11      1 ;      N - HB2   
     3     12      1 ;      N - HG1   
     3     13      1 ;      N - HG2   
     4     12      1 ;     CA - HG1   
     4     13      1 ;     CA - HG2   
     4     14      1 ;     CA - HD1   
     4     15      1 ;     CA - HD2   
     5     14      1 ;     CB - HD1   
     5     15      1 ;     CB - HD2   
     5     16      1 ;     CB - H     
     6      8      1 ;     CG - C     
     6      9      1 ;     CG - HA    
     6     16      1 ;     CG - H     
     7      8      1 ;     CD - C     
     7      9      1 ;     CD - HA    
     7     10      1 ;     CD - HB1   
     7     11      1 ;     CD - HB2   
     8     10      1 ;      C - HB1   
     8     11      1 ;      C - HB2   
     8     16      1 ;      C - H     
     9     10      1 ;     HA - HB1   
     9     11      1 ;     HA - HB2   
     9     16      1 ;     HA - H     
    10     12      1 ;    HB1 - HG1   
    10     13      1 ;    HB1 - HG2   
    11     12      1 ;    HB2 - HG1   
    11     13      1 ;    HB2 - HG2   
    12     14      1 ;    HG1 - HD1   
    12     15      1 ;    HG1 - HD2   
    13     14      1 ;    HG2 - HD1   
    13     15      1 ;    HG2 - HD2   
    14     16      1 ;    HD1 - H     
    15     16      1 ;    HD2 - H     
    17      2      1 ;     H1 - OXT   
    17      4      1 ;     H1 - CA    

[ angles ]
;   ai     aj     ak    funct   theta         cth
     1      8      2      1    1.2209e+02    8.5379e+02 ;      O - C      - OXT   
     1      8      4      1    1.1206e+02    6.4777e+02 ;      O - C      - CA    
     2      8      4      1    1.2567e+02    6.3019e+02 ;    OXT - C      - CA    
     3      4      5      1    1.0629e+02    5.5614e+02 ;      N - CA     - CB    
     3      4      8      1    1.1019e+02    5.4894e+02 ;      N - CA     - C     
     3      4      9      1    1.1017e+02    3.9832e+02 ;      N - CA     - HA    
     3      7      6      1    1.0629e+02    5.5614e+02 ;      N - CD     - CG    
     3      7     14      1    1.1017e+02    3.9832e+02 ;      N - CD     - HD1   
     3      7     15      1    1.1017e+02    3.9832e+02 ;      N - CD     - HD2   
     4      3      7      1    1.0613e+02    6.6601e+02 ;     CA - N      - CD    
     4      3     16      1    1.0973e+02    4.6811e+02 ;     CA - N      - H     
     4      5      6      1    1.0383e+02    5.1748e+02 ;     CA - CB     - CG    
     4      5     10      1    1.1117e+02    3.5690e+02 ;     CA - CB     - HB1   
     4      5     11      1    1.1117e+02    3.5690e+02 ;     CA - CB     - HB2   
     5      4      8      1    1.0786e+02    5.0995e+02 ;     CB - CA     - C     
     5      4      9      1    1.1117e+02    3.5690e+02 ;     CB - CA     - HA    
     5      6      7      1    1.0383e+02    5.1748e+02 ;     CB - CG     - CD    
     5      6     12      1    1.1117e+02    3.5690e+02 ;     CB - CG     - HG1   
     5      6     13      1    1.1117e+02    3.5690e+02 ;     CB - CG     - HG2   
     6      5     10      1    1.1117e+02    3.5690e+02 ;     CG - CB     - HB1   
     6      5     11      1    1.1117e+02    3.5690e+02 ;     CG - CB     - HB2   
     6      7     14      1    1.1117e+02    3.5690e+02 ;     CG - CD     - HD1   
     6      7     15      1    1.1117e+02    3.5690e+02 ;     CG - CD     - HD2   
     7      3     16      1    1.0973e+02    4.6811e+02 ;     CD - N      - H     
     7      6     12      1    1.1117e+02    3.5690e+02 ;     CD - CG     - HG1   
     7      6     13      1    1.1117e+02    3.5690e+02 ;     CD - CG     - HG2   
     8      1     17      1    1.0654e+02    5.7287e+02 ;      C - O      - H1    
     8      4      9      1    1.0855e+02    3.6409e+02 ;      C - CA     - HA    
    10      5     11      1    1.0722e+02    3.0049e+02 ;    HB1 - CB     - HB2   
    12      6     13      1    1.0722e+02    3.0049e+02 ;    HG1 - CG     - HG2   
    14      7     15      1    1.0813e+02    2.9874e+02 ;    HD1 - CD     - HD2   

[ dihedrals ] ; propers
; for gromacs 4.5 or higher, using funct 9
;    i      j      k      l   func   phase     kd      pn
     1      8      4      3      9   180.00   0.00000   2 ;      O-     C-    CA-     N
     1      8      4      5      9   180.00   0.00000   2 ;      O-     C-    CA-    CB
     1      8      4      9      9   180.00   0.00000   2 ;      O-     C-    CA-    HA
     2      8      4      3      9   180.00   0.00000   2 ;    OXT-     C-    CA-     N
     2      8      4      5      9     0.00   2.84512   1 ;    OXT-     C-    CA-    CB
     2      8      4      5      9   180.00   0.83680   2 ;    OXT-     C-    CA-    CB
     2      8      4      5      9   180.00   1.84096   3 ;    OXT-     C-    CA-    CB
     2      8      4      9      9     0.00   3.34720   1 ;    OXT-     C-    CA-    HA
     2      8      4      9      9   180.00   0.33472   3 ;    OXT-     C-    CA-    HA
     3      4      5      6      9     0.00   0.87864   3 ;      N-    CA-    CB-    CG
     3      4      5     10      9     0.00   0.41840   3 ;      N-    CA-    CB-   HB1
     3      4      5     11      9     0.00   0.41840   3 ;      N-    CA-    CB-   HB2
     3      7      6      5      9     0.00   0.87864   3 ;      N-    CD-    CG-    CB
     3      7      6     12      9     0.00   0.41840   3 ;      N-    CD-    CG-   HG1
     3      7      6     13      9     0.00   0.41840   3 ;      N-    CD-    CG-   HG2
     4      3      7      6      9     0.00   0.58576   3 ;     CA-     N-    CD-    CG
     4      3      7     14      9     0.00   0.89956   3 ;     CA-     N-    CD-   HD1
     4      3      7     15      9     0.00   0.89956   3 ;     CA-     N-    CD-   HD2
     4      5      6      7      9     0.00   2.17568   3 ;     CA-    CB-    CG-    CD
     4      5      6     12      9     0.00   0.54392   3 ;     CA-    CB-    CG-   HG1
     4      5      6     13      9     0.00   0.54392   3 ;     CA-    CB-    CG-   HG2
     5      4      3      7      9     0.00   0.58576   3 ;     CB-    CA-     N-    CD
     5      4      3     16      9     0.00   0.90793   3 ;     CB-    CA-     N-     H
     5      6      7     14      9     0.00   0.65084   3 ;     CB-    CG-    CD-   HD1
     5      6      7     15      9     0.00   0.65084   3 ;     CB-    CG-    CD-   HD2
     6      5      4      8      9     0.00   0.00000   0 ;     CG-    CB-    CA-     C
     6      5      4      8      9     0.00   0.16736   2 ;     CG-    CB-    CA-     C
     6      5      4      8      9   180.00   1.92464   1 ;     CG-    CB-    CA-     C
     6      5      4      9      9     0.00   0.65084   3 ;     CG-    CB-    CA-    HA
     6      7      3     16      9     0.00   0.90793   3 ;     CG-    CD-     N-     H
     7      3      4      8      9     0.00   1.25520   3 ;     CD-     N-    CA-     C
     7      3      4      9      9     0.00   0.89956   3 ;     CD-     N-    CA-    HA
     7      6      5     10      9     0.00   0.54392   3 ;     CD-    CG-    CB-   HB1
     7      6      5     11      9     0.00   0.54392   3 ;     CD-    CG-    CB-   HB2
     8      4      3     16      9     0.00   1.25520   3 ;      C-    CA-     N-     H
     8      4      5     10      9     0.00   0.65084   3 ;      C-    CA-    CB-   HB1
     8      4      5     11      9     0.00   0.65084   3 ;      C-    CA-    CB-   HB2
     9      4      3     16      9     0.00   1.25520   3 ;     HA-    CA-     N-     H
     9      4      5     10      9     0.00   0.65084   3 ;     HA-    CA-    CB-   HB1
     9      4      5     11      9     0.00   0.65084   3 ;     HA-    CA-    CB-   HB2
    10      5      6     12      9     0.00   0.50208   3 ;    HB1-    CB-    CG-   HG1
    10      5      6     13      9     0.00   0.50208   3 ;    HB1-    CB-    CG-   HG2
    11      5      6     12      9     0.00   0.50208   3 ;    HB2-    CB-    CG-   HG1
    11      5      6     13      9     0.00   0.50208   3 ;    HB2-    CB-    CG-   HG2
    12      6      7     14      9     0.00   0.65084   3 ;    HG1-    CG-    CD-   HD1
    12      6      7     15      9     0.00   0.65084   3 ;    HG1-    CG-    CD-   HD2
    13      6      7     14      9     0.00   0.65084   3 ;    HG2-    CG-    CD-   HD1
    13      6      7     15      9     0.00   0.65084   3 ;    HG2-    CG-    CD-   HD2
    14      7      3     16      9     0.00   1.25520   3 ;    HD1-    CD-     N-     H
    15      7      3     16      9     0.00   1.25520   3 ;    HD2-    CD-     N-     H
    17      1      8      2      9     0.00   7.94960   1 ;     H1-     O-     C-   OXT
    17      1      8      2      9   180.00   9.62320   2 ;     H1-     O-     C-   OXT
    17      1      8      4      9   180.00   7.53120   2 ;     H1-     O-     C-    CA

[ dihedrals ] ; impropers
; treated as propers in GROMACS to use correct AMBER analytical function
;    i      j      k      l   func   phase     kd      pn
     1      8      2      4      4   180.00   4.60240   2 ;      O-     C-   OXT-    CA
