; proline_GMX_OPLS.itp created by acpype (v: 2023.10.27) on Mon Feb  9 17:56:02 2026

; For OPLS atomtypes manual fine tuning
; AC_at:OPLS_at:OPLScode: Possible_Alternatives (see ffoplsaa.atp and ffoplsaanb.itp)
; oh:OH:opls_154: ['167']
; o:O:opls_236: ['272']
; n7:x:opls_x: []
; c5:x:opls_x: []
; c:C:opls_235: ['271']
; h1:HC:opls_140: []
; hc:HC:opls_140: []
; hn:H:opls_240: ['241', '290', '301', '304', '310', '504', '513']
; ho:HO:opls_155: ['168']

[ moleculetype ]
;name            nrexcl
 proline          3

[ atoms ]
;   nr  type  resi  res  atom  cgnr     charge      mass       ; qtot   bond_type
     1 opls_154     1   PRO     O    1    -0.602100     15.99940 ; qtot -0.602  OH  
     2 opls_236     1   PRO   OXT    2    -0.555000     15.99940 ; qtot -1.157  O   
     3 opls_x     1   PRO     N    3    -0.797200      0.00000 ; qtot -1.954  x   
     4 opls_x     1   PRO    CA    4     0.125500      0.00000 ; qtot -1.829  x   
     5 opls_x     1   PRO    CB    5    -0.082400      0.00000 ; qtot -1.911  x   
     6 opls_x     1   PRO    CG    6    -0.098400      0.00000 ; qtot -2.010  x   
     7 opls_x     1   PRO    CD    7     0.147800      0.00000 ; qtot -1.862  x   
     8 opls_235     1   PRO     C    8     0.611100     12.01100 ; qtot -1.251  C   
     9 opls_140     1   PRO    HA    9     0.098700      1.00800 ; qtot -1.152  HC  
    10 opls_140     1   PRO   HB1   10     0.061200      1.00800 ; qtot -1.091  HC  
    11 opls_140     1   PRO   HB2   11     0.061200      1.00800 ; qtot -1.030  HC  
    12 opls_140     1   PRO   HG1   12     0.052700      1.00800 ; qtot -0.977  HC  
    13 opls_140     1   PRO   HG2   13     0.052700      1.00800 ; qtot -0.924  HC  
    14 opls_140     1   PRO   HD1   14     0.048700      1.00800 ; qtot -0.876  HC  
    15 opls_140     1   PRO   HD2   15     0.048700      1.00800 ; qtot -0.827  HC  
    16 opls_240     1   PRO     H   16     0.380800      1.00800 ; qtot -0.446  H   
    17 opls_155     1   PRO    H1   17     0.446000      1.00800 ; qtot -0.000  HO  

[ bonds ]
;   ai     aj funct   r             k
     1      8   1 ;    1.3556e-01    3.0064e+05 ;      O - C          OH - C     
     1     17   1 ;    9.7250e-02    4.4811e+05 ;      O - H1         OH - HO    
     2      8   1 ;    1.2190e-01    4.9421e+05 ;    OXT - C           O - C     
     3      4   1 ;    1.4706e-01    2.0870e+05 ;      N - CA          x - x     
     3      7   1 ;    1.4706e-01    2.0870e+05 ;      N - CD          x - x     
     3     16   1 ;    1.0195e-01    3.8497e+05 ;      N - H           x - H     
     4      5   1 ;    1.5483e-01    1.8418e+05 ;     CA - CB          x - x     
     4      8   1 ;    1.5346e-01    1.9200e+05 ;     CA - C           x - C     
     4      9   1 ;    1.0972e-01    2.8768e+05 ;     CA - HA          x - HC    
     5      6   1 ;    1.5483e-01    1.8418e+05 ;     CB - CG          x - x     
     5     10   1 ;    1.0954e-01    2.8989e+05 ;     CB - HB1         x - HC    
     5     11   1 ;    1.0954e-01    2.8989e+05 ;     CB - HB2         x - HC    
     6      7   1 ;    1.5483e-01    1.8418e+05 ;     CG - CD          x - x     
     6     12   1 ;    1.0954e-01    2.8989e+05 ;     CG - HG1         x - HC    
     6     13   1 ;    1.0954e-01    2.8989e+05 ;     CG - HG2         x - HC    
     7     14   1 ;    1.0972e-01    2.8768e+05 ;     CD - HD1         x - HC    
     7     15   1 ;    1.0972e-01    2.8768e+05 ;     CD - HD2         x - HC    

[ pairs ]
;   ai     aj    funct
     1      3      1 ;      O - N     
     1      5      1 ;      O - CB    
     1      9      1 ;      O - HA    
     2      3      1 ;    OXT - N     
     2      5      1 ;    OXT - CB    
     2      9      1 ;    OXT - HA    
     3     10      1 ;      N - HB1   
     3     11      1 ;      N - HB2   
     3     12      1 ;      N - HG1   
     3     13      1 ;      N - HG2   
     4     12      1 ;     CA - HG1   
     4     13      1 ;     CA - HG2   
     4     14      1 ;     CA - HD1   
     4     15      1 ;     CA - HD2   
     5     14      1 ;     CB - HD1   
     5     15      1 ;     CB - HD2   
     5     16      1 ;     CB - H     
     6      8      1 ;     CG - C     
     6      9      1 ;     CG - HA    
     6     16      1 ;     CG - H     
     7      8      1 ;     CD - C     
     7      9      1 ;     CD - HA    
     7     10      1 ;     CD - HB1   
     7     11      1 ;     CD - HB2   
     8     10      1 ;      C - HB1   
     8     11      1 ;      C - HB2   
     8     16      1 ;      C - H     
     9     10      1 ;     HA - HB1   
     9     11      1 ;     HA - HB2   
     9     16      1 ;     HA - H     
    10     12      1 ;    HB1 - HG1   
    10     13      1 ;    HB1 - HG2   
    11     12      1 ;    HB2 - HG1   
    11     13      1 ;    HB2 - HG2   
    12     14      1 ;    HG1 - HD1   
    12     15      1 ;    HG1 - HD2   
    13     14      1 ;    HG2 - HD1   
    13     15      1 ;    HG2 - HD2   
    14     16      1 ;    HD1 - H     
    15     16      1 ;    HD2 - H     
    17      2      1 ;     H1 - OXT   
    17      4      1 ;     H1 - CA    

[ angles ]
;   ai     aj     ak    funct   theta         cth
     1      8      2      1 ;    1.2209e+02    8.5379e+02 ;      O - C    - OXT      OH -    C - O   
     1      8      4      1 ;    1.1206e+02    6.4777e+02 ;      O - C    - CA       OH -    C - x   
     2      8      4      1 ;    1.2567e+02    6.3019e+02 ;    OXT - C    - CA        O -    C - x   
     3      4      5      1 ;    1.0629e+02    5.5614e+02 ;      N - CA   - CB        x -    x - x   
     3      4      8      1 ;    1.1019e+02    5.4894e+02 ;      N - CA   - C         x -    x - C   
     3      4      9      1 ;    1.1017e+02    3.9832e+02 ;      N - CA   - HA        x -    x - HC  
     3      7      6      1 ;    1.0629e+02    5.5614e+02 ;      N - CD   - CG        x -    x - x   
     3      7     14      1 ;    1.1017e+02    3.9832e+02 ;      N - CD   - HD1       x -    x - HC  
     3      7     15      1 ;    1.1017e+02    3.9832e+02 ;      N - CD   - HD2       x -    x - HC  
     4      3      7      1 ;    1.0613e+02    6.6601e+02 ;     CA - N    - CD        x -    x - x   
     4      3     16      1 ;    1.0973e+02    4.6811e+02 ;     CA - N    - H         x -    x - H   
     4      5      6      1 ;    1.0383e+02    5.1748e+02 ;     CA - CB   - CG        x -    x - x   
     4      5     10      1 ;    1.1117e+02    3.5690e+02 ;     CA - CB   - HB1       x -    x - HC  
     4      5     11      1 ;    1.1117e+02    3.5690e+02 ;     CA - CB   - HB2       x -    x - HC  
     5      4      8      1 ;    1.0786e+02    5.0995e+02 ;     CB - CA   - C         x -    x - C   
     5      4      9      1 ;    1.1117e+02    3.5690e+02 ;     CB - CA   - HA        x -    x - HC  
     5      6      7      1 ;    1.0383e+02    5.1748e+02 ;     CB - CG   - CD        x -    x - x   
     5      6     12      1 ;    1.1117e+02    3.5690e+02 ;     CB - CG   - HG1       x -    x - HC  
     5      6     13      1 ;    1.1117e+02    3.5690e+02 ;     CB - CG   - HG2       x -    x - HC  
     6      5     10      1 ;    1.1117e+02    3.5690e+02 ;     CG - CB   - HB1       x -    x - HC  
     6      5     11      1 ;    1.1117e+02    3.5690e+02 ;     CG - CB   - HB2       x -    x - HC  
     6      7     14      1 ;    1.1117e+02    3.5690e+02 ;     CG - CD   - HD1       x -    x - HC  
     6      7     15      1 ;    1.1117e+02    3.5690e+02 ;     CG - CD   - HD2       x -    x - HC  
     7      3     16      1 ;    1.0973e+02    4.6811e+02 ;     CD - N    - H         x -    x - H   
     7      6     12      1 ;    1.1117e+02    3.5690e+02 ;     CD - CG   - HG1       x -    x - HC  
     7      6     13      1 ;    1.1117e+02    3.5690e+02 ;     CD - CG   - HG2       x -    x - HC  
     8      1     17      1 ;    1.0654e+02    5.7287e+02 ;      C - O    - H1        C -   OH - HO  
     8      4      9      1 ;    1.0855e+02    3.6409e+02 ;      C - CA   - HA        C -    x - HC  
    10      5     11      1 ;    1.0722e+02    3.0049e+02 ;    HB1 - CB   - HB2      HC -    x - HC  
    12      6     13      1 ;    1.0722e+02    3.0049e+02 ;    HG1 - CG   - HG2      HC -    x - HC  
    14      7     15      1 ;    1.0813e+02    2.9874e+02 ;    HD1 - CD   - HD2      HC -    x - HC  

[ dihedrals ] ; propers
; for gromacs 4.5 or higher, using funct 9
;    i      j      k      l   func   phase     kd      pn
     1      8      4      3      9 ;   180.00   0.00000   2 ;      O-     C-    CA-     N
     1      8      4      5      9 ;   180.00   0.00000   2 ;      O-     C-    CA-    CB
     1      8      4      9      9 ;   180.00   0.00000   2 ;      O-     C-    CA-    HA
     2      8      4      3      9 ;   180.00   0.00000   2 ;    OXT-     C-    CA-     N
     2      8      4      5      9 ;     0.00   2.84512   1 ;    OXT-     C-    CA-    CB
     2      8      4      5      9 ;   180.00   0.83680   2 ;    OXT-     C-    CA-    CB
     2      8      4      5      9 ;   180.00   1.84096   3 ;    OXT-     C-    CA-    CB
     2      8      4      9      9 ;     0.00   3.34720   1 ;    OXT-     C-    CA-    HA
     2      8      4      9      9 ;   180.00   0.33472   3 ;    OXT-     C-    CA-    HA
     3      4      5      6      9 ;     0.00   0.87864   3 ;      N-    CA-    CB-    CG
     3      4      5     10      9 ;     0.00   0.41840   3 ;      N-    CA-    CB-   HB1
     3      4      5     11      9 ;     0.00   0.41840   3 ;      N-    CA-    CB-   HB2
     3      7      6      5      9 ;     0.00   0.87864   3 ;      N-    CD-    CG-    CB
     3      7      6     12      9 ;     0.00   0.41840   3 ;      N-    CD-    CG-   HG1
     3      7      6     13      9 ;     0.00   0.41840   3 ;      N-    CD-    CG-   HG2
     4      3      7      6      9 ;     0.00   0.58576   3 ;     CA-     N-    CD-    CG
     4      3      7     14      9 ;     0.00   0.89956   3 ;     CA-     N-    CD-   HD1
     4      3      7     15      9 ;     0.00   0.89956   3 ;     CA-     N-    CD-   HD2
     4      5      6      7      9 ;     0.00   2.17568   3 ;     CA-    CB-    CG-    CD
     4      5      6     12      9 ;     0.00   0.54392   3 ;     CA-    CB-    CG-   HG1
     4      5      6     13      9 ;     0.00   0.54392   3 ;     CA-    CB-    CG-   HG2
     5      4      3      7      9 ;     0.00   0.58576   3 ;     CB-    CA-     N-    CD
     5      4      3     16      9 ;     0.00   0.90793   3 ;     CB-    CA-     N-     H
     5      6      7     14      9 ;     0.00   0.65084   3 ;     CB-    CG-    CD-   HD1
     5      6      7     15      9 ;     0.00   0.65084   3 ;     CB-    CG-    CD-   HD2
     6      5      4      8      9 ;     0.00   0.00000   0 ;     CG-    CB-    CA-     C
     6      5      4      8      9 ;     0.00   0.16736   2 ;     CG-    CB-    CA-     C
     6      5      4      8      9 ;   180.00   1.92464   1 ;     CG-    CB-    CA-     C
     6      5      4      9      9 ;     0.00   0.65084   3 ;     CG-    CB-    CA-    HA
     6      7      3     16      9 ;     0.00   0.90793   3 ;     CG-    CD-     N-     H
     7      3      4      8      9 ;     0.00   1.25520   3 ;     CD-     N-    CA-     C
     7      3      4      9      9 ;     0.00   0.89956   3 ;     CD-     N-    CA-    HA
     7      6      5     10      9 ;     0.00   0.54392   3 ;     CD-    CG-    CB-   HB1
     7      6      5     11      9 ;     0.00   0.54392   3 ;     CD-    CG-    CB-   HB2
     8      4      3     16      9 ;     0.00   1.25520   3 ;      C-    CA-     N-     H
     8      4      5     10      9 ;     0.00   0.65084   3 ;      C-    CA-    CB-   HB1
     8      4      5     11      9 ;     0.00   0.65084   3 ;      C-    CA-    CB-   HB2
     9      4      3     16      9 ;     0.00   1.25520   3 ;     HA-    CA-     N-     H
     9      4      5     10      9 ;     0.00   0.65084   3 ;     HA-    CA-    CB-   HB1
     9      4      5     11      9 ;     0.00   0.65084   3 ;     HA-    CA-    CB-   HB2
    10      5      6     12      9 ;     0.00   0.50208   3 ;    HB1-    CB-    CG-   HG1
    10      5      6     13      9 ;     0.00   0.50208   3 ;    HB1-    CB-    CG-   HG2
    11      5      6     12      9 ;     0.00   0.50208   3 ;    HB2-    CB-    CG-   HG1
    11      5      6     13      9 ;     0.00   0.50208   3 ;    HB2-    CB-    CG-   HG2
    12      6      7     14      9 ;     0.00   0.65084   3 ;    HG1-    CG-    CD-   HD1
    12      6      7     15      9 ;     0.00   0.65084   3 ;    HG1-    CG-    CD-   HD2
    13      6      7     14      9 ;     0.00   0.65084   3 ;    HG2-    CG-    CD-   HD1
    13      6      7     15      9 ;     0.00   0.65084   3 ;    HG2-    CG-    CD-   HD2
    14      7      3     16      9 ;     0.00   1.25520   3 ;    HD1-    CD-     N-     H
    15      7      3     16      9 ;     0.00   1.25520   3 ;    HD2-    CD-     N-     H
    17      1      8      2      9 ;     0.00   7.94960   1 ;     H1-     O-     C-   OXT
    17      1      8      2      9 ;   180.00   9.62320   2 ;     H1-     O-     C-   OXT
    17      1      8      4      9 ;   180.00   7.53120   2 ;     H1-     O-     C-    CA

[ dihedrals ] ; impropers
; treated as propers in GROMACS to use correct AMBER analytical function
;    i      j      k      l   func   phase     kd      pn
     1      8      2      4      4 ;   180.00   4.60240   2 ;      O-     C-   OXT-    CA
