; proline_GMX.top created by acpype (v: 2023.10.27) on Mon Feb  9 17:56:02 2026

[ defaults ]
; nbfunc        comb-rule       gen-pairs       fudgeLJ fudgeQQ
1               2               yes             0.5     0.8333333333

; Include proline_GMX.itp topology
#include "proline_GMX.itp"

; Ligand position restraints
#ifdef POSRES_LIG
#include "posre_proline.itp"
#endif

[ system ]
 proline

[ molecules ]
; Compound        nmols
 proline          1     
