; atenolol_GMX_OPLS.top created by acpype (v: 2023.10.27) on Mon Feb  9 17:29:22 2026

; Include forcefield parameters
#include "ffoplsaa.itp"

; Include atenolol_GMX.itp topology
#include "atenolol_GMX.itp"

; Ligand position restraints
#ifdef POSRES_LIG
#include "posre_atenolol.itp"
#endif

[ system ]
 atenolol

[ molecules ]
; Compound        nmols
 atenolol         1     
