; atenolol_GMX.itp created by acpype (v: 2023.10.27) on Mon Feb  9 17:29:22 2026

[ atomtypes ]
;name   bond_type     mass     charge   ptype   sigma         epsilon       Amb
 os       os          0.00000  0.00000   A     3.15610e-01   3.03758e-01 ; 1.77  0.0726
 oh       oh          0.00000  0.00000   A     3.24287e-01   3.89112e-01 ; 1.82  0.0930
 o        o           0.00000  0.00000   A     3.04812e-01   6.12119e-01 ; 1.71  0.1463
 n7       n7          0.00000  0.00000   A     3.50765e-01   2.18405e-01 ; 1.97  0.0522
 nt       nt          0.00000  0.00000   A     3.35904e-01   3.56058e-01 ; 1.89  0.0851
 c3       c3          0.00000  0.00000   A     3.39771e-01   4.51035e-01 ; 1.91  0.1078
 ca       ca          0.00000  0.00000   A     3.31521e-01   4.13379e-01 ; 1.86  0.0988
 c        c           0.00000  0.00000   A     3.31521e-01   4.13379e-01 ; 1.86  0.0988
 h1       h1          0.00000  0.00000   A     2.42200e-01   8.70272e-02 ; 1.36  0.0208
 hn       hn          0.00000  0.00000   A     1.10650e-01   4.18400e-02 ; 0.62  0.0100
 hc       hc          0.00000  0.00000   A     2.60018e-01   8.70272e-02 ; 1.46  0.0208
 ho       ho          0.00000  0.00000   A     5.37925e-02   1.96648e-02 ; 0.30  0.0047
 ha       ha          0.00000  0.00000   A     2.62548e-01   6.73624e-02 ; 1.47  0.0161

[ moleculetype ]
;name            nrexcl
 atenolol         3

[ atoms ]
;   nr  type  resi  res  atom  cgnr     charge      mass       ; qtot   bond_type
     1   os     1   UNL     O    1    -0.316900     16.00000 ; qtot -0.317
     2   oh     1   UNL    O1    2    -0.589800     16.00000 ; qtot -0.907
     3    o     1   UNL    O2    3    -0.619100     16.00000 ; qtot -1.526
     4   n7     1   UNL     N    4    -0.824198     14.01000 ; qtot -2.350
     5   nt     1   UNL    N1    5    -0.667000     14.01000 ; qtot -3.017
     6   c3     1   UNL     C    6     0.131800     12.01000 ; qtot -2.885
     7   c3     1   UNL    C1    7     0.144100     12.01000 ; qtot -2.741
     8   c3     1   UNL    C2    8     0.179500     12.01000 ; qtot -2.562
     9   c3     1   UNL    C3    9     0.135400     12.01000 ; qtot -2.426
    10   c3     1   UNL    C4   10    -0.096100     12.01000 ; qtot -2.522
    11   c3     1   UNL    C5   11    -0.096100     12.01000 ; qtot -2.618
    12   ca     1   UNL    C6   12     0.140100     12.01000 ; qtot -2.478
    13   ca     1   UNL    C7   13    -0.135300     12.01000 ; qtot -2.614
    14   ca     1   UNL    C8   14    -0.181500     12.01000 ; qtot -2.795
    15   ca     1   UNL    C9   15    -0.181500     12.01000 ; qtot -2.977
    16   ca     1   UNL   C10   16    -0.093000     12.01000 ; qtot -3.070
    17   ca     1   UNL   C11   17    -0.093000     12.01000 ; qtot -3.163
    18   c3     1   UNL   C12   18    -0.104100     12.01000 ; qtot -3.267
    19    c     1   UNL   C13   19     0.655100     12.01000 ; qtot -2.612
    20   h1     1   UNL     H   20     0.044200      1.00800 ; qtot -2.567
    21   h1     1   UNL    H1   21     0.044200      1.00800 ; qtot -2.523
    22   h1     1   UNL    H2   22     0.038700      1.00800 ; qtot -2.484
    23   h1     1   UNL    H3   23     0.018700      1.00800 ; qtot -2.466
    24   hn     1   UNL    H4   24     0.356800      1.00800 ; qtot -2.109
    25   h1     1   UNL    H5   25     0.056700      1.00800 ; qtot -2.052
    26   h1     1   UNL    H6   26     0.056700      1.00800 ; qtot -1.996
    27   hc     1   UNL    H7   27     0.040533      1.00800 ; qtot -1.955
    28   hc     1   UNL    H8   28     0.040533      1.00800 ; qtot -1.915
    29   hc     1   UNL    H9   29     0.040533      1.00800 ; qtot -1.874
    30   hc     1   UNL   H10   30     0.040533      1.00800 ; qtot -1.833
    31   hc     1   UNL   H11   31     0.040533      1.00800 ; qtot -1.793
    32   hc     1   UNL   H12   32     0.040533      1.00800 ; qtot -1.752
    33   ho     1   UNL   H13   33     0.403000      1.00800 ; qtot -1.349
    34   ha     1   UNL   H14   34     0.146000      1.00800 ; qtot -1.203
    35   ha     1   UNL   H15   35     0.146000      1.00800 ; qtot -1.057
    36   ha     1   UNL   H16   36     0.137000      1.00800 ; qtot -0.920
    37   ha     1   UNL   H17   37     0.137000      1.00800 ; qtot -0.783
    38   hc     1   UNL   H18   38     0.081200      1.00800 ; qtot -0.702
    39   hc     1   UNL   H19   39     0.081200      1.00800 ; qtot -0.621
    40   hn     1   UNL   H20   40     0.310500      1.00800 ; qtot -0.310
    41   hn     1   UNL   H21   41     0.310500      1.00800 ; qtot 0.000

[ bonds ]
;   ai     aj funct   r             k
     1      9   1    1.4273e-01    2.3620e+05 ;      O - C3    
     1     12   1    1.3688e-01    2.8731e+05 ;      O - C6    
     2      7   1    1.4242e-01    2.3861e+05 ;     O1 - C1    
     2     33   1    9.7250e-02    4.4811e+05 ;     O1 - H13   
     3     19   1    1.2190e-01    4.9421e+05 ;     O2 - C13   
     4      6   1    1.4630e-01    2.1382e+05 ;      N - C     
     4      8   1    1.4630e-01    2.1382e+05 ;      N - C2    
     4     24   1    1.0195e-01    3.8497e+05 ;      N - H4    
     5     19   1    1.3675e-01    2.9326e+05 ;     N1 - C13   
     5     40   1    1.0105e-01    4.0128e+05 ;     N1 - H20   
     5     41   1    1.0105e-01    4.0128e+05 ;     N1 - H21   
     6      7   1    1.5354e-01    1.9154e+05 ;      C - C1    
     6     20   1    1.0969e-01    2.8804e+05 ;      C - H     
     6     21   1    1.0969e-01    2.8804e+05 ;      C - H1    
     7      9   1    1.5354e-01    1.9154e+05 ;     C1 - C3    
     7     22   1    1.0969e-01    2.8804e+05 ;     C1 - H2    
     8     10   1    1.5354e-01    1.9154e+05 ;     C2 - C4    
     8     11   1    1.5354e-01    1.9154e+05 ;     C2 - C5    
     8     23   1    1.0969e-01    2.8804e+05 ;     C2 - H3    
     9     25   1    1.0969e-01    2.8804e+05 ;     C3 - H5    
     9     26   1    1.0969e-01    2.8804e+05 ;     C3 - H6    
    10     27   1    1.0962e-01    2.8891e+05 ;     C4 - H7    
    10     28   1    1.0962e-01    2.8891e+05 ;     C4 - H8    
    10     29   1    1.0962e-01    2.8891e+05 ;     C4 - H9    
    11     30   1    1.0962e-01    2.8891e+05 ;     C5 - H10   
    11     31   1    1.0962e-01    2.8891e+05 ;     C5 - H11   
    11     32   1    1.0962e-01    2.8891e+05 ;     C5 - H12   
    12     14   1    1.3986e-01    2.9644e+05 ;     C6 - C8    
    12     15   1    1.3986e-01    2.9644e+05 ;     C6 - C9    
    13     16   1    1.3986e-01    2.9644e+05 ;     C7 - C10   
    13     17   1    1.3986e-01    2.9644e+05 ;     C7 - C11   
    13     18   1    1.5147e-01    2.0410e+05 ;     C7 - C12   
    14     16   1    1.3986e-01    2.9644e+05 ;     C8 - C10   
    14     34   1    1.0860e-01    3.0183e+05 ;     C8 - H14   
    15     17   1    1.3986e-01    2.9644e+05 ;     C9 - C11   
    15     35   1    1.0860e-01    3.0183e+05 ;     C9 - H15   
    16     36   1    1.0860e-01    3.0183e+05 ;    C10 - H16   
    17     37   1    1.0860e-01    3.0183e+05 ;    C11 - H17   
    18     19   1    1.5270e-01    1.9652e+05 ;    C12 - C13   
    18     38   1    1.0962e-01    2.8891e+05 ;    C12 - H18   
    18     39   1    1.0962e-01    2.8891e+05 ;    C12 - H19   

[ pairs ]
;   ai     aj    funct
     1      2      1 ;      O - O1    
     1      6      1 ;      O - C     
     1     16      1 ;      O - C10   
     1     17      1 ;      O - C11   
     1     22      1 ;      O - H2    
     1     34      1 ;      O - H14   
     1     35      1 ;      O - H15   
     2      4      1 ;     O1 - N     
     2     20      1 ;     O1 - H     
     2     21      1 ;     O1 - H1    
     2     25      1 ;     O1 - H5    
     2     26      1 ;     O1 - H6    
     3     13      1 ;     O2 - C7    
     3     38      1 ;     O2 - H18   
     3     39      1 ;     O2 - H19   
     3     40      1 ;     O2 - H20   
     3     41      1 ;     O2 - H21   
     4      9      1 ;      N - C3    
     4     22      1 ;      N - H2    
     4     27      1 ;      N - H7    
     4     28      1 ;      N - H8    
     4     29      1 ;      N - H9    
     4     30      1 ;      N - H10   
     4     31      1 ;      N - H11   
     4     32      1 ;      N - H12   
     5     13      1 ;     N1 - C7    
     5     38      1 ;     N1 - H18   
     5     39      1 ;     N1 - H19   
     6     10      1 ;      C - C4    
     6     11      1 ;      C - C5    
     6     23      1 ;      C - H3    
     6     25      1 ;      C - H5    
     6     26      1 ;      C - H6    
     6     33      1 ;      C - H13   
     7      8      1 ;     C1 - C2    
     7     24      1 ;     C1 - H4    
     8     20      1 ;     C2 - H     
     8     21      1 ;     C2 - H1    
     9     14      1 ;     C3 - C8    
     9     15      1 ;     C3 - C9    
     9     20      1 ;     C3 - H     
     9     21      1 ;     C3 - H1    
     9     33      1 ;     C3 - H13   
    10     24      1 ;     C4 - H4    
    10     30      1 ;     C4 - H10   
    10     31      1 ;     C4 - H11   
    10     32      1 ;     C4 - H12   
    11     24      1 ;     C5 - H4    
    11     27      1 ;     C5 - H7    
    11     28      1 ;     C5 - H8    
    11     29      1 ;     C5 - H9    
    12      7      1 ;     C6 - C1    
    12     13      1 ;     C6 - C7    
    12     25      1 ;     C6 - H5    
    12     26      1 ;     C6 - H6    
    12     36      1 ;     C6 - H16   
    12     37      1 ;     C6 - H17   
    13     34      1 ;     C7 - H14   
    13     35      1 ;     C7 - H15   
    14     17      1 ;     C8 - C11   
    14     18      1 ;     C8 - C12   
    14     35      1 ;     C8 - H15   
    15     16      1 ;     C9 - C10   
    15     18      1 ;     C9 - C12   
    15     34      1 ;     C9 - H14   
    16     19      1 ;    C10 - C13   
    16     37      1 ;    C10 - H17   
    16     38      1 ;    C10 - H18   
    16     39      1 ;    C10 - H19   
    17     19      1 ;    C11 - C13   
    17     36      1 ;    C11 - H16   
    17     38      1 ;    C11 - H18   
    17     39      1 ;    C11 - H19   
    18     36      1 ;    C12 - H16   
    18     37      1 ;    C12 - H17   
    18     40      1 ;    C12 - H20   
    18     41      1 ;    C12 - H21   
    20     22      1 ;      H - H2    
    20     24      1 ;      H - H4    
    21     22      1 ;     H1 - H2    
    21     24      1 ;     H1 - H4    
    22     25      1 ;     H2 - H5    
    22     26      1 ;     H2 - H6    
    22     33      1 ;     H2 - H13   
    23     24      1 ;     H3 - H4    
    23     27      1 ;     H3 - H7    
    23     28      1 ;     H3 - H8    
    23     29      1 ;     H3 - H9    
    23     30      1 ;     H3 - H10   
    23     31      1 ;     H3 - H11   
    23     32      1 ;     H3 - H12   
    34     36      1 ;    H14 - H16   
    35     37      1 ;    H15 - H17   

[ angles ]
;   ai     aj     ak    funct   theta         cth
     1      9      7      1    1.0762e+02    6.4802e+02 ;      O - C3     - C1    
     1      9     25      1    1.1034e+02    4.7028e+02 ;      O - C3     - H5    
     1      9     26      1    1.1034e+02    4.7028e+02 ;      O - C3     - H6    
     1     12     14      1    1.1911e+02    6.6107e+02 ;      O - C6     - C8    
     1     12     15      1    1.1911e+02    6.6107e+02 ;      O - C6     - C9    
     2      7      6      1    1.0966e+02    6.4258e+02 ;     O1 - C1     - C     
     2      7      9      1    1.0966e+02    6.4258e+02 ;     O1 - C1     - C3    
     2      7     22      1    1.1038e+02    4.7103e+02 ;     O1 - C1     - H2    
     3     19      5      1    1.2298e+02    7.3421e+02 ;     O2 - C13    - N1    
     3     19     18      1    1.2290e+02    6.3973e+02 ;     O2 - C13    - C12   
     4      6      7      1    1.1022e+02    5.4994e+02 ;      N - C      - C1    
     4      6     20      1    1.1029e+02    3.9991e+02 ;      N - C      - H     
     4      6     21      1    1.1029e+02    3.9991e+02 ;      N - C      - H1    
     4      8     10      1    1.1022e+02    5.4994e+02 ;      N - C2     - C4    
     4      8     11      1    1.1022e+02    5.4994e+02 ;      N - C2     - C5    
     4      8     23      1    1.1029e+02    3.9991e+02 ;      N - C2     - H3    
     5     19     18      1    1.1536e+02    5.5413e+02 ;     N1 - C13    - C12   
     6      4      8      1    1.1458e+02    6.4425e+02 ;      C - N      - C2    
     6      4     24      1    1.0886e+02    4.7229e+02 ;      C - N      - H4    
     6      7      9      1    1.1263e+02    5.0099e+02 ;      C - C1     - C3    
     6      7     22      1    1.0959e+02    3.6217e+02 ;      C - C1     - H2    
     7      2     33      1    1.0739e+02    5.4501e+02 ;     C1 - O1     - H13   
     7      6     20      1    1.0959e+02    3.6217e+02 ;     C1 - C      - H     
     7      6     21      1    1.0959e+02    3.6217e+02 ;     C1 - C      - H1    
     7      9     25      1    1.0959e+02    3.6217e+02 ;     C1 - C3     - H5    
     7      9     26      1    1.0959e+02    3.6217e+02 ;     C1 - C3     - H6    
     8      4     24      1    1.0886e+02    4.7229e+02 ;     C2 - N      - H4    
     8     10     27      1    1.0968e+02    3.6208e+02 ;     C2 - C4     - H7    
     8     10     28      1    1.0968e+02    3.6208e+02 ;     C2 - C4     - H8    
     8     10     29      1    1.0968e+02    3.6208e+02 ;     C2 - C4     - H9    
     8     11     30      1    1.0968e+02    3.6208e+02 ;     C2 - C5     - H10   
     8     11     31      1    1.0968e+02    3.6208e+02 ;     C2 - C5     - H11   
     8     11     32      1    1.0968e+02    3.6208e+02 ;     C2 - C5     - H12   
     9      1     12      1    1.1839e+02    7.3856e+02 ;     C3 - O      - C6    
     9      7     22      1    1.0959e+02    3.6217e+02 ;     C3 - C1     - H2    
    10      8     11      1    1.1263e+02    5.0099e+02 ;     C4 - C2     - C5    
    10      8     23      1    1.0959e+02    3.6217e+02 ;     C4 - C2     - H3    
    11      8     23      1    1.0959e+02    3.6217e+02 ;     C5 - C2     - H3    
    12     14     16      1    1.2002e+02    5.3279e+02 ;     C6 - C8     - C10   
    12     14     34      1    1.1988e+02    3.7572e+02 ;     C6 - C8     - H14   
    12     15     17      1    1.2002e+02    5.3279e+02 ;     C6 - C9     - C11   
    12     15     35      1    1.1988e+02    3.7572e+02 ;     C6 - C9     - H15   
    13     16     14      1    1.2002e+02    5.3279e+02 ;     C7 - C10    - C8    
    13     16     36      1    1.1988e+02    3.7572e+02 ;     C7 - C10    - H16   
    13     17     15      1    1.2002e+02    5.3279e+02 ;     C7 - C11    - C9    
    13     17     37      1    1.1988e+02    3.7572e+02 ;     C7 - C11    - H17   
    13     18     19      1    1.1116e+02    5.0911e+02 ;     C7 - C12    - C13   
    13     18     38      1    1.1063e+02    3.6493e+02 ;     C7 - C12    - H18   
    13     18     39      1    1.1063e+02    3.6493e+02 ;     C7 - C12    - H19   
    14     12     15      1    1.2002e+02    5.3279e+02 ;     C8 - C6     - C9    
    14     16     36      1    1.1988e+02    3.7572e+02 ;     C8 - C10    - H16   
    15     17     37      1    1.1988e+02    3.7572e+02 ;     C9 - C11    - H17   
    16     13     17      1    1.2002e+02    5.3279e+02 ;    C10 - C7     - C11   
    16     13     18      1    1.2083e+02    5.0827e+02 ;    C10 - C7     - C12   
    16     14     34      1    1.1988e+02    3.7572e+02 ;    C10 - C8     - H14   
    17     13     18      1    1.2083e+02    5.0827e+02 ;    C11 - C7     - C12   
    17     15     35      1    1.1988e+02    3.7572e+02 ;    C11 - C9     - H15   
    19      5     40      1    1.1844e+02    4.8158e+02 ;    C13 - N1     - H20   
    19      5     41      1    1.1844e+02    4.8158e+02 ;    C13 - N1     - H21   
    19     18     38      1    1.0895e+02    3.6510e+02 ;    C13 - C12    - H18   
    19     18     39      1    1.0895e+02    3.6510e+02 ;    C13 - C12    - H19   
    20      6     21      1    1.0855e+02    2.9824e+02 ;      H - C      - H1    
    25      9     26      1    1.0855e+02    2.9824e+02 ;     H5 - C3     - H6    
    27     10     28      1    1.0773e+02    2.9957e+02 ;     H7 - C4     - H8    
    27     10     29      1    1.0773e+02    2.9957e+02 ;     H7 - C4     - H9    
    28     10     29      1    1.0773e+02    2.9957e+02 ;     H8 - C4     - H9    
    30     11     31      1    1.0773e+02    2.9957e+02 ;    H10 - C5     - H11   
    30     11     32      1    1.0773e+02    2.9957e+02 ;    H10 - C5     - H12   
    31     11     32      1    1.0773e+02    2.9957e+02 ;    H11 - C5     - H12   
    38     18     39      1    1.0773e+02    2.9957e+02 ;    H18 - C12    - H19   
    40      5     41      1    1.1795e+02    3.8384e+02 ;    H20 - N1     - H21   

[ dihedrals ] ; propers
; for gromacs 4.5 or higher, using funct 9
;    i      j      k      l   func   phase     kd      pn
     1      9      7      2      9     0.00   0.65084   3 ;      O-    C3-    C1-    O1
     1      9      7      6      9     0.00   0.65084   3 ;      O-    C3-    C1-     C
     1      9      7     22      9     0.00   0.00000   0 ;      O-    C3-    C1-    H2
     1      9      7     22      9     0.00   1.04600   1 ;      O-    C3-    C1-    H2
     1     12     14     16      9   180.00  15.16700   2 ;      O-    C6-    C8-   C10
     1     12     14     34      9   180.00  15.16700   2 ;      O-    C6-    C8-   H14
     1     12     15     17      9   180.00  15.16700   2 ;      O-    C6-    C9-   C11
     1     12     15     35      9   180.00  15.16700   2 ;      O-    C6-    C9-   H15
     2      7      6      4      9     0.00   0.65084   3 ;     O1-    C1-     C-     N
     2      7      6     20      9     0.00   0.00000   0 ;     O1-    C1-     C-     H
     2      7      6     20      9     0.00   1.04600   1 ;     O1-    C1-     C-     H
     2      7      6     21      9     0.00   0.00000   0 ;     O1-    C1-     C-    H1
     2      7      6     21      9     0.00   1.04600   1 ;     O1-    C1-     C-    H1
     2      7      9     25      9     0.00   0.00000   0 ;     O1-    C1-    C3-    H5
     2      7      9     25      9     0.00   1.04600   1 ;     O1-    C1-    C3-    H5
     2      7      9     26      9     0.00   0.00000   0 ;     O1-    C1-    C3-    H6
     2      7      9     26      9     0.00   1.04600   1 ;     O1-    C1-    C3-    H6
     3     19      5     40      9     0.00   8.36800   1 ;     O2-   C13-    N1-   H20
     3     19      5     40      9   180.00  10.46000   2 ;     O2-   C13-    N1-   H20
     3     19      5     41      9     0.00   8.36800   1 ;     O2-   C13-    N1-   H21
     3     19      5     41      9   180.00  10.46000   2 ;     O2-   C13-    N1-   H21
     3     19     18     13      9   180.00   0.00000   2 ;     O2-   C13-   C12-    C7
     3     19     18     38      9     0.00  16.86152   1 ;     O2-   C13-   C12-   H18
     3     19     18     38      9   180.00  15.31344   2 ;     O2-   C13-   C12-   H18
     3     19     18     39      9     0.00  16.86152   1 ;     O2-   C13-   C12-   H19
     3     19     18     39      9   180.00  15.31344   2 ;     O2-   C13-   C12-   H19
     4      6      7      9      9     0.00   0.87864   3 ;      N-     C-    C1-    C3
     4      6      7     22      9     0.00   0.65084   3 ;      N-     C-    C1-    H2
     4      8     10     27      9     0.00   0.41840   3 ;      N-    C2-    C4-    H7
     4      8     10     28      9     0.00   0.41840   3 ;      N-    C2-    C4-    H8
     4      8     10     29      9     0.00   0.41840   3 ;      N-    C2-    C4-    H9
     4      8     11     30      9     0.00   0.41840   3 ;      N-    C2-    C5-   H10
     4      8     11     31      9     0.00   0.41840   3 ;      N-    C2-    C5-   H11
     4      8     11     32      9     0.00   0.41840   3 ;      N-    C2-    C5-   H12
     5     19     18     13      9   180.00   0.00000   2 ;     N1-   C13-   C12-    C7
     5     19     18     38      9   180.00   0.00000   2 ;     N1-   C13-   C12-   H18
     5     19     18     39      9   180.00   0.00000   2 ;     N1-   C13-   C12-   H19
     6      4      8     10      9     0.00   0.58576   3 ;      C-     N-    C2-    C4
     6      4      8     11      9     0.00   0.58576   3 ;      C-     N-    C2-    C5
     6      4      8     23      9     0.00   0.89956   3 ;      C-     N-    C2-    H3
     6      7      2     33      9     0.00   0.25104   3 ;      C-    C1-    O1-   H13
     6      7      9     25      9     0.00   0.65084   3 ;      C-    C1-    C3-    H5
     6      7      9     26      9     0.00   0.65084   3 ;      C-    C1-    C3-    H6
     7      6      4      8      9     0.00   0.58576   3 ;     C1-     C-     N-    C2
     7      6      4     24      9     0.00   0.90793   3 ;     C1-     C-     N-    H4
     8      4      6     20      9     0.00   0.89956   3 ;     C2-     N-     C-     H
     8      4      6     21      9     0.00   0.89956   3 ;     C2-     N-     C-    H1
     9      1     12     14      9   180.00   6.94544   2 ;     C3-     O-    C6-    C8
     9      1     12     15      9   180.00   6.94544   2 ;     C3-     O-    C6-    C9
     9      7      2     33      9     0.00   0.25104   3 ;     C3-    C1-    O1-   H13
     9      7      6     20      9     0.00   0.65084   3 ;     C3-    C1-     C-     H
     9      7      6     21      9     0.00   0.65084   3 ;     C3-    C1-     C-    H1
    10      8      4     24      9     0.00   0.90793   3 ;     C4-    C2-     N-    H4
    10      8     11     30      9     0.00   0.54392   3 ;     C4-    C2-    C5-   H10
    10      8     11     31      9     0.00   0.54392   3 ;     C4-    C2-    C5-   H11
    10      8     11     32      9     0.00   0.54392   3 ;     C4-    C2-    C5-   H12
    11      8      4     24      9     0.00   0.90793   3 ;     C5-    C2-     N-    H4
    11      8     10     27      9     0.00   0.54392   3 ;     C5-    C2-    C4-    H7
    11      8     10     28      9     0.00   0.54392   3 ;     C5-    C2-    C4-    H8
    11      8     10     29      9     0.00   0.54392   3 ;     C5-    C2-    C4-    H9
    12      1      9      7      9     0.00   1.60387   3 ;     C6-     O-    C3-    C1
    12      1      9     25      9     0.00   1.60387   3 ;     C6-     O-    C3-    H5
    12      1      9     26      9     0.00   1.60387   3 ;     C6-     O-    C3-    H6
    12     14     16     13      9   180.00  15.16700   2 ;     C6-    C8-   C10-    C7
    12     14     16     36      9   180.00  15.16700   2 ;     C6-    C8-   C10-   H16
    12     15     17     13      9   180.00  15.16700   2 ;     C6-    C9-   C11-    C7
    12     15     17     37      9   180.00  15.16700   2 ;     C6-    C9-   C11-   H17
    13     16     14     34      9   180.00  15.16700   2 ;     C7-   C10-    C8-   H14
    13     17     15     35      9   180.00  15.16700   2 ;     C7-   C11-    C9-   H15
    14     12     15     17      9   180.00  15.16700   2 ;     C8-    C6-    C9-   C11
    14     12     15     35      9   180.00  15.16700   2 ;     C8-    C6-    C9-   H15
    14     16     13     17      9   180.00  15.16700   2 ;     C8-   C10-    C7-   C11
    14     16     13     18      9   180.00  15.16700   2 ;     C8-   C10-    C7-   C12
    15     12     14     16      9   180.00  15.16700   2 ;     C9-    C6-    C8-   C10
    15     12     14     34      9   180.00  15.16700   2 ;     C9-    C6-    C8-   H14
    15     17     13     16      9   180.00  15.16700   2 ;     C9-   C11-    C7-   C10
    15     17     13     18      9   180.00  15.16700   2 ;     C9-   C11-    C7-   C12
    16     13     17     37      9   180.00  15.16700   2 ;    C10-    C7-   C11-   H17
    16     13     18     19      9     0.00   0.00000   0 ;    C10-    C7-   C12-   C13
    16     13     18     38      9     0.00   0.00000   0 ;    C10-    C7-   C12-   H18
    16     13     18     39      9     0.00   0.00000   0 ;    C10-    C7-   C12-   H19
    17     13     16     36      9   180.00  15.16700   2 ;    C11-    C7-   C10-   H16
    17     13     18     19      9     0.00   0.00000   0 ;    C11-    C7-   C12-   C13
    17     13     18     38      9     0.00   0.00000   0 ;    C11-    C7-   C12-   H18
    17     13     18     39      9     0.00   0.00000   0 ;    C11-    C7-   C12-   H19
    18     13     16     36      9   180.00  15.16700   2 ;    C12-    C7-   C10-   H16
    18     13     17     37      9   180.00  15.16700   2 ;    C12-    C7-   C11-   H17
    18     19      5     40      9   180.00  10.46000   2 ;    C12-   C13-    N1-   H20
    18     19      5     41      9   180.00  10.46000   2 ;    C12-   C13-    N1-   H21
    20      6      4     24      9     0.00   1.25520   3 ;      H-     C-     N-    H4
    20      6      7     22      9     0.00   0.65084   3 ;      H-     C-    C1-    H2
    21      6      4     24      9     0.00   1.25520   3 ;     H1-     C-     N-    H4
    21      6      7     22      9     0.00   0.65084   3 ;     H1-     C-    C1-    H2
    22      7      2     33      9     0.00   0.51463   3 ;     H2-    C1-    O1-   H13
    22      7      9     25      9     0.00   0.65084   3 ;     H2-    C1-    C3-    H5
    22      7      9     26      9     0.00   0.65084   3 ;     H2-    C1-    C3-    H6
    23      8      4     24      9     0.00   1.25520   3 ;     H3-    C2-     N-    H4
    23      8     10     27      9     0.00   0.65084   3 ;     H3-    C2-    C4-    H7
    23      8     10     28      9     0.00   0.65084   3 ;     H3-    C2-    C4-    H8
    23      8     10     29      9     0.00   0.65084   3 ;     H3-    C2-    C4-    H9
    23      8     11     30      9     0.00   0.65084   3 ;     H3-    C2-    C5-   H10
    23      8     11     31      9     0.00   0.65084   3 ;     H3-    C2-    C5-   H11
    23      8     11     32      9     0.00   0.65084   3 ;     H3-    C2-    C5-   H12
    34     14     16     36      9   180.00  15.16700   2 ;    H14-    C8-   C10-   H16
    35     15     17     37      9   180.00  15.16700   2 ;    H15-    C9-   C11-   H17

[ dihedrals ] ; impropers
; treated as propers in GROMACS to use correct AMBER analytical function
;    i      j      k      l   func   phase     kd      pn
     1     12     15     14      4   180.00   4.60240   2 ;      O-    C6-    C9-    C8
    12     16     14     34      4   180.00   4.60240   2 ;     C6-   C10-    C8-   H14
    12     17     15     35      4   180.00   4.60240   2 ;     C6-   C11-    C9-   H15
    13     14     16     36      4   180.00   4.60240   2 ;     C7-    C8-   C10-   H16
    13     15     17     37      4   180.00   4.60240   2 ;     C7-    C9-   C11-   H17
    16     17     13     18      4   180.00   4.60240   2 ;    C10-   C11-    C7-   C12
    18      5     19      3      4   180.00  43.93200   2 ;    C12-    N1-   C13-    O2
    19     40      5     41      4   180.00   4.60240   2 ;    C13-   H20-    N1-   H21
