atenolol_GMX.gro created by acpype (v: 2023.10.27) on Mon Feb  9 17:29:22 2026
 41
    1  UNL    O    1  -0.108  -0.154  -0.037
    1  UNL   O1    2  -0.358  -0.276  -0.056
    1  UNL   O2    3   0.498  -0.086  -0.052
    1  UNL    N    4  -0.358   0.076   0.061
    1  UNL   N1    5   0.625   0.091   0.020
    1  UNL    C    6  -0.380  -0.039  -0.027
    1  UNL   C1    7  -0.336  -0.170   0.038
    1  UNL   C2    8  -0.395   0.200  -0.005
    1  UNL   C3    9  -0.189  -0.171   0.080
    1  UNL   C4   10  -0.375   0.317   0.091
    1  UNL   C5   11  -0.312   0.219  -0.132
    1  UNL   C6   12   0.011  -0.090  -0.019
    1  UNL   C7   13   0.255   0.041   0.016
    1  UNL   C8   14   0.065  -0.015  -0.123
    1  UNL   C9   15   0.078  -0.100   0.102
    1  UNL  C10   16   0.187   0.051  -0.106
    1  UNL  C11   17   0.200  -0.034   0.120
    1  UNL  C12   18   0.385   0.111   0.035
    1  UNL  C13   19   0.506   0.027  -0.004
    1  UNL    H   20  -0.325  -0.030  -0.121
    1  UNL   H1   21  -0.486  -0.046  -0.054
    1  UNL   H2   22  -0.398  -0.191   0.126
    1  UNL   H3   23  -0.501   0.198  -0.033
    1  UNL   H4   24  -0.412   0.064   0.146
    1  UNL   H5   25  -0.173  -0.093   0.155
    1  UNL   H6   26  -0.164  -0.269   0.123
    1  UNL   H7   27  -0.436   0.304   0.181
    1  UNL   H8   28  -0.405   0.411   0.044
    1  UNL   H9   29  -0.270   0.326   0.122
    1  UNL  H10   30  -0.323   0.322  -0.169
    1  UNL  H11   31  -0.205   0.202  -0.114
    1  UNL  H12   32  -0.345   0.154  -0.214
    1  UNL  H13   33  -0.452  -0.276  -0.078
    1  UNL  H14   34   0.013  -0.007  -0.218
    1  UNL  H15   35   0.041  -0.160   0.185
    1  UNL  H16   36   0.228   0.109  -0.188
    1  UNL  H17   37   0.252  -0.044   0.215
    1  UNL  H18   38   0.396   0.142   0.139
    1  UNL  H19   39   0.387   0.203  -0.025
    1  UNL  H20   40   0.714   0.047  -0.001
    1  UNL  H21   41   0.629   0.185   0.060
   24.29600    13.75200     8.66000
