%VERSION  VERSION_STAMP = V0001.000  DATE = 02/09/26  17:30:29                  
%FLAG TITLE                                                                     
%FORMAT(20a4)                                                                   
2249                                                                            
%FLAG POINTERS                                                                  
%FORMAT(10I8)                                                                   
      41      12      22      19      47      24      86      27       0       0
     214       1      19      24      27      16      27      24      13       0
       0       0       0       0       0       0       0       0      41       0
       0
%FLAG ATOM_NAME                                                                 
%FORMAT(20a4)                                                                   
O   O1  O2  N   N1  C   C1  C2  C3  C4  C5  C6  C7  C8  C9  C10 C11 C12 C13 H   
H1  H2  H3  H4  H5  H6  H7  H8  H9  H10 H11 H12 H13 H14 H15 H16 H17 H18 H19 H20 
H21 
%FLAG CHARGE                                                                    
%FORMAT(5E16.8)                                                                 
 -5.77464687E+00 -1.07475125E+01 -1.12814259E+01 -1.50188197E+01 -1.21542741E+01
  2.40169914E+00  2.62583343E+00  3.27090285E+00  2.46729942E+00 -1.75116303E+00
 -1.75116303E+00  2.55294423E+00 -2.46547719E+00 -3.30734745E+00 -3.30734745E+00
 -1.69467390E+00 -1.69467390E+00 -1.89694143E+00  1.19374287E+01  8.05425660E-01
  8.05425660E-01  7.05203010E-01  3.40757010E-01  6.50171664E+00  1.03320441E+00
  1.03320441E+00  7.38604486E-01  7.38604486E-01  7.38604486E-01  7.38604486E-01
  7.38604486E-01  7.38604486E-01  7.34358690E+00  2.66045580E+00  2.66045580E+00
  2.49645510E+00  2.49645510E+00  1.47965076E+00  1.47965076E+00  5.65802415E+00
  5.65802415E+00
%FLAG ATOMIC_NUMBER                                                             
%FORMAT(10I8)                                                                   
       8       8       8       7       7       6       6       6       6       6
       6       6       6       6       6       6       6       6       6       1
       1       1       1       1       1       1       1       1       1       1
       1       1       1       1       1       1       1       1       1       1
       1
%FLAG MASS                                                                      
%FORMAT(5E16.8)                                                                 
  1.60000000E+01  1.60000000E+01  1.60000000E+01  1.40100000E+01  1.40100000E+01
  1.20100000E+01  1.20100000E+01  1.20100000E+01  1.20100000E+01  1.20100000E+01
  1.20100000E+01  1.20100000E+01  1.20100000E+01  1.20100000E+01  1.20100000E+01
  1.20100000E+01  1.20100000E+01  1.20100000E+01  1.20100000E+01  1.00800000E+00
  1.00800000E+00  1.00800000E+00  1.00800000E+00  1.00800000E+00  1.00800000E+00
  1.00800000E+00  1.00800000E+00  1.00800000E+00  1.00800000E+00  1.00800000E+00
  1.00800000E+00  1.00800000E+00  1.00800000E+00  1.00800000E+00  1.00800000E+00
  1.00800000E+00  1.00800000E+00  1.00800000E+00  1.00800000E+00  1.00800000E+00
  1.00800000E+00
%FLAG ATOM_TYPE_INDEX                                                           
%FORMAT(10I8)                                                                   
       1       2       3       4       5       6       6       6       6       6
       6       7       7       7       7       7       7       6       7       8
       8       8       8       9       8       8      10      10      10      10
      10      10      11      12      12      12      12      10      10       9
       9
%FLAG NUMBER_EXCLUDED_ATOMS                                                     
%FORMAT(10I8)                                                                   
      14      10       8      17       7      13      10      12       9       9
       8      11      12       7       6       8       7       7       4       3
       2       3       7       1       1       1       2       1       1       2
       1       1       1       1       1       1       1       1       1       1
       1
%FLAG NONBONDED_PARM_INDEX                                                      
%FORMAT(10I8)                                                                   
       1       2       4       7      11      16      22      29      37      46
      56      67       2       3       5       8      12      17      23      30
      38      47      57      68       4       5       6       9      13      18
      24      31      39      48      58      69       7       8       9      10
      14      19      25      32      40      49      59      70      11      12
      13      14      15      20      26      33      41      50      60      71
      16      17      18      19      20      21      27      34      42      51
      61      72      22      23      24      25      26      27      28      35
      43      52      62      73      29      30      31      32      33      34
      35      36      44      53      63      74      37      38      39      40
      41      42      43      44      45      54      64      75      46      47
      48      49      50      51      52      53      54      55      65      76
      56      57      58      59      60      61      62      63      64      65
      66      77      67      68      69      70      71      72      73      74
      75      76      77      78
%FLAG RESIDUE_LABEL                                                             
%FORMAT(20a4)                                                                   
UNL 
%FLAG RESIDUE_POINTER                                                           
%FORMAT(10I8)                                                                   
       1
%FLAG BOND_FORCE_CONSTANT                                                       
%FORMAT(5E16.8)                                                                 
  2.82270000E+02  3.43340000E+02  2.85150000E+02  5.35510000E+02  5.90600000E+02
  2.55520000E+02  4.60050000E+02  3.50460000E+02  4.79540000E+02  2.28890000E+02
  3.44220000E+02  3.45250000E+02  3.54250000E+02  2.43910000E+02  3.60690000E+02
  2.34850000E+02
%FLAG BOND_EQUIL_VALUE                                                          
%FORMAT(5E16.8)                                                                 
  1.42730000E+00  1.36880000E+00  1.42420000E+00  9.72500000E-01  1.21900000E+00
  1.46300000E+00  1.01950000E+00  1.36750000E+00  1.01050000E+00  1.53540000E+00
  1.09690000E+00  1.09620000E+00  1.39860000E+00  1.51470000E+00  1.08600000E+00
  1.52700000E+00
%FLAG ANGLE_FORCE_CONSTANT                                                      
%FORMAT(5E16.8)                                                                 
  7.74400000E+01  5.62000000E+01  7.90000000E+01  7.67900000E+01  5.62900000E+01
  8.77400000E+01  7.64500000E+01  6.57200000E+01  4.77900000E+01  6.62200000E+01
  7.69900000E+01  5.64400000E+01  5.98700000E+01  4.32800000E+01  6.51300000E+01
  4.32700000E+01  8.82600000E+01  6.36700000E+01  4.49000000E+01  6.08400000E+01
  4.36100000E+01  6.07400000E+01  5.75500000E+01  4.36300000E+01  3.56400000E+01
  3.58000000E+01  4.58700000E+01
%FLAG ANGLE_EQUIL_VALUE                                                         
%FORMAT(5E16.8)                                                                 
  1.87832415E+00  1.92579712E+00  2.07886256E+00  1.91392888E+00  1.92649525E+00
  2.14640683E+00  2.14501057E+00  1.92370273E+00  1.92492446E+00  2.01341269E+00
  1.99979911E+00  1.89996624E+00  1.96576518E+00  1.91270715E+00  1.87430989E+00
  1.91427794E+00  2.06629619E+00  2.09474507E+00  2.09230160E+00  1.94010883E+00
  1.93085858E+00  2.10888224E+00  2.06716885E+00  1.90153704E+00  1.89455572E+00
  1.88024401E+00  2.05861674E+00
%FLAG DIHEDRAL_FORCE_CONSTANT                                                   
%FORMAT(5E16.8)                                                                 
  1.55555556E-01  2.50000000E-01  0.00000000E+00  3.62500000E+00  2.00000000E+00
  2.50000000E+00  0.00000000E+00  4.03000000E+00  3.66000000E+00  2.10000000E-01
  1.00000000E-01  1.40000000E-01  2.15000000E-01  6.00000000E-02  2.17000000E-01
  3.83333333E-01  1.66000000E+00  1.30000000E-01  0.00000000E+00  0.00000000E+00
  3.00000000E-01  1.23000000E-01  1.10000000E+00  1.05000000E+01
%FLAG DIHEDRAL_PERIODICITY                                                      
%FORMAT(5E16.8)                                                                 
  3.00000000E+00  1.00000000E+00  3.00000000E+00  2.00000000E+00  1.00000000E+00
  2.00000000E+00  2.00000000E+00  1.00000000E+00  2.00000000E+00  3.00000000E+00
  3.00000000E+00  3.00000000E+00  3.00000000E+00  3.00000000E+00  3.00000000E+00
  3.00000000E+00  2.00000000E+00  3.00000000E+00  2.00000000E+00  1.00000000E+00
  3.00000000E+00  3.00000000E+00  2.00000000E+00  2.00000000E+00
%FLAG DIHEDRAL_PHASE                                                            
%FORMAT(5E16.8)                                                                 
  0.00000000E+00  0.00000000E+00  0.00000000E+00  3.14159400E+00  0.00000000E+00
  3.14159400E+00  3.14159400E+00  0.00000000E+00  3.14159400E+00  0.00000000E+00
  0.00000000E+00  0.00000000E+00  0.00000000E+00  0.00000000E+00  0.00000000E+00
  0.00000000E+00  3.14159400E+00  0.00000000E+00  0.00000000E+00  0.00000000E+00
  0.00000000E+00  0.00000000E+00  3.14159400E+00  3.14159400E+00
%FLAG SCEE_SCALE_FACTOR                                                         
%FORMAT(5E16.8)                                                                 
  1.20000000E+00  1.20000000E+00  1.20000000E+00  1.20000000E+00  1.20000000E+00
  1.20000000E+00  1.20000000E+00  1.20000000E+00  1.20000000E+00  1.20000000E+00
  1.20000000E+00  1.20000000E+00  1.20000000E+00  1.20000000E+00  1.20000000E+00
  1.20000000E+00  1.20000000E+00  1.20000000E+00  1.20000000E+00  1.20000000E+00
  1.20000000E+00  1.20000000E+00  0.00000000E+00  0.00000000E+00
%FLAG SCNB_SCALE_FACTOR                                                         
%FORMAT(5E16.8)                                                                 
  2.00000000E+00  2.00000000E+00  2.00000000E+00  2.00000000E+00  2.00000000E+00
  2.00000000E+00  2.00000000E+00  2.00000000E+00  2.00000000E+00  2.00000000E+00
  2.00000000E+00  2.00000000E+00  2.00000000E+00  2.00000000E+00  2.00000000E+00
  2.00000000E+00  2.00000000E+00  2.00000000E+00  2.00000000E+00  2.00000000E+00
  2.00000000E+00  2.00000000E+00  0.00000000E+00  0.00000000E+00
%FLAG SOLTY                                                                     
%FORMAT(5E16.8)                                                                 
  0.00000000E+00  0.00000000E+00  0.00000000E+00  0.00000000E+00  0.00000000E+00
  0.00000000E+00  0.00000000E+00  0.00000000E+00  0.00000000E+00  0.00000000E+00
  0.00000000E+00  0.00000000E+00  0.00000000E+00
%FLAG LENNARD_JONES_ACOEF                                                       
%FORMAT(5E16.8)                                                                 
  2.83662575E+05  3.78207390E+05  5.03152404E+05  3.27367585E+05  4.37717034E+05
  3.76435470E+05  4.60917758E+05  6.09286822E+05  5.37823556E+05  7.24302894E+05
  4.48972792E+05  5.95588247E+05  5.21528699E+05  7.15270148E+05  7.02390584E+05
  5.42502534E+05  7.18991463E+05  6.30925504E+05  8.61147463E+05  8.46898839E+05
  1.02073671E+06  4.46121722E+05  5.92438683E+05  5.17507491E+05  7.13691175E+05
  6.99645872E+05  8.43969952E+05  6.96551276E+05  3.44374471E+04  4.69084694E+04
  3.86646725E+04  6.08009173E+04  5.72492484E+04  6.97998263E+04  5.63013422E+04
  3.39005767E+03  9.46795083E+02  1.36475542E+03  9.87857350E+02  2.07791361E+03
  1.79123880E+03  2.23577481E+03  1.71458823E+03  5.24570081E+01  1.34728399E-01
  5.02224902E+04  6.80216136E+04  5.68021765E+04  8.67370500E+04  8.24082802E+04
  1.00235148E+05  8.12662403E+04  5.22955465E+03  9.47421632E+01  7.94617769E+03
  1.16469347E+02  1.74176419E+02  1.15813907E+02  2.93996564E+02  2.39572738E+02
  3.03553352E+02  2.25372434E+02  4.36660257E+00  2.61760843E-03  8.80612241E+00
  1.10360882E-05  4.65732396E+04  6.30298721E+04  5.27277400E+04  8.01918051E+04
  7.62837948E+04  9.27554496E+04  7.52549148E+04  4.88692384E+03  9.04434904E+01
  7.41026906E+03  8.53132435E+00  6.90855956E+03
%FLAG LENNARD_JONES_BCOEF                                                       
%FORMAT(5E16.8)                                                                 
  2.87011518E+02  3.52573684E+02  4.32634597E+02  3.67361018E+02  4.51916854E+02
  4.69350655E+02  3.36894171E+02  4.12077831E+02  4.33589357E+02  3.88888730E+02
  3.75713286E+02  4.60369117E+02  4.82461401E+02  4.36681770E+02  4.88972141E+02
  4.38146883E+02  5.36620538E+02  5.62969425E+02  5.08324538E+02  5.69616872E+02
  6.63431737E+02  3.88758656E+02  4.76608379E+02  4.98871431E+02  4.52784989E+02
  5.06571509E+02  5.90251928E+02  5.24668528E+02  7.31636661E+01  9.08431526E+01
  9.23664132E+01  8.95196800E+01  9.81551552E+01  1.14981426E+02  1.01040256E+02
  1.67944276E+01  1.01016461E+01  1.29026271E+01  1.22938581E+01  1.37803855E+01
  1.44573645E+01  1.71355763E+01  1.46824710E+01  1.73959275E+00  7.34107347E-02
  8.83545880E+01  1.09393126E+02  1.11953944E+02  1.06921681E+02  1.17764297E+02
  1.37787728E+02  1.21392023E+02  2.08590256E+01  2.33785449E+00  2.57122925E+01
  2.93355636E+00  3.81654050E+00  3.48534600E+00  4.29183694E+00  4.37779628E+00
  5.22789272E+00  4.40751799E+00  4.15568027E-01  8.47240681E-03  5.90150328E-01
  4.55498033E-04  7.98066064E+01  9.87712192E+01  1.01173582E+02  9.64315361E+01
  1.06275951E+02  1.24325688E+02  1.09570372E+02  1.89134207E+01  2.14252117E+00
  2.32899892E+01  5.44840215E-01  2.10929191E+01
%FLAG BONDS_INC_HYDROGEN                                                        
%FORMAT(10I8)                                                                   
       3      96       4       9      69       7      12     117       9      12
     120       9      15      57      11      15      60      11      18      63
      11      21      66      11      24      72      11      24      75      11
      27      78      12      27      81      12      27      84      12      30
      87      12      30      90      12      30      93      12      39      99
      15      42     102      15      45     105      15      48     108      15
      51     111      12      51     114      12
%FLAG BONDS_WITHOUT_HYDROGEN                                                    
%FORMAT(10I8)                                                                   
       0      24       1       0      33       2       3      18       3       6
      54       5       9      15       6       9      21       6      12      54
       8      15      18      10      18      24      10      21      27      10
      21      30      10      33      39      13      33      42      13      36
      45      13      36      48      13      36      51      14      39      45
      13      42      48      13      51      54      16
%FLAG ANGLES_INC_HYDROGEN                                                       
%FORMAT(10I8)                                                                   
       0      24      72       2       0      24      75       2       3      18
      63       5       9      15      57       9       9      15      60       9
       9      21      66       9      15       9      69      12      15      18
      63      14      18       3      96      15      18      15      57      14
      18      15      60      14      18      24      72      14      18      24
      75      14      21       9      69      12      21      27      78      16
      21      27      81      16      21      27      84      16      21      30
      87      16      21      30      90      16      21      30      93      16
      24      18      63      14      27      21      66      14      30      21
      66      14      33      39      99      19      33      42     102      19
      36      45     105      19      36      48     108      19      36      51
     111      21      36      51     114      21      39      45     105      19
      42      48     108      19      45      39      99      19      48      42
     102      19      54      12     117      23      54      12     120      23
      54      51     111      24      54      51     114      24      57      15
      60      25      72      24      75      25      78      27      81      26
      78      27      84      26      81      27      84      26      87      30
      90      26      87      30      93      26      90      30      93      26
     111      51     114      26     117      12     120      27
%FLAG ANGLES_WITHOUT_HYDROGEN                                                   
%FORMAT(10I8)                                                                   
       0      24      18       1       0      33      39       3       0      33
      42       3       3      18      15       4       3      18      24       4
       6      54      12       6       6      54      51       7       9      15
      18       8       9      21      27       8       9      21      30       8
      12      54      51      10      15       9      21      11      15      18
      24      13      24       0      33      17      27      21      30      13
      33      39      45      18      33      42      48      18      36      45
      39      18      36      48      42      18      36      51      54      20
      39      33      42      18      45      36      48      18      45      36
      51      22      48      36      51      22
%FLAG DIHEDRALS_INC_HYDROGEN                                                    
%FORMAT(10I8)                                                                   
       0      24      18      63       2       0      24     -18      63       3
       0      33      39      99       4       0      33      42     102       4
       3      18      15      57       2       3      18     -15      57       3
       3      18      15      60       2       3      18     -15      60       3
       3      18      24      72       2       3      18     -24      72       3
       3      18      24      75       2       3      18     -24      75       3
       6      54      12     117       5       6      54     -12     117       6
       6      54      12     120       5       6      54     -12     120       6
       6      54      51     111       8       6      54     -51     111       9
       6      54      51     114       8       6      54     -51     114       9
       9      15      18      63       1       9      21      27      78      11
       9      21      27      81      11       9      21      27      84      11
       9      21      30      87      11       9      21      30      90      11
       9      21      30      93      11      12      54      51     111       7
      12      54      51     114       7      15       9      21      66      13
      15      18       3      96      14      15      18      24      72       1
      15      18      24      75       1      18      15       9      69      15
      21       9      15      57      13      21       9      15      60      13
      24      18       3      96      14      24      18      15      57       1
      24      18      15      60       1      27      21       9      69      15
      27      21      30      87      18      27      21      30      90      18
      27      21      30      93      18      30      21       9      69      15
      30      21      27      78      18      30      21      27      81      18
      30      21      27      84      18      33       0      24      72      16
      33       0      24      75      16      33      39      45     105       4
      33      42      48     108       4      36      45      39      99       4
      36      48      42     102       4      39      33      42     102       4
      42      33      39      99       4      45      36      48     108       4
      45      36      51     111      20      45      36      51     114      20
      48      36      45     105       4      48      36      51     111      20
      48      36      51     114      20      51      36      45     105       4
      51      36      48     108       4      51      54      12     117       6
      51      54      12     120       6      57      15       9      69      21
      57      15      18      63       1      60      15       9      69      21
      60      15      18      63       1      63      18       3      96      22
      63      18      24      72       1      63      18      24      75       1
      66      21       9      69      21      66      21      27      78       1
      66      21      27      81       1      66      21      27      84       1
      66      21      30      87       1      66      21      30      90       1
      66      21      30      93       1      99      39      45     105       4
     102      42      48     108       4      54     117     -12    -120      23
      33      45     -39     -99      23      33      48     -42    -102      23
      36      39     -45    -105      23      36      42     -48    -108      23
%FLAG DIHEDRALS_WITHOUT_HYDROGEN                                                
%FORMAT(10I8)                                                                   
       0      24      18       3       1       0      24      18      15       1
       0      33      39      45       4       0      33      42      48       4
       3      18      15       9       1       6      54      51      36       7
       9      15      18      24      10      12      54      51      36       7
      15       9      21      27      12      15       9      21      30      12
      18      15       9      21      12      33       0      24      18      16
      24       0      33      39      17      24       0      33      42      17
      33      39      45      36       4      33      42     -48      36       4
      39      33      42      48       4      39      45     -36      48       4
      39      45      36      51       4      42      33      39      45       4
      42      48     -36      45       4      42      48      36      51       4
      45      36      51      54      19      48      36      51      54      19
       0      33     -42     -39      23      45      48     -36     -51      23
      51      12     -54      -6      24
%FLAG EXCLUDED_ATOMS_LIST                                                       
%FORMAT(10I8)                                                                   
       2       6       7       9      12      14      15      16      17      22
      25      26      34      35       4       6       7       9      20      21
      22      25      26      33       5      13      18      19      38      39
      40      41       6       7       8       9      10      11      20      21
      22      23      24      27      28      29      30      31      32      13
      18      19      38      39      40      41       7       8       9      10
      11      20      21      22      23      24      25      26      33       8
       9      12      20      21      22      24      25      26      33      10
      11      20      21      23      24      27      28      29      30      31
      32      12      14      15      20      21      22      25      26      33
      11      23      24      27      28      29      30      31      32      23
      24      27      28      29      30      31      32      13      14      15
      16      17      25      26      34      35      36      37      14      15
      16      17      18      19      34      35      36      37      38      39
      15      16      17      18      34      35      36      16      17      18
      34      35      37      17      18      19      34      36      37      38
      39      18      19      35      36      37      38      39      19      36
      37      38      39      40      41      38      39      40      41      21
      22      24      22      24      25      26      33      24      27      28
      29      30      31      32       0      26       0      28      29      29
       0      31      32      32       0       0      36      37       0       0
      39       0      41       0
%FLAG HBOND_ACOEF                                                               
%FORMAT(5E16.8)                                                                 

%FLAG HBOND_BCOEF                                                               
%FORMAT(5E16.8)                                                                 

%FLAG HBCUT                                                                     
%FORMAT(5E16.8)                                                                 

%FLAG AMBER_ATOM_TYPE                                                           
%FORMAT(20a4)                                                                   
os  oh  o   n7  nt  c3  c3  c3  c3  c3  c3  ca  ca  ca  ca  ca  ca  c3  c   h1  
h1  h1  h1  hn  h1  h1  hc  hc  hc  hc  hc  hc  ho  ha  ha  ha  ha  hc  hc  hn  
hn  
%FLAG TREE_CHAIN_CLASSIFICATION                                                 
%FORMAT(20a4)                                                                   
BLA BLA BLA BLA BLA BLA BLA BLA BLA BLA BLA BLA BLA BLA BLA BLA BLA BLA BLA BLA 
BLA BLA BLA BLA BLA BLA BLA BLA BLA BLA BLA BLA BLA BLA BLA BLA BLA BLA BLA BLA 
BLA 
%FLAG JOIN_ARRAY                                                                
%FORMAT(10I8)                                                                   
       0       0       0       0       0       0       0       0       0       0
       0       0       0       0       0       0       0       0       0       0
       0       0       0       0       0       0       0       0       0       0
       0       0       0       0       0       0       0       0       0       0
       0
%FLAG IROTAT                                                                    
%FORMAT(10I8)                                                                   
       0       0       0       0       0       0       0       0       0       0
       0       0       0       0       0       0       0       0       0       0
       0       0       0       0       0       0       0       0       0       0
       0       0       0       0       0       0       0       0       0       0
       0
%FLAG RADIUS_SET                                                                
%FORMAT(1a80)                                                                   
modified Bondi radii (mbondi)                                                   
%FLAG RADII                                                                     
%FORMAT(5E16.8)                                                                 
  1.50000000E+00  1.50000000E+00  1.50000000E+00  1.55000000E+00  1.55000000E+00
  1.70000000E+00  1.70000000E+00  1.70000000E+00  1.70000000E+00  1.70000000E+00
  1.70000000E+00  1.70000000E+00  1.70000000E+00  1.70000000E+00  1.70000000E+00
  1.70000000E+00  1.70000000E+00  1.70000000E+00  1.70000000E+00  1.30000000E+00
  1.30000000E+00  1.30000000E+00  1.30000000E+00  1.30000000E+00  1.30000000E+00
  1.30000000E+00  1.30000000E+00  1.30000000E+00  1.30000000E+00  1.30000000E+00
  1.30000000E+00  1.30000000E+00  8.00000000E-01  1.30000000E+00  1.30000000E+00
  1.30000000E+00  1.30000000E+00  1.30000000E+00  1.30000000E+00  1.30000000E+00
  1.30000000E+00
%FLAG SCREEN                                                                    
%FORMAT(5E16.8)                                                                 
  8.50000000E-01  8.50000000E-01  8.50000000E-01  7.90000000E-01  7.90000000E-01
  7.20000000E-01  7.20000000E-01  7.20000000E-01  7.20000000E-01  7.20000000E-01
  7.20000000E-01  7.20000000E-01  7.20000000E-01  7.20000000E-01  7.20000000E-01
  7.20000000E-01  7.20000000E-01  7.20000000E-01  7.20000000E-01  8.50000000E-01
  8.50000000E-01  8.50000000E-01  8.50000000E-01  8.50000000E-01  8.50000000E-01
  8.50000000E-01  8.50000000E-01  8.50000000E-01  8.50000000E-01  8.50000000E-01
  8.50000000E-01  8.50000000E-01  8.50000000E-01  8.50000000E-01  8.50000000E-01
  8.50000000E-01  8.50000000E-01  8.50000000E-01  8.50000000E-01  8.50000000E-01
  8.50000000E-01
%FLAG IPOL                                                                      
%FORMAT(1I8)                                                                    
       0
