2249
    41
  -1.0830000  -1.5380000  -0.3660000  -3.5750000  -2.7560000  -0.5620000
   4.9780000  -0.8560000  -0.5230000  -3.5770000   0.7580000   0.6080000
   6.2520000   0.9130000   0.2040000  -3.7960000  -0.3850000  -0.2690000
  -3.3600000  -1.7000000   0.3790000  -3.9470000   2.0010000  -0.0540000
  -1.8900000  -1.7110000   0.7950000  -3.7520000   3.1670000   0.9100000
  -3.1200000   2.1930000  -1.3220000   0.1140000  -0.8950000  -0.1920000
   2.5460000   0.4090000   0.1580000   0.6500000  -0.1460000  -1.2340000
   0.7820000  -0.9980000   1.0230000   1.8700000   0.5080000  -1.0580000
   2.0020000  -0.3440000   1.1980000   3.8490000   1.1090000   0.3460000
   5.0570000   0.2710000  -0.0400000  -3.2480000  -0.3030000  -1.2130000
  -4.8580000  -0.4580000  -0.5400000  -3.9800000  -1.9100000   1.2590000
  -5.0100000   1.9760000  -0.3260000  -4.1170000   0.6420000   1.4640000
  -1.7290000  -0.9300000   1.5470000  -1.6440000  -2.6870000   1.2300000
  -4.3600000   3.0390000   1.8130000  -4.0510000   4.1120000   0.4420000
  -2.7040000   3.2620000   1.2180000  -3.2260000   3.2200000  -1.6920000
  -2.0520000   2.0240000  -1.1420000  -3.4470000   1.5440000  -2.1400000
  -4.5220000  -2.7640000  -0.7810000   0.1270000  -0.0660000  -2.1820000
   0.4100000  -1.6000000   1.8470000   2.2840000   1.0900000  -1.8780000
   2.5230000  -0.4360000   2.1480000   3.9610000   1.4170000   1.3940000
   3.8690000   2.0330000  -0.2460000   7.1380000   0.4670000  -0.0090000
   6.2940000   1.8460000   0.6020000
