5793
    24
  -0.6680000   1.1590000   0.2570000  -0.8870000  -2.4480000  -0.3390000
   1.8620000  -2.0690000   0.4700000   2.8610000   0.5410000  -0.4620000
   1.1220000   2.6550000   0.2570000  -3.3740000   0.9720000  -0.1860000
  -0.3730000  -1.2470000   0.2300000   1.0860000  -1.0710000  -0.1940000
  -1.2210000  -0.0620000  -0.2370000   1.6080000   0.3150000   0.1840000
   0.6390000   1.4130000  -0.2530000  -2.6550000  -0.1580000   0.2740000
  -0.4250000  -1.3520000   1.3210000   1.2070000  -1.2490000  -1.2700000
  -1.2550000  -0.0100000  -1.3340000   1.7950000   0.3600000   1.2640000
   0.5970000   1.5140000  -1.3440000  -2.6920000  -0.1530000   1.3690000
  -3.1560000  -1.0580000  -0.0920000  -0.8510000  -2.3610000  -1.3070000
   1.4970000  -2.9360000   0.2200000   2.7160000   0.4990000  -1.4230000
   1.4880000   2.5030000   1.1450000  -2.9190000   1.7650000   0.1440000
