; glucose_GMX.itp created by acpype (v: 2023.10.27) on Mon Feb  9 17:46:14 2026

[ atomtypes ]
;name   bond_type     mass     charge   ptype   sigma         epsilon       Amb
 os       os          0.00000  0.00000   A     3.15610e-01   3.03758e-01 ; 1.77  0.0726
 oh       oh          0.00000  0.00000   A     3.24287e-01   3.89112e-01 ; 1.82  0.0930
 c6       c6          0.00000  0.00000   A     3.39771e-01   4.51035e-01 ; 1.91  0.1078
 c3       c3          0.00000  0.00000   A     3.39771e-01   4.51035e-01 ; 1.91  0.1078
 h1       h1          0.00000  0.00000   A     2.42200e-01   8.70272e-02 ; 1.36  0.0208
 h2       h2          0.00000  0.00000   A     2.24382e-01   8.70272e-02 ; 1.26  0.0208
 ho       ho          0.00000  0.00000   A     5.37925e-02   1.96648e-02 ; 0.30  0.0047

[ moleculetype ]
;name            nrexcl
 glucose          3

[ atoms ]
;   nr  type  resi  res  atom  cgnr     charge      mass       ; qtot   bond_type
     1   os     1   UNL     O    1    -0.451600     16.00000 ; qtot -0.452
     2   oh     1   UNL    O1    2    -0.586800     16.00000 ; qtot -1.038
     3   oh     1   UNL    O2    3    -0.577800     16.00000 ; qtot -1.616
     4   oh     1   UNL    O3    4    -0.555800     16.00000 ; qtot -2.172
     5   oh     1   UNL    O4    5    -0.564800     16.00000 ; qtot -2.737
     6   oh     1   UNL    O5    6    -0.593800     16.00000 ; qtot -3.331
     7   c6     1   UNL     C    7     0.072100     12.01000 ; qtot -3.259
     8   c6     1   UNL    C1    8     0.081100     12.01000 ; qtot -3.177
     9   c6     1   UNL    C2    9     0.078100     12.01000 ; qtot -3.099
    10   c6     1   UNL    C3   10     0.093100     12.01000 ; qtot -3.006
    11   c6     1   UNL    C4   11     0.306900     12.01000 ; qtot -2.699
    12   c3     1   UNL    C5   12     0.138400     12.01000 ; qtot -2.561
    13   h1     1   UNL     H   13     0.105700      1.00800 ; qtot -2.455
    14   h1     1   UNL    H1   14     0.032700      1.00800 ; qtot -2.422
    15   h1     1   UNL    H2   15     0.053700      1.00800 ; qtot -2.369
    16   h1     1   UNL    H3   16     0.104700      1.00800 ; qtot -2.264
    17   h2     1   UNL    H4   17     0.077700      1.00800 ; qtot -2.186
    18   h1     1   UNL    H5   18     0.064200      1.00800 ; qtot -2.122
    19   h1     1   UNL    H6   19     0.064200      1.00800 ; qtot -2.058
    20   ho     1   UNL    H7   20     0.405000      1.00800 ; qtot -1.653
    21   ho     1   UNL    H8   21     0.418000      1.00800 ; qtot -1.235
    22   ho     1   UNL    H9   22     0.400000      1.00800 ; qtot -0.835
    23   ho     1   UNL   H10   23     0.420000      1.00800 ; qtot -0.415
    24   ho     1   UNL   H11   24     0.415000      1.00800 ; qtot 0.000

[ bonds ]
;   ai     aj funct   r             k
     1      9   1    1.4300e-01    2.3412e+05 ;      O - C2    
     1     11   1    1.4300e-01    2.3412e+05 ;      O - C4    
     2      7   1    1.4241e-01    2.3870e+05 ;     O1 - C     
     2     20   1    9.7250e-02    4.4811e+05 ;     O1 - H7    
     3      8   1    1.4241e-01    2.3870e+05 ;     O2 - C1    
     3     21   1    9.7250e-02    4.4811e+05 ;     O2 - H8    
     4     10   1    1.4241e-01    2.3870e+05 ;     O3 - C3    
     4     22   1    9.7250e-02    4.4811e+05 ;     O3 - H9    
     5     11   1    1.4241e-01    2.3870e+05 ;     O4 - C4    
     5     23   1    9.7250e-02    4.4811e+05 ;     O4 - H10   
     6     12   1    1.4242e-01    2.3861e+05 ;     O5 - C5    
     6     24   1    9.7250e-02    4.4811e+05 ;     O5 - H11   
     7      8   1    1.5384e-01    1.8979e+05 ;      C - C1    
     7      9   1    1.5384e-01    1.8979e+05 ;      C - C2    
     7     13   1    1.0984e-01    2.8620e+05 ;      C - H     
     8     10   1    1.5384e-01    1.8979e+05 ;     C1 - C3    
     8     14   1    1.0984e-01    2.8620e+05 ;     C1 - H1    
     9     12   1    1.5428e-01    1.8728e+05 ;     C2 - C5    
     9     15   1    1.0984e-01    2.8620e+05 ;     C2 - H2    
    10     11   1    1.5384e-01    1.8979e+05 ;     C3 - C4    
    10     16   1    1.0984e-01    2.8620e+05 ;     C3 - H3    
    11     17   1    1.0985e-01    2.8609e+05 ;     C4 - H4    
    12     18   1    1.0969e-01    2.8804e+05 ;     C5 - H5    
    12     19   1    1.0969e-01    2.8804e+05 ;     C5 - H6    

[ pairs ]
;   ai     aj    funct
     1      2      1 ;      O - O1    
     1      4      1 ;      O - O3    
     1      6      1 ;      O - O5    
     1      8      1 ;      O - C1    
     1     13      1 ;      O - H     
     1     16      1 ;      O - H3    
     1     18      1 ;      O - H5    
     1     19      1 ;      O - H6    
     1     23      1 ;      O - H10   
     2      3      1 ;     O1 - O2    
     2     10      1 ;     O1 - C3    
     2     12      1 ;     O1 - C5    
     2     14      1 ;     O1 - H1    
     2     15      1 ;     O1 - H2    
     3      4      1 ;     O2 - O3    
     3      9      1 ;     O2 - C2    
     3     11      1 ;     O2 - C4    
     3     13      1 ;     O2 - H     
     3     16      1 ;     O2 - H3    
     4      5      1 ;     O3 - O4    
     4      7      1 ;     O3 - C     
     4     14      1 ;     O3 - H1    
     4     17      1 ;     O3 - H4    
     5      8      1 ;     O4 - C1    
     5     16      1 ;     O4 - H3    
     6      7      1 ;     O5 - C     
     6     15      1 ;     O5 - H2    
     7     11      1 ;      C - C4    
     7     16      1 ;      C - H3    
     7     18      1 ;      C - H5    
     7     19      1 ;      C - H6    
     7     21      1 ;      C - H8    
     8     12      1 ;     C1 - C5    
     8     15      1 ;     C1 - H2    
     8     17      1 ;     C1 - H4    
     8     20      1 ;     C1 - H7    
     8     22      1 ;     C1 - H9    
     9      5      1 ;     C2 - O4    
     9     10      1 ;     C2 - C3    
     9     14      1 ;     C2 - H1    
     9     17      1 ;     C2 - H4    
     9     20      1 ;     C2 - H7    
     9     24      1 ;     C2 - H11   
    10     13      1 ;     C3 - H     
    10     21      1 ;     C3 - H8    
    10     23      1 ;     C3 - H10   
    11     12      1 ;     C4 - C5    
    11     14      1 ;     C4 - H1    
    11     15      1 ;     C4 - H2    
    11     22      1 ;     C4 - H9    
    12     13      1 ;     C5 - H     
    13     14      1 ;      H - H1    
    13     15      1 ;      H - H2    
    13     20      1 ;      H - H7    
    14     16      1 ;     H1 - H3    
    14     21      1 ;     H1 - H8    
    15     18      1 ;     H2 - H5    
    15     19      1 ;     H2 - H6    
    16     17      1 ;     H3 - H4    
    16     22      1 ;     H3 - H9    
    17     23      1 ;     H4 - H10   
    18     24      1 ;     H5 - H11   
    19     24      1 ;     H6 - H11   

[ angles ]
;   ai     aj     ak    funct   theta         cth
     1      9      7      1    1.1009e+02    6.3948e+02 ;      O - C2     - C     
     1      9     12      1    1.0683e+02    6.4810e+02 ;      O - C2     - C5    
     1      9     15      1    1.0808e+02    4.7430e+02 ;      O - C2     - H2    
     1     11      5      1    1.0868e+02    8.2090e+02 ;      O - C4     - O4    
     1     11     10      1    1.1009e+02    6.3948e+02 ;      O - C4     - C3    
     1     11     17      1    1.0944e+02    4.7137e+02 ;      O - C4     - H4    
     2      7      8      1    1.1005e+02    6.4065e+02 ;     O1 - C      - C1    
     2      7      9      1    1.1005e+02    6.4065e+02 ;     O1 - C      - C2    
     2      7     13      1    1.0996e+02    4.7187e+02 ;     O1 - C      - H     
     3      8      7      1    1.1005e+02    6.4065e+02 ;     O2 - C1     - C     
     3      8     10      1    1.1005e+02    6.4065e+02 ;     O2 - C1     - C3    
     3      8     14      1    1.0996e+02    4.7187e+02 ;     O2 - C1     - H1    
     4     10      8      1    1.1005e+02    6.4065e+02 ;     O3 - C3     - C1    
     4     10     11      1    1.1005e+02    6.4065e+02 ;     O3 - C3     - C4    
     4     10     16      1    1.0996e+02    4.7187e+02 ;     O3 - C3     - H3    
     5     11     10      1    1.1005e+02    6.4065e+02 ;     O4 - C4     - C3    
     5     11     17      1    1.0971e+02    4.7237e+02 ;     O4 - C4     - H4    
     6     12      9      1    1.1145e+02    6.3555e+02 ;     O5 - C5     - C2    
     6     12     18      1    1.1038e+02    4.7103e+02 ;     O5 - C5     - H5    
     6     12     19      1    1.1038e+02    4.7103e+02 ;     O5 - C5     - H6    
     7      2     20      1    1.0707e+02    5.4584e+02 ;      C - O1     - H7    
     7      8     10      1    1.1106e+02    5.0359e+02 ;      C - C1     - C3    
     7      8     14      1    1.0918e+02    3.6217e+02 ;      C - C1     - H1    
     7      9     12      1    1.1143e+02    5.0200e+02 ;      C - C2     - C5    
     7      9     15      1    1.0918e+02    3.6217e+02 ;      C - C2     - H2    
     8      3     21      1    1.0707e+02    5.4584e+02 ;     C1 - O2     - H8    
     8      7      9      1    1.1106e+02    5.0359e+02 ;     C1 - C      - C2    
     8      7     13      1    1.0918e+02    3.6217e+02 ;     C1 - C      - H     
     8     10     11      1    1.1106e+02    5.0359e+02 ;     C1 - C3     - C4    
     8     10     16      1    1.0918e+02    3.6217e+02 ;     C1 - C3     - H3    
     9      1     11      1    1.1330e+02    7.3873e+02 ;     C2 - O      - C4    
     9      7     13      1    1.0918e+02    3.6217e+02 ;     C2 - C      - H     
     9     12     18      1    1.0913e+02    3.6141e+02 ;     C2 - C5     - H5    
     9     12     19      1    1.0913e+02    3.6141e+02 ;     C2 - C5     - H6    
    10      4     22      1    1.0707e+02    5.4584e+02 ;     C3 - O3     - H9    
    10      8     14      1    1.0918e+02    3.6217e+02 ;     C3 - C1     - H1    
    10     11     17      1    1.0998e+02    3.6083e+02 ;     C3 - C4     - H4    
    11      5     23      1    1.0707e+02    5.4584e+02 ;     C4 - O4     - H10   
    11     10     16      1    1.0918e+02    3.6217e+02 ;     C4 - C3     - H3    
    12      6     24      1    1.0739e+02    5.4501e+02 ;     C5 - O5     - H11   
    12      9     15      1    1.0855e+02    3.6233e+02 ;     C5 - C2     - H2    
    18     12     19      1    1.0855e+02    2.9824e+02 ;     H5 - C5     - H6    

[ dihedrals ] ; propers
; for gromacs 4.5 or higher, using funct 9
;    i      j      k      l   func   phase     kd      pn
     1      9      7      2      9     0.00   4.47688   3 ;      O-    C2-     C-    O1
     1      9      7      2      9   180.00   2.80328   1 ;      O-    C2-     C-    O1
     1      9      7      2      9   180.00   3.05432   2 ;      O-    C2-     C-    O1
     1      9      7      8      9     0.00   0.65084   3 ;      O-    C2-     C-    C1
     1      9      7     13      9     0.00   0.00000   0 ;      O-    C2-     C-     H
     1      9      7     13      9     0.00   1.04600   1 ;      O-    C2-     C-     H
     1      9     12      6      9     0.00   4.47688   3 ;      O-    C2-    C5-    O5
     1      9     12      6      9   180.00   2.80328   1 ;      O-    C2-    C5-    O5
     1      9     12      6      9   180.00   3.05432   2 ;      O-    C2-    C5-    O5
     1      9     12     18      9     0.00   0.00000   0 ;      O-    C2-    C5-    H5
     1      9     12     18      9     0.00   1.04600   1 ;      O-    C2-    C5-    H5
     1      9     12     19      9     0.00   0.00000   0 ;      O-    C2-    C5-    H6
     1      9     12     19      9     0.00   1.04600   1 ;      O-    C2-    C5-    H6
     1     11      5     23      9     0.00   0.69733   3 ;      O-    C4-    O4-   H10
     1     11     10      4      9     0.00   4.47688   3 ;      O-    C4-    C3-    O3
     1     11     10      4      9   180.00   2.80328   1 ;      O-    C4-    C3-    O3
     1     11     10      4      9   180.00   3.05432   2 ;      O-    C4-    C3-    O3
     1     11     10      8      9     0.00   0.65084   3 ;      O-    C4-    C3-    C1
     1     11     10     16      9     0.00   0.00000   0 ;      O-    C4-    C3-    H3
     1     11     10     16      9     0.00   1.04600   1 ;      O-    C4-    C3-    H3
     2      7      8      3      9     0.00   4.18400   1 ;     O1-     C-    C1-    O2
     2      7      8      3      9     0.00   6.02496   3 ;     O1-     C-    C1-    O2
     2      7      8     10      9     0.00   0.75312   3 ;     O1-     C-    C1-    C3
     2      7      8     14      9     0.00   0.00000   0 ;     O1-     C-    C1-    H1
     2      7      8     14      9     0.00   1.04600   1 ;     O1-     C-    C1-    H1
     2      7      9     12      9     0.00   0.75312   3 ;     O1-     C-    C2-    C5
     2      7      9     15      9     0.00   0.00000   0 ;     O1-     C-    C2-    H2
     2      7      9     15      9     0.00   1.04600   1 ;     O1-     C-    C2-    H2
     3      8      7      9      9     0.00   0.75312   3 ;     O2-    C1-     C-    C2
     3      8      7     13      9     0.00   0.00000   0 ;     O2-    C1-     C-     H
     3      8      7     13      9     0.00   1.04600   1 ;     O2-    C1-     C-     H
     3      8     10      4      9     0.00   4.18400   1 ;     O2-    C1-    C3-    O3
     3      8     10      4      9     0.00   6.02496   3 ;     O2-    C1-    C3-    O3
     3      8     10     11      9     0.00   0.75312   3 ;     O2-    C1-    C3-    C4
     3      8     10     16      9     0.00   0.00000   0 ;     O2-    C1-    C3-    H3
     3      8     10     16      9     0.00   1.04600   1 ;     O2-    C1-    C3-    H3
     4     10      8      7      9     0.00   0.75312   3 ;     O3-    C3-    C1-     C
     4     10      8     14      9     0.00   0.00000   0 ;     O3-    C3-    C1-    H1
     4     10      8     14      9     0.00   1.04600   1 ;     O3-    C3-    C1-    H1
     4     10     11      5      9     0.00   4.18400   1 ;     O3-    C3-    C4-    O4
     4     10     11      5      9     0.00   6.02496   3 ;     O3-    C3-    C4-    O4
     4     10     11     17      9     0.00   0.65084   3 ;     O3-    C3-    C4-    H4
     5     11     10      8      9     0.00   0.75312   3 ;     O4-    C4-    C3-    C1
     5     11     10     16      9     0.00   0.00000   0 ;     O4-    C4-    C3-    H3
     5     11     10     16      9     0.00   1.04600   1 ;     O4-    C4-    C3-    H3
     6     12      9      7      9     0.00   0.75312   3 ;     O5-    C5-    C2-     C
     6     12      9     15      9     0.00   0.00000   0 ;     O5-    C5-    C2-    H2
     6     12      9     15      9     0.00   1.04600   1 ;     O5-    C5-    C2-    H2
     7      8      3     21      9     0.00   0.25104   3 ;      C-    C1-    O2-    H8
     7      8     10     11      9     0.00   2.17568   3 ;      C-    C1-    C3-    C4
     7      8     10     16      9     0.00   0.65084   3 ;      C-    C1-    C3-    H3
     7      9     12     18      9     0.00   0.65084   3 ;      C-    C2-    C5-    H5
     7      9     12     19      9     0.00   0.65084   3 ;      C-    C2-    C5-    H6
     8      7      2     20      9     0.00   0.25104   3 ;     C1-     C-    O1-    H7
     8      7      9     12      9     0.00   2.17568   3 ;     C1-     C-    C2-    C5
     8      7      9     15      9     0.00   0.65084   3 ;     C1-     C-    C2-    H2
     8     10      4     22      9     0.00   0.25104   3 ;     C1-    C3-    O3-    H9
     8     10     11     17      9     0.00   0.65084   3 ;     C1-    C3-    C4-    H4
     9      1     11      5      9     0.00   2.66381   3 ;     C2-     O-    C4-    O4
     9      1     11      5      9     0.00   3.59824   2 ;     C2-     O-    C4-    O4
     9      1     11      5      9   180.00   6.52704   1 ;     C2-     O-    C4-    O4
     9      1     11     10      9     0.00   4.85344   3 ;     C2-     O-    C4-    C3
     9      1     11     10      9     0.00   5.77392   2 ;     C2-     O-    C4-    C3
     9      1     11     10      9   180.00   1.46440   1 ;     C2-     O-    C4-    C3
     9      1     11     17      9     0.00   1.60387   3 ;     C2-     O-    C4-    H4
     9      7      2     20      9     0.00   0.25104   3 ;     C2-     C-    O1-    H7
     9      7      8     10      9     0.00   2.17568   3 ;     C2-     C-    C1-    C3
     9      7      8     14      9     0.00   0.65084   3 ;     C2-     C-    C1-    H1
     9     12      6     24      9     0.00   0.25104   3 ;     C2-    C5-    O5-   H11
    10      8      3     21      9     0.00   0.25104   3 ;     C3-    C1-    O2-    H8
    10      8      7     13      9     0.00   0.65084   3 ;     C3-    C1-     C-     H
    10     11      5     23      9     0.00   0.25104   3 ;     C3-    C4-    O4-   H10
    11      1      9      7      9     0.00   4.85344   3 ;     C4-     O-    C2-     C
    11      1      9      7      9     0.00   5.77392   2 ;     C4-     O-    C2-     C
    11      1      9      7      9   180.00   1.46440   1 ;     C4-     O-    C2-     C
    11      1      9     12      9     0.00   0.33472   2 ;     C4-     O-    C2-    C5
    11      1      9     12      9     0.00   3.13800   3 ;     C4-     O-    C2-    C5
    11      1      9     12      9   180.00   3.68192   1 ;     C4-     O-    C2-    C5
    11      1      9     15      9     0.00   1.41001   3 ;     C4-     O-    C2-    H2
    11     10      4     22      9     0.00   0.25104   3 ;     C4-    C3-    O3-    H9
    11     10      8     14      9     0.00   0.65084   3 ;     C4-    C3-    C1-    H1
    12      9      7     13      9     0.00   0.65084   3 ;     C5-    C2-     C-     H
    13      7      2     20      9     0.00   0.51463   3 ;      H-     C-    O1-    H7
    13      7      8     14      9     0.00   0.65084   3 ;      H-     C-    C1-    H1
    13      7      9     15      9     0.00   0.65084   3 ;      H-     C-    C2-    H2
    14      8      3     21      9     0.00   0.51463   3 ;     H1-    C1-    O2-    H8
    14      8     10     16      9     0.00   0.65084   3 ;     H1-    C1-    C3-    H3
    15      9     12     18      9     0.00   0.65084   3 ;     H2-    C2-    C5-    H5
    15      9     12     19      9     0.00   0.65084   3 ;     H2-    C2-    C5-    H6
    16     10      4     22      9     0.00   0.51463   3 ;     H3-    C3-    O3-    H9
    16     10     11     17      9     0.00   0.65084   3 ;     H3-    C3-    C4-    H4
    17     11      5     23      9     0.00   0.69733   3 ;     H4-    C4-    O4-   H10
    18     12      6     24      9     0.00   0.51463   3 ;     H5-    C5-    O5-   H11
    19     12      6     24      9     0.00   0.51463   3 ;     H6-    C5-    O5-   H11
