glucose_GMX.gro created by acpype (v: 2023.10.27) on Mon Feb  9 17:46:14 2026
 24
    1  UNL    O    1  -0.067   0.116   0.026
    1  UNL   O1    2  -0.089  -0.245  -0.034
    1  UNL   O2    3   0.186  -0.207   0.047
    1  UNL   O3    4   0.286   0.054  -0.046
    1  UNL   O4    5   0.112   0.266   0.026
    1  UNL   O5    6  -0.337   0.097  -0.019
    1  UNL    C    7  -0.037  -0.125   0.023
    1  UNL   C1    8   0.109  -0.107  -0.019
    1  UNL   C2    9  -0.122  -0.006  -0.024
    1  UNL   C3   10   0.161   0.032   0.018
    1  UNL   C4   11   0.064   0.141  -0.025
    1  UNL   C5   12  -0.266  -0.016   0.027
    1  UNL    H   13  -0.043  -0.135   0.132
    1  UNL   H1   14   0.121  -0.125  -0.127
    1  UNL   H2   15  -0.126  -0.001  -0.133
    1  UNL   H3   16   0.179   0.036   0.126
    1  UNL   H4   17   0.060   0.151  -0.134
    1  UNL   H5   18  -0.269  -0.015   0.137
    1  UNL   H6   19  -0.316  -0.106  -0.009
    1  UNL   H7   20  -0.085  -0.236  -0.131
    1  UNL   H8   21   0.150  -0.294   0.022
    1  UNL   H9   22   0.272   0.050  -0.142
    1  UNL  H10   23   0.149   0.250   0.115
    1  UNL  H11   24  -0.292   0.176   0.014
   12.47000    11.18200     5.58400
