; caffeine_GMX_OPLS.top created by acpype (v: 2023.10.27) on Mon Feb  9 17:34:34 2026

; Include forcefield parameters
#include "ffoplsaa.itp"

; Include caffeine_GMX.itp topology
#include "caffeine_GMX.itp"

; Ligand position restraints
#ifdef POSRES_LIG
#include "posre_caffeine.itp"
#endif

[ system ]
 caffeine

[ molecules ]
; Compound        nmols
 caffeine         1     
