; caffeine_GMX.top created by acpype (v: 2023.10.27) on Mon Feb  9 17:34:34 2026

[ defaults ]
; nbfunc        comb-rule       gen-pairs       fudgeLJ fudgeQQ
1               2               yes             0.5     0.8333333333

; Include caffeine_GMX.itp topology
#include "caffeine_GMX.itp"

; Ligand position restraints
#ifdef POSRES_LIG
#include "posre_caffeine.itp"
#endif

[ system ]
 caffeine

[ molecules ]
; Compound        nmols
 caffeine         1     
