caffeine_GMX.gro created by acpype (v: 2023.10.27) on Mon Feb  9 17:34:34 2026
 24
    1  UNL    O    1   0.047   0.257   0.000
    1  UNL   O1    2  -0.313  -0.044  -0.000
    1  UNL    N    3  -0.097  -0.131   0.000
    1  UNL   N1    4   0.222   0.014  -0.000
    1  UNL   N2    5  -0.135   0.108  -0.000
    1  UNL   N3    6   0.141  -0.194   0.000
    1  UNL    C    7   0.086   0.026  -0.000
    1  UNL   C1    8   0.039  -0.103  -0.000
    1  UNL   C2    9   0.003   0.142  -0.000
    1  UNL   C3   10  -0.191  -0.025  -0.000
    1  UNL   C4   11   0.250  -0.120   0.000
    1  UNL   C5   12  -0.143  -0.270   0.000
    1  UNL   C6   13   0.319   0.121   0.000
    1  UNL   C7   14  -0.230   0.219   0.000
    1  UNL    H   15   0.352  -0.158   0.000
    1  UNL   H1   16  -0.104  -0.320  -0.089
    1  UNL   H2   17  -0.252  -0.276   0.000
    1  UNL   H3   18  -0.104  -0.320   0.090
    1  UNL   H4   19   0.420   0.078   0.000
    1  UNL   H5   20   0.305   0.181  -0.090
    1  UNL   H6   21   0.305   0.181   0.090
    1  UNL   H7   22  -0.181   0.317  -0.000
    1  UNL   H8   23  -0.293   0.210   0.089
    1  UNL   H9   24  -0.294   0.210  -0.089
   14.65200    12.72400     3.59800
