2519
    24
   0.4700000   2.5690000   0.0010000  -3.1270000  -0.4440000  -0.0000000
  -0.9690000  -1.3120000   0.0000000   2.2180000   0.1410000  -0.0000000
  -1.3480000   1.0800000  -0.0000000   1.4120000  -1.9370000   0.0000000
   0.8580000   0.2590000  -0.0010000   0.3900000  -1.0260000  -0.0000000
   0.0310000   1.4220000  -0.0010000  -1.9060000  -0.2490000  -0.0000000
   2.5030000  -1.2000000   0.0000000  -1.4280000  -2.6960000   0.0010000
   3.1930000   1.2060000   0.0000000  -2.2970000   2.1880000   0.0010000
   3.5160000  -1.5790000   0.0010000  -1.0450000  -3.1970000  -0.8940000
  -2.5190000  -2.7600000   0.0010000  -1.0450000  -3.1960000   0.8960000
   4.1990000   0.7800000   0.0000000   3.0470000   1.8090000  -0.8990000
   3.0470000   1.8080000   0.9000000  -1.8090000   3.1650000  -0.0000000
  -2.9320000   2.1030000   0.8880000  -2.9350000   2.1020000  -0.8850000
