; caffeine_GMX.itp created by acpype (v: 2023.10.27) on Mon Feb  9 17:34:34 2026

[ atomtypes ]
;name   bond_type     mass     charge   ptype   sigma         epsilon       Amb
 o        o           0.00000  0.00000   A     3.04812e-01   6.12119e-01 ; 1.71  0.1463
 n        n           0.00000  0.00000   A     3.18086e-01   6.84502e-01 ; 1.79  0.1636
 na       na          0.00000  0.00000   A     3.20581e-01   8.54373e-01 ; 1.80  0.2042
 nc       nc          0.00000  0.00000   A     3.38417e-01   3.93714e-01 ; 1.90  0.0941
 cd       cd          0.00000  0.00000   A     3.31521e-01   4.13379e-01 ; 1.86  0.0988
 cc       cc          0.00000  0.00000   A     3.31521e-01   4.13379e-01 ; 1.86  0.0988
 c        c           0.00000  0.00000   A     3.31521e-01   4.13379e-01 ; 1.86  0.0988
 c3       c3          0.00000  0.00000   A     3.39771e-01   4.51035e-01 ; 1.91  0.1078
 h5       h5          0.00000  0.00000   A     2.44730e-01   6.73624e-02 ; 1.37  0.0161
 h1       h1          0.00000  0.00000   A     2.42200e-01   8.70272e-02 ; 1.36  0.0208

[ moleculetype ]
;name            nrexcl
 caffeine         3

[ atoms ]
;   nr  type  resi  res  atom  cgnr     charge      mass       ; qtot   bond_type
     1    o     1   UNL     O    1    -0.633500     16.00000 ; qtot -0.633
     2    o     1   UNL    O1    2    -0.637500     16.00000 ; qtot -1.271
     3    n     1   UNL     N    3    -0.417300     14.01000 ; qtot -1.688
     4   na     1   UNL    N1    4    -0.148900     14.01000 ; qtot -1.837
     5    n     1   UNL    N2    5    -0.483400     14.01000 ; qtot -2.321
     6   nc     1   UNL    N3    6    -0.685000     14.01000 ; qtot -3.006
     7   cd     1   UNL     C    7    -0.350200     12.01000 ; qtot -3.356
     8   cc     1   UNL    C1    8     0.485200     12.01000 ; qtot -2.871
     9    c     1   UNL    C2    9     0.765100     12.01000 ; qtot -2.105
    10    c     1   UNL    C3   10     0.815498     12.01000 ; qtot -1.290
    11   cd     1   UNL    C4   11     0.443400     12.01000 ; qtot -0.847
    12   c3     1   UNL    C5   12     0.090300     12.01000 ; qtot -0.756
    13   c3     1   UNL    C6   13     0.009600     12.01000 ; qtot -0.747
    14   c3     1   UNL    C7   14     0.080300     12.01000 ; qtot -0.666
    15   h5     1   UNL     H   15     0.071100      1.00800 ; qtot -0.595
    16   h1     1   UNL    H1   16     0.063367      1.00800 ; qtot -0.532
    17   h1     1   UNL    H2   17     0.063367      1.00800 ; qtot -0.469
    18   h1     1   UNL    H3   18     0.063367      1.00800 ; qtot -0.405
    19   h1     1   UNL    H4   19     0.071700      1.00800 ; qtot -0.334
    20   h1     1   UNL    H5   20     0.071700      1.00800 ; qtot -0.262
    21   h1     1   UNL    H6   21     0.071700      1.00800 ; qtot -0.190
    22   h1     1   UNL    H7   22     0.063367      1.00800 ; qtot -0.127
    23   h1     1   UNL    H8   23     0.063367      1.00800 ; qtot -0.063
    24   h1     1   UNL    H9   24     0.063367      1.00800 ; qtot -0.000

[ bonds ]
;   ai     aj funct   r             k
     1      9   1    1.2190e-01    4.9421e+05 ;      O - C2    
     2     10   1    1.2190e-01    4.9421e+05 ;     O1 - C3    
     3      8   1    1.3837e-01    2.7753e+05 ;      N - C1    
     3     10   1    1.3967e-01    2.6565e+05 ;      N - C3    
     3     12   1    1.4643e-01    2.1293e+05 ;      N - C5    
     4      7   1    1.3830e-01    2.7819e+05 ;     N1 - C     
     4     11   1    1.3830e-01    2.7819e+05 ;     N1 - C4    
     4     13   1    1.4639e-01    2.1321e+05 ;     N1 - C6    
     5      9   1    1.3967e-01    2.6565e+05 ;     N2 - C2    
     5     10   1    1.3967e-01    2.6565e+05 ;     N2 - C3    
     5     14   1    1.4643e-01    2.1293e+05 ;     N2 - C7    
     6      8   1    1.3629e-01    2.9793e+05 ;     N3 - C1    
     6     11   1    1.3171e-01    3.4961e+05 ;     N3 - C4    
     7      8   1    1.3730e-01    3.2321e+05 ;      C - C1    
     7      9   1    1.4728e-01    2.3273e+05 ;      C - C2    
    11     15   1    1.0821e-01    3.0695e+05 ;     C4 - H     
    12     16   1    1.0969e-01    2.8804e+05 ;     C5 - H1    
    12     17   1    1.0969e-01    2.8804e+05 ;     C5 - H2    
    12     18   1    1.0969e-01    2.8804e+05 ;     C5 - H3    
    13     19   1    1.0969e-01    2.8804e+05 ;     C6 - H4    
    13     20   1    1.0969e-01    2.8804e+05 ;     C6 - H5    
    13     21   1    1.0969e-01    2.8804e+05 ;     C6 - H6    
    14     22   1    1.0969e-01    2.8804e+05 ;     C7 - H7    
    14     23   1    1.0969e-01    2.8804e+05 ;     C7 - H8    
    14     24   1    1.0969e-01    2.8804e+05 ;     C7 - H9    

[ pairs ]
;   ai     aj    funct
     1      4      1 ;      O - N1    
     1      8      1 ;      O - C1    
     1     10      1 ;      O - C3    
     1     14      1 ;      O - C7    
     2      8      1 ;     O1 - C1    
     2      9      1 ;     O1 - C2    
     2     12      1 ;     O1 - C5    
     2     14      1 ;     O1 - C7    
     3      4      1 ;      N - N1    
     3      9      1 ;      N - C2    
     3     11      1 ;      N - C4    
     3     14      1 ;      N - C7    
     4      5      1 ;     N1 - N2    
     5      8      1 ;     N2 - C1    
     5     12      1 ;     N2 - C5    
     6      9      1 ;     N3 - C2    
     6     10      1 ;     N3 - C3    
     6     12      1 ;     N3 - C5    
     6     13      1 ;     N3 - C6    
     7     10      1 ;      C - C3    
     7     12      1 ;      C - C5    
     7     14      1 ;      C - C7    
     7     15      1 ;      C - H     
     7     19      1 ;      C - H4    
     7     20      1 ;      C - H5    
     7     21      1 ;      C - H6    
     8     13      1 ;     C1 - C6    
     8     15      1 ;     C1 - H     
     8     16      1 ;     C1 - H1    
     8     17      1 ;     C1 - H2    
     8     18      1 ;     C1 - H3    
     9     11      1 ;     C2 - C4    
     9     13      1 ;     C2 - C6    
     9     22      1 ;     C2 - H7    
     9     23      1 ;     C2 - H8    
     9     24      1 ;     C2 - H9    
    10     16      1 ;     C3 - H1    
    10     17      1 ;     C3 - H2    
    10     18      1 ;     C3 - H3    
    10     22      1 ;     C3 - H7    
    10     23      1 ;     C3 - H8    
    10     24      1 ;     C3 - H9    
    11     19      1 ;     C4 - H4    
    11     20      1 ;     C4 - H5    
    11     21      1 ;     C4 - H6    
    13     15      1 ;     C6 - H     

[ angles ]
;   ai     aj     ak    funct   theta         cth
     1      9      5      1    1.2257e+02    7.2534e+02 ;      O - C2     - N2    
     1      9      7      1    1.2371e+02    6.5530e+02 ;      O - C2     - C     
     2     10      3      1    1.2257e+02    7.2534e+02 ;     O1 - C3     - N     
     2     10      5      1    1.2257e+02    7.2534e+02 ;     O1 - C3     - N2    
     3      8      6      1    1.2267e+02    6.0476e+02 ;      N - C1     - N3    
     3      8      7      1    1.2220e+02    5.6877e+02 ;      N - C1     - C     
     3     10      5      1    1.1617e+02    6.1112e+02 ;      N - C3     - N2    
     3     12     16      1    1.0876e+02    4.0242e+02 ;      N - C5     - H1    
     3     12     17      1    1.0876e+02    4.0242e+02 ;      N - C5     - H2    
     3     12     18      1    1.0876e+02    4.0242e+02 ;      N - C5     - H3    
     4      7      8      1    1.0899e+02    6.0241e+02 ;     N1 - C      - C1    
     4      7      9      1    1.2513e+02    5.4149e+02 ;     N1 - C      - C2    
     4     11      6      1    1.1302e+02    6.4024e+02 ;     N1 - C4     - N3    
     4     11     15      1    1.2083e+02    4.0116e+02 ;     N1 - C4     - H     
     4     13     19      1    1.0876e+02    4.0250e+02 ;     N1 - C6     - H4    
     4     13     20      1    1.0876e+02    4.0250e+02 ;     N1 - C6     - H5    
     4     13     21      1    1.0876e+02    4.0250e+02 ;     N1 - C6     - H6    
     5      9      7      1    1.1259e+02    5.6844e+02 ;     N2 - C2     - C     
     5     14     22      1    1.0876e+02    4.0242e+02 ;     N2 - C7     - H7    
     5     14     23      1    1.0876e+02    4.0242e+02 ;     N2 - C7     - H8    
     5     14     24      1    1.0876e+02    4.0242e+02 ;     N2 - C7     - H9    
     6      8      7      1    1.1799e+02    5.8325e+02 ;     N3 - C1     - C     
     6     11     15      1    1.2529e+02    4.0911e+02 ;     N3 - C4     - H     
     7      4     11      1    1.1090e+02    6.9279e+02 ;      C - N1     - C4    
     7      4     13      1    1.2550e+02    6.3170e+02 ;      C - N1     - C6    
     8      3     10      1    1.2161e+02    6.5806e+02 ;     C1 - N      - C3    
     8      3     12      1    1.2174e+02    6.4116e+02 ;     C1 - N      - C5    
     8      6     11      1    1.0915e+02    7.2032e+02 ;     C1 - N3     - C4    
     8      7      9      1    1.2132e+02    5.1965e+02 ;     C1 - C      - C2    
     9      5     10      1    1.2521e+02    6.4559e+02 ;     C2 - N2     - C3    
     9      5     14      1    1.1883e+02    6.4634e+02 ;     C2 - N2     - C7    
    10      3     12      1    1.1883e+02    6.4634e+02 ;     C3 - N      - C5    
    10      5     14      1    1.1883e+02    6.4634e+02 ;     C3 - N2     - C7    
    11      4     13      1    1.2550e+02    6.3170e+02 ;     C4 - N1     - C6    
    16     12     17      1    1.0855e+02    2.9824e+02 ;     H1 - C5     - H2    
    16     12     18      1    1.0855e+02    2.9824e+02 ;     H1 - C5     - H3    
    17     12     18      1    1.0855e+02    2.9824e+02 ;     H2 - C5     - H3    
    19     13     20      1    1.0855e+02    2.9824e+02 ;     H4 - C6     - H5    
    19     13     21      1    1.0855e+02    2.9824e+02 ;     H4 - C6     - H6    
    20     13     21      1    1.0855e+02    2.9824e+02 ;     H5 - C6     - H6    
    22     14     23      1    1.0855e+02    2.9824e+02 ;     H7 - C7     - H8    
    22     14     24      1    1.0855e+02    2.9824e+02 ;     H7 - C7     - H9    
    23     14     24      1    1.0855e+02    2.9824e+02 ;     H8 - C7     - H9    

[ dihedrals ] ; propers
; for gromacs 4.5 or higher, using funct 9
;    i      j      k      l   func   phase     kd      pn
     1      9      5     10      9   180.00  10.46000   2 ;      O-    C2-    N2-    C3
     1      9      5     14      9   180.00  10.46000   2 ;      O-    C2-    N2-    C7
     1      9      7      4      9   180.00  12.02900   2 ;      O-    C2-     C-    N1
     1      9      7      8      9   180.00  12.02900   2 ;      O-    C2-     C-    C1
     2     10      3      8      9   180.00  10.46000   2 ;     O1-    C3-     N-    C1
     2     10      3     12      9   180.00  10.46000   2 ;     O1-    C3-     N-    C5
     2     10      5      9      9   180.00  10.46000   2 ;     O1-    C3-    N2-    C2
     2     10      5     14      9   180.00  10.46000   2 ;     O1-    C3-    N2-    C7
     3      8      6     11      9   180.00  19.87400   2 ;      N-    C1-    N3-    C4
     3      8      7      4      9   180.00  16.73600   2 ;      N-    C1-     C-    N1
     3      8      7      9      9   180.00  16.73600   2 ;      N-    C1-     C-    C2
     3     10      5      9      9   180.00  10.46000   2 ;      N-    C3-    N2-    C2
     3     10      5     14      9   180.00  10.46000   2 ;      N-    C3-    N2-    C7
     4      7      8      6      9   180.00  16.73600   2 ;     N1-     C-    C1-    N3
     4      7      9      5      9   180.00  12.02900   2 ;     N1-     C-    C2-    N2
     4     11      6      8      9   180.00  19.87400   2 ;     N1-    C4-    N3-    C1
     5      9      7      8      9   180.00  12.02900   2 ;     N2-    C2-     C-    C1
     5     10      3      8      9   180.00  10.46000   2 ;     N2-    C3-     N-    C1
     5     10      3     12      9   180.00  10.46000   2 ;     N2-    C3-     N-    C5
     6      8      3     10      9   180.00   6.90360   2 ;     N3-    C1-     N-    C3
     6      8      3     12      9   180.00   6.90360   2 ;     N3-    C1-     N-    C5
     6      8      7      9      9   180.00  16.73600   2 ;     N3-    C1-     C-    C2
     6     11      4      7      9   180.00   7.11280   2 ;     N3-    C4-    N1-     C
     6     11      4     13      9   180.00   7.11280   2 ;     N3-    C4-    N1-    C6
     7      4     11     15      9   180.00   7.11280   2 ;      C-    N1-    C4-     H
     7      4     13     19      9     0.00   0.00000   0 ;      C-    N1-    C6-    H4
     7      4     13     20      9     0.00   0.00000   0 ;      C-    N1-    C6-    H5
     7      4     13     21      9     0.00   0.00000   0 ;      C-    N1-    C6-    H6
     7      8      3     10      9   180.00   6.90360   2 ;      C-    C1-     N-    C3
     7      8      3     12      9   180.00   6.90360   2 ;      C-    C1-     N-    C5
     7      8      6     11      9   180.00  19.87400   2 ;      C-    C1-    N3-    C4
     7      9      5     10      9   180.00  10.46000   2 ;      C-    C2-    N2-    C3
     7      9      5     14      9   180.00  10.46000   2 ;      C-    C2-    N2-    C7
     8      3     12     16      9     0.00   0.00000   0 ;     C1-     N-    C5-    H1
     8      3     12     17      9     0.00   0.00000   0 ;     C1-     N-    C5-    H2
     8      3     12     18      9     0.00   0.00000   0 ;     C1-     N-    C5-    H3
     8      6     11     15      9   180.00  19.87400   2 ;     C1-    N3-    C4-     H
     8      7      4     11      9   180.00   7.11280   2 ;     C1-     C-    N1-    C4
     8      7      4     13      9   180.00   7.11280   2 ;     C1-     C-    N1-    C6
     9      5     14     22      9   180.00   0.00000   2 ;     C2-    N2-    C7-    H7
     9      5     14     23      9   180.00   0.00000   2 ;     C2-    N2-    C7-    H8
     9      5     14     24      9   180.00   0.00000   2 ;     C2-    N2-    C7-    H9
     9      7      4     11      9   180.00   7.11280   2 ;     C2-     C-    N1-    C4
     9      7      4     13      9   180.00   7.11280   2 ;     C2-     C-    N1-    C6
    10      3     12     16      9   180.00   0.00000   2 ;     C3-     N-    C5-    H1
    10      3     12     17      9   180.00   0.00000   2 ;     C3-     N-    C5-    H2
    10      3     12     18      9   180.00   0.00000   2 ;     C3-     N-    C5-    H3
    10      5     14     22      9   180.00   0.00000   2 ;     C3-    N2-    C7-    H7
    10      5     14     23      9   180.00   0.00000   2 ;     C3-    N2-    C7-    H8
    10      5     14     24      9   180.00   0.00000   2 ;     C3-    N2-    C7-    H9
    11      4     13     19      9     0.00   0.00000   0 ;     C4-    N1-    C6-    H4
    11      4     13     20      9     0.00   0.00000   0 ;     C4-    N1-    C6-    H5
    11      4     13     21      9     0.00   0.00000   0 ;     C4-    N1-    C6-    H6
    13      4     11     15      9   180.00   7.11280   2 ;     C6-    N1-    C4-     H

[ dihedrals ] ; impropers
; treated as propers in GROMACS to use correct AMBER analytical function
;    i      j      k      l   func   phase     kd      pn
     1      9      5      7      4   180.00  43.93200   2 ;      O-    C2-    N2-     C
     3      5     10      2      4   180.00  43.93200   2 ;      N-    N2-    C3-    O1
     7      3      8      6      4   180.00   4.60240   2 ;      C-     N-    C1-    N3
     9      8      7      4      4   180.00   4.60240   2 ;     C2-    C1-     C-    N1
     9     10      5     14      4   180.00   4.60240   2 ;     C2-    C3-    N2-    C7
    10     12      3      8      4   180.00   4.60240   2 ;     C3-    C5-     N-    C1
    13      7      4     11      4   180.00   4.60240   2 ;     C6-     C-    N1-    C4
    15      4     11      6      4   180.00   4.60240   2 ;      H-    N1-    C4-    N3
