%VERSION  VERSION_STAMP = V0001.000  DATE = 02/09/26  17:34:41                  
%FLAG TITLE                                                                     
%FORMAT(20a4)                                                                   
2519                                                                            
%FLAG POINTERS                                                                  
%FORMAT(10I8)                                                                   
      24       8      10      15      20      23      22      40       0       0
     118       1      15      23      40      12      23      10      10       0
       0       0       0       0       0       0       0       0      24       0
       0
%FLAG ATOM_NAME                                                                 
%FORMAT(20a4)                                                                   
O   O1  N   N1  N2  N3  C   C1  C2  C3  C4  C5  C6  C7  H   H1  H2  H3  H4  H5  
H6  H7  H8  H9  
%FLAG CHARGE                                                                    
%FORMAT(5E16.8)                                                                 
 -1.15438270E+01 -1.16167162E+01 -7.60416579E+00 -2.71330047E+00 -8.80865982E+00
 -1.24822755E+01 -6.38144946E+00  8.84145996E+00  1.39418817E+01  1.48420634E+01
  8.07976782E+00  1.64547369E+00  1.74934080E-01  1.46325069E+00  1.29560553E+00
  1.15469248E+00  1.15469248E+00  1.15469248E+00  1.30653891E+00  1.30653891E+00
  1.30653891E+00  1.15469248E+00  1.15469248E+00  1.15469248E+00
%FLAG ATOMIC_NUMBER                                                             
%FORMAT(10I8)                                                                   
       8       8       7       7       7       7       6       6       6       6
       6       6       6       6       1       1       1       1       1       1
       1       1       1       1
%FLAG MASS                                                                      
%FORMAT(5E16.8)                                                                 
  1.60000000E+01  1.60000000E+01  1.40100000E+01  1.40100000E+01  1.40100000E+01
  1.40100000E+01  1.20100000E+01  1.20100000E+01  1.20100000E+01  1.20100000E+01
  1.20100000E+01  1.20100000E+01  1.20100000E+01  1.20100000E+01  1.00800000E+00
  1.00800000E+00  1.00800000E+00  1.00800000E+00  1.00800000E+00  1.00800000E+00
  1.00800000E+00  1.00800000E+00  1.00800000E+00  1.00800000E+00
%FLAG ATOM_TYPE_INDEX                                                           
%FORMAT(10I8)                                                                   
       1       1       2       3       2       4       5       5       5       5
       5       6       6       6       7       8       8       8       8       8
       8       8       8       8
%FLAG NUMBER_EXCLUDED_ATOMS                                                     
%FORMAT(10I8)                                                                   
       7       7      13      11       9       8      11       9       7       8
       5       3       4       3       1       2       1       1       2       1
       1       2       1       1
%FLAG NONBONDED_PARM_INDEX                                                      
%FORMAT(10I8)                                                                   
       1       2       4       7      11      16      22      29       2       3
       5       8      12      17      23      30       4       5       6       9
      13      18      24      31       7       8       9      10      14      19
      25      32      11      12      13      14      15      20      26      33
      16      17      18      19      20      21      27      34      22      23
      24      25      26      27      28      35      29      30      31      32
      33      34      35      36
%FLAG RESIDUE_LABEL                                                             
%FORMAT(20a4)                                                                   
UNL 
%FLAG RESIDUE_POINTER                                                           
%FORMAT(10I8)                                                                   
       1
%FLAG BOND_FORCE_CONSTANT                                                       
%FORMAT(5E16.8)                                                                 
  5.90600000E+02  3.31660000E+02  3.17460000E+02  2.54460000E+02  3.32450000E+02
  2.54790000E+02  3.56030000E+02  4.17790000E+02  3.86240000E+02  2.78120000E+02
  3.66810000E+02  3.44220000E+02
%FLAG BOND_EQUIL_VALUE                                                          
%FORMAT(5E16.8)                                                                 
  1.21900000E+00  1.38370000E+00  1.39670000E+00  1.46430000E+00  1.38300000E+00
  1.46390000E+00  1.36290000E+00  1.31710000E+00  1.37300000E+00  1.47280000E+00
  1.08210000E+00  1.09690000E+00
%FLAG ANGLE_FORCE_CONSTANT                                                      
%FORMAT(5E16.8)                                                                 
  8.66800000E+01  7.83100000E+01  7.22700000E+01  6.79700000E+01  7.30300000E+01
  4.80900000E+01  7.19900000E+01  6.47100000E+01  7.65100000E+01  4.79400000E+01
  4.81000000E+01  6.79300000E+01  6.97000000E+01  4.88900000E+01  8.27900000E+01
  7.54900000E+01  7.86400000E+01  7.66200000E+01  8.60800000E+01  6.21000000E+01
  7.71500000E+01  7.72400000E+01  3.56400000E+01
%FLAG ANGLE_EQUIL_VALUE                                                         
%FORMAT(5E16.8)                                                                 
  2.13925098E+00  2.15914774E+00  2.14099631E+00  2.13279326E+00  2.02754986E+00
  1.89822091E+00  1.90223517E+00  2.18393143E+00  1.97257197E+00  2.10888224E+00
  1.89822091E+00  1.96506705E+00  2.05931487E+00  2.18672396E+00  1.93557097E+00
  2.19038915E+00  2.12249581E+00  2.12476474E+00  1.90502770E+00  2.11743436E+00
  2.18532769E+00  2.07397564E+00  1.89455572E+00
%FLAG DIHEDRAL_FORCE_CONSTANT                                                   
%FORMAT(5E16.8)                                                                 
  2.50000000E+00  2.87500000E+00  4.75000000E+00  4.00000000E+00  1.65000000E+00
  1.70000000E+00  0.00000000E+00  0.00000000E+00  1.10000000E+00  1.05000000E+01
%FLAG DIHEDRAL_PERIODICITY                                                      
%FORMAT(5E16.8)                                                                 
  2.00000000E+00  2.00000000E+00  2.00000000E+00  2.00000000E+00  2.00000000E+00
  2.00000000E+00  2.00000000E+00  2.00000000E+00  2.00000000E+00  2.00000000E+00
%FLAG DIHEDRAL_PHASE                                                            
%FORMAT(5E16.8)                                                                 
  3.14159400E+00  3.14159400E+00  3.14159400E+00  3.14159400E+00  3.14159400E+00
  3.14159400E+00  0.00000000E+00  3.14159400E+00  3.14159400E+00  3.14159400E+00
%FLAG SCEE_SCALE_FACTOR                                                         
%FORMAT(5E16.8)                                                                 
  1.20000000E+00  1.20000000E+00  1.20000000E+00  1.20000000E+00  1.20000000E+00
  1.20000000E+00  1.20000000E+00  1.20000000E+00  0.00000000E+00  0.00000000E+00
%FLAG SCNB_SCALE_FACTOR                                                         
%FORMAT(5E16.8)                                                                 
  2.00000000E+00  2.00000000E+00  2.00000000E+00  2.00000000E+00  2.00000000E+00
  2.00000000E+00  2.00000000E+00  2.00000000E+00  0.00000000E+00  0.00000000E+00
%FLAG SOLTY                                                                     
%FORMAT(5E16.8)                                                                 
  0.00000000E+00  0.00000000E+00  0.00000000E+00  0.00000000E+00  0.00000000E+00
  0.00000000E+00  0.00000000E+00  0.00000000E+00  0.00000000E+00  0.00000000E+00
%FLAG LENNARD_JONES_ACOEF                                                       
%FORMAT(5E16.8)                                                                 
  3.76435470E+05  5.15491878E+05  7.02078680E+05  6.04208667E+05  8.22085792E+05
  9.62429652E+05  5.74782316E+05  7.76656876E+05  9.08092643E+05  8.49322032E+05
  5.17507491E+05  7.01106848E+05  8.20152428E+05  7.69642101E+05  6.96551276E+05
  6.30925504E+05  8.52084164E+05  9.96191545E+05  9.31115275E+05  8.43969952E+05
  1.02073671E+06  3.59538577E+04  5.06296765E+04  5.96470418E+04  5.87815925E+04
  5.22195041E+04  6.46910138E+04  2.97255425E+03  3.86646725E+04  5.45183252E+04
  6.42436358E+04  6.34160397E+04  5.63013422E+04  6.97998263E+04  3.17496391E+03
  3.39005767E+03
%FLAG LENNARD_JONES_BCOEF                                                       
%FORMAT(5E16.8)                                                                 
  4.69350655E+02  5.64804067E+02  6.77820248E+02  6.46321327E+02  7.75261695E+02
  8.86629877E+02  5.19385932E+02  6.20851625E+02  7.09588248E+02  5.65406768E+02
  4.98871431E+02  5.97113873E+02  6.82622272E+02  5.44830041E+02  5.24668528E+02
  5.62969425E+02  6.72777963E+02  7.68900328E+02  6.12468585E+02  5.90251928E+02
  6.63431737E+02  8.35449674E+01  1.01949445E+02  1.16962018E+02  9.56653235E+01
  9.12729468E+01  1.03827676E+02  1.38359132E+01  9.23664132E+01  1.12788003E+02
  1.29412081E+02  1.05935811E+02  1.01040256E+02  1.14981426E+02  1.52447987E+01
  1.67944276E+01
%FLAG BONDS_INC_HYDROGEN                                                        
%FORMAT(10I8)                                                                   
      30      42      11      33      45      12      33      48      12      33
      51      12      36      54      12      36      57      12      36      60
      12      39      63      12      39      66      12      39      69      12
%FLAG BONDS_WITHOUT_HYDROGEN                                                    
%FORMAT(10I8)                                                                   
       0      24       1       3      27       1       6      21       2       6
      27       3       6      33       4       9      18       5       9      30
       5       9      36       6      12      24       3      12      27       3
      12      39       4      15      21       7      15      30       8      18
      21       9      18      24      10
%FLAG ANGLES_INC_HYDROGEN                                                       
%FORMAT(10I8)                                                                   
       6      33      45       6       6      33      48       6       6      33
      51       6       9      30      42      10       9      36      54      11
       9      36      57      11       9      36      60      11      12      39
      63       6      12      39      66       6      12      39      69       6
      15      30      42      14      45      33      48      23      45      33
      51      23      48      33      51      23      54      36      57      23
      54      36      60      23      57      36      60      23      63      39
      66      23      63      39      69      23      66      39      69      23
%FLAG ANGLES_WITHOUT_HYDROGEN                                                   
%FORMAT(10I8)                                                                   
       0      24      12       1       0      24      18       2       3      27
       6       1       3      27      12       1       6      21      15       3
       6      21      18       4       6      27      12       5       9      18
      21       7       9      18      24       8       9      30      15       9
      12      24      18      12      15      21      18      13      18       9
      30      15      18       9      36      16      21       6      27      17
      21       6      33      18      21      15      30      19      21      18
      24      20      24      12      27      21      24      12      39      22
      27       6      33      22      27      12      39      22      30       9
      36      16
%FLAG DIHEDRALS_INC_HYDROGEN                                                    
%FORMAT(10I8)                                                                   
      18       9      30      42       6      18       9      36      54       7
      18       9      36      57       7      18       9      36      60       7
      21       6      33      45       7      21       6      33      48       7
      21       6      33      51       7      21      15      30      42       3
      24      12      39      63       8      24      12      39      66       8
      24      12      39      69       8      27       6      33      45       8
      27       6      33      48       8      27       6      33      51       8
      27      12      39      63       8      27      12      39      66       8
      27      12      39      69       8      30       9      36      54       7
      30       9      36      57       7      30       9      36      60       7
      36       9      30      42       6      42       9     -30     -15       9
%FLAG DIHEDRALS_WITHOUT_HYDROGEN                                                
%FORMAT(10I8)                                                                   
       0      24      12      27       1       0      24      12      39       1
       0      24      18       9       2       0      24      18      21       2
       3      27       6      21       1       3      27       6      33       1
       3      27      12      24       1       3      27      12      39       1
       6      21      15      30       3       6      21      18       9       4
       6      21      18      24       4       6      27     -12      24       1
       6      27      12      39       1       9      18     -21      15       4
       9      18      24      12       2       9      30     -15      21       3
      12      24      18      21       2      12      27      -6      21       1
      12      27       6      33       1      15      21       6      27       5
      15      21       6      33       5      15      21      18      24       4
      15      30      -9      18       6      15      30       9      36       6
      18      21       6      27       5      18      21       6      33       5
      18      21     -15      30       3      18      24     -12      27       1
      18      24      12      39       1      21      18      -9      30       6
      21      18       9      36       6      24      18       9      30       6
      24      18       9      36       6      27      33      -6     -21       9
      36      18      -9     -30       9      24      27     -12     -39       9
      24      21     -18      -9       9      18       6     -21     -15       9
       0      24     -12     -18      10       6      12     -27      -3      10
%FLAG EXCLUDED_ATOMS_LIST                                                       
%FORMAT(10I8)                                                                   
       4       5       7       8       9      10      14       3       5       8
       9      10      12      14       4       5       6       7       8       9
      10      11      12      14      16      17      18       5       6       7
       8       9      11      13      15      19      20      21       7       8
       9      10      12      14      22      23      24       7       8       9
      10      11      12      13      15       8       9      10      11      12
      13      14      15      19      20      21       9      10      11      12
      13      15      16      17      18      10      11      13      14      22
      23      24      12      14      16      17      18      22      23      24
      13      15      19      20      21      16      17      18      15      19
      20      21      22      23      24       0      17      18      18       0
      20      21      21       0      23      24      24       0
%FLAG HBOND_ACOEF                                                               
%FORMAT(5E16.8)                                                                 

%FLAG HBOND_BCOEF                                                               
%FORMAT(5E16.8)                                                                 

%FLAG HBCUT                                                                     
%FORMAT(5E16.8)                                                                 

%FLAG AMBER_ATOM_TYPE                                                           
%FORMAT(20a4)                                                                   
o   o   n   na  n   nc  cd  cc  c   c   cd  c3  c3  c3  h5  h1  h1  h1  h1  h1  
h1  h1  h1  h1  
%FLAG TREE_CHAIN_CLASSIFICATION                                                 
%FORMAT(20a4)                                                                   
BLA BLA BLA BLA BLA BLA BLA BLA BLA BLA BLA BLA BLA BLA BLA BLA BLA BLA BLA BLA 
BLA BLA BLA BLA 
%FLAG JOIN_ARRAY                                                                
%FORMAT(10I8)                                                                   
       0       0       0       0       0       0       0       0       0       0
       0       0       0       0       0       0       0       0       0       0
       0       0       0       0
%FLAG IROTAT                                                                    
%FORMAT(10I8)                                                                   
       0       0       0       0       0       0       0       0       0       0
       0       0       0       0       0       0       0       0       0       0
       0       0       0       0
%FLAG RADIUS_SET                                                                
%FORMAT(1a80)                                                                   
modified Bondi radii (mbondi)                                                   
%FLAG RADII                                                                     
%FORMAT(5E16.8)                                                                 
  1.50000000E+00  1.50000000E+00  1.55000000E+00  1.55000000E+00  1.55000000E+00
  1.55000000E+00  1.70000000E+00  1.70000000E+00  1.70000000E+00  1.70000000E+00
  1.70000000E+00  1.70000000E+00  1.70000000E+00  1.70000000E+00  1.30000000E+00
  1.30000000E+00  1.30000000E+00  1.30000000E+00  1.30000000E+00  1.30000000E+00
  1.30000000E+00  1.30000000E+00  1.30000000E+00  1.30000000E+00
%FLAG SCREEN                                                                    
%FORMAT(5E16.8)                                                                 
  8.50000000E-01  8.50000000E-01  7.90000000E-01  7.90000000E-01  7.90000000E-01
  7.90000000E-01  7.20000000E-01  7.20000000E-01  7.20000000E-01  7.20000000E-01
  7.20000000E-01  7.20000000E-01  7.20000000E-01  7.20000000E-01  8.50000000E-01
  8.50000000E-01  8.50000000E-01  8.50000000E-01  8.50000000E-01  8.50000000E-01
  8.50000000E-01  8.50000000E-01  8.50000000E-01  8.50000000E-01
%FLAG IPOL                                                                      
%FORMAT(1I8)                                                                    
       0
