%VERSION  VERSION_STAMP = V0001.000  DATE = 02/09/26  17:48:37                  
%FLAG TITLE                                                                     
%FORMAT(20a4)                                                                   
3825                                                                            
%FLAG POINTERS                                                                  
%FORMAT(10I8)                                                                   
      33       7      14      20      28      27      56      41       0       0
     167       1      20      27      41      10      17      19       8       0
       0       0       0       0       0       0       0       0      33       0
       0
%FLAG ATOM_NAME                                                                 
%FORMAT(20a4)                                                                   
O   O1  O2  C   C1  C2  C3  C4  C5  C6  C7  C8  C9  C10 C11 C12 C13 C14 C15 H   
H1  H2  H3  H4  H5  H6  H7  H8  H9  H10 H11 H12 H13 
%FLAG CHARGE                                                                    
%FORMAT(5E16.8)                                                                 
 -1.10445360E+01 -9.69608583E+00 -1.00222650E+01 -1.00951542E+00 -1.99169739E+00
 -1.34845020E+00 -3.03583518E+00 -1.67645160E+00 -1.67827383E+00 -1.29378330E+00
 -2.64223350E+00  1.07384014E+01  1.16458719E+01 -3.14516898E+00 -1.47600630E+00
 -1.47600630E+00 -2.56934430E+00 -2.56934430E+00 -1.87689690E+00  1.59809571E+00
  2.95201260E+00  2.49645510E+00  9.66383236E-01  9.66383236E-01  9.66383236E-01
  2.80623420E+00  2.55112200E+00  2.66956695E+00  2.66956695E+00  2.50556625E+00
  2.50556625E+00  2.44178820E+00  8.09070120E+00
%FLAG ATOMIC_NUMBER                                                             
%FORMAT(10I8)                                                                   
       8       8       8       6       6       6       6       6       6       6
       6       6       6       6       6       6       6       6       6       1
       1       1       1       1       1       1       1       1       1       1
       1       1       1
%FLAG MASS                                                                      
%FORMAT(5E16.8)                                                                 
  1.60000000E+01  1.60000000E+01  1.60000000E+01  1.20100000E+01  1.20100000E+01
  1.20100000E+01  1.20100000E+01  1.20100000E+01  1.20100000E+01  1.20100000E+01
  1.20100000E+01  1.20100000E+01  1.20100000E+01  1.20100000E+01  1.20100000E+01
  1.20100000E+01  1.20100000E+01  1.20100000E+01  1.20100000E+01  1.00800000E+00
  1.00800000E+00  1.00800000E+00  1.00800000E+00  1.00800000E+00  1.00800000E+00
  1.00800000E+00  1.00800000E+00  1.00800000E+00  1.00800000E+00  1.00800000E+00
  1.00800000E+00  1.00800000E+00  1.00800000E+00
%FLAG ATOM_TYPE_INDEX                                                           
%FORMAT(10I8)                                                                   
       1       2       2       3       4       4       4       4       3       4
       4       4       4       4       4       4       4       4       4       5
       6       6       5       5       5       6       6       6       6       6
       6       6       7
%FLAG NUMBER_EXCLUDED_ATOMS                                                     
%FORMAT(10I8)                                                                   
       7       7       6      14      15      12      10       9       5       7
       4       9       5       9       8       7       6       5       5       3
       1       1       2       1       1       1       1       1       1       1
       1       1       1
%FLAG NONBONDED_PARM_INDEX                                                      
%FORMAT(10I8)                                                                   
       1       2       4       7      11      16      22       2       3       5
       8      12      17      23       4       5       6       9      13      18
      24       7       8       9      10      14      19      25      11      12
      13      14      15      20      26      16      17      18      19      20
      21      27      22      23      24      25      26      27      28
%FLAG RESIDUE_LABEL                                                             
%FORMAT(20a4)                                                                   
UNL 
%FLAG RESIDUE_POINTER                                                           
%FORMAT(10I8)                                                                   
       1
%FLAG BOND_FORCE_CONSTANT                                                       
%FORMAT(5E16.8)                                                                 
  3.59270000E+02  5.35510000E+02  5.90600000E+02  2.43910000E+02  2.28890000E+02
  2.34850000E+02  3.45250000E+02  3.54250000E+02  3.60690000E+02  2.62840000E+02
%FLAG BOND_EQUIL_VALUE                                                          
%FORMAT(5E16.8)                                                                 
  1.35560000E+00  9.72500000E-01  1.21900000E+00  1.51470000E+00  1.53540000E+00
  1.52700000E+00  1.09620000E+00  1.39860000E+00  1.08600000E+00  1.49070000E+00
%FLAG ANGLE_FORCE_CONSTANT                                                      
%FORMAT(5E16.8)                                                                 
  1.02030000E+02  7.74200000E+01  7.79600000E+01  7.64500000E+01  6.07400000E+01
  4.32700000E+01  6.03300000E+01  6.08400000E+01  4.36100000E+01  6.36700000E+01
  4.49000000E+01  6.14400000E+01  6.02700000E+01  6.03600000E+01  6.84600000E+01
  4.36300000E+01  3.58000000E+01
%FLAG ANGLE_EQUIL_VALUE                                                         
%FORMAT(5E16.8)                                                                 
  2.13087340E+00  1.96768504E+00  2.13977458E+00  2.14501057E+00  2.10888224E+00
  1.91427794E+00  1.96209999E+00  1.94010883E+00  1.93085858E+00  2.09474507E+00
  2.09230160E+00  2.10015559E+00  2.05826767E+00  1.94482122E+00  1.85947458E+00
  1.90153704E+00  1.88024401E+00
%FLAG DIHEDRAL_FORCE_CONSTANT                                                   
%FORMAT(5E16.8)                                                                 
  0.00000000E+00  5.80000000E-01  1.90000000E+00  2.30000000E+00  6.80000000E-01
  2.00000000E-01  4.40000000E-01  4.03000000E+00  3.66000000E+00  3.62500000E+00
  1.80000000E+00  1.55555556E-01  2.40000000E-01  0.00000000E+00  0.00000000E+00
  1.25000000E+00  1.20000000E-01  1.10000000E+00  1.05000000E+01
%FLAG DIHEDRAL_PERIODICITY                                                      
%FORMAT(5E16.8)                                                                 
  2.00000000E+00  2.00000000E+00  1.00000000E+00  2.00000000E+00  1.00000000E+00
  2.00000000E+00  3.00000000E+00  1.00000000E+00  2.00000000E+00  2.00000000E+00
  2.00000000E+00  3.00000000E+00  2.00000000E+00  2.00000000E+00  1.00000000E+00
  2.00000000E+00  3.00000000E+00  2.00000000E+00  2.00000000E+00
%FLAG DIHEDRAL_PHASE                                                            
%FORMAT(5E16.8)                                                                 
  3.14159400E+00  3.14159400E+00  0.00000000E+00  3.14159400E+00  0.00000000E+00
  3.14159400E+00  3.14159400E+00  0.00000000E+00  3.14159400E+00  3.14159400E+00
  3.14159400E+00  0.00000000E+00  3.14159400E+00  0.00000000E+00  0.00000000E+00
  3.14159400E+00  0.00000000E+00  3.14159400E+00  3.14159400E+00
%FLAG SCEE_SCALE_FACTOR                                                         
%FORMAT(5E16.8)                                                                 
  1.20000000E+00  1.20000000E+00  1.20000000E+00  1.20000000E+00  1.20000000E+00
  1.20000000E+00  1.20000000E+00  1.20000000E+00  1.20000000E+00  1.20000000E+00
  1.20000000E+00  1.20000000E+00  1.20000000E+00  1.20000000E+00  1.20000000E+00
  1.20000000E+00  1.20000000E+00  0.00000000E+00  0.00000000E+00
%FLAG SCNB_SCALE_FACTOR                                                         
%FORMAT(5E16.8)                                                                 
  2.00000000E+00  2.00000000E+00  2.00000000E+00  2.00000000E+00  2.00000000E+00
  2.00000000E+00  2.00000000E+00  2.00000000E+00  2.00000000E+00  2.00000000E+00
  2.00000000E+00  2.00000000E+00  2.00000000E+00  2.00000000E+00  2.00000000E+00
  2.00000000E+00  2.00000000E+00  0.00000000E+00  0.00000000E+00
%FLAG SOLTY                                                                     
%FORMAT(5E16.8)                                                                 
  0.00000000E+00  0.00000000E+00  0.00000000E+00  0.00000000E+00  0.00000000E+00
  0.00000000E+00  0.00000000E+00  0.00000000E+00
%FLAG LENNARD_JONES_ACOEF                                                       
%FORMAT(5E16.8)                                                                 
  5.03152404E+05  4.37717034E+05  3.76435470E+05  7.18991463E+05  6.30925504E+05
  1.02073671E+06  5.92438683E+05  5.17507491E+05  8.43969952E+05  6.96551276E+05
  6.80216136E+04  5.68021765E+04  1.00235148E+05  8.12662403E+04  7.94617769E+03
  6.30298721E+04  5.27277400E+04  9.27554496E+04  7.52549148E+04  7.41026906E+03
  6.90855956E+03  1.74176419E+02  1.15813907E+02  3.03553352E+02  2.25372434E+02
  8.80612241E+00  8.53132435E+00  1.10360882E-05
%FLAG LENNARD_JONES_BCOEF                                                       
%FORMAT(5E16.8)                                                                 
  4.32634597E+02  4.51916854E+02  4.69350655E+02  5.36620538E+02  5.62969425E+02
  6.63431737E+02  4.76608379E+02  4.98871431E+02  5.90251928E+02  5.24668528E+02
  1.09393126E+02  1.11953944E+02  1.37787728E+02  1.21392023E+02  2.57122925E+01
  9.87712192E+01  1.01173582E+02  1.24325688E+02  1.09570372E+02  2.32899892E+01
  2.10929191E+01  3.81654050E+00  3.48534600E+00  5.22789272E+00  4.40751799E+00
  5.90150328E-01  5.44840215E-01  4.55498033E-04
%FLAG BONDS_INC_HYDROGEN                                                        
%FORMAT(10I8)                                                                   
       0      96       2       9      57       7      15      60       9      21
      63       9      24      66       7      24      69       7      24      72
       7      27      75       9      30      78       9      42      81       9
      45      84       9      48      87       9      51      90       9      54
      93       9
%FLAG BONDS_WITHOUT_HYDROGEN                                                    
%FORMAT(10I8)                                                                   
       0      36       1       3      33       3       6      36       3       9
      12       4       9      24       5       9      36       6      12      15
       8      12      21       8      15      18       8      18      27       8
      18      33      10      21      30       8      27      30       8      33
      39      10      39      42       8      39      45       8      42      48
       8      45      51       8      48      54       8      51      54       8
%FLAG ANGLES_INC_HYDROGEN                                                       
%FORMAT(10I8)                                                                   
       9      24      66       6       9      24      69       6       9      24
      72       6      12       9      57       9      12      15      60      11
      12      21      63      11      18      15      60      11      18      27
      75      11      21      30      78      11      24       9      57       6
      27      30      78      11      30      21      63      11      30      27
      75      11      36       0      96      15      36       9      57      16
      39      42      81      11      39      45      84      11      42      48
      87      11      45      51      90      11      48      42      81      11
      48      54      93      11      51      45      84      11      51      54
      93      11      54      48      87      11      54      51      90      11
      66      24      69      17      66      24      72      17      69      24
      72      17
%FLAG ANGLES_WITHOUT_HYDROGEN                                                   
%FORMAT(10I8)                                                                   
       0      36       6       1       0      36       9       2       3      33
      18       3       3      33      39       3       6      36       9       4
       9      12      15       5       9      12      21       5      12       9
      24       7      12       9      36       8      12      15      18      10
      12      21      30      10      15      12      21      10      15      18
      27      10      15      18      33      12      18      27      30      10
      18      33      39      13      21      30      27      10      24       9
      36      14      27      18      33      12      33      39      42      12
      33      39      45      12      39      42      48      10      39      45
      51      10      42      39      45      10      42      48      54      10
      45      51      54      10      48      54      51      10
%FLAG DIHEDRALS_INC_HYDROGEN                                                    
%FORMAT(10I8)                                                                   
       0      36       9      57       1      96       0      36       6       3
      96       0     -36       6       4       6      36       9      57       8
       6      36      -9      57       9       9      12      15      60      10
       9      12      21      63      10      96       0      36       9      11
      12       9      24      66      12      12       9      24      69      12
      12       9      24      72      12      12      21      30      78      10
      15      12       9      57      15      15      12      21      63      10
      15      18      27      75      10      18      27      30      78      10
      21      12       9      57      15      21      12      15      60      10
      21      30      27      75      10      27      18      15      60      10
      27      30      21      63      10      33      18      15      60      10
      33      18      27      75      10      33      39      42      81      10
      33      39      45      84      10      36       9      24      66      12
      36       9      24      69      12      36       9      24      72      12
      39      42      48      87      10      39      45      51      90      10
      42      39      45      84      10      42      48      54      93      10
      45      39      42      81      10      45      51      54      93      10
      48      54      51      90      10      51      54      48      87      10
      54      48      42      81      10      54      51      45      84      10
      57       9      24      66      17      57       9      24      69      17
      57       9      24      72      17      63      21      30      78      10
      75      27      30      78      10      81      42      48      87      10
      84      45      51      90      10      87      48      54      93      10
      90      51      54      93      10      12      18     -15     -60      18
      12      30     -21     -63      18      18      30     -27     -75      18
      21      27     -30     -78      18      39      48     -42     -81      18
      39      51     -45     -84      18      42      54     -48     -87      18
      45      54     -51     -90      18      48      51     -54     -93      18
%FLAG DIHEDRALS_WITHOUT_HYDROGEN                                                
%FORMAT(10I8)                                                                   
       0      36       9      12       1       0      36       9      24       1
       3      33      18      15       2       3      33      18      27       2
       3      33      39      42       2       3      33      39      45       2
       6      36       9      12       1       6      36       9      24       5
       6      36      -9      24       6       6      36      -9      24       7
       9      12      15      18      10       9      12      21      30      10
      12      15      18      27      10      12      15      18      33      10
      12      21     -30      27      10      15      12       9      24      13
      15      12       9      36      14      15      12      21      30      10
      15      18     -27      30      10      15      18      33      39      16
      18      15      12      21      10      18      27     -30      21      10
      18      33      39      42      16      18      33      39      45      16
      21      12       9      24      13      21      12       9      36      14
      27      18      33      39      16      30      27      18      33      10
      33      39      42      48      10      33      39      45      51      10
      39      42      48      54      10      39      45     -51      54      10
      42      39      45      51      10      42      48     -54      51      10
      45      39      42      48      10      45      51     -54      48      10
      15      21     -12      -9      18      33      15     -18     -27      18
      18      39     -33      -3      19       0      36      -6      -9      18
      33      42     -39     -45      18
%FLAG EXCLUDED_ATOMS_LIST                                                       
%FORMAT(10I8)                                                                   
       3       4       5       9      13      20      33       6       7      10
      12      14      15      16       4       5       9      13      20      33
       5       6       7       8       9      11      13      20      21      22
      23      24      25      33       6       7       8       9      10      11
      12      13      20      21      22      23      24      25      27       7
       8       9      10      11      12      13      14      20      21      22
      26       8      10      11      12      14      15      16      21      26
      27       9      10      11      13      20      21      22      26      27
      13      20      23      24      25      11      12      14      21      22
      26      27      12      22      26      27      14      15      16      17
      18      21      26      28      29      20      23      24      25      33
      15      16      17      18      19      28      29      30      31      16
      17      18      19      28      29      30      32      17      18      19
      28      29      31      32      18      19      28      30      31      32
      19      29      30      31      32      28      29      30      31      32
      23      24      25       0      27      24      25      25       0      27
       0      30      31      32      32       0       0
%FLAG HBOND_ACOEF                                                               
%FORMAT(5E16.8)                                                                 

%FLAG HBOND_BCOEF                                                               
%FORMAT(5E16.8)                                                                 

%FLAG HBCUT                                                                     
%FORMAT(5E16.8)                                                                 

%FLAG AMBER_ATOM_TYPE                                                           
%FORMAT(20a4)                                                                   
oh  o   o   c3  ca  ca  ca  ca  c3  ca  ca  c   c   ca  ca  ca  ca  ca  ca  hc  
ha  ha  hc  hc  hc  ha  ha  ha  ha  ha  ha  ha  ho  
%FLAG TREE_CHAIN_CLASSIFICATION                                                 
%FORMAT(20a4)                                                                   
BLA BLA BLA BLA BLA BLA BLA BLA BLA BLA BLA BLA BLA BLA BLA BLA BLA BLA BLA BLA 
BLA BLA BLA BLA BLA BLA BLA BLA BLA BLA BLA BLA BLA 
%FLAG JOIN_ARRAY                                                                
%FORMAT(10I8)                                                                   
       0       0       0       0       0       0       0       0       0       0
       0       0       0       0       0       0       0       0       0       0
       0       0       0       0       0       0       0       0       0       0
       0       0       0
%FLAG IROTAT                                                                    
%FORMAT(10I8)                                                                   
       0       0       0       0       0       0       0       0       0       0
       0       0       0       0       0       0       0       0       0       0
       0       0       0       0       0       0       0       0       0       0
       0       0       0
%FLAG RADIUS_SET                                                                
%FORMAT(1a80)                                                                   
modified Bondi radii (mbondi)                                                   
%FLAG RADII                                                                     
%FORMAT(5E16.8)                                                                 
  1.50000000E+00  1.50000000E+00  1.50000000E+00  1.70000000E+00  1.70000000E+00
  1.70000000E+00  1.70000000E+00  1.70000000E+00  1.70000000E+00  1.70000000E+00
  1.70000000E+00  1.70000000E+00  1.70000000E+00  1.70000000E+00  1.70000000E+00
  1.70000000E+00  1.70000000E+00  1.70000000E+00  1.70000000E+00  1.30000000E+00
  1.30000000E+00  1.30000000E+00  1.30000000E+00  1.30000000E+00  1.30000000E+00
  1.30000000E+00  1.30000000E+00  1.30000000E+00  1.30000000E+00  1.30000000E+00
  1.30000000E+00  1.30000000E+00  8.00000000E-01
%FLAG SCREEN                                                                    
%FORMAT(5E16.8)                                                                 
  8.50000000E-01  8.50000000E-01  8.50000000E-01  7.20000000E-01  7.20000000E-01
  7.20000000E-01  7.20000000E-01  7.20000000E-01  7.20000000E-01  7.20000000E-01
  7.20000000E-01  7.20000000E-01  7.20000000E-01  7.20000000E-01  7.20000000E-01
  7.20000000E-01  7.20000000E-01  7.20000000E-01  7.20000000E-01  8.50000000E-01
  8.50000000E-01  8.50000000E-01  8.50000000E-01  8.50000000E-01  8.50000000E-01
  8.50000000E-01  8.50000000E-01  8.50000000E-01  8.50000000E-01  8.50000000E-01
  8.50000000E-01  8.50000000E-01  8.50000000E-01
%FLAG IPOL                                                                      
%FORMAT(1I8)                                                                    
       0
