ketoprofen_GMX.gro created by acpype (v: 2023.10.27) on Mon Feb  9 17:47:52 2026
 33
    1  UNL    O    1   0.421  -0.248   0.029
    1  UNL   O1    2  -0.161   0.175   0.179
    1  UNL   O2    3   0.210  -0.218  -0.050
    1  UNL    C    4   0.337  -0.022   0.020
    1  UNL   C1    5   0.220   0.062  -0.019
    1  UNL   C2    6   0.097   0.045   0.046
    1  UNL   C3    7  -0.009   0.124   0.008
    1  UNL   C4    8   0.232   0.157  -0.120
    1  UNL   C5    9   0.381  -0.004   0.167
    1  UNL   C6   10   0.001   0.219  -0.091
    1  UNL   C7   11   0.123   0.236  -0.156
    1  UNL   C8   12  -0.140   0.106   0.078
    1  UNL   C9   13   0.314  -0.171  -0.005
    1  UNL  C10   14  -0.241   0.013   0.031
    1  UNL  C11   15  -0.217  -0.064  -0.083
    1  UNL  C12   16  -0.362  -0.000   0.099
    1  UNL  C13   17  -0.314  -0.154  -0.128
    1  UNL  C14   18  -0.458  -0.090   0.054
    1  UNL  C15   19  -0.434  -0.167  -0.059
    1  UNL    H   20   0.422   0.006  -0.044
    1  UNL   H1   21   0.086  -0.028   0.125
    1  UNL   H2   22   0.327   0.172  -0.171
    1  UNL   H3   23   0.395   0.102   0.190
    1  UNL   H4   24   0.307  -0.044   0.237
    1  UNL   H5   25   0.476  -0.055   0.186
    1  UNL   H6   26  -0.085   0.280  -0.120
    1  UNL   H7   27   0.133   0.310  -0.235
    1  UNL   H8   28  -0.124  -0.058  -0.140
    1  UNL   H9   29  -0.383   0.059   0.188
    1  UNL  H10   30  -0.295  -0.214  -0.217
    1  UNL  H11   31  -0.552  -0.100   0.108
    1  UNL  H12   32  -0.510  -0.237  -0.095
    1  UNL  H13   33   0.404  -0.343   0.013
   20.56400    13.06200     9.42600
