; ketoprofen_GMX_OPLS.itp created by acpype (v: 2023.10.27) on Mon Feb  9 17:47:52 2026

; For OPLS atomtypes manual fine tuning
; AC_at:OPLS_at:OPLScode: Possible_Alternatives (see ffoplsaa.atp and ffoplsaanb.itp)
; oh:OH:opls_154: ['167']
; o:O:opls_236: ['272']
; c3:CT:opls_135: ['136', '137', '149', '157', '158', '206', '209', '210', '223B', '224B', '245', '246', '274', '283', '284', '285', '292', '292B', '293B', '296', '307', '308', '505']
; ca:CA:opls_145: ['166', '501', '502']
; c:C:opls_235: ['271']
; hc:HC:opls_140: []
; ha:HA:opls_146: []
; ho:HO:opls_155: ['168']

[ moleculetype ]
;name            nrexcl
 ketoprofen       3

[ atoms ]
;   nr  type  resi  res  atom  cgnr     charge      mass       ; qtot   bond_type
     1 opls_154     1   UNL     O    1    -0.606100     15.99940 ; qtot -0.606  OH  
     2 opls_236     1   UNL    O1    2    -0.532100     15.99940 ; qtot -1.138  O   
     3 opls_236     1   UNL    O2    3    -0.550000     15.99940 ; qtot -1.688  O   
     4 opls_135     1   UNL     C    4    -0.055400     12.01100 ; qtot -1.744  CT  
     5 opls_145     1   UNL    C1    5    -0.109300     12.01100 ; qtot -1.853  CA  
     6 opls_145     1   UNL    C2    6    -0.074000     12.01100 ; qtot -1.927  CA  
     7 opls_145     1   UNL    C3    7    -0.166600     12.01100 ; qtot -2.093  CA  
     8 opls_145     1   UNL    C4    8    -0.092000     12.01100 ; qtot -2.185  CA  
     9 opls_135     1   UNL    C5    9    -0.092100     12.01100 ; qtot -2.278  CT  
    10 opls_145     1   UNL    C6   10    -0.071000     12.01100 ; qtot -2.349  CA  
    11 opls_145     1   UNL    C7   11    -0.145000     12.01100 ; qtot -2.494  CA  
    12 opls_235     1   UNL    C8   12     0.589300     12.01100 ; qtot -1.904  C   
    13 opls_235     1   UNL    C9   13     0.638101     12.01100 ; qtot -1.266  C   
    14 opls_145     1   UNL   C10   14    -0.172600     12.01100 ; qtot -1.439  CA  
    15 opls_145     1   UNL   C11   15    -0.081000     12.01100 ; qtot -1.520  CA  
    16 opls_145     1   UNL   C12   16    -0.081000     12.01100 ; qtot -1.601  CA  
    17 opls_145     1   UNL   C13   17    -0.141000     12.01100 ; qtot -1.742  CA  
    18 opls_145     1   UNL   C14   18    -0.141000     12.01100 ; qtot -1.883  CA  
    19 opls_145     1   UNL   C15   19    -0.103000     12.01100 ; qtot -1.986  CA  
    20 opls_140     1   UNL     H   20     0.087700      1.00800 ; qtot -1.898  HC  
    21 opls_146     1   UNL    H1   21     0.162000      1.00800 ; qtot -1.736  HA  
    22 opls_146     1   UNL    H2   22     0.137000      1.00800 ; qtot -1.599  HA  
    23 opls_140     1   UNL    H3   23     0.053033      1.00800 ; qtot -1.546  HC  
    24 opls_140     1   UNL    H4   24     0.053033      1.00800 ; qtot -1.493  HC  
    25 opls_140     1   UNL    H5   25     0.053033      1.00800 ; qtot -1.440  HC  
    26 opls_146     1   UNL    H6   26     0.154000      1.00800 ; qtot -1.286  HA  
    27 opls_146     1   UNL    H7   27     0.140000      1.00800 ; qtot -1.146  HA  
    28 opls_146     1   UNL    H8   28     0.146500      1.00800 ; qtot -0.999  HA  
    29 opls_146     1   UNL    H9   29     0.146500      1.00800 ; qtot -0.853  HA  
    30 opls_146     1   UNL   H10   30     0.137500      1.00800 ; qtot -0.715  HA  
    31 opls_146     1   UNL   H11   31     0.137500      1.00800 ; qtot -0.578  HA  
    32 opls_146     1   UNL   H12   32     0.134000      1.00800 ; qtot -0.444  HA  
    33 opls_155     1   UNL   H13   33     0.444000      1.00800 ; qtot  0.000  HO  

[ bonds ]
;   ai     aj funct   r             k
     1     13   1 ;    1.3556e-01    3.0064e+05 ;      O - C9         OH - C     
     1     33   1 ;    9.7250e-02    4.4811e+05 ;      O - H13        OH - HO    
     2     12   1 ;    1.2190e-01    4.9421e+05 ;     O1 - C8          O - C     
     3     13   1 ;    1.2190e-01    4.9421e+05 ;     O2 - C9          O - C     
     4      5   1 ;    1.5147e-01    2.0410e+05 ;      C - C1         CT - CA    
     4      9   1 ;    1.5354e-01    1.9154e+05 ;      C - C5         CT - CT    
     4     13   1 ;    1.5270e-01    1.9652e+05 ;      C - C9         CT - C     
     4     20   1 ;    1.0962e-01    2.8891e+05 ;      C - H          CT - HC    
     5      6   1 ;    1.3986e-01    2.9644e+05 ;     C1 - C2         CA - CA    
     5      8   1 ;    1.3986e-01    2.9644e+05 ;     C1 - C4         CA - CA    
     6      7   1 ;    1.3986e-01    2.9644e+05 ;     C2 - C3         CA - CA    
     6     21   1 ;    1.0860e-01    3.0183e+05 ;     C2 - H1         CA - HA    
     7     10   1 ;    1.3986e-01    2.9644e+05 ;     C3 - C6         CA - CA    
     7     12   1 ;    1.4907e-01    2.1994e+05 ;     C3 - C8         CA - C     
     8     11   1 ;    1.3986e-01    2.9644e+05 ;     C4 - C7         CA - CA    
     8     22   1 ;    1.0860e-01    3.0183e+05 ;     C4 - H2         CA - HA    
     9     23   1 ;    1.0962e-01    2.8891e+05 ;     C5 - H3         CT - HC    
     9     24   1 ;    1.0962e-01    2.8891e+05 ;     C5 - H4         CT - HC    
     9     25   1 ;    1.0962e-01    2.8891e+05 ;     C5 - H5         CT - HC    
    10     11   1 ;    1.3986e-01    2.9644e+05 ;     C6 - C7         CA - CA    
    10     26   1 ;    1.0860e-01    3.0183e+05 ;     C6 - H6         CA - HA    
    11     27   1 ;    1.0860e-01    3.0183e+05 ;     C7 - H7         CA - HA    
    12     14   1 ;    1.4907e-01    2.1994e+05 ;     C8 - C10         C - CA    
    14     15   1 ;    1.3986e-01    2.9644e+05 ;    C10 - C11        CA - CA    
    14     16   1 ;    1.3986e-01    2.9644e+05 ;    C10 - C12        CA - CA    
    15     17   1 ;    1.3986e-01    2.9644e+05 ;    C11 - C13        CA - CA    
    15     28   1 ;    1.0860e-01    3.0183e+05 ;    C11 - H8         CA - HA    
    16     18   1 ;    1.3986e-01    2.9644e+05 ;    C12 - C14        CA - CA    
    16     29   1 ;    1.0860e-01    3.0183e+05 ;    C12 - H9         CA - HA    
    17     19   1 ;    1.3986e-01    2.9644e+05 ;    C13 - C15        CA - CA    
    17     30   1 ;    1.0860e-01    3.0183e+05 ;    C13 - H10        CA - HA    
    18     19   1 ;    1.3986e-01    2.9644e+05 ;    C14 - C15        CA - CA    
    18     31   1 ;    1.0860e-01    3.0183e+05 ;    C14 - H11        CA - HA    
    19     32   1 ;    1.0860e-01    3.0183e+05 ;    C15 - H12        CA - HA    

[ pairs ]
;   ai     aj    funct
     1      5      1 ;      O - C1    
     1      9      1 ;      O - C5    
     1     20      1 ;      O - H     
     2      6      1 ;     O1 - C2    
     2     10      1 ;     O1 - C6    
     2     15      1 ;     O1 - C11   
     2     16      1 ;     O1 - C12   
     3      5      1 ;     O2 - C1    
     3      9      1 ;     O2 - C5    
     3     20      1 ;     O2 - H     
     4      7      1 ;      C - C3    
     4     11      1 ;      C - C7    
     4     21      1 ;      C - H1    
     4     22      1 ;      C - H2    
     5     10      1 ;     C1 - C6    
     5     12      1 ;     C1 - C8    
     5     23      1 ;     C1 - H3    
     5     24      1 ;     C1 - H4    
     5     25      1 ;     C1 - H5    
     5     27      1 ;     C1 - H7    
     6      9      1 ;     C2 - C5    
     6     11      1 ;     C2 - C7    
     6     13      1 ;     C2 - C9    
     6     14      1 ;     C2 - C10   
     6     20      1 ;     C2 - H     
     6     22      1 ;     C2 - H2    
     6     26      1 ;     C2 - H6    
     7      8      1 ;     C3 - C4    
     7     15      1 ;     C3 - C11   
     7     16      1 ;     C3 - C12   
     7     27      1 ;     C3 - H7    
     8      9      1 ;     C4 - C5    
     8     13      1 ;     C4 - C9    
     8     20      1 ;     C4 - H     
     8     21      1 ;     C4 - H1    
     8     26      1 ;     C4 - H6    
    10     14      1 ;     C6 - C10   
    10     21      1 ;     C6 - H1    
    10     22      1 ;     C6 - H2    
    11     12      1 ;     C7 - C8    
    12     17      1 ;     C8 - C13   
    12     18      1 ;     C8 - C14   
    12     21      1 ;     C8 - H1    
    12     26      1 ;     C8 - H6    
    12     28      1 ;     C8 - H8    
    12     29      1 ;     C8 - H9    
    13     23      1 ;     C9 - H3    
    13     24      1 ;     C9 - H4    
    13     25      1 ;     C9 - H5    
    14     19      1 ;    C10 - C15   
    14     30      1 ;    C10 - H10   
    14     31      1 ;    C10 - H11   
    15     18      1 ;    C11 - C14   
    15     29      1 ;    C11 - H9    
    15     32      1 ;    C11 - H12   
    16     17      1 ;    C12 - C13   
    16     28      1 ;    C12 - H8    
    16     32      1 ;    C12 - H12   
    17     31      1 ;    C13 - H11   
    18     30      1 ;    C14 - H10   
    19     28      1 ;    C15 - H8    
    19     29      1 ;    C15 - H9    
    20     23      1 ;      H - H3    
    20     24      1 ;      H - H4    
    20     25      1 ;      H - H5    
    22     27      1 ;     H2 - H7    
    26     27      1 ;     H6 - H7    
    28     30      1 ;     H8 - H10   
    29     31      1 ;     H9 - H11   
    30     32      1 ;    H10 - H12   
    31     32      1 ;    H11 - H12   
    33      3      1 ;    H13 - O2    
    33      4      1 ;    H13 - C     

[ angles ]
;   ai     aj     ak    funct   theta         cth
     1     13      3      1 ;    1.2209e+02    8.5379e+02 ;      O - C9   - O2       OH -    C - O   
     1     13      4      1 ;    1.1274e+02    6.4785e+02 ;      O - C9   - C        OH -    C - CT  
     2     12      7      1 ;    1.2260e+02    6.5237e+02 ;     O1 - C8   - C3        O -    C - CA  
     2     12     14      1 ;    1.2260e+02    6.5237e+02 ;     O1 - C8   - C10       O -    C - CA  
     3     13      4      1 ;    1.2290e+02    6.3973e+02 ;     O2 - C9   - C         O -    C - CT  
     4      5      6      1 ;    1.2083e+02    5.0827e+02 ;      C - C1   - C2       CT -   CA - CA  
     4      5      8      1 ;    1.2083e+02    5.0827e+02 ;      C - C1   - C4       CT -   CA - CA  
     4      9     23      1 ;    1.0968e+02    3.6208e+02 ;      C - C5   - H3       CT -   CT - HC  
     4      9     24      1 ;    1.0968e+02    3.6208e+02 ;      C - C5   - H4       CT -   CT - HC  
     4      9     25      1 ;    1.0968e+02    3.6208e+02 ;      C - C5   - H5       CT -   CT - HC  
     5      4      9      1 ;    1.1242e+02    5.0484e+02 ;     C1 - C    - C5       CA -   CT - CT  
     5      4     13      1 ;    1.1116e+02    5.0911e+02 ;     C1 - C    - C9       CA -   CT - C   
     5      4     20      1 ;    1.1063e+02    3.6493e+02 ;     C1 - C    - H        CA -   CT - HC  
     5      6      7      1 ;    1.2002e+02    5.3279e+02 ;     C1 - C2   - C3       CA -   CA - CA  
     5      6     21      1 ;    1.1988e+02    3.7572e+02 ;     C1 - C2   - H1       CA -   CA - HA  
     5      8     11      1 ;    1.2002e+02    5.3279e+02 ;     C1 - C4   - C7       CA -   CA - CA  
     5      8     22      1 ;    1.1988e+02    3.7572e+02 ;     C1 - C4   - H2       CA -   CA - HA  
     6      5      8      1 ;    1.2002e+02    5.3279e+02 ;     C2 - C1   - C4       CA -   CA - CA  
     6      7     10      1 ;    1.2002e+02    5.3279e+02 ;     C2 - C3   - C6       CA -   CA - CA  
     6      7     12      1 ;    1.2033e+02    5.1413e+02 ;     C2 - C3   - C8       CA -   CA - C   
     7      6     21      1 ;    1.1988e+02    3.7572e+02 ;     C3 - C2   - H1       CA -   CA - HA  
     7     10     11      1 ;    1.2002e+02    5.3279e+02 ;     C3 - C6   - C7       CA -   CA - CA  
     7     10     26      1 ;    1.1988e+02    3.7572e+02 ;     C3 - C6   - H6       CA -   CA - HA  
     7     12     14      1 ;    1.1793e+02    5.0434e+02 ;     C3 - C8   - C10      CA -    C - CA  
     8     11     10      1 ;    1.2002e+02    5.3279e+02 ;     C4 - C7   - C6       CA -   CA - CA  
     8     11     27      1 ;    1.1988e+02    3.7572e+02 ;     C4 - C7   - H7       CA -   CA - HA  
     9      4     13      1 ;    1.1143e+02    5.0509e+02 ;     C5 - C    - C9       CT -   CT - C   
     9      4     20      1 ;    1.0968e+02    3.6208e+02 ;     C5 - C    - H        CT -   CT - HC  
    10      7     12      1 ;    1.2033e+02    5.1413e+02 ;     C6 - C3   - C8       CA -   CA - C   
    10     11     27      1 ;    1.1988e+02    3.7572e+02 ;     C6 - C7   - H7       CA -   CA - HA  
    11      8     22      1 ;    1.1988e+02    3.7572e+02 ;     C7 - C4   - H2       CA -   CA - HA  
    11     10     26      1 ;    1.1988e+02    3.7572e+02 ;     C7 - C6   - H6       CA -   CA - HA  
    12     14     15      1 ;    1.2033e+02    5.1413e+02 ;     C8 - C10  - C11       C -   CA - CA  
    12     14     16      1 ;    1.2033e+02    5.1413e+02 ;     C8 - C10  - C12       C -   CA - CA  
    13      1     33      1 ;    1.0654e+02    5.7287e+02 ;     C9 - O    - H13       C -   OH - HO  
    13      4     20      1 ;    1.0895e+02    3.6510e+02 ;     C9 - C    - H         C -   CT - HC  
    14     15     17      1 ;    1.2002e+02    5.3279e+02 ;    C10 - C11  - C13      CA -   CA - CA  
    14     15     28      1 ;    1.1988e+02    3.7572e+02 ;    C10 - C11  - H8       CA -   CA - HA  
    14     16     18      1 ;    1.2002e+02    5.3279e+02 ;    C10 - C12  - C14      CA -   CA - CA  
    14     16     29      1 ;    1.1988e+02    3.7572e+02 ;    C10 - C12  - H9       CA -   CA - HA  
    15     14     16      1 ;    1.2002e+02    5.3279e+02 ;    C11 - C10  - C12      CA -   CA - CA  
    15     17     19      1 ;    1.2002e+02    5.3279e+02 ;    C11 - C13  - C15      CA -   CA - CA  
    15     17     30      1 ;    1.1988e+02    3.7572e+02 ;    C11 - C13  - H10      CA -   CA - HA  
    16     18     19      1 ;    1.2002e+02    5.3279e+02 ;    C12 - C14  - C15      CA -   CA - CA  
    16     18     31      1 ;    1.1988e+02    3.7572e+02 ;    C12 - C14  - H11      CA -   CA - HA  
    17     15     28      1 ;    1.1988e+02    3.7572e+02 ;    C13 - C11  - H8       CA -   CA - HA  
    17     19     18      1 ;    1.2002e+02    5.3279e+02 ;    C13 - C15  - C14      CA -   CA - CA  
    17     19     32      1 ;    1.1988e+02    3.7572e+02 ;    C13 - C15  - H12      CA -   CA - HA  
    18     16     29      1 ;    1.1988e+02    3.7572e+02 ;    C14 - C12  - H9       CA -   CA - HA  
    18     19     32      1 ;    1.1988e+02    3.7572e+02 ;    C14 - C15  - H12      CA -   CA - HA  
    19     17     30      1 ;    1.1988e+02    3.7572e+02 ;    C15 - C13  - H10      CA -   CA - HA  
    19     18     31      1 ;    1.1988e+02    3.7572e+02 ;    C15 - C14  - H11      CA -   CA - HA  
    23      9     24      1 ;    1.0773e+02    2.9957e+02 ;     H3 - C5   - H4       HC -   CT - HC  
    23      9     25      1 ;    1.0773e+02    2.9957e+02 ;     H3 - C5   - H5       HC -   CT - HC  
    24      9     25      1 ;    1.0773e+02    2.9957e+02 ;     H4 - C5   - H5       HC -   CT - HC  

[ dihedrals ] ; propers
; for gromacs 4.5 or higher, using funct 9
;    i      j      k      l   func   phase     kd      pn
     1     13      4      5      9 ;   180.00   0.00000   2 ;      O-    C9-     C-    C1
     1     13      4      9      9 ;   180.00   0.00000   2 ;      O-    C9-     C-    C5
     1     13      4     20      9 ;   180.00   0.00000   2 ;      O-    C9-     C-     H
     2     12      7      6      9 ;   180.00   2.42672   2 ;     O1-    C8-    C3-    C2
     2     12      7     10      9 ;   180.00   2.42672   2 ;     O1-    C8-    C3-    C6
     2     12     14     15      9 ;   180.00   2.42672   2 ;     O1-    C8-   C10-   C11
     2     12     14     16      9 ;   180.00   2.42672   2 ;     O1-    C8-   C10-   C12
     3     13      4      5      9 ;   180.00   0.00000   2 ;     O2-    C9-     C-    C1
     3     13      4      9      9 ;     0.00   2.84512   1 ;     O2-    C9-     C-    C5
     3     13      4      9      9 ;   180.00   0.83680   2 ;     O2-    C9-     C-    C5
     3     13      4      9      9 ;   180.00   1.84096   3 ;     O2-    C9-     C-    C5
     3     13      4     20      9 ;     0.00  16.86152   1 ;     O2-    C9-     C-     H
     3     13      4     20      9 ;   180.00  15.31344   2 ;     O2-    C9-     C-     H
     4      5      6      7      9 ;   180.00  15.16700   2 ;      C-    C1-    C2-    C3
     4      5      6     21      9 ;   180.00  15.16700   2 ;      C-    C1-    C2-    H1
     4      5      8     11      9 ;   180.00  15.16700   2 ;      C-    C1-    C4-    C7
     4      5      8     22      9 ;   180.00  15.16700   2 ;      C-    C1-    C4-    H2
     5      4      9     23      9 ;     0.00   0.65084   3 ;     C1-     C-    C5-    H3
     5      4      9     24      9 ;     0.00   0.65084   3 ;     C1-     C-    C5-    H4
     5      4      9     25      9 ;     0.00   0.65084   3 ;     C1-     C-    C5-    H5
     5      6      7     10      9 ;   180.00  15.16700   2 ;     C1-    C2-    C3-    C6
     5      6      7     12      9 ;   180.00  15.16700   2 ;     C1-    C2-    C3-    C8
     5      8     11     10      9 ;   180.00  15.16700   2 ;     C1-    C4-    C7-    C6
     5      8     11     27      9 ;   180.00  15.16700   2 ;     C1-    C4-    C7-    H7
     6      5      4      9      9 ;   180.00   1.00416   2 ;     C2-    C1-     C-    C5
     6      5      4     13      9 ;     0.00   0.00000   0 ;     C2-    C1-     C-    C9
     6      5      4     20      9 ;     0.00   0.00000   0 ;     C2-    C1-     C-     H
     6      5      8     11      9 ;   180.00  15.16700   2 ;     C2-    C1-    C4-    C7
     6      5      8     22      9 ;   180.00  15.16700   2 ;     C2-    C1-    C4-    H2
     6      7     10     11      9 ;   180.00  15.16700   2 ;     C2-    C3-    C6-    C7
     6      7     10     26      9 ;   180.00  15.16700   2 ;     C2-    C3-    C6-    H6
     6      7     12     14      9 ;   180.00   5.23000   2 ;     C2-    C3-    C8-   C10
     7      6      5      8      9 ;   180.00  15.16700   2 ;     C3-    C2-    C1-    C4
     7     10     11      8      9 ;   180.00  15.16700   2 ;     C3-    C6-    C7-    C4
     7     10     11     27      9 ;   180.00  15.16700   2 ;     C3-    C6-    C7-    H7
     7     12     14     15      9 ;   180.00   5.23000   2 ;     C3-    C8-   C10-   C11
     7     12     14     16      9 ;   180.00   5.23000   2 ;     C3-    C8-   C10-   C12
     8      5      4      9      9 ;   180.00   1.00416   2 ;     C4-    C1-     C-    C5
     8      5      4     13      9 ;     0.00   0.00000   0 ;     C4-    C1-     C-    C9
     8      5      4     20      9 ;     0.00   0.00000   0 ;     C4-    C1-     C-     H
     8      5      6     21      9 ;   180.00  15.16700   2 ;     C4-    C1-    C2-    H1
     8     11     10     26      9 ;   180.00  15.16700   2 ;     C4-    C7-    C6-    H6
    10      7      6     21      9 ;   180.00  15.16700   2 ;     C6-    C3-    C2-    H1
    10      7     12     14      9 ;   180.00   5.23000   2 ;     C6-    C3-    C8-   C10
    10     11      8     22      9 ;   180.00  15.16700   2 ;     C6-    C7-    C4-    H2
    11     10      7     12      9 ;   180.00  15.16700   2 ;     C7-    C6-    C3-    C8
    12      7      6     21      9 ;   180.00  15.16700   2 ;     C8-    C3-    C2-    H1
    12      7     10     26      9 ;   180.00  15.16700   2 ;     C8-    C3-    C6-    H6
    12     14     15     17      9 ;   180.00  15.16700   2 ;     C8-   C10-   C11-   C13
    12     14     15     28      9 ;   180.00  15.16700   2 ;     C8-   C10-   C11-    H8
    12     14     16     18      9 ;   180.00  15.16700   2 ;     C8-   C10-   C12-   C14
    12     14     16     29      9 ;   180.00  15.16700   2 ;     C8-   C10-   C12-    H9
    13      4      9     23      9 ;     0.00   0.65084   3 ;     C9-     C-    C5-    H3
    13      4      9     24      9 ;     0.00   0.65084   3 ;     C9-     C-    C5-    H4
    13      4      9     25      9 ;     0.00   0.65084   3 ;     C9-     C-    C5-    H5
    14     15     17     19      9 ;   180.00  15.16700   2 ;    C10-   C11-   C13-   C15
    14     15     17     30      9 ;   180.00  15.16700   2 ;    C10-   C11-   C13-   H10
    14     16     18     19      9 ;   180.00  15.16700   2 ;    C10-   C12-   C14-   C15
    14     16     18     31      9 ;   180.00  15.16700   2 ;    C10-   C12-   C14-   H11
    15     14     16     18      9 ;   180.00  15.16700   2 ;    C11-   C10-   C12-   C14
    15     14     16     29      9 ;   180.00  15.16700   2 ;    C11-   C10-   C12-    H9
    15     17     19     18      9 ;   180.00  15.16700   2 ;    C11-   C13-   C15-   C14
    15     17     19     32      9 ;   180.00  15.16700   2 ;    C11-   C13-   C15-   H12
    16     14     15     17      9 ;   180.00  15.16700   2 ;    C12-   C10-   C11-   C13
    16     14     15     28      9 ;   180.00  15.16700   2 ;    C12-   C10-   C11-    H8
    16     18     19     17      9 ;   180.00  15.16700   2 ;    C12-   C14-   C15-   C13
    16     18     19     32      9 ;   180.00  15.16700   2 ;    C12-   C14-   C15-   H12
    17     19     18     31      9 ;   180.00  15.16700   2 ;    C13-   C15-   C14-   H11
    18     19     17     30      9 ;   180.00  15.16700   2 ;    C14-   C15-   C13-   H10
    19     17     15     28      9 ;   180.00  15.16700   2 ;    C15-   C13-   C11-    H8
    19     18     16     29      9 ;   180.00  15.16700   2 ;    C15-   C14-   C12-    H9
    20      4      9     23      9 ;     0.00   0.50208   3 ;      H-     C-    C5-    H3
    20      4      9     24      9 ;     0.00   0.50208   3 ;      H-     C-    C5-    H4
    20      4      9     25      9 ;     0.00   0.50208   3 ;      H-     C-    C5-    H5
    22      8     11     27      9 ;   180.00  15.16700   2 ;     H2-    C4-    C7-    H7
    26     10     11     27      9 ;   180.00  15.16700   2 ;     H6-    C6-    C7-    H7
    28     15     17     30      9 ;   180.00  15.16700   2 ;     H8-   C11-   C13-   H10
    29     16     18     31      9 ;   180.00  15.16700   2 ;     H9-   C12-   C14-   H11
    30     17     19     32      9 ;   180.00  15.16700   2 ;    H10-   C13-   C15-   H12
    31     18     19     32      9 ;   180.00  15.16700   2 ;    H11-   C14-   C15-   H12
    33      1     13      3      9 ;     0.00   7.94960   1 ;    H13-     O-    C9-    O2
    33      1     13      3      9 ;   180.00   9.62320   2 ;    H13-     O-    C9-    O2
    33      1     13      4      9 ;   180.00   7.53120   2 ;    H13-     O-    C9-     C

[ dihedrals ] ; impropers
; treated as propers in GROMACS to use correct AMBER analytical function
;    i      j      k      l   func   phase     kd      pn
     1     13      3      4      4 ;   180.00   4.60240   2 ;      O-    C9-    O2-     C
     5      7      6     21      4 ;   180.00   4.60240   2 ;     C1-    C3-    C2-    H1
     5     11      8     22      4 ;   180.00   4.60240   2 ;     C1-    C7-    C4-    H2
     6      8      5      4      4 ;   180.00   4.60240   2 ;     C2-    C4-    C1-     C
     7     11     10     26      4 ;   180.00   4.60240   2 ;     C3-    C7-    C6-    H6
     7     14     12      2      4 ;   180.00  43.93200   2 ;     C3-   C10-    C8-    O1
     8     10     11     27      4 ;   180.00   4.60240   2 ;     C4-    C6-    C7-    H7
    12      6      7     10      4 ;   180.00   4.60240   2 ;     C8-    C2-    C3-    C6
    12     15     14     16      4 ;   180.00   4.60240   2 ;     C8-   C11-   C10-   C12
    14     17     15     28      4 ;   180.00   4.60240   2 ;    C10-   C13-   C11-    H8
    14     18     16     29      4 ;   180.00   4.60240   2 ;    C10-   C14-   C12-    H9
    15     19     17     30      4 ;   180.00   4.60240   2 ;    C11-   C15-   C13-   H10
    16     19     18     31      4 ;   180.00   4.60240   2 ;    C12-   C15-   C14-   H11
    17     18     19     32      4 ;   180.00   4.60240   2 ;    C13-   C14-   C15-   H12
