3825
    33
   4.2050000  -2.4800000   0.2880000  -1.6050000   1.7490000   1.7880000
   2.1010000  -2.1840000  -0.4980000   3.3680000  -0.2160000   0.2000000
   2.1960000   0.6220000  -0.1860000   0.9730000   0.4540000   0.4630000
  -0.0870000   1.2420000   0.0820000   2.3240000   1.5740000  -1.1980000
   3.8090000  -0.0360000   1.6670000   0.0050000   2.1890000  -0.9110000
   1.2280000   2.3570000  -1.5600000  -1.3980000   1.0620000   0.7770000
   3.1360000  -1.7110000  -0.0490000  -2.4080000   0.1270000   0.3070000
  -2.1690000  -0.6430000  -0.8320000  -3.6150000  -0.0000000   0.9940000
  -3.1370000  -1.5400000  -1.2820000  -4.5830000  -0.8980000   0.5430000
  -4.3440000  -1.6680000  -0.5950000   4.2200000   0.0560000  -0.4370000
   0.8580000  -0.2820000   1.2540000   3.2690000   1.7180000  -1.7140000
   3.9470000   1.0250000   1.9020000   3.0700000  -0.4440000   2.3650000
   4.7590000  -0.5450000   1.8620000  -0.8450000   2.8010000  -1.1960000
   1.3270000   3.0990000  -2.3480000  -1.2440000  -0.5770000  -1.3960000
  -3.8260000   0.5880000   1.8840000  -2.9510000  -2.1400000  -2.1690000
  -5.5230000  -0.9970000   1.0790000  -5.0980000  -2.3660000  -0.9460000
   4.0360000  -3.4320000   0.1260000
