; ketoprofen_GMX_OPLS.top created by acpype (v: 2023.10.27) on Mon Feb  9 17:47:52 2026

; Include forcefield parameters
#include "ffoplsaa.itp"

; Include ketoprofen_GMX.itp topology
#include "ketoprofen_GMX.itp"

; Ligand position restraints
#ifdef POSRES_LIG
#include "posre_ketoprofen.itp"
#endif

[ system ]
 ketoprofen

[ molecules ]
; Compound        nmols
 ketoprofen       1     
