%VERSION  VERSION_STAMP = V0001.000  DATE = 02/09/26  17:36:31                  
%FLAG TITLE                                                                     
%FORMAT(20a4)                                                                   
173183                                                                          
%FLAG POINTERS                                                                  
%FORMAT(10I8)                                                                   
      77       7      48      32     113      50     198      76       0       0
     507       1      32      50      76      15      31      16       9       0
       0       0       0       0       0       0       0       0      77       0
       0
%FLAG ATOM_NAME                                                                 
%FORMAT(20a4)                                                                   
O   C   C1  C2  C3  C4  C5  C6  C7  C8  C9  C10 C11 C12 C13 C14 C15 C16 C17 C18 
C19 C20 C21 C22 C23 C24 C25 C26 C27 H   H1  H2  H3  H4  H5  H6  H7  H8  H9  H10 
H11 H12 H13 H14 H15 H16 H17 H18 H19 H20 H21 H22 H23 H24 H25 H26 H27 H28 H29 H30 
H31 H32 H33 H34 H35 H36 H37 H38 H39 H40 H41 H42 H43 H44 H45 H46 H47 
%FLAG CHARGE                                                                    
%FORMAT(5E16.8)                                                                 
 -1.09479578E+01 -8.20003500E-01 -1.17898281E+00 -8.50981410E-01 -8.87426010E-01
 -9.96759810E-01 -1.19173842E+00  3.64446000E-03 -1.35573912E+00 -1.37396142E+00
 -1.41040602E+00 -7.68981060E-01 -9.96759810E-01 -1.49605083E+00 -1.92063042E+00
 -1.28284992E+00 -3.04676856E+00 -1.51427313E+00 -1.37031696E+00 -1.37396142E+00
 -1.39218372E+00  2.64405573E+00 -1.64182923E+00 -1.42862832E+00 -1.12431591E+00
 -1.17898281E+00 -1.60538463E+00 -1.62360693E+00 -1.62360693E+00  8.32759110E-01
  1.06964901E+00  8.69203710E-01  8.87426010E-01  7.50758760E-01  7.50758760E-01
  7.59869910E-01  7.59869910E-01  7.50758760E-01  7.50758760E-01  7.50758760E-01
  7.50758760E-01  8.96537160E-01  8.96537160E-01  8.69203710E-01  6.50536110E-01
  6.50536110E-01  6.50536110E-01  8.14536810E-01  8.14536810E-01  2.16845370E+00
  6.80912684E-01  6.80912684E-01  6.80912684E-01  9.32981760E-01  9.32981760E-01
  1.00587096E+00  1.00587096E+00  7.05203010E-01  7.05203010E-01  6.50536110E-01
  6.14091510E-01  6.14091510E-01  6.14091510E-01  7.78092210E-01  7.78092210E-01
  8.32759110E-01  7.25247540E+00  8.32759110E-01  6.08023484E-01  6.08023484E-01
  6.08023484E-01  5.98912334E-01  5.98912334E-01  5.98912334E-01  5.98912334E-01
  5.98912334E-01  5.98912334E-01
%FLAG ATOMIC_NUMBER                                                             
%FORMAT(10I8)                                                                   
       8       6       6       6       6       6       6       6       6       6
       6       6       6       6       6       6       6       6       6       6
       6       6       6       6       6       6       6       6       6       1
       1       1       1       1       1       1       1       1       1       1
       1       1       1       1       1       1       1       1       1       1
       1       1       1       1       1       1       1       1       1       1
       1       1       1       1       1       1       1       1       1       1
       1       1       1       1       1       1       1
%FLAG MASS                                                                      
%FORMAT(5E16.8)                                                                 
  1.60000000E+01  1.20100000E+01  1.20100000E+01  1.20100000E+01  1.20100000E+01
  1.20100000E+01  1.20100000E+01  1.20100000E+01  1.20100000E+01  1.20100000E+01
  1.20100000E+01  1.20100000E+01  1.20100000E+01  1.20100000E+01  1.20100000E+01
  1.20100000E+01  1.20100000E+01  1.20100000E+01  1.20100000E+01  1.20100000E+01
  1.20100000E+01  1.20100000E+01  1.20100000E+01  1.20100000E+01  1.20100000E+01
  1.20100000E+01  1.20100000E+01  1.20100000E+01  1.20100000E+01  1.00800000E+00
  1.00800000E+00  1.00800000E+00  1.00800000E+00  1.00800000E+00  1.00800000E+00
  1.00800000E+00  1.00800000E+00  1.00800000E+00  1.00800000E+00  1.00800000E+00
  1.00800000E+00  1.00800000E+00  1.00800000E+00  1.00800000E+00  1.00800000E+00
  1.00800000E+00  1.00800000E+00  1.00800000E+00  1.00800000E+00  1.00800000E+00
  1.00800000E+00  1.00800000E+00  1.00800000E+00  1.00800000E+00  1.00800000E+00
  1.00800000E+00  1.00800000E+00  1.00800000E+00  1.00800000E+00  1.00800000E+00
  1.00800000E+00  1.00800000E+00  1.00800000E+00  1.00800000E+00  1.00800000E+00
  1.00800000E+00  1.00800000E+00  1.00800000E+00  1.00800000E+00  1.00800000E+00
  1.00800000E+00  1.00800000E+00  1.00800000E+00  1.00800000E+00  1.00800000E+00
  1.00800000E+00  1.00800000E+00
%FLAG ATOM_TYPE_INDEX                                                           
%FORMAT(10I8)                                                                   
       1       2       2       2       2       2       2       2       2       2
       2       2       2       2       3       2       3       2       2       2
       2       2       2       2       2       2       2       2       2       4
       4       4       4       4       4       4       4       4       4       4
       4       4       4       4       4       4       4       4       4       5
       4       4       4       4       4       4       4       4       4       6
       4       4       4       4       4       4       7       4       4       4
       4       4       4       4       4       4       4
%FLAG NUMBER_EXCLUDED_ATOMS                                                     
%FORMAT(10I8)                                                                   
      11      28      27      23      25      26      16      23      11      11
      11       9      16       7      18      14       9       8       9       9
      15       8       8      15      19      16       9       9       8       3
       3       2       3       3       2       3       2       1       1       1
       1       2       1       5       2       1       1       3       2       1
       2       1       1       2       1       2       1       3       2       1
       2       1       1       2       1       4       1       6       2       1
       1       2       1       1       2       1       1
%FLAG NONBONDED_PARM_INDEX                                                      
%FORMAT(10I8)                                                                   
       1       2       4       7      11      16      22       2       3       5
       8      12      17      23       4       5       6       9      13      18
      24       7       8       9      10      14      19      25      11      12
      13      14      15      20      26      16      17      18      19      20
      21      27      22      23      24      25      26      27      28
%FLAG RESIDUE_LABEL                                                             
%FORMAT(20a4)                                                                   
UNL 
%FLAG RESIDUE_POINTER                                                           
%FORMAT(10I8)                                                                   
       1
%FLAG BOND_FORCE_CONSTANT                                                       
%FORMAT(5E16.8)                                                                 
  2.85250000E+02  5.35510000E+02  2.20100000E+02  2.26470000E+02  2.27640000E+02
  3.46430000E+02  2.26810000E+02  3.42750000E+02  2.44960000E+02  2.23800000E+02
  2.28890000E+02  3.45250000E+02  4.36000000E+02  3.57290000E+02  3.42020000E+02
%FLAG BOND_EQUIL_VALUE                                                          
%FORMAT(5E16.8)                                                                 
  1.42410000E+00  9.72500000E-01  1.54830000E+00  1.53890000E+00  1.53720000E+00
  1.09540000E+00  1.53840000E+00  1.09790000E+00  1.51330000E+00  1.54280000E+00
  1.53540000E+00  1.09620000E+00  1.33790000E+00  1.08820000E+00  1.09840000E+00
%FLAG ANGLE_FORCE_CONSTANT                                                      
%FORMAT(5E16.8)                                                                 
  7.65600000E+01  5.63900000E+01  5.92600000E+01  6.18400000E+01  4.26500000E+01
  5.93300000E+01  6.01700000E+01  4.32400000E+01  4.30600000E+01  4.38400000E+01
  6.01800000E+01  4.32300000E+01  6.05700000E+01  5.99900000E+01  5.95600000E+01
  6.03300000E+01  6.12400000E+01  5.98700000E+01  4.28900000E+01  4.25500000E+01
  4.36000000E+01  5.98700000E+01  4.32700000E+01  6.09300000E+01  4.63700000E+01
  4.39000000E+01  4.32800000E+01  6.52300000E+01  3.59300000E+01  3.59100000E+01
  3.58000000E+01
%FLAG ANGLE_EQUIL_VALUE                                                         
%FORMAT(5E16.8)                                                                 
  1.92073567E+00  1.91916487E+00  1.98531288E+00  1.81217614E+00  1.94028336E+00
  1.98269488E+00  1.93801443E+00  1.90834382E+00  1.92911325E+00  1.85738019E+00
  1.93836350E+00  1.91026369E+00  1.94447215E+00  1.94482122E+00  1.98444021E+00
  1.92963685E+00  2.14710497E+00  2.02388467E+00  1.93085858E+00  2.03453118E+00
  1.88129121E+00  1.96576518E+00  1.91427794E+00  1.91584874E+00  2.10120279E+00
  1.90782022E+00  1.90555129E+00  1.86872483E+00  1.86087085E+00  1.87134283E+00
  1.88024401E+00
%FLAG DIHEDRAL_FORCE_CONSTANT                                                   
%FORMAT(5E16.8)                                                                 
  1.55555556E-01  9.00000000E-02  1.80000000E-01  5.20000000E-01  1.30000000E-01
  0.00000000E+00  1.50000000E-01  5.78000000E+00  1.33000000E+00  6.65000000E+00
  1.50000000E-01  2.60000000E-01  6.00000000E-02  1.20000000E-01  1.23000000E-01
  1.10000000E+00
%FLAG DIHEDRAL_PERIODICITY                                                      
%FORMAT(5E16.8)                                                                 
  3.00000000E+00  3.00000000E+00  3.00000000E+00  3.00000000E+00  3.00000000E+00
  2.00000000E+00  1.00000000E+00  2.00000000E+00  3.00000000E+00  2.00000000E+00
  3.00000000E+00  3.00000000E+00  3.00000000E+00  3.00000000E+00  3.00000000E+00
  2.00000000E+00
%FLAG DIHEDRAL_PHASE                                                            
%FORMAT(5E16.8)                                                                 
  0.00000000E+00  0.00000000E+00  0.00000000E+00  0.00000000E+00  0.00000000E+00
  0.00000000E+00  0.00000000E+00  3.14159400E+00  3.14159400E+00  3.14159400E+00
  0.00000000E+00  3.14159400E+00  0.00000000E+00  0.00000000E+00  0.00000000E+00
  3.14159400E+00
%FLAG SCEE_SCALE_FACTOR                                                         
%FORMAT(5E16.8)                                                                 
  1.20000000E+00  1.20000000E+00  1.20000000E+00  1.20000000E+00  1.20000000E+00
  1.20000000E+00  1.20000000E+00  1.20000000E+00  1.20000000E+00  1.20000000E+00
  1.20000000E+00  1.20000000E+00  1.20000000E+00  1.20000000E+00  1.20000000E+00
  0.00000000E+00
%FLAG SCNB_SCALE_FACTOR                                                         
%FORMAT(5E16.8)                                                                 
  2.00000000E+00  2.00000000E+00  2.00000000E+00  2.00000000E+00  2.00000000E+00
  2.00000000E+00  2.00000000E+00  2.00000000E+00  2.00000000E+00  2.00000000E+00
  2.00000000E+00  2.00000000E+00  2.00000000E+00  2.00000000E+00  2.00000000E+00
  0.00000000E+00
%FLAG SOLTY                                                                     
%FORMAT(5E16.8)                                                                 
  0.00000000E+00  0.00000000E+00  0.00000000E+00  0.00000000E+00  0.00000000E+00
  0.00000000E+00  0.00000000E+00  0.00000000E+00  0.00000000E+00
%FLAG LENNARD_JONES_ACOEF                                                       
%FORMAT(5E16.8)                                                                 
  5.03152404E+05  7.18991463E+05  1.02073671E+06  5.92438683E+05  8.43969952E+05
  6.96551276E+05  6.80216136E+04  1.00235148E+05  8.12662403E+04  7.94617769E+03
  6.30298721E+04  9.27554496E+04  7.52549148E+04  7.41026906E+03  6.90855956E+03
  4.69084694E+04  6.97998263E+04  5.63013422E+04  5.22955465E+03  4.88692384E+03
  3.39005767E+03  1.74176419E+02  3.03553352E+02  2.25372434E+02  8.80612241E+00
  8.53132435E+00  4.36660257E+00  1.10360882E-05
%FLAG LENNARD_JONES_BCOEF                                                       
%FORMAT(5E16.8)                                                                 
  4.32634597E+02  5.36620538E+02  6.63431737E+02  4.76608379E+02  5.90251928E+02
  5.24668528E+02  1.09393126E+02  1.37787728E+02  1.21392023E+02  2.57122925E+01
  9.87712192E+01  1.24325688E+02  1.09570372E+02  2.32899892E+01  2.10929191E+01
  9.08431526E+01  1.14981426E+02  1.01040256E+02  2.08590256E+01  1.89134207E+01
  1.67944276E+01  3.81654050E+00  5.22789272E+00  4.40751799E+00  5.90150328E-01
  5.44840215E-01  4.15568027E-01  4.55498033E-04
%FLAG BONDS_INC_HYDROGEN                                                        
%FORMAT(10I8)                                                                   
       0     198       2       6      87       6       9      90       8      12
      93       8      15      96       6      18      99       8      18     102
       8      24     105       6      24     108       6      27     111       8
      27     114       8      30     117       6      30     120       6      33
     123       8      33     126       8      36     129      12      39     132
      12      39     135      12      39     138      12      45     141       8
      45     144       8      48     147      14      51     150      12      51
     153      12      51     156      12      54     159       8      54     162
       8      57     165       8      57     168       8      60     171      12
      60     174      12      63     177      15      66     180      12      66
     183      12      66     186      12      69     189      12      69     192
      12      72     195      12      75     201      12      78     204      12
      78     207      12      78     210      12      81     213      12      81
     216      12      81     219      12      84     222      12      84     225
      12      84     228      12
%FLAG BONDS_WITHOUT_HYDROGEN                                                    
%FORMAT(10I8)                                                                   
       0      63       1       3       6       3       3      15       3       3
      18       4       3      39       5       6       9       4       6      24
       3       9      12       7       9      33       7      12      21       7
      12      27       7      15      30       3      15      36       5      18
      27       7      21      42       9      21      45       7      21      51
      10      24      30       3      33      48       9      36      60      11
      36      66      11      42      48      13      42      54       9      45
      57       7      54      63       7      57      63       7      60      69
      11      69      72      11      72      75      11      72      78      11
      75      81      11      75      84      11
%FLAG ANGLES_INC_HYDROGEN                                                       
%FORMAT(10I8)                                                                   
       0      63     177       2       3       6      87       5       3      15
      96       5       3      18      99       8       3      18     102       8
       3      39     132       9       3      39     135       9       3      39
     138       9       6       9      90       8       6      24     105       5
       6      24     108       5       9       6      87      10       9      12
      93      12       9      33     123      12       9      33     126      12
      12       9      90      12      12      27     111      12      12      27
     114      12      15      30     117       5      15      30     120       5
      15      36     129       9      18      27     111      12      18      27
     114      12      21      12      93      12      21      45     141      12
      21      45     144      12      21      51     150      19      21      51
     153      19      21      51     156      19      24       6      87       5
      24      30     117       5      24      30     120       5      27      12
      93      12      27      18      99      12      27      18     102      12
      30      15      96       5      30      24     105       5      30      24
     108       5      33       9      90      12      33      48     147      20
      36      15      96      21      36      60     171      23      36      60
     174      23      36      66     180      23      36      66     183      23
      36      66     186      23      42      48     147      25      42      54
     159      26      42      54     162      26      45      57     165      12
      45      57     168      12      48      33     123      26      48      33
     126      26      54      63     177      27      57      45     141      12
      57      45     144      12      57      63     177      27      60      36
     129      23      60      69     189      23      60      69     192      23
      63       0     198      28      63      54     159      12      63      54
     162      12      63      57     165      12      63      57     168      12
      66      36     129      23      69      60     171      23      69      60
     174      23      69      72     195      23      72      69     189      23
      72      69     192      23      72      75     201      23      72      78
     204      23      72      78     207      23      72      78     210      23
      75      72     195      23      75      81     213      23      75      81
     216      23      75      81     219      23      75      84     222      23
      75      84     225      23      75      84     228      23      78      72
     195      23      81      75     201      23      84      75     201      23
      99      18     102      29     105      24     108      30     111      27
     114      29     117      30     120      30     123      33     126      29
     132      39     135      31     132      39     138      31     135      39
     138      31     141      45     144      29     150      51     153      31
     150      51     156      31     153      51     156      31     159      54
     162      29     165      57     168      29     171      60     174      31
     180      66     183      31     180      66     186      31     183      66
     186      31     189      69     192      31     204      78     207      31
     204      78     210      31     207      78     210      31     213      81
     216      31     213      81     219      31     216      81     219      31
     222      84     225      31     222      84     228      31     225      84
     228      31
%FLAG ANGLES_WITHOUT_HYDROGEN                                                   
%FORMAT(10I8)                                                                   
       0      63      54       1       0      63      57       1       3       6
       9       3       3       6      24       4       3      15      30       4
       3      15      36       6       3      18      27       7       6       3
      15       4       6       3      18       3       6       3      39       6
       6       9      12       7       6       9      33       7       6      24
      30       4       9       6      24       3       9      12      21      11
       9      12      27      11       9      33      48      13      12       9
      33      11      12      21      42      13      12      21      45      11
      12      21      51      14      12      27      18      11      15       3
      18       3      15       3      39       6      15      30      24       4
      15      36      60      15      15      36      66      15      18       3
      39      16      21      12      27      11      21      42      48      17
      21      42      54      18      21      45      57      11      30      15
      36       6      33      48      42      17      36      60      69      22
      42      21      45      13      42      21      51      24      42      54
      63      13      45      21      51      14      45      57      63      11
      48      42      54      17      54      63      57      11      60      36
      66      22      60      69      72      22      69      72      75      22
      69      72      78      22      72      75      81      22      72      75
      84      22      75      72      78      22      81      75      84      22
%FLAG DIHEDRALS_INC_HYDROGEN                                                    
%FORMAT(10I8)                                                                   
       0      63      54     159       2       0      63      54     162       2
       0      63      57     165       2       0      63      57     168       2
       3       6       9      90       5       3       6      24     105       5
       3       6      24     108       5       3      15      30     117       5
       3      15      30     120       5       3      15      36     129       5
       3      18      27     111       5       3      18      27     114       5
       6       3      15      96       5       6       3      18      99       5
       6       3      18     102       5       6       3      39     132       5
       6       3      39     135       5       6       3      39     138       5
       6       9      12      93       5       6       9      33     123       5
       6       9      33     126       5       6      24      30     117       5
       6      24      30     120       5       9       6      24     105       5
       9       6      24     108       5       9      12      27     111       5
       9      12      27     114       5       9      33      48     147       6
      12       9       6      87       5      12       9      33     123       5
      12       9      33     126       5      12      21      45     141       5
      12      21      45     144       5      12      21      51     150       5
      12      21      51     153       5      12      21      51     156       5
      12      27      18      99       5      12      27      18     102       5
      15       3       6      87       5      15       3      18      99       5
      15       3      18     102       5      15       3      39     132       5
      15       3      39     135       5      15       3      39     138       5
      15      30      24     105       5      15      30      24     108       5
      15      36      60     171       5      15      36      60     174       5
      15      36      66     180       5      15      36      66     183       5
      15      36      66     186       5      18       3       6      87       5
      18       3      15      96       5      18       3      39     132       5
      18       3      39     135       5      18       3      39     138       5
      18      27      12      93       5      21      12       9      90       5
      21      12      27     111       5      21      12      27     114       5
      21      42      48     147      10      21      42      54     159      11
      21      42      54     162      11      21      45      57     165       5
      21      45      57     168       5      24       6       9      90       5
      24      30      15      96       5      27      12       9      90       5
      30      15      36     129       5      30      24       6      87       5
      33       9       6      87       5      33       9      12      93       5
      36      15      30     117       5      36      15      30     120       5
      36      60      69     189       5      36      60      69     192       5
      39       3       6      87       5      39       3      15      96       5
      39       3      18      99       5      39       3      18     102       5
      42      21      12      93       1      42      21      45     141       1
      42      21      45     144       1      42      21      51     150       1
      42      21      51     153       1      42      21      51     156       1
      42      48      33     123      12      42      48      33     126      12
      42      54      63     177       1      45      21      12      93       5
      45      21      51     150       5      45      21      51     153       5
      45      21      51     156       5      45      57      63     177       1
      48      33       9      90       1      48      42      54     159      12
      48      42      54     162      12      51      21      12      93       5
      51      21      45     141       5      51      21      45     144       5
      54      42      48     147      10     198       0      63      54      13
      54      63      57     165       5      54      63      57     168       5
     198       0      63      57      13      57      63      54     159       5
      57      63      54     162       5      60      36      15      96       5
      60      36      66     180       5      60      36      66     183       5
      60      36      66     186       5      60      69      72     195       5
      63      57      45     141       5      63      57      45     144       5
      66      36      15      96       5      66      36      60     171       5
      66      36      60     174       5      69      60      36     129       5
      69      72      75     201       5      69      72      78     204       5
      69      72      78     207       5      69      72      78     210       5
      72      69      60     171       5      72      69      60     174       5
      72      75      81     213       5      72      75      81     216       5
      72      75      81     219       5      72      75      84     222       5
      72      75      84     225       5      72      75      84     228       5
      75      72      69     189       5      75      72      69     192       5
      75      72      78     204       5      75      72      78     207       5
      75      72      78     210       5      78      72      69     189       5
      78      72      69     192       5      78      72      75     201       5
      81      75      72     195       5      81      75      84     222       5
      81      75      84     225       5      81      75      84     228       5
      84      75      72     195       5      84      75      81     213       5
      84      75      81     216       5      84      75      81     219       5
      87       6       9      90      14      87       6      24     105      14
      87       6      24     108      14      90       9      12      93      14
      90       9      33     123      14      90       9      33     126      14
      93      12      27     111      14      93      12      27     114      14
      96      15      30     117      14      96      15      30     120      14
      96      15      36     129      14      99      18      27     111      14
      99      18      27     114      14     102      18      27     111      14
     102      18      27     114      14     105      24      30     117      14
     105      24      30     120      14     108      24      30     117      14
     108      24      30     120      14     123      33      48     147       6
     126      33      48     147       6     129      36      60     171      14
     129      36      60     174      14     129      36      66     180      14
     129      36      66     183      14     129      36      66     186      14
     141      45      57     165      14     141      45      57     168      14
     144      45      57     165      14     144      45      57     168      14
     159      54      63     177       1     162      54      63     177       1
     165      57      63     177       1     168      57      63     177       1
     171      60      69     189      14     171      60      69     192      14
     174      60      69     189      14     174      60      69     192      14
     198       0      63     177      15     189      69      72     195      14
     192      69      72     195      14     195      72      75     201      14
     195      72      78     204      14     195      72      78     207      14
     195      72      78     210      14     201      75      81     213      14
     201      75      81     216      14     201      75      81     219      14
     201      75      84     222      14     201      75      84     225      14
     201      75      84     228      14      42      33     -48    -147      16
%FLAG DIHEDRALS_WITHOUT_HYDROGEN                                                
%FORMAT(10I8)                                                                   
       0      63      54      42       1       0      63      57      45       3
       3       6       9      12       4       3       6       9      33       4
       3       6     -24      30       4       3      15     -30      24       4
       3      15      36      60       4       3      15      36      66       4
       3      18     -27      12       4       6       3     -15      30       4
       6       3      15      36       4       6       3      18      27       4
       6       9      12      21       4       6       9     -12      27       4
       6       9      33      48       1       6      24     -30      15       4
       9       6       3      15       4       9       6       3      18       4
       9       6       3      39       4       9       6      24      30       4
       9      12      21      42       1       9      12      21      45       4
       9      12      21      51       4       9      12     -27      18       4
       9      33     -48      42       6      12       9       6      24       4
      12       9      33      48       1      12      21     -42      48       6
      12      21      42      54       6      12      21      45      57       4
      15       3      -6      24       4      15       3      18      27       4
      15      36      60      69       4      18       3       6      24       4
      18       3      15      30       4      18       3      15      36       4
      18      27      12      21       4      21      12       9      33       4
      21      42     -48      33       7      21      42     -48      33       8
      21      42     -48      33       9      21      42      54      63       6
      21      45     -57      63       4      24       6       3      39       4
      24       6       9      33       4      24      30      15      36       4
      27      12       9      33       4      27      12      21      42       1
      27      12      21      45       4      27      12      21      51       4
      27      18       3      39       4      30      15       3      39       4
      30      15      36      60       4      30      15      36      66       4
      33      48      42      54       7      33      48     -42      54       8
      33      48     -42      54       9      36      15       3      39       4
      36      60      69      72       4      42      21      45      57       1
      42      54     -63      57       1      45      21      42      48       6
      45      21      42      54       6      45      57     -63      54       4
      48      42      21      51       6      48      42      54      63       6
      51      21      42      54       6      51      21      45      57       4
      60      69      72      75       4      60      69      72      78       4
      66      36      60      69       4      69      72      75      81       4
      69      72      75      84       4      78      72      75      81       4
      78      72      75      84       4      48      21     -42     -54      16
%FLAG EXCLUDED_ATOMS_LIST                                                       
%FORMAT(10I8)                                                                   
      15      16      19      20      22      54      55      56      57      60
      67       3       4       5       6       7       9      10      11      12
      13      14      21      23      30      31      33      34      35      36
      37      38      39      40      41      44      45      46      47       4
       5       6       7       8       9      10      11      12      13      14
      17      30      31      32      33      34      35      36      37      40
      41      42      43      45      46      47       5       6       7       8
       9      10      11      12      14      15      16      17      18      30
      31      32      36      37      38      39      42      43      50       7
       8       9      10      12      15      16      17      18      19      20
      30      31      32      34      35      38      39      42      43      48
      49      51      52      53       7       9      10      11      13      14
      21      23      24      30      33      34      35      36      37      40
      41      44      45      46      47      58      59      61      62      63
       8       9      10      11      13      14      30      32      33      34
      35      38      39      45      46      47      10      12      15      16
      17      18      19      20      22      31      32      38      39      48
      49      50      51      52      53      54      55      56      57      11
      12      13      14      30      31      33      36      37      40      41
      12      14      15      16      18      31      32      34      35      38
      39      13      14      21      23      30      33      36      37      40
      41      44      15      17      19      30      31      32      42      43
      50      14      21      23      24      25      33      40      41      44
      58      59      61      62      63      64      65      30      33      34
      35      45      46      47      16      17      18      19      20      22
      32      42      43      48      49      50      51      52      53      54
      55      60      17      18      19      20      22      32      48      49
      51      52      53      56      57      60      18      19      22      31
      42      43      50      54      55      19      20      32      48      49
      51      52      53      20      22      50      54      55      56      57
      60      67      22      48      49      54      55      56      57      60
      67      23      24      25      26      27      33      44      58      59
      61      62      63      64      65      66      48      49      54      55
      56      57      60      67      24      33      44      58      59      61
      62      63      25      26      27      28      29      44      58      59
      64      65      66      68      69      70      71      26      27      28
      29      58      59      64      65      66      68      69      70      71
      72      73      74      75      76      77      27      28      29      64
      65      66      68      69      70      71      72      73      74      75
      76      77      28      29      64      65      66      68      69      70
      71      29      66      68      72      73      74      75      76      77
      66      68      72      73      74      75      76      77      31      36
      37      32      42      43      38      39      40      41      44      35
      38      39      38      39      37      40      41      40      41      39
       0      41       0      43      50      50      58      59      61      62
      63      46      47      47       0      49      56      57      56      57
       0      52      53      53       0      55      60      60      57      60
      60      59      64      65      64      65      67      62      63      63
       0      65      66      66      68      69      70      71       0      72
      73      74      75      76      77      70      71      71       0      73
      74      74       0      76      77      77       0
%FLAG HBOND_ACOEF                                                               
%FORMAT(5E16.8)                                                                 

%FLAG HBOND_BCOEF                                                               
%FORMAT(5E16.8)                                                                 

%FLAG HBCUT                                                                     
%FORMAT(5E16.8)                                                                 

%FLAG AMBER_ATOM_TYPE                                                           
%FORMAT(20a4)                                                                   
oh  c5  c5  c6  c6  c5  c6  c6  c5  c6  c5  c6  c3  c3  c2  c6  c2  c3  c6  c6  
c3  c6  c3  c3  c3  c3  c3  c3  c3  hc  hc  hc  hc  hc  hc  hc  hc  hc  hc  hc  
hc  hc  hc  hc  hc  hc  hc  hc  hc  ha  hc  hc  hc  hc  hc  hc  hc  hc  hc  h1  
hc  hc  hc  hc  hc  hc  ho  hc  hc  hc  hc  hc  hc  hc  hc  hc  hc  
%FLAG TREE_CHAIN_CLASSIFICATION                                                 
%FORMAT(20a4)                                                                   
BLA BLA BLA BLA BLA BLA BLA BLA BLA BLA BLA BLA BLA BLA BLA BLA BLA BLA BLA BLA 
BLA BLA BLA BLA BLA BLA BLA BLA BLA BLA BLA BLA BLA BLA BLA BLA BLA BLA BLA BLA 
BLA BLA BLA BLA BLA BLA BLA BLA BLA BLA BLA BLA BLA BLA BLA BLA BLA BLA BLA BLA 
BLA BLA BLA BLA BLA BLA BLA BLA BLA BLA BLA BLA BLA BLA BLA BLA BLA 
%FLAG JOIN_ARRAY                                                                
%FORMAT(10I8)                                                                   
       0       0       0       0       0       0       0       0       0       0
       0       0       0       0       0       0       0       0       0       0
       0       0       0       0       0       0       0       0       0       0
       0       0       0       0       0       0       0       0       0       0
       0       0       0       0       0       0       0       0       0       0
       0       0       0       0       0       0       0       0       0       0
       0       0       0       0       0       0       0       0       0       0
       0       0       0       0       0       0       0
%FLAG IROTAT                                                                    
%FORMAT(10I8)                                                                   
       0       0       0       0       0       0       0       0       0       0
       0       0       0       0       0       0       0       0       0       0
       0       0       0       0       0       0       0       0       0       0
       0       0       0       0       0       0       0       0       0       0
       0       0       0       0       0       0       0       0       0       0
       0       0       0       0       0       0       0       0       0       0
       0       0       0       0       0       0       0       0       0       0
       0       0       0       0       0       0       0
%FLAG RADIUS_SET                                                                
%FORMAT(1a80)                                                                   
modified Bondi radii (mbondi)                                                   
%FLAG RADII                                                                     
%FORMAT(5E16.8)                                                                 
  1.50000000E+00  1.70000000E+00  1.70000000E+00  1.50000000E+00  1.50000000E+00
  1.70000000E+00  1.50000000E+00  1.50000000E+00  1.70000000E+00  1.50000000E+00
  1.70000000E+00  1.50000000E+00  1.70000000E+00  1.70000000E+00  1.70000000E+00
  1.50000000E+00  1.70000000E+00  1.70000000E+00  1.50000000E+00  1.50000000E+00
  1.70000000E+00  1.50000000E+00  1.70000000E+00  1.70000000E+00  1.70000000E+00
  1.70000000E+00  1.70000000E+00  1.70000000E+00  1.70000000E+00  1.30000000E+00
  1.30000000E+00  1.30000000E+00  1.30000000E+00  1.30000000E+00  1.30000000E+00
  1.30000000E+00  1.30000000E+00  1.30000000E+00  1.30000000E+00  1.30000000E+00
  1.30000000E+00  1.30000000E+00  1.30000000E+00  1.30000000E+00  1.30000000E+00
  1.30000000E+00  1.30000000E+00  1.30000000E+00  1.30000000E+00  1.30000000E+00
  1.30000000E+00  1.30000000E+00  1.30000000E+00  1.30000000E+00  1.30000000E+00
  1.30000000E+00  1.30000000E+00  1.30000000E+00  1.30000000E+00  1.30000000E+00
  1.30000000E+00  1.30000000E+00  1.30000000E+00  1.30000000E+00  1.30000000E+00
  1.30000000E+00  8.00000000E-01  1.30000000E+00  1.30000000E+00  1.30000000E+00
  1.30000000E+00  1.30000000E+00  1.30000000E+00  1.30000000E+00  1.30000000E+00
  1.30000000E+00  1.30000000E+00
%FLAG SCREEN                                                                    
%FORMAT(5E16.8)                                                                 
  8.50000000E-01  7.20000000E-01  7.20000000E-01  8.00000000E-01  8.00000000E-01
  7.20000000E-01  8.00000000E-01  8.00000000E-01  7.20000000E-01  8.00000000E-01
  7.20000000E-01  8.00000000E-01  7.20000000E-01  7.20000000E-01  7.20000000E-01
  8.00000000E-01  7.20000000E-01  7.20000000E-01  8.00000000E-01  8.00000000E-01
  7.20000000E-01  8.00000000E-01  7.20000000E-01  7.20000000E-01  7.20000000E-01
  7.20000000E-01  7.20000000E-01  7.20000000E-01  7.20000000E-01  8.50000000E-01
  8.50000000E-01  8.50000000E-01  8.50000000E-01  8.50000000E-01  8.50000000E-01
  8.50000000E-01  8.50000000E-01  8.50000000E-01  8.50000000E-01  8.50000000E-01
  8.50000000E-01  8.50000000E-01  8.50000000E-01  8.50000000E-01  8.50000000E-01
  8.50000000E-01  8.50000000E-01  8.50000000E-01  8.50000000E-01  8.50000000E-01
  8.50000000E-01  8.50000000E-01  8.50000000E-01  8.50000000E-01  8.50000000E-01
  8.50000000E-01  8.50000000E-01  8.50000000E-01  8.50000000E-01  8.50000000E-01
  8.50000000E-01  8.50000000E-01  8.50000000E-01  8.50000000E-01  8.50000000E-01
  8.50000000E-01  8.50000000E-01  8.50000000E-01  8.50000000E-01  8.50000000E-01
  8.50000000E-01  8.50000000E-01  8.50000000E-01  8.50000000E-01  8.50000000E-01
  8.50000000E-01  8.50000000E-01
%FLAG IPOL                                                                      
%FORMAT(1I8)                                                                    
       0
