campesterol_GMX.gro created by acpype (v: 2023.10.27) on Mon Feb  9 17:34:41 2026
 77
    1  UNL    O    1   0.796   0.029   0.132
    1  UNL    C    2  -0.050   0.023  -0.088
    1  UNL   C1    3   0.025  -0.100  -0.033
    1  UNL   C2    4   0.176  -0.093  -0.054
    1  UNL   C3    5   0.233   0.035   0.013
    1  UNL   C4    6  -0.196  -0.020  -0.056
    1  UNL   C5    7  -0.001   0.146  -0.011
    1  UNL   C6    8   0.389   0.049  -0.010
    1  UNL   C7    9  -0.053  -0.218  -0.090
    1  UNL   C8   10   0.152   0.163  -0.023
    1  UNL   C9   11  -0.199  -0.170  -0.093
    1  UNL  C10   12   0.245  -0.218   0.004
    1  UNL  C11   13  -0.306   0.060  -0.122
    1  UNL  C12   14  -0.031   0.045  -0.240
    1  UNL  C13   15   0.459  -0.086   0.013
    1  UNL  C14   16   0.444   0.153   0.092
    1  UNL  C15   17   0.393  -0.203   0.020
    1  UNL  C16   18   0.421   0.096  -0.153
    1  UNL  C17   19   0.609  -0.084   0.029
    1  UNL  C18   20   0.596   0.157   0.101
    1  UNL  C19   21  -0.444   0.003  -0.083
    1  UNL  C20   22   0.654   0.019   0.132
    1  UNL  C21   23  -0.294   0.208  -0.085
    1  UNL  C22   24  -0.469  -0.002   0.069
    1  UNL  C23   25  -0.607  -0.058   0.108
    1  UNL  C24   26  -0.727   0.011   0.036
    1  UNL  C25   27  -0.620  -0.055   0.261
    1  UNL  C26   28  -0.861  -0.052   0.074
    1  UNL  C27   29  -0.733   0.163   0.057
    1  UNL    H   30   0.009  -0.104   0.076
    1  UNL   H1   31   0.198  -0.091  -0.162
    1  UNL   H2   32   0.217   0.021   0.121
    1  UNL   H3   33  -0.206  -0.013   0.054
    1  UNL   H4   34  -0.026   0.137   0.096
    1  UNL   H5   35  -0.045   0.239  -0.045
    1  UNL   H6   36  -0.042  -0.308  -0.029
    1  UNL   H7   37  -0.019  -0.243  -0.191
    1  UNL   H8   38   0.174   0.194  -0.126
    1  UNL   H9   39   0.182   0.245   0.042
    1  UNL  H10   40  -0.240  -0.187  -0.193
    1  UNL  H11   41  -0.260  -0.227  -0.022
    1  UNL  H12   42   0.225  -0.303  -0.062
    1  UNL  H13   43   0.203  -0.244   0.101
    1  UNL  H14   44  -0.300   0.053  -0.231
    1  UNL  H15   45  -0.080   0.138  -0.273
    1  UNL  H16   46   0.074   0.054  -0.268
    1  UNL  H17   47  -0.073  -0.036  -0.300
    1  UNL  H18   48   0.405   0.130   0.193
    1  UNL  H19   49   0.408   0.253   0.067
    1  UNL  H20   50   0.448  -0.295   0.038
    1  UNL  H21   51   0.374   0.031  -0.229
    1  UNL  H22   52   0.386   0.198  -0.171
    1  UNL  H23   53   0.528   0.096  -0.174
    1  UNL  H24   54   0.648  -0.182   0.057
    1  UNL  H25   55   0.656  -0.062  -0.068
    1  UNL  H26   56   0.639   0.196   0.008
    1  UNL  H27   57   0.627   0.228   0.179
    1  UNL  H28   58  -0.520   0.064  -0.132
    1  UNL  H29   59  -0.456  -0.098  -0.124
    1  UNL  H30   60   0.623  -0.012   0.233
    1  UNL  H31   61  -0.389   0.260  -0.103
    1  UNL  H32   62  -0.221   0.260  -0.147
    1  UNL  H33   63  -0.270   0.224   0.021
    1  UNL  H34   64  -0.394  -0.065   0.117
    1  UNL  H35   65  -0.457   0.099   0.111
    1  UNL  H36   66  -0.608  -0.164   0.078
    1  UNL  H37   67   0.831  -0.060   0.152
    1  UNL  H38   68  -0.716  -0.007  -0.072
    1  UNL  H39   69  -0.710  -0.106   0.295
    1  UNL  H40   70  -0.621   0.047   0.300
    1  UNL  H41   71  -0.535  -0.107   0.307
    1  UNL  H42   72  -0.858  -0.161   0.064
    1  UNL  H43   73  -0.941  -0.014   0.009
    1  UNL  H44   74  -0.889  -0.028   0.177
    1  UNL  H45   75  -0.816   0.205   0.000
    1  UNL  H46   76  -0.748   0.188   0.162
    1  UNL  H47   77  -0.642   0.212   0.022
   35.43600    11.36800    12.14200
