; campesterol_GMX_OPLS.itp created by acpype (v: 2023.10.27) on Mon Feb  9 17:34:41 2026

; For OPLS atomtypes manual fine tuning
; AC_at:OPLS_at:OPLScode: Possible_Alternatives (see ffoplsaa.atp and ffoplsaanb.itp)
; oh:OH:opls_154: ['167']
; c5:x:opls_x: []
; c6:x:opls_x: []
; c3:CT:opls_135: ['136', '137', '149', '157', '158', '206', '209', '210', '223B', '224B', '245', '246', '274', '283', '284', '285', '292', '292B', '293B', '296', '307', '308', '505']
; c2:CR:opls_509: ['510']
; hc:HC:opls_140: []
; ha:HA:opls_146: []
; h1:HC:opls_140: []
; ho:HO:opls_155: ['168']

[ moleculetype ]
;name            nrexcl
 campesterol      3

[ atoms ]
;   nr  type  resi  res  atom  cgnr     charge      mass       ; qtot   bond_type
     1 opls_154     1   UNL     O    1    -0.603804     15.99940 ; qtot -0.604  OH  
     2 opls_x     1   UNL     C    2    -0.045000      0.00000 ; qtot -0.649  x   
     3 opls_x     1   UNL    C1    3    -0.064700      0.00000 ; qtot -0.714  x   
     4 opls_x     1   UNL    C2    4    -0.046700      0.00000 ; qtot -0.760  x   
     5 opls_x     1   UNL    C3    5    -0.048700      0.00000 ; qtot -0.809  x   
     6 opls_x     1   UNL    C4    6    -0.054700      0.00000 ; qtot -0.864  x   
     7 opls_x     1   UNL    C5    7    -0.065400      0.00000 ; qtot -0.929  x   
     8 opls_x     1   UNL    C6    8     0.000200      0.00000 ; qtot -0.929  x   
     9 opls_x     1   UNL    C7    9    -0.074400      0.00000 ; qtot -1.003  x   
    10 opls_x     1   UNL    C8   10    -0.075400      0.00000 ; qtot -1.079  x   
    11 opls_x     1   UNL    C9   11    -0.077400      0.00000 ; qtot -1.156  x   
    12 opls_x     1   UNL   C10   12    -0.042200      0.00000 ; qtot -1.198  x   
    13 opls_135     1   UNL   C11   13    -0.054700     12.01100 ; qtot -1.253  CT  
    14 opls_135     1   UNL   C12   14    -0.082100     12.01100 ; qtot -1.335  CT  
    15 opls_509     1   UNL   C13   15    -0.105400     12.01100 ; qtot -1.440  CR  
    16 opls_x     1   UNL   C14   16    -0.070400      0.00000 ; qtot -1.511  x   
    17 opls_509     1   UNL   C15   17    -0.167200     12.01100 ; qtot -1.678  CR  
    18 opls_135     1   UNL   C16   18    -0.083100     12.01100 ; qtot -1.761  CT  
    19 opls_x     1   UNL   C17   19    -0.075200      0.00000 ; qtot -1.836  x   
    20 opls_x     1   UNL   C18   20    -0.075400      0.00000 ; qtot -1.912  x   
    21 opls_135     1   UNL   C19   21    -0.076400     12.01100 ; qtot -1.988  CT  
    22 opls_x     1   UNL   C20   22     0.145100      0.00000 ; qtot -1.843  x   
    23 opls_135     1   UNL   C21   23    -0.090100     12.01100 ; qtot -1.933  CT  
    24 opls_135     1   UNL   C22   24    -0.078400     12.01100 ; qtot -2.012  CT  
    25 opls_135     1   UNL   C23   25    -0.061700     12.01100 ; qtot -2.073  CT  
    26 opls_135     1   UNL   C24   26    -0.064700     12.01100 ; qtot -2.138  CT  
    27 opls_135     1   UNL   C25   27    -0.088100     12.01100 ; qtot -2.226  CT  
    28 opls_135     1   UNL   C26   28    -0.089100     12.01100 ; qtot -2.315  CT  
    29 opls_135     1   UNL   C27   29    -0.089100     12.01100 ; qtot -2.404  CT  
    30 opls_140     1   UNL     H   30     0.045700      1.00800 ; qtot -2.359  HC  
    31 opls_140     1   UNL    H1   31     0.058700      1.00800 ; qtot -2.300  HC  
    32 opls_140     1   UNL    H2   32     0.047700      1.00800 ; qtot -2.252  HC  
    33 opls_140     1   UNL    H3   33     0.048700      1.00800 ; qtot -2.203  HC  
    34 opls_140     1   UNL    H4   34     0.041200      1.00800 ; qtot -2.162  HC  
    35 opls_140     1   UNL    H5   35     0.041200      1.00800 ; qtot -2.121  HC  
    36 opls_140     1   UNL    H6   36     0.041700      1.00800 ; qtot -2.079  HC  
    37 opls_140     1   UNL    H7   37     0.041700      1.00800 ; qtot -2.038  HC  
    38 opls_140     1   UNL    H8   38     0.041200      1.00800 ; qtot -1.996  HC  
    39 opls_140     1   UNL    H9   39     0.041200      1.00800 ; qtot -1.955  HC  
    40 opls_140     1   UNL   H10   40     0.041200      1.00800 ; qtot -1.914  HC  
    41 opls_140     1   UNL   H11   41     0.041200      1.00800 ; qtot -1.873  HC  
    42 opls_140     1   UNL   H12   42     0.049200      1.00800 ; qtot -1.824  HC  
    43 opls_140     1   UNL   H13   43     0.049200      1.00800 ; qtot -1.774  HC  
    44 opls_140     1   UNL   H14   44     0.047700      1.00800 ; qtot -1.727  HC  
    45 opls_140     1   UNL   H15   45     0.035700      1.00800 ; qtot -1.691  HC  
    46 opls_140     1   UNL   H16   46     0.035700      1.00800 ; qtot -1.655  HC  
    47 opls_140     1   UNL   H17   47     0.035700      1.00800 ; qtot -1.620  HC  
    48 opls_140     1   UNL   H18   48     0.044700      1.00800 ; qtot -1.575  HC  
    49 opls_140     1   UNL   H19   49     0.044700      1.00800 ; qtot -1.530  HC  
    50 opls_146     1   UNL   H20   50     0.119000      1.00800 ; qtot -1.411  HA  
    51 opls_140     1   UNL   H21   51     0.037367      1.00800 ; qtot -1.374  HC  
    52 opls_140     1   UNL   H22   52     0.037367      1.00800 ; qtot -1.336  HC  
    53 opls_140     1   UNL   H23   53     0.037367      1.00800 ; qtot -1.299  HC  
    54 opls_140     1   UNL   H24   54     0.051200      1.00800 ; qtot -1.248  HC  
    55 opls_140     1   UNL   H25   55     0.051200      1.00800 ; qtot -1.197  HC  
    56 opls_140     1   UNL   H26   56     0.055200      1.00800 ; qtot -1.142  HC  
    57 opls_140     1   UNL   H27   57     0.055200      1.00800 ; qtot -1.086  HC  
    58 opls_140     1   UNL   H28   58     0.038700      1.00800 ; qtot -1.048  HC  
    59 opls_140     1   UNL   H29   59     0.038700      1.00800 ; qtot -1.009  HC  
    60 opls_140     1   UNL   H30   60     0.035700      1.00800 ; qtot -0.973  HC  
    61 opls_140     1   UNL   H31   61     0.033700      1.00800 ; qtot -0.940  HC  
    62 opls_140     1   UNL   H32   62     0.033700      1.00800 ; qtot -0.906  HC  
    63 opls_140     1   UNL   H33   63     0.033700      1.00800 ; qtot -0.872  HC  
    64 opls_140     1   UNL   H34   64     0.042700      1.00800 ; qtot -0.829  HC  
    65 opls_140     1   UNL   H35   65     0.042700      1.00800 ; qtot -0.787  HC  
    66 opls_140     1   UNL   H36   66     0.045700      1.00800 ; qtot -0.741  HC  
    67 opls_155     1   UNL   H37   67     0.398000      1.00800 ; qtot -0.343  HO  
    68 opls_140     1   UNL   H38   68     0.045700      1.00800 ; qtot -0.297  HC  
    69 opls_140     1   UNL   H39   69     0.033367      1.00800 ; qtot -0.264  HC  
    70 opls_140     1   UNL   H40   70     0.033367      1.00800 ; qtot -0.231  HC  
    71 opls_140     1   UNL   H41   71     0.033367      1.00800 ; qtot -0.197  HC  
    72 opls_140     1   UNL   H42   72     0.032867      1.00800 ; qtot -0.164  HC  
    73 opls_140     1   UNL   H43   73     0.032867      1.00800 ; qtot -0.131  HC  
    74 opls_140     1   UNL   H44   74     0.032867      1.00800 ; qtot -0.099  HC  
    75 opls_140     1   UNL   H45   75     0.032867      1.00800 ; qtot -0.066  HC  
    76 opls_140     1   UNL   H46   76     0.032867      1.00800 ; qtot -0.033  HC  
    77 opls_140     1   UNL   H47   77     0.032867      1.00800 ; qtot  0.000  HC  

[ bonds ]
;   ai     aj funct   r             k
     1     22   1 ;    1.4241e-01    2.3870e+05 ;      O - C20        OH - x     
     1     67   1 ;    9.7250e-02    4.4811e+05 ;      O - H37        OH - HO    
     2      3   1 ;    1.5483e-01    1.8418e+05 ;      C - C1          x - x     
     2      6   1 ;    1.5483e-01    1.8418e+05 ;      C - C4          x - x     
     2      7   1 ;    1.5389e-01    1.8951e+05 ;      C - C5          x - x     
     2     14   1 ;    1.5372e-01    1.9049e+05 ;      C - C12         x - CT    
     3      4   1 ;    1.5389e-01    1.8951e+05 ;     C1 - C2          x - x     
     3      9   1 ;    1.5483e-01    1.8418e+05 ;     C1 - C7          x - x     
     3     30   1 ;    1.0954e-01    2.8989e+05 ;     C1 - H           x - HC    
     4      5   1 ;    1.5384e-01    1.8979e+05 ;     C2 - C3          x - x     
     4     12   1 ;    1.5384e-01    1.8979e+05 ;     C2 - C10         x - x     
     4     31   1 ;    1.0979e-01    2.8681e+05 ;     C2 - H1          x - HC    
     5      8   1 ;    1.5384e-01    1.8979e+05 ;     C3 - C6          x - x     
     5     10   1 ;    1.5384e-01    1.8979e+05 ;     C3 - C8          x - x     
     5     32   1 ;    1.0979e-01    2.8681e+05 ;     C3 - H2          x - HC    
     6     11   1 ;    1.5483e-01    1.8418e+05 ;     C4 - C9          x - x     
     6     13   1 ;    1.5372e-01    1.9049e+05 ;     C4 - C11         x - CT    
     6     33   1 ;    1.0954e-01    2.8989e+05 ;     C4 - H3          x - HC    
     7     10   1 ;    1.5384e-01    1.8979e+05 ;     C5 - C8          x - x     
     7     34   1 ;    1.0979e-01    2.8681e+05 ;     C5 - H4          x - HC    
     7     35   1 ;    1.0979e-01    2.8681e+05 ;     C5 - H5          x - HC    
     8     15   1 ;    1.5133e-01    2.0498e+05 ;     C6 - C13         x - CR    
     8     16   1 ;    1.5384e-01    1.8979e+05 ;     C6 - C14         x - x     
     8     18   1 ;    1.5428e-01    1.8728e+05 ;     C6 - C16         x - CT    
     9     11   1 ;    1.5483e-01    1.8418e+05 ;     C7 - C9          x - x     
     9     36   1 ;    1.0954e-01    2.8989e+05 ;     C7 - H6          x - HC    
     9     37   1 ;    1.0954e-01    2.8989e+05 ;     C7 - H7          x - HC    
    10     38   1 ;    1.0979e-01    2.8681e+05 ;     C8 - H8          x - HC    
    10     39   1 ;    1.0979e-01    2.8681e+05 ;     C8 - H9          x - HC    
    11     40   1 ;    1.0954e-01    2.8989e+05 ;     C9 - H10         x - HC    
    11     41   1 ;    1.0954e-01    2.8989e+05 ;     C9 - H11         x - HC    
    12     17   1 ;    1.5133e-01    2.0498e+05 ;    C10 - C15         x - CR    
    12     42   1 ;    1.0979e-01    2.8681e+05 ;    C10 - H12         x - HC    
    12     43   1 ;    1.0979e-01    2.8681e+05 ;    C10 - H13         x - HC    
    13     21   1 ;    1.5354e-01    1.9154e+05 ;    C11 - C19        CT - CT    
    13     23   1 ;    1.5354e-01    1.9154e+05 ;    C11 - C21        CT - CT    
    13     44   1 ;    1.0962e-01    2.8891e+05 ;    C11 - H14        CT - HC    
    14     45   1 ;    1.0962e-01    2.8891e+05 ;    C12 - H15        CT - HC    
    14     46   1 ;    1.0962e-01    2.8891e+05 ;    C12 - H16        CT - HC    
    14     47   1 ;    1.0962e-01    2.8891e+05 ;    C12 - H17        CT - HC    
    15     17   1 ;    1.3379e-01    3.6484e+05 ;    C13 - C15        CR - CR    
    15     19   1 ;    1.5133e-01    2.0498e+05 ;    C13 - C17        CR - x     
    16     20   1 ;    1.5384e-01    1.8979e+05 ;    C14 - C18         x - x     
    16     48   1 ;    1.0979e-01    2.8681e+05 ;    C14 - H18         x - HC    
    16     49   1 ;    1.0979e-01    2.8681e+05 ;    C14 - H19         x - HC    
    17     50   1 ;    1.0882e-01    2.9898e+05 ;    C15 - H20        CR - HA    
    18     51   1 ;    1.0962e-01    2.8891e+05 ;    C16 - H21        CT - HC    
    18     52   1 ;    1.0962e-01    2.8891e+05 ;    C16 - H22        CT - HC    
    18     53   1 ;    1.0962e-01    2.8891e+05 ;    C16 - H23        CT - HC    
    19     22   1 ;    1.5384e-01    1.8979e+05 ;    C17 - C20         x - x     
    19     54   1 ;    1.0979e-01    2.8681e+05 ;    C17 - H24         x - HC    
    19     55   1 ;    1.0979e-01    2.8681e+05 ;    C17 - H25         x - HC    
    20     22   1 ;    1.5384e-01    1.8979e+05 ;    C18 - C20         x - x     
    20     56   1 ;    1.0979e-01    2.8681e+05 ;    C18 - H26         x - HC    
    20     57   1 ;    1.0979e-01    2.8681e+05 ;    C18 - H27         x - HC    
    21     24   1 ;    1.5354e-01    1.9154e+05 ;    C19 - C22        CT - CT    
    21     58   1 ;    1.0962e-01    2.8891e+05 ;    C19 - H28        CT - HC    
    21     59   1 ;    1.0962e-01    2.8891e+05 ;    C19 - H29        CT - HC    
    22     60   1 ;    1.0984e-01    2.8620e+05 ;    C20 - H30         x - HC    
    23     61   1 ;    1.0962e-01    2.8891e+05 ;    C21 - H31        CT - HC    
    23     62   1 ;    1.0962e-01    2.8891e+05 ;    C21 - H32        CT - HC    
    23     63   1 ;    1.0962e-01    2.8891e+05 ;    C21 - H33        CT - HC    
    24     25   1 ;    1.5354e-01    1.9154e+05 ;    C22 - C23        CT - CT    
    24     64   1 ;    1.0962e-01    2.8891e+05 ;    C22 - H34        CT - HC    
    24     65   1 ;    1.0962e-01    2.8891e+05 ;    C22 - H35        CT - HC    
    25     26   1 ;    1.5354e-01    1.9154e+05 ;    C23 - C24        CT - CT    
    25     27   1 ;    1.5354e-01    1.9154e+05 ;    C23 - C25        CT - CT    
    25     66   1 ;    1.0962e-01    2.8891e+05 ;    C23 - H36        CT - HC    
    26     28   1 ;    1.5354e-01    1.9154e+05 ;    C24 - C26        CT - CT    
    26     29   1 ;    1.5354e-01    1.9154e+05 ;    C24 - C27        CT - CT    
    26     68   1 ;    1.0962e-01    2.8891e+05 ;    C24 - H38        CT - HC    
    27     69   1 ;    1.0962e-01    2.8891e+05 ;    C25 - H39        CT - HC    
    27     70   1 ;    1.0962e-01    2.8891e+05 ;    C25 - H40        CT - HC    
    27     71   1 ;    1.0962e-01    2.8891e+05 ;    C25 - H41        CT - HC    
    28     72   1 ;    1.0962e-01    2.8891e+05 ;    C26 - H42        CT - HC    
    28     73   1 ;    1.0962e-01    2.8891e+05 ;    C26 - H43        CT - HC    
    28     74   1 ;    1.0962e-01    2.8891e+05 ;    C26 - H44        CT - HC    
    29     75   1 ;    1.0962e-01    2.8891e+05 ;    C27 - H45        CT - HC    
    29     76   1 ;    1.0962e-01    2.8891e+05 ;    C27 - H46        CT - HC    
    29     77   1 ;    1.0962e-01    2.8891e+05 ;    C27 - H47        CT - HC    

[ pairs ]
;   ai     aj    funct
     1     15      1 ;      O - C13   
     1     16      1 ;      O - C14   
     1     54      1 ;      O - H24   
     1     55      1 ;      O - H25   
     1     56      1 ;      O - H26   
     1     57      1 ;      O - H27   
     2      5      1 ;      C - C3    
     2     12      1 ;      C - C10   
     2     21      1 ;      C - C19   
     2     23      1 ;      C - C21   
     2     31      1 ;      C - H1    
     2     36      1 ;      C - H6    
     2     37      1 ;      C - H7    
     2     38      1 ;      C - H8    
     2     39      1 ;      C - H9    
     2     40      1 ;      C - H10   
     2     41      1 ;      C - H11   
     2     44      1 ;      C - H14   
     3      8      1 ;     C1 - C6    
     3     10      1 ;     C1 - C8    
     3     13      1 ;     C1 - C11   
     3     17      1 ;     C1 - C15   
     3     32      1 ;     C1 - H2    
     3     33      1 ;     C1 - H3    
     3     34      1 ;     C1 - H4    
     3     35      1 ;     C1 - H5    
     3     40      1 ;     C1 - H10   
     3     41      1 ;     C1 - H11   
     3     42      1 ;     C1 - H12   
     3     43      1 ;     C1 - H13   
     3     45      1 ;     C1 - H15   
     3     46      1 ;     C1 - H16   
     3     47      1 ;     C1 - H17   
     4      6      1 ;     C2 - C4    
     4      7      1 ;     C2 - C5    
     4     11      1 ;     C2 - C9    
     4     14      1 ;     C2 - C12   
     4     15      1 ;     C2 - C13   
     4     16      1 ;     C2 - C14   
     4     18      1 ;     C2 - C16   
     4     36      1 ;     C2 - H6    
     4     37      1 ;     C2 - H7    
     4     38      1 ;     C2 - H8    
     4     39      1 ;     C2 - H9    
     4     50      1 ;     C2 - H20   
     5      9      1 ;     C3 - C7    
     5     17      1 ;     C3 - C15   
     5     19      1 ;     C3 - C17   
     5     20      1 ;     C3 - C18   
     5     30      1 ;     C3 - H     
     5     34      1 ;     C3 - H4    
     5     35      1 ;     C3 - H5    
     5     42      1 ;     C3 - H12   
     5     43      1 ;     C3 - H13   
     5     48      1 ;     C3 - H18   
     5     49      1 ;     C3 - H19   
     5     51      1 ;     C3 - H21   
     5     52      1 ;     C3 - H22   
     5     53      1 ;     C3 - H23   
     6     10      1 ;     C4 - C8    
     6     24      1 ;     C4 - C22   
     6     30      1 ;     C4 - H     
     6     34      1 ;     C4 - H4    
     6     35      1 ;     C4 - H5    
     6     36      1 ;     C4 - H6    
     6     37      1 ;     C4 - H7    
     6     45      1 ;     C4 - H15   
     6     46      1 ;     C4 - H16   
     6     47      1 ;     C4 - H17   
     6     58      1 ;     C4 - H28   
     6     59      1 ;     C4 - H29   
     6     61      1 ;     C4 - H31   
     6     62      1 ;     C4 - H32   
     6     63      1 ;     C4 - H33   
     7      8      1 ;     C5 - C6    
     7      9      1 ;     C5 - C7    
     7     11      1 ;     C5 - C9    
     7     13      1 ;     C5 - C11   
     7     30      1 ;     C5 - H     
     7     32      1 ;     C5 - H2    
     7     33      1 ;     C5 - H3    
     7     45      1 ;     C5 - H15   
     7     46      1 ;     C5 - H16   
     7     47      1 ;     C5 - H17   
     8     12      1 ;     C6 - C10   
     8     22      1 ;     C6 - C20   
     8     31      1 ;     C6 - H1    
     8     38      1 ;     C6 - H8    
     8     39      1 ;     C6 - H9    
     8     50      1 ;     C6 - H20   
     8     54      1 ;     C6 - H24   
     8     55      1 ;     C6 - H25   
     8     56      1 ;     C6 - H26   
     8     57      1 ;     C6 - H27   
     9     12      1 ;     C7 - C10   
     9     13      1 ;     C7 - C11   
     9     14      1 ;     C7 - C12   
     9     31      1 ;     C7 - H1    
     9     33      1 ;     C7 - H3    
    10     12      1 ;     C8 - C10   
    10     14      1 ;     C8 - C12   
    10     15      1 ;     C8 - C13   
    10     16      1 ;     C8 - C14   
    10     18      1 ;     C8 - C16   
    10     31      1 ;     C8 - H1    
    11     14      1 ;     C9 - C12   
    11     21      1 ;     C9 - C19   
    11     23      1 ;     C9 - C21   
    11     30      1 ;     C9 - H     
    11     44      1 ;     C9 - H14   
    12     19      1 ;    C10 - C17   
    12     30      1 ;    C10 - H     
    12     32      1 ;    C10 - H2    
    13     14      1 ;    C11 - C12   
    13     25      1 ;    C11 - C23   
    13     40      1 ;    C11 - H10   
    13     41      1 ;    C11 - H11   
    13     64      1 ;    C11 - H34   
    13     65      1 ;    C11 - H35   
    14     30      1 ;    C12 - H     
    14     33      1 ;    C12 - H3    
    14     34      1 ;    C12 - H4    
    14     35      1 ;    C12 - H5    
    15     20      1 ;    C13 - C18   
    15     32      1 ;    C13 - H2    
    15     42      1 ;    C13 - H12   
    15     43      1 ;    C13 - H13   
    15     48      1 ;    C13 - H18   
    15     49      1 ;    C13 - H19   
    15     51      1 ;    C13 - H21   
    15     52      1 ;    C13 - H22   
    15     53      1 ;    C13 - H23   
    15     60      1 ;    C13 - H30   
    16     17      1 ;    C14 - C15   
    16     19      1 ;    C14 - C17   
    16     32      1 ;    C14 - H2    
    16     51      1 ;    C14 - H21   
    16     52      1 ;    C14 - H22   
    16     53      1 ;    C14 - H23   
    16     60      1 ;    C14 - H30   
    17     18      1 ;    C15 - C16   
    17     22      1 ;    C15 - C20   
    17     31      1 ;    C15 - H1    
    17     54      1 ;    C15 - H24   
    17     55      1 ;    C15 - H25   
    18     19      1 ;    C16 - C17   
    18     20      1 ;    C16 - C18   
    18     32      1 ;    C16 - H2    
    18     48      1 ;    C16 - H18   
    18     49      1 ;    C16 - H19   
    19     50      1 ;    C17 - H20   
    19     56      1 ;    C17 - H26   
    19     57      1 ;    C17 - H27   
    20     54      1 ;    C18 - H24   
    20     55      1 ;    C18 - H25   
    21     26      1 ;    C19 - C24   
    21     27      1 ;    C19 - C25   
    21     33      1 ;    C19 - H3    
    21     61      1 ;    C19 - H31   
    21     62      1 ;    C19 - H32   
    21     63      1 ;    C19 - H33   
    21     66      1 ;    C19 - H36   
    22     48      1 ;    C20 - H18   
    22     49      1 ;    C20 - H19   
    23     24      1 ;    C21 - C22   
    23     33      1 ;    C21 - H3    
    23     58      1 ;    C21 - H28   
    23     59      1 ;    C21 - H29   
    24     28      1 ;    C22 - C26   
    24     29      1 ;    C22 - C27   
    24     44      1 ;    C22 - H14   
    24     68      1 ;    C22 - H38   
    24     69      1 ;    C22 - H39   
    24     70      1 ;    C22 - H40   
    24     71      1 ;    C22 - H41   
    25     58      1 ;    C23 - H28   
    25     59      1 ;    C23 - H29   
    25     72      1 ;    C23 - H42   
    25     73      1 ;    C23 - H43   
    25     74      1 ;    C23 - H44   
    25     75      1 ;    C23 - H45   
    25     76      1 ;    C23 - H46   
    25     77      1 ;    C23 - H47   
    26     64      1 ;    C24 - H34   
    26     65      1 ;    C24 - H35   
    26     69      1 ;    C24 - H39   
    26     70      1 ;    C24 - H40   
    26     71      1 ;    C24 - H41   
    27     28      1 ;    C25 - C26   
    27     29      1 ;    C25 - C27   
    27     64      1 ;    C25 - H34   
    27     65      1 ;    C25 - H35   
    27     68      1 ;    C25 - H38   
    28     66      1 ;    C26 - H36   
    28     75      1 ;    C26 - H45   
    28     76      1 ;    C26 - H46   
    28     77      1 ;    C26 - H47   
    29     66      1 ;    C27 - H36   
    29     72      1 ;    C27 - H42   
    29     73      1 ;    C27 - H43   
    29     74      1 ;    C27 - H44   
    30     31      1 ;      H - H1    
    30     36      1 ;      H - H6    
    30     37      1 ;      H - H7    
    31     32      1 ;     H1 - H2    
    31     42      1 ;     H1 - H12   
    31     43      1 ;     H1 - H13   
    32     38      1 ;     H2 - H8    
    32     39      1 ;     H2 - H9    
    33     40      1 ;     H3 - H10   
    33     41      1 ;     H3 - H11   
    33     44      1 ;     H3 - H14   
    34     38      1 ;     H4 - H8    
    34     39      1 ;     H4 - H9    
    35     38      1 ;     H5 - H8    
    35     39      1 ;     H5 - H9    
    36     40      1 ;     H6 - H10   
    36     41      1 ;     H6 - H11   
    37     40      1 ;     H7 - H10   
    37     41      1 ;     H7 - H11   
    42     50      1 ;    H12 - H20   
    43     50      1 ;    H13 - H20   
    44     58      1 ;    H14 - H28   
    44     59      1 ;    H14 - H29   
    44     61      1 ;    H14 - H31   
    44     62      1 ;    H14 - H32   
    44     63      1 ;    H14 - H33   
    48     56      1 ;    H18 - H26   
    48     57      1 ;    H18 - H27   
    49     56      1 ;    H19 - H26   
    49     57      1 ;    H19 - H27   
    54     60      1 ;    H24 - H30   
    55     60      1 ;    H25 - H30   
    56     60      1 ;    H26 - H30   
    57     60      1 ;    H27 - H30   
    58     64      1 ;    H28 - H34   
    58     65      1 ;    H28 - H35   
    59     64      1 ;    H29 - H34   
    59     65      1 ;    H29 - H35   
    64     66      1 ;    H34 - H36   
    65     66      1 ;    H35 - H36   
    66     68      1 ;    H36 - H38   
    66     69      1 ;    H36 - H39   
    66     70      1 ;    H36 - H40   
    66     71      1 ;    H36 - H41   
    67     19      1 ;    H37 - C17   
    67     20      1 ;    H37 - C18   
    67     60      1 ;    H37 - H30   
    68     72      1 ;    H38 - H42   
    68     73      1 ;    H38 - H43   
    68     74      1 ;    H38 - H44   
    68     75      1 ;    H38 - H45   
    68     76      1 ;    H38 - H46   
    68     77      1 ;    H38 - H47   

[ angles ]
;   ai     aj     ak    funct   theta         cth
     1     22     19      1 ;    1.1005e+02    6.4065e+02 ;      O - C20  - C17      OH -    x - x   
     1     22     20      1 ;    1.1005e+02    6.4065e+02 ;      O - C20  - C18      OH -    x - x   
     1     22     60      1 ;    1.0996e+02    4.7187e+02 ;      O - C20  - H30      OH -    x - HC  
     2      3      4      1 ;    1.1375e+02    4.9589e+02 ;      C - C1   - C2        x -    x - x   
     2      3      9      1 ;    1.0383e+02    5.1748e+02 ;      C - C1   - C7        x -    x - x   
     2      3     30      1 ;    1.1117e+02    3.5690e+02 ;      C - C1   - H         x -    x - HC  
     2      6     11      1 ;    1.0383e+02    5.1748e+02 ;      C - C4   - C9        x -    x - x   
     2      6     13      1 ;    1.1360e+02    4.9647e+02 ;      C - C4   - C11       x -    x - CT  
     2      6     33      1 ;    1.1117e+02    3.5690e+02 ;      C - C4   - H3        x -    x - HC  
     2      7     10      1 ;    1.1104e+02    5.0350e+02 ;      C - C5   - C8        x -    x - x   
     2      7     34      1 ;    1.0934e+02    3.6183e+02 ;      C - C5   - H4        x -    x - HC  
     2      7     35      1 ;    1.0934e+02    3.6183e+02 ;      C - C5   - H5        x -    x - HC  
     2     14     45      1 ;    1.1053e+02    3.6033e+02 ;      C - C12  - H15       x -   CT - HC  
     2     14     46      1 ;    1.1053e+02    3.6033e+02 ;      C - C12  - H16       x -   CT - HC  
     2     14     47      1 ;    1.1053e+02    3.6033e+02 ;      C - C12  - H17       x -   CT - HC  
     3      2      6      1 ;    1.0383e+02    5.1748e+02 ;     C1 - C    - C4        x -    x - x   
     3      2      7      1 ;    1.1375e+02    4.9589e+02 ;     C1 - C    - C5        x -    x - x   
     3      2     14      1 ;    1.1360e+02    4.9647e+02 ;     C1 - C    - C12       x -    x - CT  
     3      4      5      1 ;    1.1104e+02    5.0350e+02 ;     C1 - C2   - C3        x -    x - x   
     3      4     12      1 ;    1.1104e+02    5.0350e+02 ;     C1 - C2   - C10       x -    x - x   
     3      4     31      1 ;    1.0934e+02    3.6183e+02 ;     C1 - C2   - H1        x -    x - HC  
     3      9     11      1 ;    1.0383e+02    5.1748e+02 ;     C1 - C7   - C9        x -    x - x   
     3      9     36      1 ;    1.1117e+02    3.5690e+02 ;     C1 - C7   - H6        x -    x - HC  
     3      9     37      1 ;    1.1117e+02    3.5690e+02 ;     C1 - C7   - H7        x -    x - HC  
     4      3      9      1 ;    1.1375e+02    4.9589e+02 ;     C2 - C1   - C7        x -    x - x   
     4      3     30      1 ;    1.0642e+02    3.6685e+02 ;     C2 - C1   - H         x -    x - HC  
     4      5      8      1 ;    1.1106e+02    5.0359e+02 ;     C2 - C3   - C6        x -    x - x   
     4      5     10      1 ;    1.1106e+02    5.0359e+02 ;     C2 - C3   - C8        x -    x - x   
     4      5     32      1 ;    1.0945e+02    3.6175e+02 ;     C2 - C3   - H2        x -    x - HC  
     4     12     17      1 ;    1.1141e+02    5.0685e+02 ;     C2 - C10  - C15       x -    x - CR  
     4     12     42      1 ;    1.0945e+02    3.6175e+02 ;     C2 - C10  - H12       x -    x - HC  
     4     12     43      1 ;    1.0945e+02    3.6175e+02 ;     C2 - C10  - H13       x -    x - HC  
     5      4     12      1 ;    1.1106e+02    5.0359e+02 ;     C3 - C2   - C10       x -    x - x   
     5      4     31      1 ;    1.0945e+02    3.6175e+02 ;     C3 - C2   - H1        x -    x - HC  
     5      8     15      1 ;    1.1141e+02    5.0685e+02 ;     C3 - C6   - C13       x -    x - CR  
     5      8     16      1 ;    1.1106e+02    5.0359e+02 ;     C3 - C6   - C14       x -    x - x   
     5      8     18      1 ;    1.1143e+02    5.0200e+02 ;     C3 - C6   - C16       x -    x - CT  
     5     10      7      1 ;    1.1106e+02    5.0359e+02 ;     C3 - C8   - C5        x -    x - x   
     5     10     38      1 ;    1.0945e+02    3.6175e+02 ;     C3 - C8   - H8        x -    x - HC  
     5     10     39      1 ;    1.0945e+02    3.6175e+02 ;     C3 - C8   - H9        x -    x - HC  
     6      2      7      1 ;    1.1375e+02    4.9589e+02 ;     C4 - C    - C5        x -    x - x   
     6      2     14      1 ;    1.1360e+02    4.9647e+02 ;     C4 - C    - C12       x -    x - CT  
     6     11      9      1 ;    1.0383e+02    5.1748e+02 ;     C4 - C9   - C7        x -    x - x   
     6     11     40      1 ;    1.1117e+02    3.5690e+02 ;     C4 - C9   - H10       x -    x - HC  
     6     11     41      1 ;    1.1117e+02    3.5690e+02 ;     C4 - C9   - H11       x -    x - HC  
     6     13     21      1 ;    1.1370e+02    4.9840e+02 ;     C4 - C11  - C19       x -   CT - CT  
     6     13     23      1 ;    1.1370e+02    4.9840e+02 ;     C4 - C11  - C21       x -   CT - CT  
     6     13     44      1 ;    1.1053e+02    3.6033e+02 ;     C4 - C11  - H14       x -   CT - HC  
     7      2     14      1 ;    1.1056e+02    5.0484e+02 ;     C5 - C    - C12       x -    x - CT  
     7     10     38      1 ;    1.0945e+02    3.6175e+02 ;     C5 - C8   - H8        x -    x - HC  
     7     10     39      1 ;    1.0945e+02    3.6175e+02 ;     C5 - C8   - H9        x -    x - HC  
     8      5     10      1 ;    1.1106e+02    5.0359e+02 ;     C6 - C3   - C8        x -    x - x   
     8      5     32      1 ;    1.0945e+02    3.6175e+02 ;     C6 - C3   - H2        x -    x - HC  
     8     15     17      1 ;    1.2302e+02    5.1246e+02 ;     C6 - C13  - C15       x -   CR - CR  
     8     15     19      1 ;    1.1596e+02    5.0099e+02 ;     C6 - C13  - C17       x -   CR - x   
     8     16     20      1 ;    1.1106e+02    5.0359e+02 ;     C6 - C14  - C18       x -    x - x   
     8     16     48      1 ;    1.0945e+02    3.6175e+02 ;     C6 - C14  - H18       x -    x - HC  
     8     16     49      1 ;    1.0945e+02    3.6175e+02 ;     C6 - C14  - H19       x -    x - HC  
     8     18     51      1 ;    1.1063e+02    3.5890e+02 ;     C6 - C16  - H21       x -   CT - HC  
     8     18     52      1 ;    1.1063e+02    3.5890e+02 ;     C6 - C16  - H22       x -   CT - HC  
     8     18     53      1 ;    1.1063e+02    3.5890e+02 ;     C6 - C16  - H23       x -   CT - HC  
     9      3     30      1 ;    1.1117e+02    3.5690e+02 ;     C7 - C1   - H         x -    x - HC  
     9     11     40      1 ;    1.1117e+02    3.5690e+02 ;     C7 - C9   - H10       x -    x - HC  
     9     11     41      1 ;    1.1117e+02    3.5690e+02 ;     C7 - C9   - H11       x -    x - HC  
    10      5     32      1 ;    1.0945e+02    3.6175e+02 ;     C8 - C3   - H2        x -    x - HC  
    10      7     34      1 ;    1.0945e+02    3.6175e+02 ;     C8 - C5   - H4        x -    x - HC  
    10      7     35      1 ;    1.0945e+02    3.6175e+02 ;     C8 - C5   - H5        x -    x - HC  
    11      6     13      1 ;    1.1360e+02    4.9647e+02 ;     C9 - C4   - C11       x -    x - CT  
    11      6     33      1 ;    1.1117e+02    3.5690e+02 ;     C9 - C4   - H3        x -    x - HC  
    11      9     36      1 ;    1.1117e+02    3.5690e+02 ;     C9 - C7   - H6        x -    x - HC  
    11      9     37      1 ;    1.1117e+02    3.5690e+02 ;     C9 - C7   - H7        x -    x - HC  
    12      4     31      1 ;    1.0945e+02    3.6175e+02 ;    C10 - C2   - H1        x -    x - HC  
    12     17     15      1 ;    1.2302e+02    5.1246e+02 ;    C10 - C15  - C13       x -   CR - CR  
    12     17     50      1 ;    1.1657e+02    3.5606e+02 ;    C10 - C15  - H20       x -   CR - HA  
    13      6     33      1 ;    1.0779e+02    3.6484e+02 ;    C11 - C4   - H3       CT -    x - HC  
    13     21     24      1 ;    1.1263e+02    5.0099e+02 ;    C11 - C19  - C22      CT -   CT - CT  
    13     21     58      1 ;    1.0968e+02    3.6208e+02 ;    C11 - C19  - H28      CT -   CT - HC  
    13     21     59      1 ;    1.0968e+02    3.6208e+02 ;    C11 - C19  - H29      CT -   CT - HC  
    13     23     61      1 ;    1.0968e+02    3.6208e+02 ;    C11 - C21  - H31      CT -   CT - HC  
    13     23     62      1 ;    1.0968e+02    3.6208e+02 ;    C11 - C21  - H32      CT -   CT - HC  
    13     23     63      1 ;    1.0968e+02    3.6208e+02 ;    C11 - C21  - H33      CT -   CT - HC  
    15      8     16      1 ;    1.1141e+02    5.0685e+02 ;    C13 - C6   - C14      CR -    x - x   
    15      8     18      1 ;    1.0977e+02    5.0986e+02 ;    C13 - C6   - C16      CR -    x - CT  
    15     17     50      1 ;    1.2039e+02    3.8802e+02 ;    C13 - C15  - H20      CR -   CR - HA  
    15     19     22      1 ;    1.1141e+02    5.0685e+02 ;    C13 - C17  - C20      CR -    x - x   
    15     19     54      1 ;    1.0931e+02    3.6736e+02 ;    C13 - C17  - H24      CR -    x - HC  
    15     19     55      1 ;    1.0931e+02    3.6736e+02 ;    C13 - C17  - H25      CR -    x - HC  
    16      8     18      1 ;    1.1143e+02    5.0200e+02 ;    C14 - C6   - C16       x -    x - CT  
    16     20     22      1 ;    1.1106e+02    5.0359e+02 ;    C14 - C18  - C20       x -    x - x   
    16     20     56      1 ;    1.0945e+02    3.6175e+02 ;    C14 - C18  - H26       x -    x - HC  
    16     20     57      1 ;    1.0945e+02    3.6175e+02 ;    C14 - C18  - H27       x -    x - HC  
    17     12     42      1 ;    1.0931e+02    3.6736e+02 ;    C15 - C10  - H12      CR -    x - HC  
    17     12     43      1 ;    1.0931e+02    3.6736e+02 ;    C15 - C10  - H13      CR -    x - HC  
    17     15     19      1 ;    1.2302e+02    5.1246e+02 ;    C15 - C13  - C17      CR -   CR - x   
    19     22     20      1 ;    1.1106e+02    5.0359e+02 ;    C17 - C20  - C18       x -    x - x   
    19     22     60      1 ;    1.0918e+02    3.6217e+02 ;    C17 - C20  - H30       x -    x - HC  
    20     16     48      1 ;    1.0945e+02    3.6175e+02 ;    C18 - C14  - H18       x -    x - HC  
    20     16     49      1 ;    1.0945e+02    3.6175e+02 ;    C18 - C14  - H19       x -    x - HC  
    20     22     60      1 ;    1.0918e+02    3.6217e+02 ;    C18 - C20  - H30       x -    x - HC  
    21     13     23      1 ;    1.1263e+02    5.0099e+02 ;    C19 - C11  - C21      CT -   CT - CT  
    21     13     44      1 ;    1.0968e+02    3.6208e+02 ;    C19 - C11  - H14      CT -   CT - HC  
    21     24     25      1 ;    1.1263e+02    5.0099e+02 ;    C19 - C22  - C23      CT -   CT - CT  
    21     24     64      1 ;    1.0968e+02    3.6208e+02 ;    C19 - C22  - H34      CT -   CT - HC  
    21     24     65      1 ;    1.0968e+02    3.6208e+02 ;    C19 - C22  - H35      CT -   CT - HC  
    22      1     67      1 ;    1.0707e+02    5.4584e+02 ;    C20 - O    - H37       x -   OH - HO  
    22     19     54      1 ;    1.0945e+02    3.6175e+02 ;    C20 - C17  - H24       x -    x - HC  
    22     19     55      1 ;    1.0945e+02    3.6175e+02 ;    C20 - C17  - H25       x -    x - HC  
    22     20     56      1 ;    1.0945e+02    3.6175e+02 ;    C20 - C18  - H26       x -    x - HC  
    22     20     57      1 ;    1.0945e+02    3.6175e+02 ;    C20 - C18  - H27       x -    x - HC  
    23     13     44      1 ;    1.0968e+02    3.6208e+02 ;    C21 - C11  - H14      CT -   CT - HC  
    24     21     58      1 ;    1.0968e+02    3.6208e+02 ;    C22 - C19  - H28      CT -   CT - HC  
    24     21     59      1 ;    1.0968e+02    3.6208e+02 ;    C22 - C19  - H29      CT -   CT - HC  
    24     25     26      1 ;    1.1263e+02    5.0099e+02 ;    C22 - C23  - C24      CT -   CT - CT  
    24     25     27      1 ;    1.1263e+02    5.0099e+02 ;    C22 - C23  - C25      CT -   CT - CT  
    24     25     66      1 ;    1.0968e+02    3.6208e+02 ;    C22 - C23  - H36      CT -   CT - HC  
    25     24     64      1 ;    1.0968e+02    3.6208e+02 ;    C23 - C22  - H34      CT -   CT - HC  
    25     24     65      1 ;    1.0968e+02    3.6208e+02 ;    C23 - C22  - H35      CT -   CT - HC  
    25     26     28      1 ;    1.1263e+02    5.0099e+02 ;    C23 - C24  - C26      CT -   CT - CT  
    25     26     29      1 ;    1.1263e+02    5.0099e+02 ;    C23 - C24  - C27      CT -   CT - CT  
    25     26     68      1 ;    1.0968e+02    3.6208e+02 ;    C23 - C24  - H38      CT -   CT - HC  
    25     27     69      1 ;    1.0968e+02    3.6208e+02 ;    C23 - C25  - H39      CT -   CT - HC  
    25     27     70      1 ;    1.0968e+02    3.6208e+02 ;    C23 - C25  - H40      CT -   CT - HC  
    25     27     71      1 ;    1.0968e+02    3.6208e+02 ;    C23 - C25  - H41      CT -   CT - HC  
    26     25     27      1 ;    1.1263e+02    5.0099e+02 ;    C24 - C23  - C25      CT -   CT - CT  
    26     25     66      1 ;    1.0968e+02    3.6208e+02 ;    C24 - C23  - H36      CT -   CT - HC  
    26     28     72      1 ;    1.0968e+02    3.6208e+02 ;    C24 - C26  - H42      CT -   CT - HC  
    26     28     73      1 ;    1.0968e+02    3.6208e+02 ;    C24 - C26  - H43      CT -   CT - HC  
    26     28     74      1 ;    1.0968e+02    3.6208e+02 ;    C24 - C26  - H44      CT -   CT - HC  
    26     29     75      1 ;    1.0968e+02    3.6208e+02 ;    C24 - C27  - H45      CT -   CT - HC  
    26     29     76      1 ;    1.0968e+02    3.6208e+02 ;    C24 - C27  - H46      CT -   CT - HC  
    26     29     77      1 ;    1.0968e+02    3.6208e+02 ;    C24 - C27  - H47      CT -   CT - HC  
    27     25     66      1 ;    1.0968e+02    3.6208e+02 ;    C25 - C23  - H36      CT -   CT - HC  
    28     26     29      1 ;    1.1263e+02    5.0099e+02 ;    C26 - C24  - C27      CT -   CT - CT  
    28     26     68      1 ;    1.0968e+02    3.6208e+02 ;    C26 - C24  - H38      CT -   CT - HC  
    29     26     68      1 ;    1.0968e+02    3.6208e+02 ;    C27 - C24  - H38      CT -   CT - HC  
    34      7     35      1 ;    1.0662e+02    3.0066e+02 ;     H4 - C5   - H5       HC -    x - HC  
    36      9     37      1 ;    1.0722e+02    3.0049e+02 ;     H6 - C7   - H7       HC -    x - HC  
    38     10     39      1 ;    1.0662e+02    3.0066e+02 ;     H8 - C8   - H9       HC -    x - HC  
    40     11     41      1 ;    1.0722e+02    3.0049e+02 ;    H10 - C9   - H11      HC -    x - HC  
    42     12     43      1 ;    1.0662e+02    3.0066e+02 ;    H12 - C10  - H13      HC -    x - HC  
    45     14     46      1 ;    1.0773e+02    2.9957e+02 ;    H15 - C12  - H16      HC -   CT - HC  
    45     14     47      1 ;    1.0773e+02    2.9957e+02 ;    H15 - C12  - H17      HC -   CT - HC  
    46     14     47      1 ;    1.0773e+02    2.9957e+02 ;    H16 - C12  - H17      HC -   CT - HC  
    48     16     49      1 ;    1.0662e+02    3.0066e+02 ;    H18 - C14  - H19      HC -    x - HC  
    51     18     52      1 ;    1.0773e+02    2.9957e+02 ;    H21 - C16  - H22      HC -   CT - HC  
    51     18     53      1 ;    1.0773e+02    2.9957e+02 ;    H21 - C16  - H23      HC -   CT - HC  
    52     18     53      1 ;    1.0773e+02    2.9957e+02 ;    H22 - C16  - H23      HC -   CT - HC  
    54     19     55      1 ;    1.0662e+02    3.0066e+02 ;    H24 - C17  - H25      HC -    x - HC  
    56     20     57      1 ;    1.0662e+02    3.0066e+02 ;    H26 - C18  - H27      HC -    x - HC  
    58     21     59      1 ;    1.0773e+02    2.9957e+02 ;    H28 - C19  - H29      HC -   CT - HC  
    61     23     62      1 ;    1.0773e+02    2.9957e+02 ;    H31 - C21  - H32      HC -   CT - HC  
    61     23     63      1 ;    1.0773e+02    2.9957e+02 ;    H31 - C21  - H33      HC -   CT - HC  
    62     23     63      1 ;    1.0773e+02    2.9957e+02 ;    H32 - C21  - H33      HC -   CT - HC  
    64     24     65      1 ;    1.0773e+02    2.9957e+02 ;    H34 - C22  - H35      HC -   CT - HC  
    69     27     70      1 ;    1.0773e+02    2.9957e+02 ;    H39 - C25  - H40      HC -   CT - HC  
    69     27     71      1 ;    1.0773e+02    2.9957e+02 ;    H39 - C25  - H41      HC -   CT - HC  
    70     27     71      1 ;    1.0773e+02    2.9957e+02 ;    H40 - C25  - H41      HC -   CT - HC  
    72     28     73      1 ;    1.0773e+02    2.9957e+02 ;    H42 - C26  - H43      HC -   CT - HC  
    72     28     74      1 ;    1.0773e+02    2.9957e+02 ;    H42 - C26  - H44      HC -   CT - HC  
    73     28     74      1 ;    1.0773e+02    2.9957e+02 ;    H43 - C26  - H44      HC -   CT - HC  
    75     29     76      1 ;    1.0773e+02    2.9957e+02 ;    H45 - C27  - H46      HC -   CT - HC  
    75     29     77      1 ;    1.0773e+02    2.9957e+02 ;    H45 - C27  - H47      HC -   CT - HC  
    76     29     77      1 ;    1.0773e+02    2.9957e+02 ;    H46 - C27  - H47      HC -   CT - HC  

[ dihedrals ] ; propers
; for gromacs 4.5 or higher, using funct 9
;    i      j      k      l   func   phase     kd      pn
     1     22     19     15      9 ;     0.00   0.65084   3 ;      O-   C20-   C17-   C13
     1     22     19     54      9 ;     0.00   0.37656   3 ;      O-   C20-   C17-   H24
     1     22     19     55      9 ;     0.00   0.37656   3 ;      O-   C20-   C17-   H25
     1     22     20     16      9 ;     0.00   0.75312   3 ;      O-   C20-   C18-   C14
     1     22     20     56      9 ;     0.00   0.37656   3 ;      O-   C20-   C18-   H26
     1     22     20     57      9 ;     0.00   0.37656   3 ;      O-   C20-   C18-   H27
     2      3      4      5      9 ;     0.00   2.17568   3 ;      C-    C1-    C2-    C3
     2      3      4     12      9 ;     0.00   2.17568   3 ;      C-    C1-    C2-   C10
     2      3      4     31      9 ;     0.00   0.54392   3 ;      C-    C1-    C2-    H1
     2      3      9     11      9 ;     0.00   2.17568   3 ;      C-    C1-    C7-    C9
     2      3      9     36      9 ;     0.00   0.54392   3 ;      C-    C1-    C7-    H6
     2      3      9     37      9 ;     0.00   0.54392   3 ;      C-    C1-    C7-    H7
     2      6     11      9      9 ;     0.00   2.17568   3 ;      C-    C4-    C9-    C7
     2      6     11     40      9 ;     0.00   0.54392   3 ;      C-    C4-    C9-   H10
     2      6     11     41      9 ;     0.00   0.54392   3 ;      C-    C4-    C9-   H11
     2      6     13     21      9 ;     0.00   2.17568   3 ;      C-    C4-   C11-   C19
     2      6     13     23      9 ;     0.00   2.17568   3 ;      C-    C4-   C11-   C21
     2      6     13     44      9 ;     0.00   0.54392   3 ;      C-    C4-   C11-   H14
     2      7     10      5      9 ;     0.00   2.17568   3 ;      C-    C5-    C8-    C3
     2      7     10     38      9 ;     0.00   0.54392   3 ;      C-    C5-    C8-    H8
     2      7     10     39      9 ;     0.00   0.54392   3 ;      C-    C5-    C8-    H9
     3      2      6     11      9 ;     0.00   2.17568   3 ;     C1-     C-    C4-    C9
     3      2      6     13      9 ;     0.00   2.17568   3 ;     C1-     C-    C4-   C11
     3      2      6     33      9 ;     0.00   0.54392   3 ;     C1-     C-    C4-    H3
     3      2      7     10      9 ;     0.00   2.17568   3 ;     C1-     C-    C5-    C8
     3      2      7     34      9 ;     0.00   0.54392   3 ;     C1-     C-    C5-    H4
     3      2      7     35      9 ;     0.00   0.54392   3 ;     C1-     C-    C5-    H5
     3      2     14     45      9 ;     0.00   0.54392   3 ;     C1-     C-   C12-   H15
     3      2     14     46      9 ;     0.00   0.54392   3 ;     C1-     C-   C12-   H16
     3      2     14     47      9 ;     0.00   0.54392   3 ;     C1-     C-   C12-   H17
     3      4      5      8      9 ;     0.00   2.17568   3 ;     C1-    C2-    C3-    C6
     3      4      5     10      9 ;     0.00   2.17568   3 ;     C1-    C2-    C3-    C8
     3      4      5     32      9 ;     0.00   0.54392   3 ;     C1-    C2-    C3-    H2
     3      4     12     17      9 ;     0.00   0.65084   3 ;     C1-    C2-   C10-   C15
     3      4     12     42      9 ;     0.00   0.54392   3 ;     C1-    C2-   C10-   H12
     3      4     12     43      9 ;     0.00   0.54392   3 ;     C1-    C2-   C10-   H13
     3      9     11      6      9 ;     0.00   2.17568   3 ;     C1-    C7-    C9-    C4
     3      9     11     40      9 ;     0.00   0.54392   3 ;     C1-    C7-    C9-   H10
     3      9     11     41      9 ;     0.00   0.54392   3 ;     C1-    C7-    C9-   H11
     4      3      2      6      9 ;     0.00   2.17568   3 ;     C2-    C1-     C-    C4
     4      3      2      7      9 ;     0.00   2.17568   3 ;     C2-    C1-     C-    C5
     4      3      2     14      9 ;     0.00   2.17568   3 ;     C2-    C1-     C-   C12
     4      3      9     11      9 ;     0.00   2.17568   3 ;     C2-    C1-    C7-    C9
     4      3      9     36      9 ;     0.00   0.54392   3 ;     C2-    C1-    C7-    H6
     4      3      9     37      9 ;     0.00   0.54392   3 ;     C2-    C1-    C7-    H7
     4      5      8     15      9 ;     0.00   0.65084   3 ;     C2-    C3-    C6-   C13
     4      5      8     16      9 ;     0.00   2.17568   3 ;     C2-    C3-    C6-   C14
     4      5      8     18      9 ;     0.00   2.17568   3 ;     C2-    C3-    C6-   C16
     4      5     10      7      9 ;     0.00   2.17568   3 ;     C2-    C3-    C8-    C5
     4      5     10     38      9 ;     0.00   0.54392   3 ;     C2-    C3-    C8-    H8
     4      5     10     39      9 ;     0.00   0.54392   3 ;     C2-    C3-    C8-    H9
     4     12     17     15      9 ;     0.00   0.00000   0 ;     C2-   C10-   C15-   C13
     4     12     17     50      9 ;     0.00   0.00000   0 ;     C2-   C10-   C15-   H20
     5      4      3      9      9 ;     0.00   2.17568   3 ;     C3-    C2-    C1-    C7
     5      4      3     30      9 ;     0.00   0.54392   3 ;     C3-    C2-    C1-     H
     5      4     12     17      9 ;     0.00   0.65084   3 ;     C3-    C2-   C10-   C15
     5      4     12     42      9 ;     0.00   0.54392   3 ;     C3-    C2-   C10-   H12
     5      4     12     43      9 ;     0.00   0.54392   3 ;     C3-    C2-   C10-   H13
     5      8     15     17      9 ;     0.00   0.00000   0 ;     C3-    C6-   C13-   C15
     5      8     15     19      9 ;     0.00   0.00000   0 ;     C3-    C6-   C13-   C17
     5      8     16     20      9 ;     0.00   2.17568   3 ;     C3-    C6-   C14-   C18
     5      8     16     48      9 ;     0.00   0.54392   3 ;     C3-    C6-   C14-   H18
     5      8     16     49      9 ;     0.00   0.54392   3 ;     C3-    C6-   C14-   H19
     5      8     18     51      9 ;     0.00   0.54392   3 ;     C3-    C6-   C16-   H21
     5      8     18     52      9 ;     0.00   0.54392   3 ;     C3-    C6-   C16-   H22
     5      8     18     53      9 ;     0.00   0.54392   3 ;     C3-    C6-   C16-   H23
     5     10      7     34      9 ;     0.00   0.54392   3 ;     C3-    C8-    C5-    H4
     5     10      7     35      9 ;     0.00   0.54392   3 ;     C3-    C8-    C5-    H5
     6      2      3      9      9 ;     0.00   2.17568   3 ;     C4-     C-    C1-    C7
     6      2      3     30      9 ;     0.00   0.54392   3 ;     C4-     C-    C1-     H
     6      2      7     10      9 ;     0.00   2.17568   3 ;     C4-     C-    C5-    C8
     6      2      7     34      9 ;     0.00   0.54392   3 ;     C4-     C-    C5-    H4
     6      2      7     35      9 ;     0.00   0.54392   3 ;     C4-     C-    C5-    H5
     6      2     14     45      9 ;     0.00   0.54392   3 ;     C4-     C-   C12-   H15
     6      2     14     46      9 ;     0.00   0.54392   3 ;     C4-     C-   C12-   H16
     6      2     14     47      9 ;     0.00   0.54392   3 ;     C4-     C-   C12-   H17
     6     11      9     36      9 ;     0.00   0.54392   3 ;     C4-    C9-    C7-    H6
     6     11      9     37      9 ;     0.00   0.54392   3 ;     C4-    C9-    C7-    H7
     6     13     21     24      9 ;     0.00   2.17568   3 ;     C4-   C11-   C19-   C22
     6     13     21     58      9 ;     0.00   0.54392   3 ;     C4-   C11-   C19-   H28
     6     13     21     59      9 ;     0.00   0.54392   3 ;     C4-   C11-   C19-   H29
     6     13     23     61      9 ;     0.00   0.54392   3 ;     C4-   C11-   C21-   H31
     6     13     23     62      9 ;     0.00   0.54392   3 ;     C4-   C11-   C21-   H32
     6     13     23     63      9 ;     0.00   0.54392   3 ;     C4-   C11-   C21-   H33
     7      2      3      9      9 ;     0.00   2.17568   3 ;     C5-     C-    C1-    C7
     7      2      3     30      9 ;     0.00   0.54392   3 ;     C5-     C-    C1-     H
     7      2      6     11      9 ;     0.00   2.17568   3 ;     C5-     C-    C4-    C9
     7      2      6     13      9 ;     0.00   2.17568   3 ;     C5-     C-    C4-   C11
     7      2      6     33      9 ;     0.00   0.54392   3 ;     C5-     C-    C4-    H3
     7      2     14     45      9 ;     0.00   0.54392   3 ;     C5-     C-   C12-   H15
     7      2     14     46      9 ;     0.00   0.54392   3 ;     C5-     C-   C12-   H16
     7      2     14     47      9 ;     0.00   0.54392   3 ;     C5-     C-   C12-   H17
     7     10      5      8      9 ;     0.00   2.17568   3 ;     C5-    C8-    C3-    C6
     7     10      5     32      9 ;     0.00   0.54392   3 ;     C5-    C8-    C3-    H2
     8      5      4     12      9 ;     0.00   2.17568   3 ;     C6-    C3-    C2-   C10
     8      5      4     31      9 ;     0.00   0.54392   3 ;     C6-    C3-    C2-    H1
     8      5     10     38      9 ;     0.00   0.54392   3 ;     C6-    C3-    C8-    H8
     8      5     10     39      9 ;     0.00   0.54392   3 ;     C6-    C3-    C8-    H9
     8     15     17     12      9 ;     0.00   0.62760   1 ;     C6-   C13-   C15-   C10
     8     15     17     12      9 ;   180.00   5.56472   3 ;     C6-   C13-   C15-   C10
     8     15     17     12      9 ;   180.00  24.18352   2 ;     C6-   C13-   C15-   C10
     8     15     17     50      9 ;   180.00  27.82360   2 ;     C6-   C13-   C15-   H20
     8     15     19     22      9 ;     0.00   0.00000   0 ;     C6-   C13-   C17-   C20
     8     15     19     54      9 ;     0.00   0.62760   3 ;     C6-   C13-   C17-   H24
     8     15     19     55      9 ;     0.00   0.62760   3 ;     C6-   C13-   C17-   H25
     8     16     20     22      9 ;     0.00   2.17568   3 ;     C6-   C14-   C18-   C20
     8     16     20     56      9 ;     0.00   0.54392   3 ;     C6-   C14-   C18-   H26
     8     16     20     57      9 ;     0.00   0.54392   3 ;     C6-   C14-   C18-   H27
     9      3      2     14      9 ;     0.00   2.17568   3 ;     C7-    C1-     C-   C12
     9      3      4     12      9 ;     0.00   2.17568   3 ;     C7-    C1-    C2-   C10
     9      3      4     31      9 ;     0.00   0.54392   3 ;     C7-    C1-    C2-    H1
     9     11      6     13      9 ;     0.00   2.17568   3 ;     C7-    C9-    C4-   C11
     9     11      6     33      9 ;     0.00   0.54392   3 ;     C7-    C9-    C4-    H3
    10      5      4     12      9 ;     0.00   2.17568   3 ;     C8-    C3-    C2-   C10
    10      5      4     31      9 ;     0.00   0.54392   3 ;     C8-    C3-    C2-    H1
    10      5      8     15      9 ;     0.00   0.65084   3 ;     C8-    C3-    C6-   C13
    10      5      8     16      9 ;     0.00   2.17568   3 ;     C8-    C3-    C6-   C14
    10      5      8     18      9 ;     0.00   2.17568   3 ;     C8-    C3-    C6-   C16
    10      7      2     14      9 ;     0.00   2.17568   3 ;     C8-    C5-     C-   C12
    11      6      2     14      9 ;     0.00   2.17568   3 ;     C9-    C4-     C-   C12
    11      6     13     21      9 ;     0.00   2.17568   3 ;     C9-    C4-   C11-   C19
    11      6     13     23      9 ;     0.00   2.17568   3 ;     C9-    C4-   C11-   C21
    11      6     13     44      9 ;     0.00   0.54392   3 ;     C9-    C4-   C11-   H14
    11      9      3     30      9 ;     0.00   0.54392   3 ;     C9-    C7-    C1-     H
    12      4      3     30      9 ;     0.00   0.54392   3 ;    C10-    C2-    C1-     H
    12      4      5     32      9 ;     0.00   0.54392   3 ;    C10-    C2-    C3-    H2
    12     17     15     19      9 ;     0.00   0.62760   1 ;    C10-   C15-   C13-   C17
    12     17     15     19      9 ;   180.00   5.56472   3 ;    C10-   C15-   C13-   C17
    12     17     15     19      9 ;   180.00  24.18352   2 ;    C10-   C15-   C13-   C17
    13      6      2     14      9 ;     0.00   2.17568   3 ;    C11-    C4-     C-   C12
    13      6     11     40      9 ;     0.00   0.54392   3 ;    C11-    C4-    C9-   H10
    13      6     11     41      9 ;     0.00   0.54392   3 ;    C11-    C4-    C9-   H11
    13     21     24     25      9 ;     0.00   2.17568   3 ;    C11-   C19-   C22-   C23
    13     21     24     64      9 ;     0.00   0.54392   3 ;    C11-   C19-   C22-   H34
    13     21     24     65      9 ;     0.00   0.54392   3 ;    C11-   C19-   C22-   H35
    14      2      3     30      9 ;     0.00   0.54392   3 ;    C12-     C-    C1-     H
    14      2      6     33      9 ;     0.00   0.54392   3 ;    C12-     C-    C4-    H3
    14      2      7     34      9 ;     0.00   0.54392   3 ;    C12-     C-    C5-    H4
    14      2      7     35      9 ;     0.00   0.54392   3 ;    C12-     C-    C5-    H5
    15      8      5     32      9 ;     0.00   0.65084   3 ;    C13-    C6-    C3-    H2
    15      8     16     20      9 ;     0.00   0.65084   3 ;    C13-    C6-   C14-   C18
    15      8     16     48      9 ;     0.00   0.65084   3 ;    C13-    C6-   C14-   H18
    15      8     16     49      9 ;     0.00   0.65084   3 ;    C13-    C6-   C14-   H19
    15      8     18     51      9 ;     0.00   0.65084   3 ;    C13-    C6-   C16-   H21
    15      8     18     52      9 ;     0.00   0.65084   3 ;    C13-    C6-   C16-   H22
    15      8     18     53      9 ;     0.00   0.65084   3 ;    C13-    C6-   C16-   H23
    15     17     12     42      9 ;   180.00   1.08784   3 ;    C13-   C15-   C10-   H12
    15     17     12     43      9 ;   180.00   1.08784   3 ;    C13-   C15-   C10-   H13
    15     19     22     20      9 ;     0.00   0.65084   3 ;    C13-   C17-   C20-   C18
    15     19     22     60      9 ;     0.00   0.65084   3 ;    C13-   C17-   C20-   H30
    16      8      5     32      9 ;     0.00   0.54392   3 ;    C14-    C6-    C3-    H2
    16      8     15     17      9 ;     0.00   0.00000   0 ;    C14-    C6-   C13-   C15
    16      8     15     19      9 ;     0.00   0.00000   0 ;    C14-    C6-   C13-   C17
    16      8     18     51      9 ;     0.00   0.54392   3 ;    C14-    C6-   C16-   H21
    16      8     18     52      9 ;     0.00   0.54392   3 ;    C14-    C6-   C16-   H22
    16      8     18     53      9 ;     0.00   0.54392   3 ;    C14-    C6-   C16-   H23
    16     20     22     19      9 ;     0.00   2.17568   3 ;    C14-   C18-   C20-   C17
    16     20     22     60      9 ;     0.00   0.65084   3 ;    C14-   C18-   C20-   H30
    17     12      4     31      9 ;     0.00   0.65084   3 ;    C15-   C10-    C2-    H1
    17     15      8     18      9 ;     0.00   0.00000   0 ;    C15-   C13-    C6-   C16
    17     15     19     22      9 ;     0.00   0.00000   0 ;    C15-   C13-   C17-   C20
    17     15     19     54      9 ;   180.00   1.08784   3 ;    C15-   C13-   C17-   H24
    17     15     19     55      9 ;   180.00   1.08784   3 ;    C15-   C13-   C17-   H25
    18      8      5     32      9 ;     0.00   0.54392   3 ;    C16-    C6-    C3-    H2
    18      8     15     19      9 ;     0.00   0.00000   0 ;    C16-    C6-   C13-   C17
    18      8     16     20      9 ;     0.00   2.17568   3 ;    C16-    C6-   C14-   C18
    18      8     16     48      9 ;     0.00   0.54392   3 ;    C16-    C6-   C14-   H18
    18      8     16     49      9 ;     0.00   0.54392   3 ;    C16-    C6-   C14-   H19
    19     15     17     50      9 ;   180.00  27.82360   2 ;    C17-   C13-   C15-   H20
    19     22     20     56      9 ;     0.00   0.54392   3 ;    C17-   C20-   C18-   H26
    19     22     20     57      9 ;     0.00   0.54392   3 ;    C17-   C20-   C18-   H27
    20     22     19     54      9 ;     0.00   0.54392   3 ;    C18-   C20-   C17-   H24
    20     22     19     55      9 ;     0.00   0.54392   3 ;    C18-   C20-   C17-   H25
    21     13      6     33      9 ;     0.00   0.54392   3 ;    C19-   C11-    C4-    H3
    21     13     23     61      9 ;     0.00   0.54392   3 ;    C19-   C11-   C21-   H31
    21     13     23     62      9 ;     0.00   0.54392   3 ;    C19-   C11-   C21-   H32
    21     13     23     63      9 ;     0.00   0.54392   3 ;    C19-   C11-   C21-   H33
    21     24     25     26      9 ;     0.00   2.17568   3 ;    C19-   C22-   C23-   C24
    21     24     25     27      9 ;     0.00   2.17568   3 ;    C19-   C22-   C23-   C25
    21     24     25     66      9 ;     0.00   0.54392   3 ;    C19-   C22-   C23-   H36
    22     20     16     48      9 ;     0.00   0.54392   3 ;    C20-   C18-   C14-   H18
    22     20     16     49      9 ;     0.00   0.54392   3 ;    C20-   C18-   C14-   H19
    23     13      6     33      9 ;     0.00   0.54392   3 ;    C21-   C11-    C4-    H3
    23     13     21     24      9 ;     0.00   2.17568   3 ;    C21-   C11-   C19-   C22
    23     13     21     58      9 ;     0.00   0.54392   3 ;    C21-   C11-   C19-   H28
    23     13     21     59      9 ;     0.00   0.54392   3 ;    C21-   C11-   C19-   H29
    24     21     13     44      9 ;     0.00   0.54392   3 ;    C22-   C19-   C11-   H14
    24     25     26     28      9 ;     0.00   2.17568   3 ;    C22-   C23-   C24-   C26
    24     25     26     29      9 ;     0.00   2.17568   3 ;    C22-   C23-   C24-   C27
    24     25     26     68      9 ;     0.00   0.54392   3 ;    C22-   C23-   C24-   H38
    24     25     27     69      9 ;     0.00   0.54392   3 ;    C22-   C23-   C25-   H39
    24     25     27     70      9 ;     0.00   0.54392   3 ;    C22-   C23-   C25-   H40
    24     25     27     71      9 ;     0.00   0.54392   3 ;    C22-   C23-   C25-   H41
    25     24     21     58      9 ;     0.00   0.54392   3 ;    C23-   C22-   C19-   H28
    25     24     21     59      9 ;     0.00   0.54392   3 ;    C23-   C22-   C19-   H29
    25     26     28     72      9 ;     0.00   0.54392   3 ;    C23-   C24-   C26-   H42
    25     26     28     73      9 ;     0.00   0.54392   3 ;    C23-   C24-   C26-   H43
    25     26     28     74      9 ;     0.00   0.54392   3 ;    C23-   C24-   C26-   H44
    25     26     29     75      9 ;     0.00   0.54392   3 ;    C23-   C24-   C27-   H45
    25     26     29     76      9 ;     0.00   0.54392   3 ;    C23-   C24-   C27-   H46
    25     26     29     77      9 ;     0.00   0.54392   3 ;    C23-   C24-   C27-   H47
    26     25     24     64      9 ;     0.00   0.54392   3 ;    C24-   C23-   C22-   H34
    26     25     24     65      9 ;     0.00   0.54392   3 ;    C24-   C23-   C22-   H35
    26     25     27     69      9 ;     0.00   0.54392   3 ;    C24-   C23-   C25-   H39
    26     25     27     70      9 ;     0.00   0.54392   3 ;    C24-   C23-   C25-   H40
    26     25     27     71      9 ;     0.00   0.54392   3 ;    C24-   C23-   C25-   H41
    27     25     24     64      9 ;     0.00   0.54392   3 ;    C25-   C23-   C22-   H34
    27     25     24     65      9 ;     0.00   0.54392   3 ;    C25-   C23-   C22-   H35
    27     25     26     28      9 ;     0.00   2.17568   3 ;    C25-   C23-   C24-   C26
    27     25     26     29      9 ;     0.00   2.17568   3 ;    C25-   C23-   C24-   C27
    27     25     26     68      9 ;     0.00   0.54392   3 ;    C25-   C23-   C24-   H38
    28     26     25     66      9 ;     0.00   0.54392   3 ;    C26-   C24-   C23-   H36
    28     26     29     75      9 ;     0.00   0.54392   3 ;    C26-   C24-   C27-   H45
    28     26     29     76      9 ;     0.00   0.54392   3 ;    C26-   C24-   C27-   H46
    28     26     29     77      9 ;     0.00   0.54392   3 ;    C26-   C24-   C27-   H47
    29     26     25     66      9 ;     0.00   0.54392   3 ;    C27-   C24-   C23-   H36
    29     26     28     72      9 ;     0.00   0.54392   3 ;    C27-   C24-   C26-   H42
    29     26     28     73      9 ;     0.00   0.54392   3 ;    C27-   C24-   C26-   H43
    29     26     28     74      9 ;     0.00   0.54392   3 ;    C27-   C24-   C26-   H44
    30      3      4     31      9 ;     0.00   0.50208   3 ;      H-    C1-    C2-    H1
    30      3      9     36      9 ;     0.00   0.50208   3 ;      H-    C1-    C7-    H6
    30      3      9     37      9 ;     0.00   0.50208   3 ;      H-    C1-    C7-    H7
    31      4      5     32      9 ;     0.00   0.50208   3 ;     H1-    C2-    C3-    H2
    31      4     12     42      9 ;     0.00   0.50208   3 ;     H1-    C2-   C10-   H12
    31      4     12     43      9 ;     0.00   0.50208   3 ;     H1-    C2-   C10-   H13
    32      5     10     38      9 ;     0.00   0.50208   3 ;     H2-    C3-    C8-    H8
    32      5     10     39      9 ;     0.00   0.50208   3 ;     H2-    C3-    C8-    H9
    33      6     11     40      9 ;     0.00   0.50208   3 ;     H3-    C4-    C9-   H10
    33      6     11     41      9 ;     0.00   0.50208   3 ;     H3-    C4-    C9-   H11
    33      6     13     44      9 ;     0.00   0.50208   3 ;     H3-    C4-   C11-   H14
    34      7     10     38      9 ;     0.00   0.50208   3 ;     H4-    C5-    C8-    H8
    34      7     10     39      9 ;     0.00   0.50208   3 ;     H4-    C5-    C8-    H9
    35      7     10     38      9 ;     0.00   0.50208   3 ;     H5-    C5-    C8-    H8
    35      7     10     39      9 ;     0.00   0.50208   3 ;     H5-    C5-    C8-    H9
    36      9     11     40      9 ;     0.00   0.50208   3 ;     H6-    C7-    C9-   H10
    36      9     11     41      9 ;     0.00   0.50208   3 ;     H6-    C7-    C9-   H11
    37      9     11     40      9 ;     0.00   0.50208   3 ;     H7-    C7-    C9-   H10
    37      9     11     41      9 ;     0.00   0.50208   3 ;     H7-    C7-    C9-   H11
    42     12     17     50      9 ;     0.00   0.00000   0 ;    H12-   C10-   C15-   H20
    43     12     17     50      9 ;     0.00   0.00000   0 ;    H13-   C10-   C15-   H20
    44     13     21     58      9 ;     0.00   0.50208   3 ;    H14-   C11-   C19-   H28
    44     13     21     59      9 ;     0.00   0.50208   3 ;    H14-   C11-   C19-   H29
    44     13     23     61      9 ;     0.00   0.50208   3 ;    H14-   C11-   C21-   H31
    44     13     23     62      9 ;     0.00   0.50208   3 ;    H14-   C11-   C21-   H32
    44     13     23     63      9 ;     0.00   0.50208   3 ;    H14-   C11-   C21-   H33
    48     16     20     56      9 ;     0.00   0.50208   3 ;    H18-   C14-   C18-   H26
    48     16     20     57      9 ;     0.00   0.50208   3 ;    H18-   C14-   C18-   H27
    49     16     20     56      9 ;     0.00   0.50208   3 ;    H19-   C14-   C18-   H26
    49     16     20     57      9 ;     0.00   0.50208   3 ;    H19-   C14-   C18-   H27
    54     19     22     60      9 ;     0.00   0.65084   3 ;    H24-   C17-   C20-   H30
    55     19     22     60      9 ;     0.00   0.65084   3 ;    H25-   C17-   C20-   H30
    56     20     22     60      9 ;     0.00   0.65084   3 ;    H26-   C18-   C20-   H30
    57     20     22     60      9 ;     0.00   0.65084   3 ;    H27-   C18-   C20-   H30
    58     21     24     64      9 ;     0.00   0.50208   3 ;    H28-   C19-   C22-   H34
    58     21     24     65      9 ;     0.00   0.50208   3 ;    H28-   C19-   C22-   H35
    59     21     24     64      9 ;     0.00   0.50208   3 ;    H29-   C19-   C22-   H34
    59     21     24     65      9 ;     0.00   0.50208   3 ;    H29-   C19-   C22-   H35
    64     24     25     66      9 ;     0.00   0.50208   3 ;    H34-   C22-   C23-   H36
    65     24     25     66      9 ;     0.00   0.50208   3 ;    H35-   C22-   C23-   H36
    66     25     26     68      9 ;     0.00   0.50208   3 ;    H36-   C23-   C24-   H38
    66     25     27     69      9 ;     0.00   0.50208   3 ;    H36-   C23-   C25-   H39
    66     25     27     70      9 ;     0.00   0.50208   3 ;    H36-   C23-   C25-   H40
    66     25     27     71      9 ;     0.00   0.50208   3 ;    H36-   C23-   C25-   H41
    67      1     22     19      9 ;     0.00   0.25104   3 ;    H37-     O-   C20-   C17
    67      1     22     20      9 ;     0.00   0.25104   3 ;    H37-     O-   C20-   C18
    67      1     22     60      9 ;     0.00   0.51463   3 ;    H37-     O-   C20-   H30
    68     26     28     72      9 ;     0.00   0.50208   3 ;    H38-   C24-   C26-   H42
    68     26     28     73      9 ;     0.00   0.50208   3 ;    H38-   C24-   C26-   H43
    68     26     28     74      9 ;     0.00   0.50208   3 ;    H38-   C24-   C26-   H44
    68     26     29     75      9 ;     0.00   0.50208   3 ;    H38-   C24-   C27-   H45
    68     26     29     76      9 ;     0.00   0.50208   3 ;    H38-   C24-   C27-   H46
    68     26     29     77      9 ;     0.00   0.50208   3 ;    H38-   C24-   C27-   H47

[ dihedrals ] ; impropers
; treated as propers in GROMACS to use correct AMBER analytical function
;    i      j      k      l   func   phase     kd      pn
    15     12     17     50      4 ;   180.00   4.60240   2 ;    C13-   C10-   C15-   H20
    17      8     15     19      4 ;   180.00   4.60240   2 ;    C15-    C6-   C13-   C17
