173183
    77
   7.9590000   0.2880000   1.3190000  -0.5030000   0.2290000  -0.8790000
   0.2460000  -1.0010000  -0.3280000   1.7620000  -0.9340000  -0.5430000
   2.3260000   0.3500000   0.1320000  -1.9550000  -0.1990000  -0.5550000
  -0.0050000   1.4570000  -0.1050000   3.8850000   0.4860000  -0.0960000
  -0.5260000  -2.1840000  -0.9030000   1.5180000   1.6260000  -0.2340000
  -1.9880000  -1.6990000  -0.9330000   2.4480000  -2.1800000   0.0350000
  -3.0650000   0.6040000  -1.2170000  -0.3130000   0.4520000  -2.4010000
   4.5890000  -0.8600000   0.1300000   4.4380000   1.5270000   0.9230000
   3.9270000  -2.0280000   0.1980000   4.2050000   0.9570000  -1.5350000
   6.0920000  -0.8350000   0.2870000   5.9630000   1.5710000   1.0140000
  -4.4430000   0.0260000  -0.8280000   6.5380000   0.1940000   1.3220000
  -2.9380000   2.0840000  -0.8450000  -4.6870000  -0.0150000   0.6850000
  -6.0730000  -0.5790000   1.0800000  -7.2650000   0.1090000   0.3560000
  -6.1960000  -0.5520000   2.6110000  -8.6100000  -0.5180000   0.7430000
  -7.3280000   1.6250000   0.5660000   0.0880000  -1.0380000   0.7630000
   1.9750000  -0.9070000  -1.6170000   2.1720000   0.2110000   1.2140000
  -2.0560000  -0.1290000   0.5360000  -0.2590000   1.3660000   0.9590000
  -0.4490000   2.3890000  -0.4540000  -0.4180000  -3.0820000  -0.2870000
  -0.1860000  -2.4330000  -1.9140000   1.7420000   1.9420000  -1.2580000
   1.8230000   2.4540000   0.4150000  -2.4050000  -1.8670000  -1.9320000
  -2.5970000  -2.2660000  -0.2210000   2.2540000  -3.0340000  -0.6250000
   2.0260000  -2.4350000   1.0150000  -2.9980000   0.5260000  -2.3100000
  -0.7950000   1.3760000  -2.7340000   0.7390000   0.5370000  -2.6840000
  -0.7320000  -0.3640000  -2.9970000   4.0480000   1.3030000   1.9250000
   4.0810000   2.5330000   0.6720000   4.4780000  -2.9470000   0.3820000
   3.7400000   0.3110000  -2.2870000   3.8610000   1.9800000  -1.7120000
   5.2800000   0.9590000  -1.7430000   6.4840000  -1.8190000   0.5750000
   6.5600000  -0.6190000  -0.6820000   6.3940000   1.9630000   0.0840000
   6.2670000   2.2790000   1.7950000  -5.2020000   0.6440000  -1.3200000
  -4.5630000  -0.9820000  -1.2420000   6.2250000  -0.1190000   2.3260000
  -3.8860000   2.6020000  -1.0340000  -2.2050000   2.5980000  -1.4700000
  -2.6990000   2.2350000   0.2120000  -3.9410000  -0.6530000   1.1710000
  -4.5650000   0.9870000   1.1120000  -6.0840000  -1.6370000   0.7800000
   8.3110000  -0.5960000   1.5210000  -7.1550000  -0.0700000  -0.7200000
  -7.1010000  -1.0620000   2.9520000  -6.2100000   0.4720000   2.9980000
  -5.3470000  -1.0680000   3.0740000  -8.5790000  -1.6070000   0.6350000
  -9.4070000  -0.1440000   0.0910000  -8.8920000  -0.2790000   1.7730000
  -8.1640000   2.0540000   0.0020000  -7.4770000   1.8810000   1.6200000
  -6.4180000   2.1220000   0.2200000
