; campesterol_GMX_OPLS.top created by acpype (v: 2023.10.27) on Mon Feb  9 17:34:41 2026

; Include forcefield parameters
#include "ffoplsaa.itp"

; Include campesterol_GMX.itp topology
#include "campesterol_GMX.itp"

; Ligand position restraints
#ifdef POSRES_LIG
#include "posre_campesterol.itp"
#endif

[ system ]
 campesterol

[ molecules ]
; Compound        nmols
 campesterol      1     
