%VERSION  VERSION_STAMP = V0001.000  DATE = 02/09/26  17:24:45                  
%FLAG TITLE                                                                     
%FORMAT(20a4)                                                                   
190                                                                             
%FLAG POINTERS                                                                  
%FORMAT(10I8)                                                                   
      15       6       5      11       9      15      16      23       0       0
      67       1      11      15      23      11      19       7       8       0
       0       0       0       0       0       0       0       0      15       0
       0
%FLAG ATOM_NAME                                                                 
%FORMAT(20a4)                                                                   
N   N1  N2  N3  N4  C   C1  C2  C3  C4  H   H1  H2  H3  H4  
%FLAG CHARGE                                                                    
%FORMAT(5E16.8)                                                                 
 -4.77970929E+00 -1.14016931E+01 -1.18991619E+01 -1.36485027E+01 -1.67371825E+01
 -6.57460584E+00  1.04286223E+01  1.21579186E+01  7.93945611E+00  1.17697836E+01
  5.64344631E+00  1.36302804E+00  1.04049333E+00  7.33994244E+00  7.33994244E+00
%FLAG ATOMIC_NUMBER                                                             
%FORMAT(10I8)                                                                   
       7       7       7       7       7       6       6       6       6       6
       1       1       1       1       1
%FLAG MASS                                                                      
%FORMAT(5E16.8)                                                                 
  1.40100000E+01  1.40100000E+01  1.40100000E+01  1.40100000E+01  1.40100000E+01
  1.20100000E+01  1.20100000E+01  1.20100000E+01  1.20100000E+01  1.20100000E+01
  1.00800000E+00  1.00800000E+00  1.00800000E+00  1.00800000E+00  1.00800000E+00
%FLAG ATOM_TYPE_INDEX                                                           
%FORMAT(10I8)                                                                   
       1       2       2       2       3       4       4       4       4       4
       5       6       6       5       5
%FLAG NUMBER_EXCLUDED_ATOMS                                                     
%FORMAT(10I8)                                                                   
      10       8       7       8       6       8       6       6       2       1
       1       1       1       1       1
%FLAG NONBONDED_PARM_INDEX                                                      
%FORMAT(10I8)                                                                   
       1       2       4       7      11      16       2       3       5       8
      12      17       4       5       6       9      13      18       7       8
       9      10      14      19      11      12      13      14      15      20
      16      17      18      19      20      21
%FLAG RESIDUE_LABEL                                                             
%FORMAT(20a4)                                                                   
UNL 
%FLAG RESIDUE_POINTER                                                           
%FORMAT(10I8)                                                                   
       1
%FLAG BOND_FORCE_CONSTANT                                                       
%FORMAT(5E16.8)                                                                 
  3.29320000E+02  3.32450000E+02  4.81770000E+02  3.29990000E+02  4.17790000E+02
  3.86490000E+02  3.42300000E+02  4.77540000E+02  3.54250000E+02  3.66810000E+02
  3.57590000E+02
%FLAG BOND_EQUIL_VALUE                                                          
%FORMAT(5E16.8)                                                                 
  1.38580000E+00  1.38300000E+00  1.00950000E+00  1.38520000E+00  1.31710000E+00
  1.33920000E+00  1.37440000E+00  1.01140000E+00  1.39860000E+00  1.08210000E+00
  1.08800000E+00
%FLAG ANGLE_FORCE_CONSTANT                                                      
%FORMAT(5E16.8)                                                                 
  6.78200000E+01  7.65100000E+01  4.79400000E+01  7.14900000E+01  6.74000000E+01
  4.88900000E+01  6.81700000E+01  7.27600000E+01  5.01600000E+01  7.49600000E+01
  6.79100000E+01  8.35100000E+01  5.52700000E+01  8.73200000E+01  8.31500000E+01
  6.36700000E+01  5.77100000E+01  5.54300000E+01  4.63600000E+01
%FLAG ANGLE_EQUIL_VALUE                                                         
%FORMAT(5E16.8)                                                                 
  2.09980652E+00  1.97257197E+00  2.10888224E+00  2.22197962E+00  2.12703367E+00
  2.18672396E+00  2.14570870E+00  2.22180509E+00  2.02091761E+00  2.03802184E+00
  2.11080210E+00  1.89839544E+00  2.19056368E+00  1.81811026E+00  2.04622489E+00
  2.09474507E+00  2.03732371E+00  2.18585129E+00  2.01201642E+00
%FLAG DIHEDRAL_FORCE_CONSTANT                                                   
%FORMAT(5E16.8)                                                                 
  3.62500000E+00  4.75000000E+00  4.80000000E+00  1.70000000E+00  1.05000000E+00
  3.00000000E-01  1.10000000E+00
%FLAG DIHEDRAL_PERIODICITY                                                      
%FORMAT(5E16.8)                                                                 
  2.00000000E+00  2.00000000E+00  2.00000000E+00  2.00000000E+00  2.00000000E+00
  2.00000000E+00  2.00000000E+00
%FLAG DIHEDRAL_PHASE                                                            
%FORMAT(5E16.8)                                                                 
  3.14159400E+00  3.14159400E+00  3.14159400E+00  3.14159400E+00  3.14159400E+00
  3.14159400E+00  3.14159400E+00
%FLAG SCEE_SCALE_FACTOR                                                         
%FORMAT(5E16.8)                                                                 
  1.20000000E+00  1.20000000E+00  1.20000000E+00  1.20000000E+00  1.20000000E+00
  1.20000000E+00  0.00000000E+00
%FLAG SCNB_SCALE_FACTOR                                                         
%FORMAT(5E16.8)                                                                 
  2.00000000E+00  2.00000000E+00  2.00000000E+00  2.00000000E+00  2.00000000E+00
  2.00000000E+00  0.00000000E+00
%FLAG SOLTY                                                                     
%FORMAT(5E16.8)                                                                 
  0.00000000E+00  0.00000000E+00  0.00000000E+00  0.00000000E+00  0.00000000E+00
  0.00000000E+00  0.00000000E+00  0.00000000E+00
%FLAG LENNARD_JONES_ACOEF                                                       
%FORMAT(5E16.8)                                                                 
  9.62429652E+05  9.08092643E+05  8.49322032E+05  9.62159465E+05  9.00584118E+05
  9.54875571E+05  8.20152428E+05  7.69642101E+05  8.15855629E+05  6.96551276E+05
  1.82491629E+03  2.01475241E+03  2.10567903E+03  1.71458823E+03  1.34728399E-01
  5.96470418E+04  5.87815925E+04  6.20446596E+04  5.22195041E+04  5.02830284E+01
  2.97255425E+03
%FLAG LENNARD_JONES_BCOEF                                                       
%FORMAT(5E16.8)                                                                 
  8.86629877E+02  7.09588248E+02  5.65406768E+02  7.62907640E+02  6.08126668E+02
  6.54052181E+02  6.82622272E+02  5.44830041E+02  5.85909304E+02  5.24668528E+02
  1.81620725E+01  1.57231024E+01  1.67892226E+01  1.46824710E+01  7.34107347E-02
  1.16962018E+02  9.56653235E+01  1.02658089E+02  9.12729468E+01  1.59752321E+00
  1.38359132E+01
%FLAG BONDS_INC_HYDROGEN                                                        
%FORMAT(10I8)                                                                   
       0      30       3      12      39       8      12      42       8      24
      33      10      27      36      11
%FLAG BONDS_WITHOUT_HYDROGEN                                                    
%FORMAT(10I8)                                                                   
       0      15       1       0      24       2       3      18       4       3
      24       5       6      18       6       6      27       6       9      21
       6       9      27       6      12      21       7      15      18       9
      15      21       9
%FLAG ANGLES_INC_HYDROGEN                                                       
%FORMAT(10I8)                                                                   
       0      24      33       3       3      24      33       6       6      27
      36       9       9      27      36       9      15       0      30      13
      21      12      39      17      21      12      42      17      24       0
      30      18      39      12      42      19
%FLAG ANGLES_WITHOUT_HYDROGEN                                                   
%FORMAT(10I8)                                                                   
       0      15      18       1       0      15      21       1       0      24
       3       2       3      18       6       4       3      18      15       5
       6      18      15       7       6      27       9       8       9      21
      12      10       9      21      15       7      12      21      15      11
      15       0      24      12      18       3      24      14      18       6
      27      15      18      15      21      16      21       9      27      15
%FLAG DIHEDRALS_INC_HYDROGEN                                                    
%FORMAT(10I8)                                                                   
      30       0      24       3       4       9      21      12      39       5
       9      21      12      42       5      15       0      24      33       4
      15      21      12      39       5      15      21      12      42       5
      18       3      24      33       2      18       6      27      36       3
      30       0      15      18       6      21       9      27      36       3
      30       0      15      21       6      30       0      24      33       4
      30       0     -24     -15       7      21      39     -12     -42       7
      33       0     -24      -3       7      36       6     -27      -9       7
%FLAG DIHEDRALS_WITHOUT_HYDROGEN                                                
%FORMAT(10I8)                                                                   
       0      15     -18       3       1       0      15      18       6       1
       0      15      21       9       1       0      15      21      12       1
       0      24      -3      18       2       3      18       6      27       3
       3      18      15      21       1      15       0     -24       3       4
       6      18       3      24       3       6      18      15      21       1
       6      27      -9      21       3       9      21      15      18       1
       9      27      -6      18       3      12      21       9      27       3
      12      21      15      18       1      15      18      -3      24       3
      15      18       6      27       3      15      21      -9      27       3
      24       0     -15      18       6      24       0      15      21       6
       0      15     -21     -18       7      15       6     -18      -3       7
      15       9     -21     -12       7
%FLAG EXCLUDED_ATOMS_LIST                                                       
%FORMAT(10I8)                                                                   
       2       3       4       5       6       7       8       9      11      12
       3       6       7       8       9      10      11      12       4       6
       7       8       9      10      13       5       6       7       8      10
      13      14      15       6       7       8      10      14      15       7
       8       9      10      11      12      14      15       8       9      10
      11      12      13       9      10      11      13      14      15      11
      12      13      12       0       0      15       0
%FLAG HBOND_ACOEF                                                               
%FORMAT(5E16.8)                                                                 

%FLAG HBOND_BCOEF                                                               
%FORMAT(5E16.8)                                                                 

%FLAG HBCUT                                                                     
%FORMAT(5E16.8)                                                                 

%FLAG AMBER_ATOM_TYPE                                                           
%FORMAT(20a4)                                                                   
na  nc  nb  nb  nv  ca  ca  ca  cd  ca  hn  h5  h5  hn  hn  
%FLAG TREE_CHAIN_CLASSIFICATION                                                 
%FORMAT(20a4)                                                                   
BLA BLA BLA BLA BLA BLA BLA BLA BLA BLA BLA BLA BLA BLA BLA 
%FLAG JOIN_ARRAY                                                                
%FORMAT(10I8)                                                                   
       0       0       0       0       0       0       0       0       0       0
       0       0       0       0       0
%FLAG IROTAT                                                                    
%FORMAT(10I8)                                                                   
       0       0       0       0       0       0       0       0       0       0
       0       0       0       0       0
%FLAG RADIUS_SET                                                                
%FORMAT(1a80)                                                                   
modified Bondi radii (mbondi)                                                   
%FLAG RADII                                                                     
%FORMAT(5E16.8)                                                                 
  1.55000000E+00  1.55000000E+00  1.55000000E+00  1.55000000E+00  1.55000000E+00
  1.70000000E+00  1.70000000E+00  1.70000000E+00  1.70000000E+00  1.70000000E+00
  1.30000000E+00  1.30000000E+00  1.30000000E+00  1.30000000E+00  1.30000000E+00
%FLAG SCREEN                                                                    
%FORMAT(5E16.8)                                                                 
  7.90000000E-01  7.90000000E-01  7.90000000E-01  7.90000000E-01  7.90000000E-01
  7.20000000E-01  7.20000000E-01  7.20000000E-01  7.20000000E-01  7.20000000E-01
  8.50000000E-01  8.50000000E-01  8.50000000E-01  8.50000000E-01  8.50000000E-01
%FLAG IPOL                                                                      
%FORMAT(1I8)                                                                    
       0
