190
    15
  -1.1990000  -1.4000000   0.0000000  -2.0750000   0.6500000   0.0000000
   0.0340000   1.8590000  -0.0000000   2.0000000   0.4150000   0.0000000
   1.8240000  -1.9760000   0.0000000  -0.1360000  -0.5420000   0.0000000
  -0.7060000   0.7240000   0.0000000   1.2360000  -0.7000000   0.0000000
  -2.3390000  -0.6390000   0.0000000   1.3610000   1.6090000   0.0000000
  -1.1570000  -2.4100000  -0.0000000  -3.3220000  -1.0860000  -0.0000000
   2.0030000   2.4830000  -0.0000000   2.8320000  -2.0530000   0.0000000
   1.2500000  -2.8080000   0.0000000
