adenine_GMX.gro created by acpype (v: 2023.10.27) on Mon Feb  9 17:24:44 2026
 15
    1  UNL    N    1  -0.120  -0.140   0.000
    1  UNL   N1    2  -0.208   0.065   0.000
    1  UNL   N2    3   0.003   0.186  -0.000
    1  UNL   N3    4   0.200   0.042   0.000
    1  UNL   N4    5   0.182  -0.198   0.000
    1  UNL    C    6  -0.014  -0.054   0.000
    1  UNL   C1    7  -0.071   0.072   0.000
    1  UNL   C2    8   0.124  -0.070   0.000
    1  UNL   C3    9  -0.234  -0.064   0.000
    1  UNL   C4   10   0.136   0.161   0.000
    1  UNL    H   11  -0.116  -0.241  -0.000
    1  UNL   H1   12  -0.332  -0.109  -0.000
    1  UNL   H2   13   0.200   0.248  -0.000
    1  UNL   H3   14   0.283  -0.205   0.000
    1  UNL   H4   15   0.125  -0.281   0.000
   12.30800    10.58200     0.00000
