; adenine_GMX.itp created by acpype (v: 2023.10.27) on Mon Feb  9 17:24:44 2026

[ atomtypes ]
;name   bond_type     mass     charge   ptype   sigma         epsilon       Amb
 na       na          0.00000  0.00000   A     3.20581e-01   8.54373e-01 ; 1.80  0.2042
 nc       nc          0.00000  0.00000   A     3.38417e-01   3.93714e-01 ; 1.90  0.0941
 nb       nb          0.00000  0.00000   A     3.38417e-01   3.93714e-01 ; 1.90  0.0941
 nv       nv          0.00000  0.00000   A     3.36813e-01   4.68608e-01 ; 1.89  0.1120
 ca       ca          0.00000  0.00000   A     3.31521e-01   4.13379e-01 ; 1.86  0.0988
 cd       cd          0.00000  0.00000   A     3.31521e-01   4.13379e-01 ; 1.86  0.0988
 hn       hn          0.00000  0.00000   A     1.10650e-01   4.18400e-02 ; 0.62  0.0100
 h5       h5          0.00000  0.00000   A     2.44730e-01   6.73624e-02 ; 1.37  0.0161

[ moleculetype ]
;name            nrexcl
 adenine          3

[ atoms ]
;   nr  type  resi  res  atom  cgnr     charge      mass       ; qtot   bond_type
     1   na     1   UNL     N    1    -0.262300     14.01000 ; qtot -0.262
     2   nc     1   UNL    N1    2    -0.625700     14.01000 ; qtot -0.888
     3   nb     1   UNL    N2    3    -0.653000     14.01000 ; qtot -1.541
     4   nb     1   UNL    N3    4    -0.749000     14.01000 ; qtot -2.290
     5   nv     1   UNL    N4    5    -0.917500     14.01000 ; qtot -3.208
     6   ca     1   UNL     C    6    -0.360800     12.01000 ; qtot -3.568
     7   ca     1   UNL    C1    7     0.572300     12.01000 ; qtot -2.996
     8   ca     1   UNL    C2    8     0.667200     12.01000 ; qtot -2.329
     9   cd     1   UNL    C3    9     0.435700     12.01000 ; qtot -1.893
    10   ca     1   UNL    C4   10     0.645900     12.01000 ; qtot -1.247
    11   hn     1   UNL     H   11     0.309700      1.00800 ; qtot -0.937
    12   h5     1   UNL    H1   12     0.074800      1.00800 ; qtot -0.863
    13   h5     1   UNL    H2   13     0.057100      1.00800 ; qtot -0.806
    14   hn     1   UNL    H3   14     0.402800      1.00800 ; qtot -0.403
    15   hn     1   UNL    H4   15     0.402800      1.00800 ; qtot 0.000

[ bonds ]
;   ai     aj funct   r             k
     1      6   1    1.3858e-01    2.7557e+05 ;      N - C     
     1      9   1    1.3830e-01    2.7819e+05 ;      N - C3    
     1     11   1    1.0095e-01    4.0315e+05 ;      N - H     
     2      7   1    1.3852e-01    2.7614e+05 ;     N1 - C1    
     2      9   1    1.3171e-01    3.4961e+05 ;     N1 - C3    
     3      7   1    1.3392e-01    3.2341e+05 ;     N2 - C1    
     3     10   1    1.3392e-01    3.2341e+05 ;     N2 - C4    
     4      8   1    1.3392e-01    3.2341e+05 ;     N3 - C2    
     4     10   1    1.3392e-01    3.2341e+05 ;     N3 - C4    
     5      8   1    1.3744e-01    2.8644e+05 ;     N4 - C2    
     5     14   1    1.0114e-01    3.9961e+05 ;     N4 - H3    
     5     15   1    1.0114e-01    3.9961e+05 ;     N4 - H4    
     6      7   1    1.3986e-01    2.9644e+05 ;      C - C1    
     6      8   1    1.3986e-01    2.9644e+05 ;      C - C2    
     9     12   1    1.0821e-01    3.0695e+05 ;     C3 - H1    
    10     13   1    1.0880e-01    2.9923e+05 ;     C4 - H2    

[ pairs ]
;   ai     aj    funct
     1      3      1 ;      N - N2    
     1      4      1 ;      N - N3    
     1      5      1 ;      N - N4    
     2      8      1 ;     N1 - C2    
     2     10      1 ;     N1 - C4    
     3      8      1 ;     N2 - C2    
     3      9      1 ;     N2 - C3    
     4      7      1 ;     N3 - C1    
     4     14      1 ;     N3 - H3    
     4     15      1 ;     N3 - H4    
     5      7      1 ;     N4 - C1    
     5     10      1 ;     N4 - C4    
     6     10      1 ;      C - C4    
     6     12      1 ;      C - H1    
     6     14      1 ;      C - H3    
     6     15      1 ;      C - H4    
     7     12      1 ;     C1 - H1    
     7     13      1 ;     C1 - H2    
     8     13      1 ;     C2 - H2    
     9      8      1 ;     C3 - C2    
    11      2      1 ;      H - N1    
    11      7      1 ;      H - C1    
    11      8      1 ;      H - C2    
    11     12      1 ;      H - H1    

[ angles ]
;   ai     aj     ak    funct   theta         cth
     1      6      7      1    1.2031e+02    5.6752e+02 ;      N - C      - C1    
     1      6      8      1    1.2031e+02    5.6752e+02 ;      N - C      - C2    
     1      9      2      1    1.1302e+02    6.4024e+02 ;      N - C3     - N1    
     1      9     12      1    1.2083e+02    4.0116e+02 ;      N - C3     - H1    
     2      7      3      1    1.2731e+02    5.9823e+02 ;     N1 - C1     - N2    
     2      7      6      1    1.2187e+02    5.6400e+02 ;     N1 - C1     - C     
     2      9     12      1    1.2529e+02    4.0911e+02 ;     N1 - C3     - H1    
     3      7      6      1    1.2294e+02    5.7045e+02 ;     N2 - C1     - C     
     3     10      4      1    1.2730e+02    6.0886e+02 ;     N2 - C4     - N3    
     3     10     13      1    1.1579e+02    4.1974e+02 ;     N2 - C4     - H2    
     4      8      5      1    1.1677e+02    6.2727e+02 ;     N3 - C2     - N4    
     4      8      6      1    1.2294e+02    5.7045e+02 ;     N3 - C2     - C     
     4     10     13      1    1.1579e+02    4.1974e+02 ;     N3 - C4     - H2    
     5      8      6      1    1.2094e+02    5.6827e+02 ;     N4 - C2     - C     
     6      1      9      1    1.0877e+02    6.9881e+02 ;      C - N      - C3    
     6      1     11      1    1.2551e+02    4.6250e+02 ;      C - N      - H     
     7      2      9      1    1.0417e+02    7.3069e+02 ;     C1 - N1     - C3    
     7      3     10      1    1.1724e+02    6.9580e+02 ;     C1 - N2     - C4    
     7      6      8      1    1.2002e+02    5.3279e+02 ;     C1 - C      - C2    
     8      4     10      1    1.1724e+02    6.9580e+02 ;     C2 - N3     - C4    
     8      5     14      1    1.1673e+02    4.8292e+02 ;     C2 - N4     - H3    
     8      5     15      1    1.1673e+02    4.8292e+02 ;     C2 - N4     - H4    
     9      1     11      1    1.2524e+02    4.6384e+02 ;     C3 - N      - H     
    14      5     15      1    1.1528e+02    3.8794e+02 ;     H3 - N4     - H4    

[ dihedrals ] ; propers
; for gromacs 4.5 or higher, using funct 9
;    i      j      k      l   func   phase     kd      pn
     1      6      7      2      9   180.00  15.16700   2 ;      N-     C-    C1-    N1
     1      6      7      3      9   180.00  15.16700   2 ;      N-     C-    C1-    N2
     1      6      8      4      9   180.00  15.16700   2 ;      N-     C-    C2-    N3
     1      6      8      5      9   180.00  15.16700   2 ;      N-     C-    C2-    N4
     1      9      2      7      9   180.00  19.87400   2 ;      N-    C3-    N1-    C1
     2      7      3     10      9   180.00  20.08320   2 ;     N1-    C1-    N2-    C4
     2      7      6      8      9   180.00  15.16700   2 ;     N1-    C1-     C-    C2
     3      7      2      9      9   180.00  20.08320   2 ;     N2-    C1-    N1-    C3
     3      7      6      8      9   180.00  15.16700   2 ;     N2-    C1-     C-    C2
     3     10      4      8      9   180.00  20.08320   2 ;     N2-    C4-    N3-    C2
     4      8      5     14      9   180.00   4.39320   2 ;     N3-    C2-    N4-    H3
     4      8      5     15      9   180.00   4.39320   2 ;     N3-    C2-    N4-    H4
     4      8      6      7      9   180.00  15.16700   2 ;     N3-    C2-     C-    C1
     4     10      3      7      9   180.00  20.08320   2 ;     N3-    C4-    N2-    C1
     5      8      4     10      9   180.00  20.08320   2 ;     N4-    C2-    N3-    C4
     5      8      6      7      9   180.00  15.16700   2 ;     N4-    C2-     C-    C1
     6      1      9      2      9   180.00   7.11280   2 ;      C-     N-    C3-    N1
     6      1      9     12      9   180.00   7.11280   2 ;      C-     N-    C3-    H1
     6      7      2      9      9   180.00  20.08320   2 ;      C-    C1-    N1-    C3
     6      7      3     10      9   180.00  20.08320   2 ;      C-    C1-    N2-    C4
     6      8      4     10      9   180.00  20.08320   2 ;      C-    C2-    N3-    C4
     6      8      5     14      9   180.00   4.39320   2 ;      C-    C2-    N4-    H3
     6      8      5     15      9   180.00   4.39320   2 ;      C-    C2-    N4-    H4
     7      2      9     12      9   180.00  19.87400   2 ;     C1-    N1-    C3-    H1
     7      3     10     13      9   180.00  20.08320   2 ;     C1-    N2-    C4-    H2
     8      4     10     13      9   180.00  20.08320   2 ;     C2-    N3-    C4-    H2
     9      1      6      7      9   180.00   1.25520   2 ;     C3-     N-     C-    C1
     9      1      6      8      9   180.00   1.25520   2 ;     C3-     N-     C-    C2
    11      1      6      7      9   180.00   1.25520   2 ;      H-     N-     C-    C1
    11      1      6      8      9   180.00   1.25520   2 ;      H-     N-     C-    C2
    11      1      9      2      9   180.00   7.11280   2 ;      H-     N-    C3-    N1
    11      1      9     12      9   180.00   7.11280   2 ;      H-     N-    C3-    H1

[ dihedrals ] ; impropers
; treated as propers in GROMACS to use correct AMBER analytical function
;    i      j      k      l   func   phase     kd      pn
     1      6      8      7      4   180.00   4.60240   2 ;      N-     C-    C2-    C1
     6      3      7      2      4   180.00   4.60240   2 ;      C-    N2-    C1-    N1
     6      4      8      5      4   180.00   4.60240   2 ;      C-    N3-    C2-    N4
     8     14      5     15      4   180.00   4.60240   2 ;     C2-    H3-    N4-    H4
    11      1      9      6      4   180.00   4.60240   2 ;      H-     N-    C3-     C
    12      1      9      2      4   180.00   4.60240   2 ;     H1-     N-    C3-    N1
    13      3     10      4      4   180.00   4.60240   2 ;     H2-    N2-    C4-    N3
