; adenine_GMX_OPLS.itp created by acpype (v: 2023.10.27) on Mon Feb  9 17:24:44 2026

; For OPLS atomtypes manual fine tuning
; AC_at:OPLS_at:OPLScode: Possible_Alternatives (see ffoplsaa.atp and ffoplsaanb.itp)
; na:NA:opls_503: ['512']
; nc:NB:opls_511: []
; nb:x:opls_x: []
; nv:x:opls_x: []
; ca:CA:opls_145: ['166', '501', '502']
; cd:C*:opls_500: ['506', '507', '508', '514']
; hn:H:opls_240: ['241', '290', '301', '304', '310', '504', '513']
; h5:HA:opls_146: []

[ moleculetype ]
;name            nrexcl
 adenine          3

[ atoms ]
;   nr  type  resi  res  atom  cgnr     charge      mass       ; qtot   bond_type
     1 opls_503     1   UNL     N    1    -0.262300     14.00670 ; qtot -0.262  NA  
     2 opls_511     1   UNL    N1    2    -0.625700     14.00670 ; qtot -0.888  NB  
     3 opls_x     1   UNL    N2    3    -0.653000      0.00000 ; qtot -1.541  x   
     4 opls_x     1   UNL    N3    4    -0.749000      0.00000 ; qtot -2.290  x   
     5 opls_x     1   UNL    N4    5    -0.917500      0.00000 ; qtot -3.208  x   
     6 opls_145     1   UNL     C    6    -0.360800     12.01100 ; qtot -3.568  CA  
     7 opls_145     1   UNL    C1    7     0.572300     12.01100 ; qtot -2.996  CA  
     8 opls_145     1   UNL    C2    8     0.667200     12.01100 ; qtot -2.329  CA  
     9 opls_500     1   UNL    C3    9     0.435700     12.01100 ; qtot -1.893  C*  
    10 opls_145     1   UNL    C4   10     0.645900     12.01100 ; qtot -1.247  CA  
    11 opls_240     1   UNL     H   11     0.309700      1.00800 ; qtot -0.937  H   
    12 opls_146     1   UNL    H1   12     0.074800      1.00800 ; qtot -0.863  HA  
    13 opls_146     1   UNL    H2   13     0.057100      1.00800 ; qtot -0.806  HA  
    14 opls_240     1   UNL    H3   14     0.402800      1.00800 ; qtot -0.403  H   
    15 opls_240     1   UNL    H4   15     0.402800      1.00800 ; qtot  0.000  H   

[ bonds ]
;   ai     aj funct   r             k
     1      6   1 ;    1.3858e-01    2.7557e+05 ;      N - C          NA - CA    
     1      9   1 ;    1.3830e-01    2.7819e+05 ;      N - C3         NA - C*    
     1     11   1 ;    1.0095e-01    4.0315e+05 ;      N - H          NA - H     
     2      7   1 ;    1.3852e-01    2.7614e+05 ;     N1 - C1         NB - CA    
     2      9   1 ;    1.3171e-01    3.4961e+05 ;     N1 - C3         NB - C*    
     3      7   1 ;    1.3392e-01    3.2341e+05 ;     N2 - C1          x - CA    
     3     10   1 ;    1.3392e-01    3.2341e+05 ;     N2 - C4          x - CA    
     4      8   1 ;    1.3392e-01    3.2341e+05 ;     N3 - C2          x - CA    
     4     10   1 ;    1.3392e-01    3.2341e+05 ;     N3 - C4          x - CA    
     5      8   1 ;    1.3744e-01    2.8644e+05 ;     N4 - C2          x - CA    
     5     14   1 ;    1.0114e-01    3.9961e+05 ;     N4 - H3          x - H     
     5     15   1 ;    1.0114e-01    3.9961e+05 ;     N4 - H4          x - H     
     6      7   1 ;    1.3986e-01    2.9644e+05 ;      C - C1         CA - CA    
     6      8   1 ;    1.3986e-01    2.9644e+05 ;      C - C2         CA - CA    
     9     12   1 ;    1.0821e-01    3.0695e+05 ;     C3 - H1         C* - HA    
    10     13   1 ;    1.0880e-01    2.9923e+05 ;     C4 - H2         CA - HA    

[ pairs ]
;   ai     aj    funct
     1      3      1 ;      N - N2    
     1      4      1 ;      N - N3    
     1      5      1 ;      N - N4    
     2      8      1 ;     N1 - C2    
     2     10      1 ;     N1 - C4    
     3      8      1 ;     N2 - C2    
     3      9      1 ;     N2 - C3    
     4      7      1 ;     N3 - C1    
     4     14      1 ;     N3 - H3    
     4     15      1 ;     N3 - H4    
     5      7      1 ;     N4 - C1    
     5     10      1 ;     N4 - C4    
     6     10      1 ;      C - C4    
     6     12      1 ;      C - H1    
     6     14      1 ;      C - H3    
     6     15      1 ;      C - H4    
     7     12      1 ;     C1 - H1    
     7     13      1 ;     C1 - H2    
     8     13      1 ;     C2 - H2    
     9      8      1 ;     C3 - C2    
    11      2      1 ;      H - N1    
    11      7      1 ;      H - C1    
    11      8      1 ;      H - C2    
    11     12      1 ;      H - H1    

[ angles ]
;   ai     aj     ak    funct   theta         cth
     1      6      7      1 ;    1.2031e+02    5.6752e+02 ;      N - C    - C1       NA -   CA - CA  
     1      6      8      1 ;    1.2031e+02    5.6752e+02 ;      N - C    - C2       NA -   CA - CA  
     1      9      2      1 ;    1.1302e+02    6.4024e+02 ;      N - C3   - N1       NA -   C* - NB  
     1      9     12      1 ;    1.2083e+02    4.0116e+02 ;      N - C3   - H1       NA -   C* - HA  
     2      7      3      1 ;    1.2731e+02    5.9823e+02 ;     N1 - C1   - N2       NB -   CA - x   
     2      7      6      1 ;    1.2187e+02    5.6400e+02 ;     N1 - C1   - C        NB -   CA - CA  
     2      9     12      1 ;    1.2529e+02    4.0911e+02 ;     N1 - C3   - H1       NB -   C* - HA  
     3      7      6      1 ;    1.2294e+02    5.7045e+02 ;     N2 - C1   - C         x -   CA - CA  
     3     10      4      1 ;    1.2730e+02    6.0886e+02 ;     N2 - C4   - N3        x -   CA - x   
     3     10     13      1 ;    1.1579e+02    4.1974e+02 ;     N2 - C4   - H2        x -   CA - HA  
     4      8      5      1 ;    1.1677e+02    6.2727e+02 ;     N3 - C2   - N4        x -   CA - x   
     4      8      6      1 ;    1.2294e+02    5.7045e+02 ;     N3 - C2   - C         x -   CA - CA  
     4     10     13      1 ;    1.1579e+02    4.1974e+02 ;     N3 - C4   - H2        x -   CA - HA  
     5      8      6      1 ;    1.2094e+02    5.6827e+02 ;     N4 - C2   - C         x -   CA - CA  
     6      1      9      1 ;    1.0877e+02    6.9881e+02 ;      C - N    - C3       CA -   NA - C*  
     6      1     11      1 ;    1.2551e+02    4.6250e+02 ;      C - N    - H        CA -   NA - H   
     7      2      9      1 ;    1.0417e+02    7.3069e+02 ;     C1 - N1   - C3       CA -   NB - C*  
     7      3     10      1 ;    1.1724e+02    6.9580e+02 ;     C1 - N2   - C4       CA -    x - CA  
     7      6      8      1 ;    1.2002e+02    5.3279e+02 ;     C1 - C    - C2       CA -   CA - CA  
     8      4     10      1 ;    1.1724e+02    6.9580e+02 ;     C2 - N3   - C4       CA -    x - CA  
     8      5     14      1 ;    1.1673e+02    4.8292e+02 ;     C2 - N4   - H3       CA -    x - H   
     8      5     15      1 ;    1.1673e+02    4.8292e+02 ;     C2 - N4   - H4       CA -    x - H   
     9      1     11      1 ;    1.2524e+02    4.6384e+02 ;     C3 - N    - H        C* -   NA - H   
    14      5     15      1 ;    1.1528e+02    3.8794e+02 ;     H3 - N4   - H4        H -    x - H   

[ dihedrals ] ; propers
; for gromacs 4.5 or higher, using funct 9
;    i      j      k      l   func   phase     kd      pn
     1      6      7      2      9 ;   180.00  15.16700   2 ;      N-     C-    C1-    N1
     1      6      7      3      9 ;   180.00  15.16700   2 ;      N-     C-    C1-    N2
     1      6      8      4      9 ;   180.00  15.16700   2 ;      N-     C-    C2-    N3
     1      6      8      5      9 ;   180.00  15.16700   2 ;      N-     C-    C2-    N4
     1      9      2      7      9 ;   180.00  19.87400   2 ;      N-    C3-    N1-    C1
     2      7      3     10      9 ;   180.00  20.08320   2 ;     N1-    C1-    N2-    C4
     2      7      6      8      9 ;   180.00  15.16700   2 ;     N1-    C1-     C-    C2
     3      7      2      9      9 ;   180.00  20.08320   2 ;     N2-    C1-    N1-    C3
     3      7      6      8      9 ;   180.00  15.16700   2 ;     N2-    C1-     C-    C2
     3     10      4      8      9 ;   180.00  20.08320   2 ;     N2-    C4-    N3-    C2
     4      8      5     14      9 ;   180.00   4.39320   2 ;     N3-    C2-    N4-    H3
     4      8      5     15      9 ;   180.00   4.39320   2 ;     N3-    C2-    N4-    H4
     4      8      6      7      9 ;   180.00  15.16700   2 ;     N3-    C2-     C-    C1
     4     10      3      7      9 ;   180.00  20.08320   2 ;     N3-    C4-    N2-    C1
     5      8      4     10      9 ;   180.00  20.08320   2 ;     N4-    C2-    N3-    C4
     5      8      6      7      9 ;   180.00  15.16700   2 ;     N4-    C2-     C-    C1
     6      1      9      2      9 ;   180.00   7.11280   2 ;      C-     N-    C3-    N1
     6      1      9     12      9 ;   180.00   7.11280   2 ;      C-     N-    C3-    H1
     6      7      2      9      9 ;   180.00  20.08320   2 ;      C-    C1-    N1-    C3
     6      7      3     10      9 ;   180.00  20.08320   2 ;      C-    C1-    N2-    C4
     6      8      4     10      9 ;   180.00  20.08320   2 ;      C-    C2-    N3-    C4
     6      8      5     14      9 ;   180.00   4.39320   2 ;      C-    C2-    N4-    H3
     6      8      5     15      9 ;   180.00   4.39320   2 ;      C-    C2-    N4-    H4
     7      2      9     12      9 ;   180.00  19.87400   2 ;     C1-    N1-    C3-    H1
     7      3     10     13      9 ;   180.00  20.08320   2 ;     C1-    N2-    C4-    H2
     8      4     10     13      9 ;   180.00  20.08320   2 ;     C2-    N3-    C4-    H2
     9      1      6      7      9 ;   180.00   1.25520   2 ;     C3-     N-     C-    C1
     9      1      6      8      9 ;   180.00   1.25520   2 ;     C3-     N-     C-    C2
    11      1      6      7      9 ;   180.00   1.25520   2 ;      H-     N-     C-    C1
    11      1      6      8      9 ;   180.00   1.25520   2 ;      H-     N-     C-    C2
    11      1      9      2      9 ;   180.00   7.11280   2 ;      H-     N-    C3-    N1
    11      1      9     12      9 ;   180.00   7.11280   2 ;      H-     N-    C3-    H1

[ dihedrals ] ; impropers
; treated as propers in GROMACS to use correct AMBER analytical function
;    i      j      k      l   func   phase     kd      pn
     1      6      8      7      4 ;   180.00   4.60240   2 ;      N-     C-    C2-    C1
     6      3      7      2      4 ;   180.00   4.60240   2 ;      C-    N2-    C1-    N1
     6      4      8      5      4 ;   180.00   4.60240   2 ;      C-    N3-    C2-    N4
     8     14      5     15      4 ;   180.00   4.60240   2 ;     C2-    H3-    N4-    H4
    11      1      9      6      4 ;   180.00   4.60240   2 ;      H-     N-    C3-     C
    12      1      9      2      4 ;   180.00   4.60240   2 ;     H1-     N-    C3-    N1
    13      3     10      4      4 ;   180.00   4.60240   2 ;     H2-    N2-    C4-    N3
