; cholesterol_GMX_OPLS.top created by acpype (v: 2023.10.27) on Mon Feb  9 17:37:52 2026

; Include forcefield parameters
#include "ffoplsaa.itp"

; Include cholesterol_GMX.itp topology
#include "cholesterol_GMX.itp"

; Ligand position restraints
#ifdef POSRES_LIG
#include "posre_cholesterol.itp"
#endif

[ system ]
 cholesterol

[ molecules ]
; Compound        nmols
 cholesterol      1     
