cholesterol_GMX.gro created by acpype (v: 2023.10.27) on Mon Feb  9 17:37:52 2026
 74
    1  UNL    O    1   0.750   0.158  -0.032
    1  UNL    C    2  -0.082  -0.111  -0.020
    1  UNL   C1    3  -0.012  -0.044   0.100
    1  UNL   C2    4   0.141  -0.056   0.096
    1  UNL   C3    5   0.195   0.006  -0.036
    1  UNL   C4    6  -0.229  -0.084   0.019
    1  UNL   C5    7  -0.035  -0.038  -0.147
    1  UNL   C6    8   0.352  -0.008  -0.047
    1  UNL   C7    9  -0.087  -0.098   0.221
    1  UNL   C8   10   0.118  -0.043  -0.162
    1  UNL   C9   11  -0.232  -0.113   0.171
    1  UNL  C10   12   0.204   0.013   0.217
    1  UNL  C11   13  -0.335  -0.162  -0.058
    1  UNL  C12   14  -0.054  -0.263  -0.033
    1  UNL  C13   15   0.419   0.027   0.087
    1  UNL  C14   16   0.403   0.090  -0.157
    1  UNL  C15   17   0.351   0.037   0.202
    1  UNL  C16   18   0.393  -0.153  -0.084
    1  UNL  C17   19   0.568   0.051   0.085
    1  UNL  C18   20   0.554   0.108  -0.160
    1  UNL  C19   21  -0.479  -0.128  -0.013
    1  UNL  C20   22   0.608   0.151  -0.024
    1  UNL  C21   23  -0.321  -0.135  -0.208
    1  UNL  C22   24  -0.519   0.020  -0.023
    1  UNL  C23   25  -0.659   0.049   0.029
    1  UNL  C24   26  -0.702   0.196   0.013
    1  UNL  C25   27  -0.696   0.243  -0.133
    1  UNL  C26   28  -0.613   0.286   0.099
    1  UNL    H   29  -0.034   0.064   0.096
    1  UNL   H1   30   0.168  -0.163   0.100
    1  UNL   H2   31   0.173   0.114  -0.029
    1  UNL   H3   32  -0.247   0.023   0.005
    1  UNL   H4   33  -0.067   0.067  -0.145
    1  UNL   H5   34  -0.076  -0.082  -0.239
    1  UNL   H6   35  -0.081  -0.031   0.306
    1  UNL   H7   36  -0.048  -0.195   0.252
    1  UNL   H8   37   0.147  -0.146  -0.187
    1  UNL   H9   38   0.146   0.018  -0.248
    1  UNL  H10   39  -0.269  -0.214   0.194
    1  UNL  H11   40  -0.298  -0.042   0.222
    1  UNL  H12   41   0.188  -0.049   0.306
    1  UNL  H13   42   0.156   0.110   0.236
    1  UNL  H14   43  -0.323  -0.270  -0.042
    1  UNL  H15   44  -0.098  -0.305  -0.123
    1  UNL  H16   45   0.053  -0.285  -0.038
    1  UNL  H17   46  -0.093  -0.319   0.052
    1  UNL  H18   47   0.357   0.189  -0.141
    1  UNL  H19   48   0.370   0.057  -0.256
    1  UNL  H20   49   0.404   0.064   0.293
    1  UNL  H21   50   0.361  -0.179  -0.186
    1  UNL  H22   51   0.501  -0.167  -0.082
    1  UNL  H23   52   0.350  -0.226  -0.015
    1  UNL  H24   53   0.604   0.089   0.182
    1  UNL  H25   54   0.621  -0.044   0.070
    1  UNL  H26   55   0.603   0.015  -0.193
    1  UNL  H27   56   0.581   0.183  -0.235
    1  UNL  H28   57  -0.550  -0.187  -0.072
    1  UNL  H29   58  -0.492  -0.160   0.090
    1  UNL  H30   59   0.571   0.251   0.001
    1  UNL  H31   60  -0.304  -0.029  -0.231
    1  UNL  H32   61  -0.413  -0.164  -0.261
    1  UNL  H33   62  -0.243  -0.196  -0.253
    1  UNL  H34   63  -0.448   0.081   0.034
    1  UNL  H35   64  -0.511   0.051  -0.128
    1  UNL  H36   65   0.783   0.186   0.055
    1  UNL  H37   66  -0.666   0.021   0.135
    1  UNL  H38   67  -0.731  -0.014  -0.024
    1  UNL  H39   68  -0.806   0.206   0.048
    1  UNL  H40   69  -0.751   0.175  -0.198
    1  UNL  H41   70  -0.742   0.342  -0.143
    1  UNL  H42   71  -0.594   0.252  -0.170
    1  UNL  H43   72  -0.611   0.251   0.203
    1  UNL  H44   73  -0.653   0.388   0.100
    1  UNL  H45   74  -0.510   0.292   0.062
   31.76800    14.15600    11.35200
