; cholesterol_GMX.itp created by acpype (v: 2023.10.27) on Mon Feb  9 17:37:52 2026

[ atomtypes ]
;name   bond_type     mass     charge   ptype   sigma         epsilon       Amb
 oh       oh          0.00000  0.00000   A     3.24287e-01   3.89112e-01 ; 1.82  0.0930
 c5       c5          0.00000  0.00000   A     3.39771e-01   4.51035e-01 ; 1.91  0.1078
 c6       c6          0.00000  0.00000   A     3.39771e-01   4.51035e-01 ; 1.91  0.1078
 c3       c3          0.00000  0.00000   A     3.39771e-01   4.51035e-01 ; 1.91  0.1078
 c2       c2          0.00000  0.00000   A     3.31521e-01   4.13379e-01 ; 1.86  0.0988
 hc       hc          0.00000  0.00000   A     2.60018e-01   8.70272e-02 ; 1.46  0.0208
 ha       ha          0.00000  0.00000   A     2.62548e-01   6.73624e-02 ; 1.47  0.0161
 h1       h1          0.00000  0.00000   A     2.42200e-01   8.70272e-02 ; 1.36  0.0208
 ho       ho          0.00000  0.00000   A     5.37925e-02   1.96648e-02 ; 0.30  0.0047

[ moleculetype ]
;name            nrexcl
 cholesterol      3

[ atoms ]
;   nr  type  resi  res  atom  cgnr     charge      mass       ; qtot   bond_type
     1   oh     1   UNL     O    1    -0.602801     16.00000 ; qtot -0.603
     2   c5     1   UNL     C    2    -0.045000     12.01000 ; qtot -0.648
     3   c5     1   UNL    C1    3    -0.064700     12.01000 ; qtot -0.713
     4   c6     1   UNL    C2    4    -0.046700     12.01000 ; qtot -0.759
     5   c6     1   UNL    C3    5    -0.048700     12.01000 ; qtot -0.808
     6   c5     1   UNL    C4    6    -0.054700     12.01000 ; qtot -0.863
     7   c6     1   UNL    C5    7    -0.065400     12.01000 ; qtot -0.928
     8   c6     1   UNL    C6    8     0.000200     12.01000 ; qtot -0.928
     9   c5     1   UNL    C7    9    -0.074400     12.01000 ; qtot -1.002
    10   c6     1   UNL    C8   10    -0.075400     12.01000 ; qtot -1.078
    11   c5     1   UNL    C9   11    -0.077400     12.01000 ; qtot -1.155
    12   c6     1   UNL   C10   12    -0.042200     12.01000 ; qtot -1.197
    13   c3     1   UNL   C11   13    -0.054700     12.01000 ; qtot -1.252
    14   c3     1   UNL   C12   14    -0.082100     12.01000 ; qtot -1.334
    15   c2     1   UNL   C13   15    -0.105400     12.01000 ; qtot -1.439
    16   c6     1   UNL   C14   16    -0.070400     12.01000 ; qtot -1.510
    17   c2     1   UNL   C15   17    -0.167200     12.01000 ; qtot -1.677
    18   c3     1   UNL   C16   18    -0.083100     12.01000 ; qtot -1.760
    19   c6     1   UNL   C17   19    -0.075200     12.01000 ; qtot -1.835
    20   c6     1   UNL   C18   20    -0.075400     12.01000 ; qtot -1.911
    21   c3     1   UNL   C19   21    -0.076400     12.01000 ; qtot -1.987
    22   c6     1   UNL   C20   22     0.145100     12.01000 ; qtot -1.842
    23   c3     1   UNL   C21   23    -0.090100     12.01000 ; qtot -1.932
    24   c3     1   UNL   C22   24    -0.080400     12.01000 ; qtot -2.013
    25   c3     1   UNL   C23   25    -0.073400     12.01000 ; qtot -2.086
    26   c3     1   UNL   C24   26    -0.065700     12.01000 ; qtot -2.152
    27   c3     1   UNL   C25   27    -0.089100     12.01000 ; qtot -2.241
    28   c3     1   UNL   C26   28    -0.089100     12.01000 ; qtot -2.330
    29   hc     1   UNL     H   29     0.045700      1.00800 ; qtot -2.284
    30   hc     1   UNL    H1   30     0.058700      1.00800 ; qtot -2.225
    31   hc     1   UNL    H2   31     0.047700      1.00800 ; qtot -2.178
    32   hc     1   UNL    H3   32     0.048700      1.00800 ; qtot -2.129
    33   hc     1   UNL    H4   33     0.041200      1.00800 ; qtot -2.088
    34   hc     1   UNL    H5   34     0.041200      1.00800 ; qtot -2.047
    35   hc     1   UNL    H6   35     0.041700      1.00800 ; qtot -2.005
    36   hc     1   UNL    H7   36     0.041700      1.00800 ; qtot -1.963
    37   hc     1   UNL    H8   37     0.041200      1.00800 ; qtot -1.922
    38   hc     1   UNL    H9   38     0.041200      1.00800 ; qtot -1.881
    39   hc     1   UNL   H10   39     0.041200      1.00800 ; qtot -1.840
    40   hc     1   UNL   H11   40     0.041200      1.00800 ; qtot -1.798
    41   hc     1   UNL   H12   41     0.049200      1.00800 ; qtot -1.749
    42   hc     1   UNL   H13   42     0.049200      1.00800 ; qtot -1.700
    43   hc     1   UNL   H14   43     0.046700      1.00800 ; qtot -1.653
    44   hc     1   UNL   H15   44     0.035700      1.00800 ; qtot -1.618
    45   hc     1   UNL   H16   45     0.035700      1.00800 ; qtot -1.582
    46   hc     1   UNL   H17   46     0.035700      1.00800 ; qtot -1.546
    47   hc     1   UNL   H18   47     0.044700      1.00800 ; qtot -1.502
    48   hc     1   UNL   H19   48     0.044700      1.00800 ; qtot -1.457
    49   ha     1   UNL   H20   49     0.119000      1.00800 ; qtot -1.338
    50   hc     1   UNL   H21   50     0.037367      1.00800 ; qtot -1.300
    51   hc     1   UNL   H22   51     0.037367      1.00800 ; qtot -1.263
    52   hc     1   UNL   H23   52     0.037367      1.00800 ; qtot -1.226
    53   hc     1   UNL   H24   53     0.051200      1.00800 ; qtot -1.174
    54   hc     1   UNL   H25   54     0.051200      1.00800 ; qtot -1.123
    55   hc     1   UNL   H26   55     0.055200      1.00800 ; qtot -1.068
    56   hc     1   UNL   H27   56     0.055200      1.00800 ; qtot -1.013
    57   hc     1   UNL   H28   57     0.038200      1.00800 ; qtot -0.975
    58   hc     1   UNL   H29   58     0.038200      1.00800 ; qtot -0.936
    59   h1     1   UNL   H30   59     0.035700      1.00800 ; qtot -0.901
    60   hc     1   UNL   H31   60     0.033700      1.00800 ; qtot -0.867
    61   hc     1   UNL   H32   61     0.033700      1.00800 ; qtot -0.833
    62   hc     1   UNL   H33   62     0.033700      1.00800 ; qtot -0.800
    63   hc     1   UNL   H34   63     0.043200      1.00800 ; qtot -0.756
    64   hc     1   UNL   H35   64     0.043200      1.00800 ; qtot -0.713
    65   ho     1   UNL   H36   65     0.398000      1.00800 ; qtot -0.315
    66   hc     1   UNL   H37   66     0.037200      1.00800 ; qtot -0.278
    67   hc     1   UNL   H38   67     0.037200      1.00800 ; qtot -0.241
    68   hc     1   UNL   H39   68     0.041700      1.00800 ; qtot -0.199
    69   hc     1   UNL   H40   69     0.033200      1.00800 ; qtot -0.166
    70   hc     1   UNL   H41   70     0.033200      1.00800 ; qtot -0.133
    71   hc     1   UNL   H42   71     0.033200      1.00800 ; qtot -0.100
    72   hc     1   UNL   H43   72     0.033200      1.00800 ; qtot -0.066
    73   hc     1   UNL   H44   73     0.033200      1.00800 ; qtot -0.033
    74   hc     1   UNL   H45   74     0.033200      1.00800 ; qtot 0.000

[ bonds ]
;   ai     aj funct   r             k
     1     22   1    1.4241e-01    2.3870e+05 ;      O - C20   
     1     65   1    9.7250e-02    4.4811e+05 ;      O - H36   
     2      3   1    1.5483e-01    1.8418e+05 ;      C - C1    
     2      6   1    1.5483e-01    1.8418e+05 ;      C - C4    
     2      7   1    1.5389e-01    1.8951e+05 ;      C - C5    
     2     14   1    1.5372e-01    1.9049e+05 ;      C - C12   
     3      4   1    1.5389e-01    1.8951e+05 ;     C1 - C2    
     3      9   1    1.5483e-01    1.8418e+05 ;     C1 - C7    
     3     29   1    1.0954e-01    2.8989e+05 ;     C1 - H     
     4      5   1    1.5384e-01    1.8979e+05 ;     C2 - C3    
     4     12   1    1.5384e-01    1.8979e+05 ;     C2 - C10   
     4     30   1    1.0979e-01    2.8681e+05 ;     C2 - H1    
     5      8   1    1.5384e-01    1.8979e+05 ;     C3 - C6    
     5     10   1    1.5384e-01    1.8979e+05 ;     C3 - C8    
     5     31   1    1.0979e-01    2.8681e+05 ;     C3 - H2    
     6     11   1    1.5483e-01    1.8418e+05 ;     C4 - C9    
     6     13   1    1.5372e-01    1.9049e+05 ;     C4 - C11   
     6     32   1    1.0954e-01    2.8989e+05 ;     C4 - H3    
     7     10   1    1.5384e-01    1.8979e+05 ;     C5 - C8    
     7     33   1    1.0979e-01    2.8681e+05 ;     C5 - H4    
     7     34   1    1.0979e-01    2.8681e+05 ;     C5 - H5    
     8     15   1    1.5133e-01    2.0498e+05 ;     C6 - C13   
     8     16   1    1.5384e-01    1.8979e+05 ;     C6 - C14   
     8     18   1    1.5428e-01    1.8728e+05 ;     C6 - C16   
     9     11   1    1.5483e-01    1.8418e+05 ;     C7 - C9    
     9     35   1    1.0954e-01    2.8989e+05 ;     C7 - H6    
     9     36   1    1.0954e-01    2.8989e+05 ;     C7 - H7    
    10     37   1    1.0979e-01    2.8681e+05 ;     C8 - H8    
    10     38   1    1.0979e-01    2.8681e+05 ;     C8 - H9    
    11     39   1    1.0954e-01    2.8989e+05 ;     C9 - H10   
    11     40   1    1.0954e-01    2.8989e+05 ;     C9 - H11   
    12     17   1    1.5133e-01    2.0498e+05 ;    C10 - C15   
    12     41   1    1.0979e-01    2.8681e+05 ;    C10 - H12   
    12     42   1    1.0979e-01    2.8681e+05 ;    C10 - H13   
    13     21   1    1.5354e-01    1.9154e+05 ;    C11 - C19   
    13     23   1    1.5354e-01    1.9154e+05 ;    C11 - C21   
    13     43   1    1.0962e-01    2.8891e+05 ;    C11 - H14   
    14     44   1    1.0962e-01    2.8891e+05 ;    C12 - H15   
    14     45   1    1.0962e-01    2.8891e+05 ;    C12 - H16   
    14     46   1    1.0962e-01    2.8891e+05 ;    C12 - H17   
    15     17   1    1.3379e-01    3.6484e+05 ;    C13 - C15   
    15     19   1    1.5133e-01    2.0498e+05 ;    C13 - C17   
    16     20   1    1.5384e-01    1.8979e+05 ;    C14 - C18   
    16     47   1    1.0979e-01    2.8681e+05 ;    C14 - H18   
    16     48   1    1.0979e-01    2.8681e+05 ;    C14 - H19   
    17     49   1    1.0882e-01    2.9898e+05 ;    C15 - H20   
    18     50   1    1.0962e-01    2.8891e+05 ;    C16 - H21   
    18     51   1    1.0962e-01    2.8891e+05 ;    C16 - H22   
    18     52   1    1.0962e-01    2.8891e+05 ;    C16 - H23   
    19     22   1    1.5384e-01    1.8979e+05 ;    C17 - C20   
    19     53   1    1.0979e-01    2.8681e+05 ;    C17 - H24   
    19     54   1    1.0979e-01    2.8681e+05 ;    C17 - H25   
    20     22   1    1.5384e-01    1.8979e+05 ;    C18 - C20   
    20     55   1    1.0979e-01    2.8681e+05 ;    C18 - H26   
    20     56   1    1.0979e-01    2.8681e+05 ;    C18 - H27   
    21     24   1    1.5354e-01    1.9154e+05 ;    C19 - C22   
    21     57   1    1.0962e-01    2.8891e+05 ;    C19 - H28   
    21     58   1    1.0962e-01    2.8891e+05 ;    C19 - H29   
    22     59   1    1.0984e-01    2.8620e+05 ;    C20 - H30   
    23     60   1    1.0962e-01    2.8891e+05 ;    C21 - H31   
    23     61   1    1.0962e-01    2.8891e+05 ;    C21 - H32   
    23     62   1    1.0962e-01    2.8891e+05 ;    C21 - H33   
    24     25   1    1.5354e-01    1.9154e+05 ;    C22 - C23   
    24     63   1    1.0962e-01    2.8891e+05 ;    C22 - H34   
    24     64   1    1.0962e-01    2.8891e+05 ;    C22 - H35   
    25     26   1    1.5354e-01    1.9154e+05 ;    C23 - C24   
    25     66   1    1.0962e-01    2.8891e+05 ;    C23 - H37   
    25     67   1    1.0962e-01    2.8891e+05 ;    C23 - H38   
    26     27   1    1.5354e-01    1.9154e+05 ;    C24 - C25   
    26     28   1    1.5354e-01    1.9154e+05 ;    C24 - C26   
    26     68   1    1.0962e-01    2.8891e+05 ;    C24 - H39   
    27     69   1    1.0962e-01    2.8891e+05 ;    C25 - H40   
    27     70   1    1.0962e-01    2.8891e+05 ;    C25 - H41   
    27     71   1    1.0962e-01    2.8891e+05 ;    C25 - H42   
    28     72   1    1.0962e-01    2.8891e+05 ;    C26 - H43   
    28     73   1    1.0962e-01    2.8891e+05 ;    C26 - H44   
    28     74   1    1.0962e-01    2.8891e+05 ;    C26 - H45   

[ pairs ]
;   ai     aj    funct
     1     15      1 ;      O - C13   
     1     16      1 ;      O - C14   
     1     53      1 ;      O - H24   
     1     54      1 ;      O - H25   
     1     55      1 ;      O - H26   
     1     56      1 ;      O - H27   
     2      5      1 ;      C - C3    
     2     12      1 ;      C - C10   
     2     21      1 ;      C - C19   
     2     23      1 ;      C - C21   
     2     30      1 ;      C - H1    
     2     35      1 ;      C - H6    
     2     36      1 ;      C - H7    
     2     37      1 ;      C - H8    
     2     38      1 ;      C - H9    
     2     39      1 ;      C - H10   
     2     40      1 ;      C - H11   
     2     43      1 ;      C - H14   
     3      8      1 ;     C1 - C6    
     3     10      1 ;     C1 - C8    
     3     13      1 ;     C1 - C11   
     3     17      1 ;     C1 - C15   
     3     31      1 ;     C1 - H2    
     3     32      1 ;     C1 - H3    
     3     33      1 ;     C1 - H4    
     3     34      1 ;     C1 - H5    
     3     39      1 ;     C1 - H10   
     3     40      1 ;     C1 - H11   
     3     41      1 ;     C1 - H12   
     3     42      1 ;     C1 - H13   
     3     44      1 ;     C1 - H15   
     3     45      1 ;     C1 - H16   
     3     46      1 ;     C1 - H17   
     4      6      1 ;     C2 - C4    
     4      7      1 ;     C2 - C5    
     4     11      1 ;     C2 - C9    
     4     14      1 ;     C2 - C12   
     4     15      1 ;     C2 - C13   
     4     16      1 ;     C2 - C14   
     4     18      1 ;     C2 - C16   
     4     35      1 ;     C2 - H6    
     4     36      1 ;     C2 - H7    
     4     37      1 ;     C2 - H8    
     4     38      1 ;     C2 - H9    
     4     49      1 ;     C2 - H20   
     5      9      1 ;     C3 - C7    
     5     17      1 ;     C3 - C15   
     5     19      1 ;     C3 - C17   
     5     20      1 ;     C3 - C18   
     5     29      1 ;     C3 - H     
     5     33      1 ;     C3 - H4    
     5     34      1 ;     C3 - H5    
     5     41      1 ;     C3 - H12   
     5     42      1 ;     C3 - H13   
     5     47      1 ;     C3 - H18   
     5     48      1 ;     C3 - H19   
     5     50      1 ;     C3 - H21   
     5     51      1 ;     C3 - H22   
     5     52      1 ;     C3 - H23   
     6     10      1 ;     C4 - C8    
     6     24      1 ;     C4 - C22   
     6     29      1 ;     C4 - H     
     6     33      1 ;     C4 - H4    
     6     34      1 ;     C4 - H5    
     6     35      1 ;     C4 - H6    
     6     36      1 ;     C4 - H7    
     6     44      1 ;     C4 - H15   
     6     45      1 ;     C4 - H16   
     6     46      1 ;     C4 - H17   
     6     57      1 ;     C4 - H28   
     6     58      1 ;     C4 - H29   
     6     60      1 ;     C4 - H31   
     6     61      1 ;     C4 - H32   
     6     62      1 ;     C4 - H33   
     7      8      1 ;     C5 - C6    
     7      9      1 ;     C5 - C7    
     7     11      1 ;     C5 - C9    
     7     13      1 ;     C5 - C11   
     7     29      1 ;     C5 - H     
     7     31      1 ;     C5 - H2    
     7     32      1 ;     C5 - H3    
     7     44      1 ;     C5 - H15   
     7     45      1 ;     C5 - H16   
     7     46      1 ;     C5 - H17   
     8     12      1 ;     C6 - C10   
     8     22      1 ;     C6 - C20   
     8     30      1 ;     C6 - H1    
     8     37      1 ;     C6 - H8    
     8     38      1 ;     C6 - H9    
     8     49      1 ;     C6 - H20   
     8     53      1 ;     C6 - H24   
     8     54      1 ;     C6 - H25   
     8     55      1 ;     C6 - H26   
     8     56      1 ;     C6 - H27   
     9     12      1 ;     C7 - C10   
     9     13      1 ;     C7 - C11   
     9     14      1 ;     C7 - C12   
     9     30      1 ;     C7 - H1    
     9     32      1 ;     C7 - H3    
    10     12      1 ;     C8 - C10   
    10     14      1 ;     C8 - C12   
    10     15      1 ;     C8 - C13   
    10     16      1 ;     C8 - C14   
    10     18      1 ;     C8 - C16   
    10     30      1 ;     C8 - H1    
    11     14      1 ;     C9 - C12   
    11     21      1 ;     C9 - C19   
    11     23      1 ;     C9 - C21   
    11     29      1 ;     C9 - H     
    11     43      1 ;     C9 - H14   
    12     19      1 ;    C10 - C17   
    12     29      1 ;    C10 - H     
    12     31      1 ;    C10 - H2    
    13     14      1 ;    C11 - C12   
    13     25      1 ;    C11 - C23   
    13     39      1 ;    C11 - H10   
    13     40      1 ;    C11 - H11   
    13     63      1 ;    C11 - H34   
    13     64      1 ;    C11 - H35   
    14     29      1 ;    C12 - H     
    14     32      1 ;    C12 - H3    
    14     33      1 ;    C12 - H4    
    14     34      1 ;    C12 - H5    
    15     20      1 ;    C13 - C18   
    15     31      1 ;    C13 - H2    
    15     41      1 ;    C13 - H12   
    15     42      1 ;    C13 - H13   
    15     47      1 ;    C13 - H18   
    15     48      1 ;    C13 - H19   
    15     50      1 ;    C13 - H21   
    15     51      1 ;    C13 - H22   
    15     52      1 ;    C13 - H23   
    15     59      1 ;    C13 - H30   
    16     17      1 ;    C14 - C15   
    16     19      1 ;    C14 - C17   
    16     31      1 ;    C14 - H2    
    16     50      1 ;    C14 - H21   
    16     51      1 ;    C14 - H22   
    16     52      1 ;    C14 - H23   
    16     59      1 ;    C14 - H30   
    17     18      1 ;    C15 - C16   
    17     22      1 ;    C15 - C20   
    17     30      1 ;    C15 - H1    
    17     53      1 ;    C15 - H24   
    17     54      1 ;    C15 - H25   
    18     19      1 ;    C16 - C17   
    18     20      1 ;    C16 - C18   
    18     31      1 ;    C16 - H2    
    18     47      1 ;    C16 - H18   
    18     48      1 ;    C16 - H19   
    19     49      1 ;    C17 - H20   
    19     55      1 ;    C17 - H26   
    19     56      1 ;    C17 - H27   
    20     53      1 ;    C18 - H24   
    20     54      1 ;    C18 - H25   
    21     26      1 ;    C19 - C24   
    21     32      1 ;    C19 - H3    
    21     60      1 ;    C19 - H31   
    21     61      1 ;    C19 - H32   
    21     62      1 ;    C19 - H33   
    21     66      1 ;    C19 - H37   
    21     67      1 ;    C19 - H38   
    22     47      1 ;    C20 - H18   
    22     48      1 ;    C20 - H19   
    23     24      1 ;    C21 - C22   
    23     32      1 ;    C21 - H3    
    23     57      1 ;    C21 - H28   
    23     58      1 ;    C21 - H29   
    24     27      1 ;    C22 - C25   
    24     28      1 ;    C22 - C26   
    24     43      1 ;    C22 - H14   
    24     68      1 ;    C22 - H39   
    25     57      1 ;    C23 - H28   
    25     58      1 ;    C23 - H29   
    25     69      1 ;    C23 - H40   
    25     70      1 ;    C23 - H41   
    25     71      1 ;    C23 - H42   
    25     72      1 ;    C23 - H43   
    25     73      1 ;    C23 - H44   
    25     74      1 ;    C23 - H45   
    26     63      1 ;    C24 - H34   
    26     64      1 ;    C24 - H35   
    27     66      1 ;    C25 - H37   
    27     67      1 ;    C25 - H38   
    27     72      1 ;    C25 - H43   
    27     73      1 ;    C25 - H44   
    27     74      1 ;    C25 - H45   
    28     66      1 ;    C26 - H37   
    28     67      1 ;    C26 - H38   
    28     69      1 ;    C26 - H40   
    28     70      1 ;    C26 - H41   
    28     71      1 ;    C26 - H42   
    29     30      1 ;      H - H1    
    29     35      1 ;      H - H6    
    29     36      1 ;      H - H7    
    30     31      1 ;     H1 - H2    
    30     41      1 ;     H1 - H12   
    30     42      1 ;     H1 - H13   
    31     37      1 ;     H2 - H8    
    31     38      1 ;     H2 - H9    
    32     39      1 ;     H3 - H10   
    32     40      1 ;     H3 - H11   
    32     43      1 ;     H3 - H14   
    33     37      1 ;     H4 - H8    
    33     38      1 ;     H4 - H9    
    34     37      1 ;     H5 - H8    
    34     38      1 ;     H5 - H9    
    35     39      1 ;     H6 - H10   
    35     40      1 ;     H6 - H11   
    36     39      1 ;     H7 - H10   
    36     40      1 ;     H7 - H11   
    41     49      1 ;    H12 - H20   
    42     49      1 ;    H13 - H20   
    43     57      1 ;    H14 - H28   
    43     58      1 ;    H14 - H29   
    43     60      1 ;    H14 - H31   
    43     61      1 ;    H14 - H32   
    43     62      1 ;    H14 - H33   
    47     55      1 ;    H18 - H26   
    47     56      1 ;    H18 - H27   
    48     55      1 ;    H19 - H26   
    48     56      1 ;    H19 - H27   
    53     59      1 ;    H24 - H30   
    54     59      1 ;    H25 - H30   
    55     59      1 ;    H26 - H30   
    56     59      1 ;    H27 - H30   
    57     63      1 ;    H28 - H34   
    57     64      1 ;    H28 - H35   
    58     63      1 ;    H29 - H34   
    58     64      1 ;    H29 - H35   
    63     66      1 ;    H34 - H37   
    63     67      1 ;    H34 - H38   
    64     66      1 ;    H35 - H37   
    64     67      1 ;    H35 - H38   
    65     19      1 ;    H36 - C17   
    65     20      1 ;    H36 - C18   
    65     59      1 ;    H36 - H30   
    66     68      1 ;    H37 - H39   
    67     68      1 ;    H38 - H39   
    68     69      1 ;    H39 - H40   
    68     70      1 ;    H39 - H41   
    68     71      1 ;    H39 - H42   
    68     72      1 ;    H39 - H43   
    68     73      1 ;    H39 - H44   
    68     74      1 ;    H39 - H45   

[ angles ]
;   ai     aj     ak    funct   theta         cth
     1     22     19      1    1.1005e+02    6.4065e+02 ;      O - C20    - C17   
     1     22     20      1    1.1005e+02    6.4065e+02 ;      O - C20    - C18   
     1     22     59      1    1.0996e+02    4.7187e+02 ;      O - C20    - H30   
     2      3      4      1    1.1375e+02    4.9589e+02 ;      C - C1     - C2    
     2      3      9      1    1.0383e+02    5.1748e+02 ;      C - C1     - C7    
     2      3     29      1    1.1117e+02    3.5690e+02 ;      C - C1     - H     
     2      6     11      1    1.0383e+02    5.1748e+02 ;      C - C4     - C9    
     2      6     13      1    1.1360e+02    4.9647e+02 ;      C - C4     - C11   
     2      6     32      1    1.1117e+02    3.5690e+02 ;      C - C4     - H3    
     2      7     10      1    1.1104e+02    5.0350e+02 ;      C - C5     - C8    
     2      7     33      1    1.0934e+02    3.6183e+02 ;      C - C5     - H4    
     2      7     34      1    1.0934e+02    3.6183e+02 ;      C - C5     - H5    
     2     14     44      1    1.1053e+02    3.6033e+02 ;      C - C12    - H15   
     2     14     45      1    1.1053e+02    3.6033e+02 ;      C - C12    - H16   
     2     14     46      1    1.1053e+02    3.6033e+02 ;      C - C12    - H17   
     3      2      6      1    1.0383e+02    5.1748e+02 ;     C1 - C      - C4    
     3      2      7      1    1.1375e+02    4.9589e+02 ;     C1 - C      - C5    
     3      2     14      1    1.1360e+02    4.9647e+02 ;     C1 - C      - C12   
     3      4      5      1    1.1104e+02    5.0350e+02 ;     C1 - C2     - C3    
     3      4     12      1    1.1104e+02    5.0350e+02 ;     C1 - C2     - C10   
     3      4     30      1    1.0934e+02    3.6183e+02 ;     C1 - C2     - H1    
     3      9     11      1    1.0383e+02    5.1748e+02 ;     C1 - C7     - C9    
     3      9     35      1    1.1117e+02    3.5690e+02 ;     C1 - C7     - H6    
     3      9     36      1    1.1117e+02    3.5690e+02 ;     C1 - C7     - H7    
     4      3      9      1    1.1375e+02    4.9589e+02 ;     C2 - C1     - C7    
     4      3     29      1    1.0642e+02    3.6685e+02 ;     C2 - C1     - H     
     4      5      8      1    1.1106e+02    5.0359e+02 ;     C2 - C3     - C6    
     4      5     10      1    1.1106e+02    5.0359e+02 ;     C2 - C3     - C8    
     4      5     31      1    1.0945e+02    3.6175e+02 ;     C2 - C3     - H2    
     4     12     17      1    1.1141e+02    5.0685e+02 ;     C2 - C10    - C15   
     4     12     41      1    1.0945e+02    3.6175e+02 ;     C2 - C10    - H12   
     4     12     42      1    1.0945e+02    3.6175e+02 ;     C2 - C10    - H13   
     5      4     12      1    1.1106e+02    5.0359e+02 ;     C3 - C2     - C10   
     5      4     30      1    1.0945e+02    3.6175e+02 ;     C3 - C2     - H1    
     5      8     15      1    1.1141e+02    5.0685e+02 ;     C3 - C6     - C13   
     5      8     16      1    1.1106e+02    5.0359e+02 ;     C3 - C6     - C14   
     5      8     18      1    1.1143e+02    5.0200e+02 ;     C3 - C6     - C16   
     5     10      7      1    1.1106e+02    5.0359e+02 ;     C3 - C8     - C5    
     5     10     37      1    1.0945e+02    3.6175e+02 ;     C3 - C8     - H8    
     5     10     38      1    1.0945e+02    3.6175e+02 ;     C3 - C8     - H9    
     6      2      7      1    1.1375e+02    4.9589e+02 ;     C4 - C      - C5    
     6      2     14      1    1.1360e+02    4.9647e+02 ;     C4 - C      - C12   
     6     11      9      1    1.0383e+02    5.1748e+02 ;     C4 - C9     - C7    
     6     11     39      1    1.1117e+02    3.5690e+02 ;     C4 - C9     - H10   
     6     11     40      1    1.1117e+02    3.5690e+02 ;     C4 - C9     - H11   
     6     13     21      1    1.1370e+02    4.9840e+02 ;     C4 - C11    - C19   
     6     13     23      1    1.1370e+02    4.9840e+02 ;     C4 - C11    - C21   
     6     13     43      1    1.1053e+02    3.6033e+02 ;     C4 - C11    - H14   
     7      2     14      1    1.1056e+02    5.0484e+02 ;     C5 - C      - C12   
     7     10     37      1    1.0945e+02    3.6175e+02 ;     C5 - C8     - H8    
     7     10     38      1    1.0945e+02    3.6175e+02 ;     C5 - C8     - H9    
     8      5     10      1    1.1106e+02    5.0359e+02 ;     C6 - C3     - C8    
     8      5     31      1    1.0945e+02    3.6175e+02 ;     C6 - C3     - H2    
     8     15     17      1    1.2302e+02    5.1246e+02 ;     C6 - C13    - C15   
     8     15     19      1    1.1596e+02    5.0099e+02 ;     C6 - C13    - C17   
     8     16     20      1    1.1106e+02    5.0359e+02 ;     C6 - C14    - C18   
     8     16     47      1    1.0945e+02    3.6175e+02 ;     C6 - C14    - H18   
     8     16     48      1    1.0945e+02    3.6175e+02 ;     C6 - C14    - H19   
     8     18     50      1    1.1063e+02    3.5890e+02 ;     C6 - C16    - H21   
     8     18     51      1    1.1063e+02    3.5890e+02 ;     C6 - C16    - H22   
     8     18     52      1    1.1063e+02    3.5890e+02 ;     C6 - C16    - H23   
     9      3     29      1    1.1117e+02    3.5690e+02 ;     C7 - C1     - H     
     9     11     39      1    1.1117e+02    3.5690e+02 ;     C7 - C9     - H10   
     9     11     40      1    1.1117e+02    3.5690e+02 ;     C7 - C9     - H11   
    10      5     31      1    1.0945e+02    3.6175e+02 ;     C8 - C3     - H2    
    10      7     33      1    1.0945e+02    3.6175e+02 ;     C8 - C5     - H4    
    10      7     34      1    1.0945e+02    3.6175e+02 ;     C8 - C5     - H5    
    11      6     13      1    1.1360e+02    4.9647e+02 ;     C9 - C4     - C11   
    11      6     32      1    1.1117e+02    3.5690e+02 ;     C9 - C4     - H3    
    11      9     35      1    1.1117e+02    3.5690e+02 ;     C9 - C7     - H6    
    11      9     36      1    1.1117e+02    3.5690e+02 ;     C9 - C7     - H7    
    12      4     30      1    1.0945e+02    3.6175e+02 ;    C10 - C2     - H1    
    12     17     15      1    1.2302e+02    5.1246e+02 ;    C10 - C15    - C13   
    12     17     49      1    1.1657e+02    3.5606e+02 ;    C10 - C15    - H20   
    13      6     32      1    1.0779e+02    3.6484e+02 ;    C11 - C4     - H3    
    13     21     24      1    1.1263e+02    5.0099e+02 ;    C11 - C19    - C22   
    13     21     57      1    1.0968e+02    3.6208e+02 ;    C11 - C19    - H28   
    13     21     58      1    1.0968e+02    3.6208e+02 ;    C11 - C19    - H29   
    13     23     60      1    1.0968e+02    3.6208e+02 ;    C11 - C21    - H31   
    13     23     61      1    1.0968e+02    3.6208e+02 ;    C11 - C21    - H32   
    13     23     62      1    1.0968e+02    3.6208e+02 ;    C11 - C21    - H33   
    15      8     16      1    1.1141e+02    5.0685e+02 ;    C13 - C6     - C14   
    15      8     18      1    1.0977e+02    5.0986e+02 ;    C13 - C6     - C16   
    15     17     49      1    1.2039e+02    3.8802e+02 ;    C13 - C15    - H20   
    15     19     22      1    1.1141e+02    5.0685e+02 ;    C13 - C17    - C20   
    15     19     53      1    1.0931e+02    3.6736e+02 ;    C13 - C17    - H24   
    15     19     54      1    1.0931e+02    3.6736e+02 ;    C13 - C17    - H25   
    16      8     18      1    1.1143e+02    5.0200e+02 ;    C14 - C6     - C16   
    16     20     22      1    1.1106e+02    5.0359e+02 ;    C14 - C18    - C20   
    16     20     55      1    1.0945e+02    3.6175e+02 ;    C14 - C18    - H26   
    16     20     56      1    1.0945e+02    3.6175e+02 ;    C14 - C18    - H27   
    17     12     41      1    1.0931e+02    3.6736e+02 ;    C15 - C10    - H12   
    17     12     42      1    1.0931e+02    3.6736e+02 ;    C15 - C10    - H13   
    17     15     19      1    1.2302e+02    5.1246e+02 ;    C15 - C13    - C17   
    19     22     20      1    1.1106e+02    5.0359e+02 ;    C17 - C20    - C18   
    19     22     59      1    1.0918e+02    3.6217e+02 ;    C17 - C20    - H30   
    20     16     47      1    1.0945e+02    3.6175e+02 ;    C18 - C14    - H18   
    20     16     48      1    1.0945e+02    3.6175e+02 ;    C18 - C14    - H19   
    20     22     59      1    1.0918e+02    3.6217e+02 ;    C18 - C20    - H30   
    21     13     23      1    1.1263e+02    5.0099e+02 ;    C19 - C11    - C21   
    21     13     43      1    1.0968e+02    3.6208e+02 ;    C19 - C11    - H14   
    21     24     25      1    1.1263e+02    5.0099e+02 ;    C19 - C22    - C23   
    21     24     63      1    1.0968e+02    3.6208e+02 ;    C19 - C22    - H34   
    21     24     64      1    1.0968e+02    3.6208e+02 ;    C19 - C22    - H35   
    22      1     65      1    1.0707e+02    5.4584e+02 ;    C20 - O      - H36   
    22     19     53      1    1.0945e+02    3.6175e+02 ;    C20 - C17    - H24   
    22     19     54      1    1.0945e+02    3.6175e+02 ;    C20 - C17    - H25   
    22     20     55      1    1.0945e+02    3.6175e+02 ;    C20 - C18    - H26   
    22     20     56      1    1.0945e+02    3.6175e+02 ;    C20 - C18    - H27   
    23     13     43      1    1.0968e+02    3.6208e+02 ;    C21 - C11    - H14   
    24     21     57      1    1.0968e+02    3.6208e+02 ;    C22 - C19    - H28   
    24     21     58      1    1.0968e+02    3.6208e+02 ;    C22 - C19    - H29   
    24     25     26      1    1.1263e+02    5.0099e+02 ;    C22 - C23    - C24   
    24     25     66      1    1.0968e+02    3.6208e+02 ;    C22 - C23    - H37   
    24     25     67      1    1.0968e+02    3.6208e+02 ;    C22 - C23    - H38   
    25     24     63      1    1.0968e+02    3.6208e+02 ;    C23 - C22    - H34   
    25     24     64      1    1.0968e+02    3.6208e+02 ;    C23 - C22    - H35   
    25     26     27      1    1.1263e+02    5.0099e+02 ;    C23 - C24    - C25   
    25     26     28      1    1.1263e+02    5.0099e+02 ;    C23 - C24    - C26   
    25     26     68      1    1.0968e+02    3.6208e+02 ;    C23 - C24    - H39   
    26     25     66      1    1.0968e+02    3.6208e+02 ;    C24 - C23    - H37   
    26     25     67      1    1.0968e+02    3.6208e+02 ;    C24 - C23    - H38   
    26     27     69      1    1.0968e+02    3.6208e+02 ;    C24 - C25    - H40   
    26     27     70      1    1.0968e+02    3.6208e+02 ;    C24 - C25    - H41   
    26     27     71      1    1.0968e+02    3.6208e+02 ;    C24 - C25    - H42   
    26     28     72      1    1.0968e+02    3.6208e+02 ;    C24 - C26    - H43   
    26     28     73      1    1.0968e+02    3.6208e+02 ;    C24 - C26    - H44   
    26     28     74      1    1.0968e+02    3.6208e+02 ;    C24 - C26    - H45   
    27     26     28      1    1.1263e+02    5.0099e+02 ;    C25 - C24    - C26   
    27     26     68      1    1.0968e+02    3.6208e+02 ;    C25 - C24    - H39   
    28     26     68      1    1.0968e+02    3.6208e+02 ;    C26 - C24    - H39   
    33      7     34      1    1.0662e+02    3.0066e+02 ;     H4 - C5     - H5    
    35      9     36      1    1.0722e+02    3.0049e+02 ;     H6 - C7     - H7    
    37     10     38      1    1.0662e+02    3.0066e+02 ;     H8 - C8     - H9    
    39     11     40      1    1.0722e+02    3.0049e+02 ;    H10 - C9     - H11   
    41     12     42      1    1.0662e+02    3.0066e+02 ;    H12 - C10    - H13   
    44     14     45      1    1.0773e+02    2.9957e+02 ;    H15 - C12    - H16   
    44     14     46      1    1.0773e+02    2.9957e+02 ;    H15 - C12    - H17   
    45     14     46      1    1.0773e+02    2.9957e+02 ;    H16 - C12    - H17   
    47     16     48      1    1.0662e+02    3.0066e+02 ;    H18 - C14    - H19   
    50     18     51      1    1.0773e+02    2.9957e+02 ;    H21 - C16    - H22   
    50     18     52      1    1.0773e+02    2.9957e+02 ;    H21 - C16    - H23   
    51     18     52      1    1.0773e+02    2.9957e+02 ;    H22 - C16    - H23   
    53     19     54      1    1.0662e+02    3.0066e+02 ;    H24 - C17    - H25   
    55     20     56      1    1.0662e+02    3.0066e+02 ;    H26 - C18    - H27   
    57     21     58      1    1.0773e+02    2.9957e+02 ;    H28 - C19    - H29   
    60     23     61      1    1.0773e+02    2.9957e+02 ;    H31 - C21    - H32   
    60     23     62      1    1.0773e+02    2.9957e+02 ;    H31 - C21    - H33   
    61     23     62      1    1.0773e+02    2.9957e+02 ;    H32 - C21    - H33   
    63     24     64      1    1.0773e+02    2.9957e+02 ;    H34 - C22    - H35   
    66     25     67      1    1.0773e+02    2.9957e+02 ;    H37 - C23    - H38   
    69     27     70      1    1.0773e+02    2.9957e+02 ;    H40 - C25    - H41   
    69     27     71      1    1.0773e+02    2.9957e+02 ;    H40 - C25    - H42   
    70     27     71      1    1.0773e+02    2.9957e+02 ;    H41 - C25    - H42   
    72     28     73      1    1.0773e+02    2.9957e+02 ;    H43 - C26    - H44   
    72     28     74      1    1.0773e+02    2.9957e+02 ;    H43 - C26    - H45   
    73     28     74      1    1.0773e+02    2.9957e+02 ;    H44 - C26    - H45   

[ dihedrals ] ; propers
; for gromacs 4.5 or higher, using funct 9
;    i      j      k      l   func   phase     kd      pn
     1     22     19     15      9     0.00   0.65084   3 ;      O-   C20-   C17-   C13
     1     22     19     53      9     0.00   0.37656   3 ;      O-   C20-   C17-   H24
     1     22     19     54      9     0.00   0.37656   3 ;      O-   C20-   C17-   H25
     1     22     20     16      9     0.00   0.75312   3 ;      O-   C20-   C18-   C14
     1     22     20     55      9     0.00   0.37656   3 ;      O-   C20-   C18-   H26
     1     22     20     56      9     0.00   0.37656   3 ;      O-   C20-   C18-   H27
     2      3      4      5      9     0.00   2.17568   3 ;      C-    C1-    C2-    C3
     2      3      4     12      9     0.00   2.17568   3 ;      C-    C1-    C2-   C10
     2      3      4     30      9     0.00   0.54392   3 ;      C-    C1-    C2-    H1
     2      3      9     11      9     0.00   2.17568   3 ;      C-    C1-    C7-    C9
     2      3      9     35      9     0.00   0.54392   3 ;      C-    C1-    C7-    H6
     2      3      9     36      9     0.00   0.54392   3 ;      C-    C1-    C7-    H7
     2      6     11      9      9     0.00   2.17568   3 ;      C-    C4-    C9-    C7
     2      6     11     39      9     0.00   0.54392   3 ;      C-    C4-    C9-   H10
     2      6     11     40      9     0.00   0.54392   3 ;      C-    C4-    C9-   H11
     2      6     13     21      9     0.00   2.17568   3 ;      C-    C4-   C11-   C19
     2      6     13     23      9     0.00   2.17568   3 ;      C-    C4-   C11-   C21
     2      6     13     43      9     0.00   0.54392   3 ;      C-    C4-   C11-   H14
     2      7     10      5      9     0.00   2.17568   3 ;      C-    C5-    C8-    C3
     2      7     10     37      9     0.00   0.54392   3 ;      C-    C5-    C8-    H8
     2      7     10     38      9     0.00   0.54392   3 ;      C-    C5-    C8-    H9
     3      2      6     11      9     0.00   2.17568   3 ;     C1-     C-    C4-    C9
     3      2      6     13      9     0.00   2.17568   3 ;     C1-     C-    C4-   C11
     3      2      6     32      9     0.00   0.54392   3 ;     C1-     C-    C4-    H3
     3      2      7     10      9     0.00   2.17568   3 ;     C1-     C-    C5-    C8
     3      2      7     33      9     0.00   0.54392   3 ;     C1-     C-    C5-    H4
     3      2      7     34      9     0.00   0.54392   3 ;     C1-     C-    C5-    H5
     3      2     14     44      9     0.00   0.54392   3 ;     C1-     C-   C12-   H15
     3      2     14     45      9     0.00   0.54392   3 ;     C1-     C-   C12-   H16
     3      2     14     46      9     0.00   0.54392   3 ;     C1-     C-   C12-   H17
     3      4      5      8      9     0.00   2.17568   3 ;     C1-    C2-    C3-    C6
     3      4      5     10      9     0.00   2.17568   3 ;     C1-    C2-    C3-    C8
     3      4      5     31      9     0.00   0.54392   3 ;     C1-    C2-    C3-    H2
     3      4     12     17      9     0.00   0.65084   3 ;     C1-    C2-   C10-   C15
     3      4     12     41      9     0.00   0.54392   3 ;     C1-    C2-   C10-   H12
     3      4     12     42      9     0.00   0.54392   3 ;     C1-    C2-   C10-   H13
     3      9     11      6      9     0.00   2.17568   3 ;     C1-    C7-    C9-    C4
     3      9     11     39      9     0.00   0.54392   3 ;     C1-    C7-    C9-   H10
     3      9     11     40      9     0.00   0.54392   3 ;     C1-    C7-    C9-   H11
     4      3      2      6      9     0.00   2.17568   3 ;     C2-    C1-     C-    C4
     4      3      2      7      9     0.00   2.17568   3 ;     C2-    C1-     C-    C5
     4      3      2     14      9     0.00   2.17568   3 ;     C2-    C1-     C-   C12
     4      3      9     11      9     0.00   2.17568   3 ;     C2-    C1-    C7-    C9
     4      3      9     35      9     0.00   0.54392   3 ;     C2-    C1-    C7-    H6
     4      3      9     36      9     0.00   0.54392   3 ;     C2-    C1-    C7-    H7
     4      5      8     15      9     0.00   0.65084   3 ;     C2-    C3-    C6-   C13
     4      5      8     16      9     0.00   2.17568   3 ;     C2-    C3-    C6-   C14
     4      5      8     18      9     0.00   2.17568   3 ;     C2-    C3-    C6-   C16
     4      5     10      7      9     0.00   2.17568   3 ;     C2-    C3-    C8-    C5
     4      5     10     37      9     0.00   0.54392   3 ;     C2-    C3-    C8-    H8
     4      5     10     38      9     0.00   0.54392   3 ;     C2-    C3-    C8-    H9
     4     12     17     15      9     0.00   0.00000   0 ;     C2-   C10-   C15-   C13
     4     12     17     49      9     0.00   0.00000   0 ;     C2-   C10-   C15-   H20
     5      4      3      9      9     0.00   2.17568   3 ;     C3-    C2-    C1-    C7
     5      4      3     29      9     0.00   0.54392   3 ;     C3-    C2-    C1-     H
     5      4     12     17      9     0.00   0.65084   3 ;     C3-    C2-   C10-   C15
     5      4     12     41      9     0.00   0.54392   3 ;     C3-    C2-   C10-   H12
     5      4     12     42      9     0.00   0.54392   3 ;     C3-    C2-   C10-   H13
     5      8     15     17      9     0.00   0.00000   0 ;     C3-    C6-   C13-   C15
     5      8     15     19      9     0.00   0.00000   0 ;     C3-    C6-   C13-   C17
     5      8     16     20      9     0.00   2.17568   3 ;     C3-    C6-   C14-   C18
     5      8     16     47      9     0.00   0.54392   3 ;     C3-    C6-   C14-   H18
     5      8     16     48      9     0.00   0.54392   3 ;     C3-    C6-   C14-   H19
     5      8     18     50      9     0.00   0.54392   3 ;     C3-    C6-   C16-   H21
     5      8     18     51      9     0.00   0.54392   3 ;     C3-    C6-   C16-   H22
     5      8     18     52      9     0.00   0.54392   3 ;     C3-    C6-   C16-   H23
     5     10      7     33      9     0.00   0.54392   3 ;     C3-    C8-    C5-    H4
     5     10      7     34      9     0.00   0.54392   3 ;     C3-    C8-    C5-    H5
     6      2      3      9      9     0.00   2.17568   3 ;     C4-     C-    C1-    C7
     6      2      3     29      9     0.00   0.54392   3 ;     C4-     C-    C1-     H
     6      2      7     10      9     0.00   2.17568   3 ;     C4-     C-    C5-    C8
     6      2      7     33      9     0.00   0.54392   3 ;     C4-     C-    C5-    H4
     6      2      7     34      9     0.00   0.54392   3 ;     C4-     C-    C5-    H5
     6      2     14     44      9     0.00   0.54392   3 ;     C4-     C-   C12-   H15
     6      2     14     45      9     0.00   0.54392   3 ;     C4-     C-   C12-   H16
     6      2     14     46      9     0.00   0.54392   3 ;     C4-     C-   C12-   H17
     6     11      9     35      9     0.00   0.54392   3 ;     C4-    C9-    C7-    H6
     6     11      9     36      9     0.00   0.54392   3 ;     C4-    C9-    C7-    H7
     6     13     21     24      9     0.00   2.17568   3 ;     C4-   C11-   C19-   C22
     6     13     21     57      9     0.00   0.54392   3 ;     C4-   C11-   C19-   H28
     6     13     21     58      9     0.00   0.54392   3 ;     C4-   C11-   C19-   H29
     6     13     23     60      9     0.00   0.54392   3 ;     C4-   C11-   C21-   H31
     6     13     23     61      9     0.00   0.54392   3 ;     C4-   C11-   C21-   H32
     6     13     23     62      9     0.00   0.54392   3 ;     C4-   C11-   C21-   H33
     7      2      3      9      9     0.00   2.17568   3 ;     C5-     C-    C1-    C7
     7      2      3     29      9     0.00   0.54392   3 ;     C5-     C-    C1-     H
     7      2      6     11      9     0.00   2.17568   3 ;     C5-     C-    C4-    C9
     7      2      6     13      9     0.00   2.17568   3 ;     C5-     C-    C4-   C11
     7      2      6     32      9     0.00   0.54392   3 ;     C5-     C-    C4-    H3
     7      2     14     44      9     0.00   0.54392   3 ;     C5-     C-   C12-   H15
     7      2     14     45      9     0.00   0.54392   3 ;     C5-     C-   C12-   H16
     7      2     14     46      9     0.00   0.54392   3 ;     C5-     C-   C12-   H17
     7     10      5      8      9     0.00   2.17568   3 ;     C5-    C8-    C3-    C6
     7     10      5     31      9     0.00   0.54392   3 ;     C5-    C8-    C3-    H2
     8      5      4     12      9     0.00   2.17568   3 ;     C6-    C3-    C2-   C10
     8      5      4     30      9     0.00   0.54392   3 ;     C6-    C3-    C2-    H1
     8      5     10     37      9     0.00   0.54392   3 ;     C6-    C3-    C8-    H8
     8      5     10     38      9     0.00   0.54392   3 ;     C6-    C3-    C8-    H9
     8     15     17     12      9     0.00   0.62760   1 ;     C6-   C13-   C15-   C10
     8     15     17     12      9   180.00   5.56472   3 ;     C6-   C13-   C15-   C10
     8     15     17     12      9   180.00  24.18352   2 ;     C6-   C13-   C15-   C10
     8     15     17     49      9   180.00  27.82360   2 ;     C6-   C13-   C15-   H20
     8     15     19     22      9     0.00   0.00000   0 ;     C6-   C13-   C17-   C20
     8     15     19     53      9     0.00   0.62760   3 ;     C6-   C13-   C17-   H24
     8     15     19     54      9     0.00   0.62760   3 ;     C6-   C13-   C17-   H25
     8     16     20     22      9     0.00   2.17568   3 ;     C6-   C14-   C18-   C20
     8     16     20     55      9     0.00   0.54392   3 ;     C6-   C14-   C18-   H26
     8     16     20     56      9     0.00   0.54392   3 ;     C6-   C14-   C18-   H27
     9      3      2     14      9     0.00   2.17568   3 ;     C7-    C1-     C-   C12
     9      3      4     12      9     0.00   2.17568   3 ;     C7-    C1-    C2-   C10
     9      3      4     30      9     0.00   0.54392   3 ;     C7-    C1-    C2-    H1
     9     11      6     13      9     0.00   2.17568   3 ;     C7-    C9-    C4-   C11
     9     11      6     32      9     0.00   0.54392   3 ;     C7-    C9-    C4-    H3
    10      5      4     12      9     0.00   2.17568   3 ;     C8-    C3-    C2-   C10
    10      5      4     30      9     0.00   0.54392   3 ;     C8-    C3-    C2-    H1
    10      5      8     15      9     0.00   0.65084   3 ;     C8-    C3-    C6-   C13
    10      5      8     16      9     0.00   2.17568   3 ;     C8-    C3-    C6-   C14
    10      5      8     18      9     0.00   2.17568   3 ;     C8-    C3-    C6-   C16
    10      7      2     14      9     0.00   2.17568   3 ;     C8-    C5-     C-   C12
    11      6      2     14      9     0.00   2.17568   3 ;     C9-    C4-     C-   C12
    11      6     13     21      9     0.00   2.17568   3 ;     C9-    C4-   C11-   C19
    11      6     13     23      9     0.00   2.17568   3 ;     C9-    C4-   C11-   C21
    11      6     13     43      9     0.00   0.54392   3 ;     C9-    C4-   C11-   H14
    11      9      3     29      9     0.00   0.54392   3 ;     C9-    C7-    C1-     H
    12      4      3     29      9     0.00   0.54392   3 ;    C10-    C2-    C1-     H
    12      4      5     31      9     0.00   0.54392   3 ;    C10-    C2-    C3-    H2
    12     17     15     19      9     0.00   0.62760   1 ;    C10-   C15-   C13-   C17
    12     17     15     19      9   180.00   5.56472   3 ;    C10-   C15-   C13-   C17
    12     17     15     19      9   180.00  24.18352   2 ;    C10-   C15-   C13-   C17
    13      6      2     14      9     0.00   2.17568   3 ;    C11-    C4-     C-   C12
    13      6     11     39      9     0.00   0.54392   3 ;    C11-    C4-    C9-   H10
    13      6     11     40      9     0.00   0.54392   3 ;    C11-    C4-    C9-   H11
    13     21     24     25      9     0.00   2.17568   3 ;    C11-   C19-   C22-   C23
    13     21     24     63      9     0.00   0.54392   3 ;    C11-   C19-   C22-   H34
    13     21     24     64      9     0.00   0.54392   3 ;    C11-   C19-   C22-   H35
    14      2      3     29      9     0.00   0.54392   3 ;    C12-     C-    C1-     H
    14      2      6     32      9     0.00   0.54392   3 ;    C12-     C-    C4-    H3
    14      2      7     33      9     0.00   0.54392   3 ;    C12-     C-    C5-    H4
    14      2      7     34      9     0.00   0.54392   3 ;    C12-     C-    C5-    H5
    15      8      5     31      9     0.00   0.65084   3 ;    C13-    C6-    C3-    H2
    15      8     16     20      9     0.00   0.65084   3 ;    C13-    C6-   C14-   C18
    15      8     16     47      9     0.00   0.65084   3 ;    C13-    C6-   C14-   H18
    15      8     16     48      9     0.00   0.65084   3 ;    C13-    C6-   C14-   H19
    15      8     18     50      9     0.00   0.65084   3 ;    C13-    C6-   C16-   H21
    15      8     18     51      9     0.00   0.65084   3 ;    C13-    C6-   C16-   H22
    15      8     18     52      9     0.00   0.65084   3 ;    C13-    C6-   C16-   H23
    15     17     12     41      9   180.00   1.08784   3 ;    C13-   C15-   C10-   H12
    15     17     12     42      9   180.00   1.08784   3 ;    C13-   C15-   C10-   H13
    15     19     22     20      9     0.00   0.65084   3 ;    C13-   C17-   C20-   C18
    15     19     22     59      9     0.00   0.65084   3 ;    C13-   C17-   C20-   H30
    16      8      5     31      9     0.00   0.54392   3 ;    C14-    C6-    C3-    H2
    16      8     15     17      9     0.00   0.00000   0 ;    C14-    C6-   C13-   C15
    16      8     15     19      9     0.00   0.00000   0 ;    C14-    C6-   C13-   C17
    16      8     18     50      9     0.00   0.54392   3 ;    C14-    C6-   C16-   H21
    16      8     18     51      9     0.00   0.54392   3 ;    C14-    C6-   C16-   H22
    16      8     18     52      9     0.00   0.54392   3 ;    C14-    C6-   C16-   H23
    16     20     22     19      9     0.00   2.17568   3 ;    C14-   C18-   C20-   C17
    16     20     22     59      9     0.00   0.65084   3 ;    C14-   C18-   C20-   H30
    17     12      4     30      9     0.00   0.65084   3 ;    C15-   C10-    C2-    H1
    17     15      8     18      9     0.00   0.00000   0 ;    C15-   C13-    C6-   C16
    17     15     19     22      9     0.00   0.00000   0 ;    C15-   C13-   C17-   C20
    17     15     19     53      9   180.00   1.08784   3 ;    C15-   C13-   C17-   H24
    17     15     19     54      9   180.00   1.08784   3 ;    C15-   C13-   C17-   H25
    18      8      5     31      9     0.00   0.54392   3 ;    C16-    C6-    C3-    H2
    18      8     15     19      9     0.00   0.00000   0 ;    C16-    C6-   C13-   C17
    18      8     16     20      9     0.00   2.17568   3 ;    C16-    C6-   C14-   C18
    18      8     16     47      9     0.00   0.54392   3 ;    C16-    C6-   C14-   H18
    18      8     16     48      9     0.00   0.54392   3 ;    C16-    C6-   C14-   H19
    19     15     17     49      9   180.00  27.82360   2 ;    C17-   C13-   C15-   H20
    19     22     20     55      9     0.00   0.54392   3 ;    C17-   C20-   C18-   H26
    19     22     20     56      9     0.00   0.54392   3 ;    C17-   C20-   C18-   H27
    20     22     19     53      9     0.00   0.54392   3 ;    C18-   C20-   C17-   H24
    20     22     19     54      9     0.00   0.54392   3 ;    C18-   C20-   C17-   H25
    21     13      6     32      9     0.00   0.54392   3 ;    C19-   C11-    C4-    H3
    21     13     23     60      9     0.00   0.54392   3 ;    C19-   C11-   C21-   H31
    21     13     23     61      9     0.00   0.54392   3 ;    C19-   C11-   C21-   H32
    21     13     23     62      9     0.00   0.54392   3 ;    C19-   C11-   C21-   H33
    21     24     25     26      9     0.00   2.17568   3 ;    C19-   C22-   C23-   C24
    21     24     25     66      9     0.00   0.54392   3 ;    C19-   C22-   C23-   H37
    21     24     25     67      9     0.00   0.54392   3 ;    C19-   C22-   C23-   H38
    22     20     16     47      9     0.00   0.54392   3 ;    C20-   C18-   C14-   H18
    22     20     16     48      9     0.00   0.54392   3 ;    C20-   C18-   C14-   H19
    23     13      6     32      9     0.00   0.54392   3 ;    C21-   C11-    C4-    H3
    23     13     21     24      9     0.00   2.17568   3 ;    C21-   C11-   C19-   C22
    23     13     21     57      9     0.00   0.54392   3 ;    C21-   C11-   C19-   H28
    23     13     21     58      9     0.00   0.54392   3 ;    C21-   C11-   C19-   H29
    24     21     13     43      9     0.00   0.54392   3 ;    C22-   C19-   C11-   H14
    24     25     26     27      9     0.00   2.17568   3 ;    C22-   C23-   C24-   C25
    24     25     26     28      9     0.00   2.17568   3 ;    C22-   C23-   C24-   C26
    24     25     26     68      9     0.00   0.54392   3 ;    C22-   C23-   C24-   H39
    25     24     21     57      9     0.00   0.54392   3 ;    C23-   C22-   C19-   H28
    25     24     21     58      9     0.00   0.54392   3 ;    C23-   C22-   C19-   H29
    25     26     27     69      9     0.00   0.54392   3 ;    C23-   C24-   C25-   H40
    25     26     27     70      9     0.00   0.54392   3 ;    C23-   C24-   C25-   H41
    25     26     27     71      9     0.00   0.54392   3 ;    C23-   C24-   C25-   H42
    25     26     28     72      9     0.00   0.54392   3 ;    C23-   C24-   C26-   H43
    25     26     28     73      9     0.00   0.54392   3 ;    C23-   C24-   C26-   H44
    25     26     28     74      9     0.00   0.54392   3 ;    C23-   C24-   C26-   H45
    26     25     24     63      9     0.00   0.54392   3 ;    C24-   C23-   C22-   H34
    26     25     24     64      9     0.00   0.54392   3 ;    C24-   C23-   C22-   H35
    27     26     25     66      9     0.00   0.54392   3 ;    C25-   C24-   C23-   H37
    27     26     25     67      9     0.00   0.54392   3 ;    C25-   C24-   C23-   H38
    27     26     28     72      9     0.00   0.54392   3 ;    C25-   C24-   C26-   H43
    27     26     28     73      9     0.00   0.54392   3 ;    C25-   C24-   C26-   H44
    27     26     28     74      9     0.00   0.54392   3 ;    C25-   C24-   C26-   H45
    28     26     25     66      9     0.00   0.54392   3 ;    C26-   C24-   C23-   H37
    28     26     25     67      9     0.00   0.54392   3 ;    C26-   C24-   C23-   H38
    28     26     27     69      9     0.00   0.54392   3 ;    C26-   C24-   C25-   H40
    28     26     27     70      9     0.00   0.54392   3 ;    C26-   C24-   C25-   H41
    28     26     27     71      9     0.00   0.54392   3 ;    C26-   C24-   C25-   H42
    29      3      4     30      9     0.00   0.50208   3 ;      H-    C1-    C2-    H1
    29      3      9     35      9     0.00   0.50208   3 ;      H-    C1-    C7-    H6
    29      3      9     36      9     0.00   0.50208   3 ;      H-    C1-    C7-    H7
    30      4      5     31      9     0.00   0.50208   3 ;     H1-    C2-    C3-    H2
    30      4     12     41      9     0.00   0.50208   3 ;     H1-    C2-   C10-   H12
    30      4     12     42      9     0.00   0.50208   3 ;     H1-    C2-   C10-   H13
    31      5     10     37      9     0.00   0.50208   3 ;     H2-    C3-    C8-    H8
    31      5     10     38      9     0.00   0.50208   3 ;     H2-    C3-    C8-    H9
    32      6     11     39      9     0.00   0.50208   3 ;     H3-    C4-    C9-   H10
    32      6     11     40      9     0.00   0.50208   3 ;     H3-    C4-    C9-   H11
    32      6     13     43      9     0.00   0.50208   3 ;     H3-    C4-   C11-   H14
    33      7     10     37      9     0.00   0.50208   3 ;     H4-    C5-    C8-    H8
    33      7     10     38      9     0.00   0.50208   3 ;     H4-    C5-    C8-    H9
    34      7     10     37      9     0.00   0.50208   3 ;     H5-    C5-    C8-    H8
    34      7     10     38      9     0.00   0.50208   3 ;     H5-    C5-    C8-    H9
    35      9     11     39      9     0.00   0.50208   3 ;     H6-    C7-    C9-   H10
    35      9     11     40      9     0.00   0.50208   3 ;     H6-    C7-    C9-   H11
    36      9     11     39      9     0.00   0.50208   3 ;     H7-    C7-    C9-   H10
    36      9     11     40      9     0.00   0.50208   3 ;     H7-    C7-    C9-   H11
    41     12     17     49      9     0.00   0.00000   0 ;    H12-   C10-   C15-   H20
    42     12     17     49      9     0.00   0.00000   0 ;    H13-   C10-   C15-   H20
    43     13     21     57      9     0.00   0.50208   3 ;    H14-   C11-   C19-   H28
    43     13     21     58      9     0.00   0.50208   3 ;    H14-   C11-   C19-   H29
    43     13     23     60      9     0.00   0.50208   3 ;    H14-   C11-   C21-   H31
    43     13     23     61      9     0.00   0.50208   3 ;    H14-   C11-   C21-   H32
    43     13     23     62      9     0.00   0.50208   3 ;    H14-   C11-   C21-   H33
    47     16     20     55      9     0.00   0.50208   3 ;    H18-   C14-   C18-   H26
    47     16     20     56      9     0.00   0.50208   3 ;    H18-   C14-   C18-   H27
    48     16     20     55      9     0.00   0.50208   3 ;    H19-   C14-   C18-   H26
    48     16     20     56      9     0.00   0.50208   3 ;    H19-   C14-   C18-   H27
    53     19     22     59      9     0.00   0.65084   3 ;    H24-   C17-   C20-   H30
    54     19     22     59      9     0.00   0.65084   3 ;    H25-   C17-   C20-   H30
    55     20     22     59      9     0.00   0.65084   3 ;    H26-   C18-   C20-   H30
    56     20     22     59      9     0.00   0.65084   3 ;    H27-   C18-   C20-   H30
    57     21     24     63      9     0.00   0.50208   3 ;    H28-   C19-   C22-   H34
    57     21     24     64      9     0.00   0.50208   3 ;    H28-   C19-   C22-   H35
    58     21     24     63      9     0.00   0.50208   3 ;    H29-   C19-   C22-   H34
    58     21     24     64      9     0.00   0.50208   3 ;    H29-   C19-   C22-   H35
    63     24     25     66      9     0.00   0.50208   3 ;    H34-   C22-   C23-   H37
    63     24     25     67      9     0.00   0.50208   3 ;    H34-   C22-   C23-   H38
    64     24     25     66      9     0.00   0.50208   3 ;    H35-   C22-   C23-   H37
    64     24     25     67      9     0.00   0.50208   3 ;    H35-   C22-   C23-   H38
    65      1     22     19      9     0.00   0.25104   3 ;    H36-     O-   C20-   C17
    65      1     22     20      9     0.00   0.25104   3 ;    H36-     O-   C20-   C18
    65      1     22     59      9     0.00   0.51463   3 ;    H36-     O-   C20-   H30
    66     25     26     68      9     0.00   0.50208   3 ;    H37-   C23-   C24-   H39
    67     25     26     68      9     0.00   0.50208   3 ;    H38-   C23-   C24-   H39
    68     26     27     69      9     0.00   0.50208   3 ;    H39-   C24-   C25-   H40
    68     26     27     70      9     0.00   0.50208   3 ;    H39-   C24-   C25-   H41
    68     26     27     71      9     0.00   0.50208   3 ;    H39-   C24-   C25-   H42
    68     26     28     72      9     0.00   0.50208   3 ;    H39-   C24-   C26-   H43
    68     26     28     73      9     0.00   0.50208   3 ;    H39-   C24-   C26-   H44
    68     26     28     74      9     0.00   0.50208   3 ;    H39-   C24-   C26-   H45

[ dihedrals ] ; impropers
; treated as propers in GROMACS to use correct AMBER analytical function
;    i      j      k      l   func   phase     kd      pn
    15     12     17     49      4   180.00   4.60240   2 ;    C13-   C10-   C15-   H20
    17      8     15     19      4   180.00   4.60240   2 ;    C15-    C6-   C13-   C17
