5997
    74
   7.5000000   1.5830000  -0.3200000  -0.8180000  -1.1080000  -0.2030000
  -0.1190000  -0.4370000   0.9960000   1.4070000  -0.5650000   0.9580000
   1.9480000   0.0600000  -0.3610000  -2.2920000  -0.8440000   0.1890000
  -0.3510000  -0.3840000  -1.4730000   3.5190000  -0.0820000  -0.4670000
  -0.8720000  -0.9820000   2.2060000   1.1800000  -0.4330000  -1.6190000
  -2.3230000  -1.1290000   1.7090000   2.0420000   0.1300000   2.1710000
  -3.3510000  -1.6210000  -0.5810000  -0.5360000  -2.6260000  -0.3280000
   4.1900000   0.2690000   0.8690000   4.0250000   0.9000000  -1.5650000
   3.5100000   0.3710000   2.0240000   3.9300000  -1.5260000  -0.8430000
   5.6820000   0.5130000   0.8480000   5.5420000   1.0790000  -1.6010000
  -4.7870000  -1.2760000  -0.1340000   6.0800000   1.5070000  -0.2400000
  -3.2110000  -1.3510000  -2.0840000  -5.1860000   0.2030000  -0.2340000
  -6.5950000   0.4920000   0.2930000  -7.0210000   1.9640000   0.1270000
  -6.9610000   2.4320000  -1.3280000  -6.1320000   2.8610000   0.9920000
  -0.3420000   0.6430000   0.9620000   1.6830000  -1.6250000   1.0010000
   1.7290000   1.1380000  -0.2920000  -2.4680000   0.2320000   0.0540000
  -0.6680000   0.6670000  -1.4520000  -0.7590000  -0.8150000  -2.3870000
  -0.8130000  -0.3060000   3.0650000  -0.4760000  -1.9540000   2.5210000
   1.4680000  -1.4580000  -1.8670000   1.4580000   0.1810000  -2.4830000
  -2.6870000  -2.1380000   1.9350000  -2.9830000  -0.4200000   2.2200000
   1.8750000  -0.4860000   3.0640000   1.5600000   1.0970000   2.3600000
  -3.2280000  -2.6990000  -0.4180000  -0.9840000  -3.0470000  -1.2330000
   0.5320000  -2.8510000  -0.3830000  -0.9300000  -3.1940000   0.5200000
   3.5740000   1.8900000  -1.4090000   3.6970000   0.5660000  -2.5570000
   4.0370000   0.6440000   2.9340000   3.6100000  -1.7870000  -1.8570000
   5.0150000  -1.6690000  -0.8220000   3.5010000  -2.2630000  -0.1550000
   6.0430000   0.8850000   1.8160000   6.2090000  -0.4370000   0.6980000
   6.0330000   0.1540000  -1.9290000   5.8090000   1.8310000  -2.3530000
  -5.4970000  -1.8730000  -0.7220000  -4.9220000  -1.6030000   0.9040000
   5.7050000   2.5080000   0.0050000  -3.0370000  -0.2940000  -2.3070000
  -4.1280000  -1.6410000  -2.6110000  -2.4270000  -1.9620000  -2.5340000
  -4.4750000   0.8060000   0.3360000  -5.1070000   0.5080000  -1.2820000
   7.8280000   1.8600000   0.5520000  -6.6570000   0.2080000   1.3510000
  -7.3120000  -0.1420000  -0.2430000  -8.0560000   2.0550000   0.4800000
  -7.5100000   1.7460000  -1.9820000  -7.4210000   3.4220000  -1.4250000
  -5.9350000   2.5170000  -1.6990000  -6.1070000   2.5090000   2.0290000
  -6.5260000   3.8840000   1.0010000  -5.1040000   2.9160000   0.6210000
