6306
    22
   1.7320000   1.0710000  -1.2230000   2.2590000   0.4780000   0.9010000
   0.6280000  -1.6110000   0.9260000  -0.8500000  -0.1970000  -0.5110000
   0.5600000  -0.8010000  -0.2930000  -1.3280000   0.7160000   0.6420000
  -1.8910000  -1.2950000  -0.7790000  -2.7050000   1.3370000   0.4490000
   1.5950000   0.3010000  -0.1120000  -0.8060000   0.4240000  -1.4170000
   0.8580000  -1.4200000  -1.1470000  -0.6100000   1.5340000   0.7760000
  -1.3470000   0.1600000   1.5870000  -1.5240000  -1.9960000  -1.5370000
  -2.1190000  -1.8650000   0.1270000  -2.8260000  -0.8740000  -1.1630000
  -2.7680000   1.8590000  -0.5120000  -2.9030000   2.0650000   1.2420000
  -3.4980000   0.5850000   0.4910000   0.4730000  -1.0330000   1.7500000
   1.5630000  -2.0060000   1.0260000   2.4080000   1.7710000  -1.1010000
