; isoleucine_GMX.itp created by acpype (v: 2023.10.27) on Mon Feb  9 17:47:50 2026

[ atomtypes ]
;name   bond_type     mass     charge   ptype   sigma         epsilon       Amb
 oh       oh          0.00000  0.00000   A     3.24287e-01   3.89112e-01 ; 1.82  0.0930
 o        o           0.00000  0.00000   A     3.04812e-01   6.12119e-01 ; 1.71  0.1463
 n8       n8          0.00000  0.00000   A     3.65019e-01   1.35143e-01 ; 2.05  0.0323
 c3       c3          0.00000  0.00000   A     3.39771e-01   4.51035e-01 ; 1.91  0.1078
 c        c           0.00000  0.00000   A     3.31521e-01   4.13379e-01 ; 1.86  0.0988
 hc       hc          0.00000  0.00000   A     2.60018e-01   8.70272e-02 ; 1.46  0.0208
 h1       h1          0.00000  0.00000   A     2.42200e-01   8.70272e-02 ; 1.36  0.0208
 hn       hn          0.00000  0.00000   A     1.10650e-01   4.18400e-02 ; 0.62  0.0100
 ho       ho          0.00000  0.00000   A     5.37925e-02   1.96648e-02 ; 0.30  0.0047

[ moleculetype ]
;name            nrexcl
 isoleucine       3

[ atoms ]
;   nr  type  resi  res  atom  cgnr     charge      mass       ; qtot   bond_type
     1   oh     1   ILE     O    1    -0.602100     16.00000 ; qtot -0.602
     2    o     1   ILE   OXT    2    -0.562000     16.00000 ; qtot -1.164
     3   n8     1   ILE     N    3    -0.891800     14.01000 ; qtot -2.056
     4   c3     1   ILE    CB    4    -0.057700     12.01000 ; qtot -2.114
     5   c3     1   ILE    CA    5     0.138500     12.01000 ; qtot -1.975
     6   c3     1   ILE   CG1    6    -0.088400     12.01000 ; qtot -2.063
     7   c3     1   ILE   CG2    7    -0.087100     12.01000 ; qtot -2.151
     8   c3     1   ILE   CD1    8    -0.092100     12.01000 ; qtot -2.243
     9    c     1   ILE     C    9     0.585100     12.01000 ; qtot -1.658
    10   hc     1   ILE    HB   10     0.066700      1.00800 ; qtot -1.591
    11   h1     1   ILE    HA   11     0.091700      1.00800 ; qtot -1.499
    12   hc     1   ILE  HG11   12     0.047200      1.00800 ; qtot -1.452
    13   hc     1   ILE  HG12   13     0.047200      1.00800 ; qtot -1.405
    14   hc     1   ILE  HG21   14     0.041700      1.00800 ; qtot -1.363
    15   hc     1   ILE  HG22   15     0.041700      1.00800 ; qtot -1.321
    16   hc     1   ILE  HG23   16     0.041700      1.00800 ; qtot -1.280
    17   hc     1   ILE  HD11   17     0.035700      1.00800 ; qtot -1.244
    18   hc     1   ILE  HD12   18     0.035700      1.00800 ; qtot -1.208
    19   hc     1   ILE  HD13   19     0.035700      1.00800 ; qtot -1.173
    20   hn     1   ILE    H1   20     0.364800      1.00800 ; qtot -0.808
    21   hn     1   ILE    H2   21     0.364800      1.00800 ; qtot -0.443
    22   ho     1   ILE     H   22     0.443000      1.00800 ; qtot 0.000

[ bonds ]
;   ai     aj funct   r             k
     1      9   1    1.3556e-01    3.0064e+05 ;      O - C     
     1     22   1    9.7250e-02    4.4811e+05 ;      O - H     
     2      9   1    1.2190e-01    4.9421e+05 ;    OXT - C     
     3      5   1    1.4651e-01    2.1239e+05 ;      N - CA    
     3     20   1    1.0192e-01    3.8550e+05 ;      N - H1    
     3     21   1    1.0192e-01    3.8550e+05 ;      N - H2    
     4      5   1    1.5354e-01    1.9154e+05 ;     CB - CA    
     4      6   1    1.5354e-01    1.9154e+05 ;     CB - CG1   
     4      7   1    1.5354e-01    1.9154e+05 ;     CB - CG2   
     4     10   1    1.0962e-01    2.8891e+05 ;     CB - HB    
     5      9   1    1.5270e-01    1.9652e+05 ;     CA - C     
     5     11   1    1.0969e-01    2.8804e+05 ;     CA - HA    
     6      8   1    1.5354e-01    1.9154e+05 ;    CG1 - CD1   
     6     12   1    1.0962e-01    2.8891e+05 ;    CG1 - HG11  
     6     13   1    1.0962e-01    2.8891e+05 ;    CG1 - HG12  
     7     14   1    1.0962e-01    2.8891e+05 ;    CG2 - HG21  
     7     15   1    1.0962e-01    2.8891e+05 ;    CG2 - HG22  
     7     16   1    1.0962e-01    2.8891e+05 ;    CG2 - HG23  
     8     17   1    1.0962e-01    2.8891e+05 ;    CD1 - HD11  
     8     18   1    1.0962e-01    2.8891e+05 ;    CD1 - HD12  
     8     19   1    1.0962e-01    2.8891e+05 ;    CD1 - HD13  

[ pairs ]
;   ai     aj    funct
     1      3      1 ;      O - N     
     1      4      1 ;      O - CB    
     1     11      1 ;      O - HA    
     2      3      1 ;    OXT - N     
     2      4      1 ;    OXT - CB    
     2     11      1 ;    OXT - HA    
     3      6      1 ;      N - CG1   
     3      7      1 ;      N - CG2   
     3     10      1 ;      N - HB    
     4     17      1 ;     CB - HD11  
     4     18      1 ;     CB - HD12  
     4     19      1 ;     CB - HD13  
     4     20      1 ;     CB - H1    
     4     21      1 ;     CB - H2    
     5      8      1 ;     CA - CD1   
     5     12      1 ;     CA - HG11  
     5     13      1 ;     CA - HG12  
     5     14      1 ;     CA - HG21  
     5     15      1 ;     CA - HG22  
     5     16      1 ;     CA - HG23  
     6      9      1 ;    CG1 - C     
     6     11      1 ;    CG1 - HA    
     6     14      1 ;    CG1 - HG21  
     6     15      1 ;    CG1 - HG22  
     6     16      1 ;    CG1 - HG23  
     7      8      1 ;    CG2 - CD1   
     7      9      1 ;    CG2 - C     
     7     11      1 ;    CG2 - HA    
     7     12      1 ;    CG2 - HG11  
     7     13      1 ;    CG2 - HG12  
     8     10      1 ;    CD1 - HB    
     9     10      1 ;      C - HB    
     9     20      1 ;      C - H1    
     9     21      1 ;      C - H2    
    10     11      1 ;     HB - HA    
    10     12      1 ;     HB - HG11  
    10     13      1 ;     HB - HG12  
    10     14      1 ;     HB - HG21  
    10     15      1 ;     HB - HG22  
    10     16      1 ;     HB - HG23  
    11     20      1 ;     HA - H1    
    11     21      1 ;     HA - H2    
    12     17      1 ;   HG11 - HD11  
    12     18      1 ;   HG11 - HD12  
    12     19      1 ;   HG11 - HD13  
    13     17      1 ;   HG12 - HD11  
    13     18      1 ;   HG12 - HD12  
    13     19      1 ;   HG12 - HD13  
    22      2      1 ;      H - OXT   
    22      5      1 ;      H - CA    

[ angles ]
;   ai     aj     ak    funct   theta         cth
     1      9      2      1    1.2209e+02    8.5379e+02 ;      O - C      - OXT   
     1      9      5      1    1.1274e+02    6.4785e+02 ;      O - C      - CA    
     2      9      5      1    1.2290e+02    6.3973e+02 ;    OXT - C      - CA    
     3      5      4      1    1.1091e+02    5.4794e+02 ;      N - CA     - CB    
     3      5      9      1    1.1096e+02    5.4944e+02 ;      N - CA     - C     
     3      5     11      1    1.0812e+02    4.0342e+02 ;      N - CA     - HA    
     4      5      9      1    1.1143e+02    5.0509e+02 ;     CB - CA     - C     
     4      5     11      1    1.0959e+02    3.6217e+02 ;     CB - CA     - HA    
     4      6      8      1    1.1263e+02    5.0099e+02 ;     CB - CG1    - CD1   
     4      6     12      1    1.0968e+02    3.6208e+02 ;     CB - CG1    - HG11  
     4      6     13      1    1.0968e+02    3.6208e+02 ;     CB - CG1    - HG12  
     4      7     14      1    1.0968e+02    3.6208e+02 ;     CB - CG2    - HG21  
     4      7     15      1    1.0968e+02    3.6208e+02 ;     CB - CG2    - HG22  
     4      7     16      1    1.0968e+02    3.6208e+02 ;     CB - CG2    - HG23  
     5      3     20      1    1.0961e+02    4.7003e+02 ;     CA - N      - H1    
     5      3     21      1    1.0961e+02    4.7003e+02 ;     CA - N      - H2    
     5      4      6      1    1.1263e+02    5.0099e+02 ;     CA - CB     - CG1   
     5      4      7      1    1.1263e+02    5.0099e+02 ;     CA - CB     - CG2   
     5      4     10      1    1.0968e+02    3.6208e+02 ;     CA - CB     - HB    
     6      4      7      1    1.1263e+02    5.0099e+02 ;    CG1 - CB     - CG2   
     6      4     10      1    1.0968e+02    3.6208e+02 ;    CG1 - CB     - HB    
     6      8     17      1    1.0968e+02    3.6208e+02 ;    CG1 - CD1    - HD11  
     6      8     18      1    1.0968e+02    3.6208e+02 ;    CG1 - CD1    - HD12  
     6      8     19      1    1.0968e+02    3.6208e+02 ;    CG1 - CD1    - HD13  
     7      4     10      1    1.0968e+02    3.6208e+02 ;    CG2 - CB     - HB    
     8      6     12      1    1.0968e+02    3.6208e+02 ;    CD1 - CG1    - HG11  
     8      6     13      1    1.0968e+02    3.6208e+02 ;    CD1 - CG1    - HG12  
     9      1     22      1    1.0654e+02    5.7287e+02 ;      C - O      - H     
     9      5     11      1    1.0837e+02    3.6602e+02 ;      C - CA     - HA    
    12      6     13      1    1.0773e+02    2.9957e+02 ;   HG11 - CG1    - HG12  
    14      7     15      1    1.0773e+02    2.9957e+02 ;   HG21 - CG2    - HG22  
    14      7     16      1    1.0773e+02    2.9957e+02 ;   HG21 - CG2    - HG23  
    15      7     16      1    1.0773e+02    2.9957e+02 ;   HG22 - CG2    - HG23  
    17      8     18      1    1.0773e+02    2.9957e+02 ;   HD11 - CD1    - HD12  
    17      8     19      1    1.0773e+02    2.9957e+02 ;   HD11 - CD1    - HD13  
    18      8     19      1    1.0773e+02    2.9957e+02 ;   HD12 - CD1    - HD13  
    20      3     21      1    1.0638e+02    4.0074e+02 ;     H1 - N      - H2    

[ dihedrals ] ; propers
; for gromacs 4.5 or higher, using funct 9
;    i      j      k      l   func   phase     kd      pn
     1      9      5      3      9   180.00   0.00000   2 ;      O-     C-    CA-     N
     1      9      5      4      9   180.00   0.00000   2 ;      O-     C-    CA-    CB
     1      9      5     11      9   180.00   0.00000   2 ;      O-     C-    CA-    HA
     2      9      5      3      9   180.00   0.00000   2 ;    OXT-     C-    CA-     N
     2      9      5      4      9     0.00   2.84512   1 ;    OXT-     C-    CA-    CB
     2      9      5      4      9   180.00   0.83680   2 ;    OXT-     C-    CA-    CB
     2      9      5      4      9   180.00   1.84096   3 ;    OXT-     C-    CA-    CB
     2      9      5     11      9     0.00   3.34720   1 ;    OXT-     C-    CA-    HA
     2      9      5     11      9   180.00   0.33472   3 ;    OXT-     C-    CA-    HA
     3      5      4      6      9     0.00   2.17568   3 ;      N-    CA-    CB-   CG1
     3      5      4      7      9     0.00   2.17568   3 ;      N-    CA-    CB-   CG2
     3      5      4     10      9     0.00   0.20920   3 ;      N-    CA-    CB-    HB
     4      5      3     20      9   180.00   0.12552   3 ;     CB-    CA-     N-    H1
     4      5      3     21      9   180.00   0.12552   3 ;     CB-    CA-     N-    H2
     4      6      8     17      9     0.00   0.54392   3 ;     CB-   CG1-   CD1-  HD11
     4      6      8     18      9     0.00   0.54392   3 ;     CB-   CG1-   CD1-  HD12
     4      6      8     19      9     0.00   0.54392   3 ;     CB-   CG1-   CD1-  HD13
     5      4      6      8      9     0.00   2.17568   3 ;     CA-    CB-   CG1-   CD1
     5      4      6     12      9     0.00   0.54392   3 ;     CA-    CB-   CG1-  HG11
     5      4      6     13      9     0.00   0.54392   3 ;     CA-    CB-   CG1-  HG12
     5      4      7     14      9     0.00   0.54392   3 ;     CA-    CB-   CG2-  HG21
     5      4      7     15      9     0.00   0.54392   3 ;     CA-    CB-   CG2-  HG22
     5      4      7     16      9     0.00   0.54392   3 ;     CA-    CB-   CG2-  HG23
     6      4      5      9      9     0.00   0.00000   0 ;    CG1-    CB-    CA-     C
     6      4      5      9      9     0.00   0.16736   2 ;    CG1-    CB-    CA-     C
     6      4      5      9      9   180.00   1.92464   1 ;    CG1-    CB-    CA-     C
     6      4      5     11      9     0.00   0.65084   3 ;    CG1-    CB-    CA-    HA
     6      4      7     14      9     0.00   0.54392   3 ;    CG1-    CB-   CG2-  HG21
     6      4      7     15      9     0.00   0.54392   3 ;    CG1-    CB-   CG2-  HG22
     6      4      7     16      9     0.00   0.54392   3 ;    CG1-    CB-   CG2-  HG23
     7      4      5      9      9     0.00   0.00000   0 ;    CG2-    CB-    CA-     C
     7      4      5      9      9     0.00   0.16736   2 ;    CG2-    CB-    CA-     C
     7      4      5      9      9   180.00   1.92464   1 ;    CG2-    CB-    CA-     C
     7      4      5     11      9     0.00   0.65084   3 ;    CG2-    CB-    CA-    HA
     7      4      6      8      9     0.00   2.17568   3 ;    CG2-    CB-   CG1-   CD1
     7      4      6     12      9     0.00   0.54392   3 ;    CG2-    CB-   CG1-  HG11
     7      4      6     13      9     0.00   0.54392   3 ;    CG2-    CB-   CG1-  HG12
     8      6      4     10      9     0.00   0.54392   3 ;    CD1-   CG1-    CB-    HB
     9      5      3     20      9     0.00   1.25520   3 ;      C-    CA-     N-    H1
     9      5      3     21      9     0.00   1.25520   3 ;      C-    CA-     N-    H2
     9      5      4     10      9     0.00   0.65084   3 ;      C-    CA-    CB-    HB
    10      4      5     11      9     0.00   0.65084   3 ;     HB-    CB-    CA-    HA
    10      4      6     12      9     0.00   0.50208   3 ;     HB-    CB-   CG1-  HG11
    10      4      6     13      9     0.00   0.50208   3 ;     HB-    CB-   CG1-  HG12
    10      4      7     14      9     0.00   0.50208   3 ;     HB-    CB-   CG2-  HG21
    10      4      7     15      9     0.00   0.50208   3 ;     HB-    CB-   CG2-  HG22
    10      4      7     16      9     0.00   0.50208   3 ;     HB-    CB-   CG2-  HG23
    11      5      3     20      9     0.00   1.25520   3 ;     HA-    CA-     N-    H1
    11      5      3     21      9     0.00   1.25520   3 ;     HA-    CA-     N-    H2
    12      6      8     17      9     0.00   0.50208   3 ;   HG11-   CG1-   CD1-  HD11
    12      6      8     18      9     0.00   0.50208   3 ;   HG11-   CG1-   CD1-  HD12
    12      6      8     19      9     0.00   0.50208   3 ;   HG11-   CG1-   CD1-  HD13
    13      6      8     17      9     0.00   0.50208   3 ;   HG12-   CG1-   CD1-  HD11
    13      6      8     18      9     0.00   0.50208   3 ;   HG12-   CG1-   CD1-  HD12
    13      6      8     19      9     0.00   0.50208   3 ;   HG12-   CG1-   CD1-  HD13
    22      1      9      2      9     0.00   7.94960   1 ;      H-     O-     C-   OXT
    22      1      9      2      9   180.00   9.62320   2 ;      H-     O-     C-   OXT
    22      1      9      5      9   180.00   7.53120   2 ;      H-     O-     C-    CA

[ dihedrals ] ; impropers
; treated as propers in GROMACS to use correct AMBER analytical function
;    i      j      k      l   func   phase     kd      pn
     1      9      2      5      4   180.00   4.60240   2 ;      O-     C-   OXT-    CA
