isoleucine_GMX.gro created by acpype (v: 2023.10.27) on Mon Feb  9 17:47:50 2026
 22
    1  ILE    O    1   0.173   0.107  -0.122
    1  ILE  OXT    2   0.226   0.048   0.090
    1  ILE    N    3   0.063  -0.161   0.093
    1  ILE   CB    4  -0.085  -0.020  -0.051
    1  ILE   CA    5   0.056  -0.080  -0.029
    1  ILE  CG1    6  -0.133   0.072   0.064
    1  ILE  CG2    7  -0.189  -0.130  -0.078
    1  ILE  CD1    8  -0.271   0.134   0.045
    1  ILE    C    9   0.160   0.030  -0.011
    1  ILE   HB   10  -0.081   0.042  -0.142
    1  ILE   HA   11   0.086  -0.142  -0.115
    1  ILE HG11   12  -0.061   0.153   0.078
    1  ILE HG12   13  -0.135   0.016   0.159
    1  ILE HG21   14  -0.152  -0.200  -0.154
    1  ILE HG22   15  -0.212  -0.186   0.013
    1  ILE HG23   16  -0.283  -0.087  -0.116
    1  ILE HD11   17  -0.277   0.186  -0.051
    1  ILE HD12   18  -0.290   0.207   0.124
    1  ILE HD13   19  -0.350   0.058   0.049
    1  ILE   H1   20   0.047  -0.103   0.175
    1  ILE   H2   21   0.156  -0.201   0.103
    1  ILE    H   22   0.241   0.177  -0.110
   11.81200     8.14200     6.57400
