; isoleucine_GMX_OPLS.top created by acpype (v: 2023.10.27) on Mon Feb  9 17:47:50 2026

; Include forcefield parameters
#include "ffoplsaa.itp"

; Include isoleucine_GMX.itp topology
#include "isoleucine_GMX.itp"

; Ligand position restraints
#ifdef POSRES_LIG
#include "posre_isoleucine.itp"
#endif

[ system ]
 isoleucine

[ molecules ]
; Compound        nmols
 isoleucine       1     
