; tyrosine_GMX_OPLS.itp created by acpype (v: 2023.10.27) on Mon Feb  9 18:01:02 2026

; For OPLS atomtypes manual fine tuning
; AC_at:OPLS_at:OPLScode: Possible_Alternatives (see ffoplsaa.atp and ffoplsaanb.itp)
; oh:OH:opls_154: ['167']
; o:O:opls_236: ['272']
; n8:x:opls_x: []
; c3:CT:opls_135: ['136', '137', '149', '157', '158', '206', '209', '210', '223B', '224B', '245', '246', '274', '283', '284', '285', '292', '292B', '293B', '296', '307', '308', '505']
; ca:CA:opls_145: ['166', '501', '502']
; c:C:opls_235: ['271']
; hc:HC:opls_140: []
; h1:HC:opls_140: []
; ha:HA:opls_146: []
; hn:H:opls_240: ['241', '290', '301', '304', '310', '504', '513']
; ho:HO:opls_155: ['168']

[ moleculetype ]
;name            nrexcl
 tyrosine         3

[ atoms ]
;   nr  type  resi  res  atom  cgnr     charge      mass       ; qtot   bond_type
     1 opls_154     1   TYR     O    1    -0.591100     15.99940 ; qtot -0.591  OH  
     2 opls_154     1   TYR    OH    2    -0.496100     15.99940 ; qtot -1.087  OH  
     3 opls_236     1   TYR   OXT    3    -0.557000     15.99940 ; qtot -1.644  O   
     4 opls_x     1   TYR     N    4    -0.900800      0.00000 ; qtot -2.545  x   
     5 opls_135     1   TYR    CB    5    -0.069100     12.01100 ; qtot -2.614  CT  
     6 opls_135     1   TYR    CA    6     0.131500     12.01100 ; qtot -2.483  CT  
     7 opls_145     1   TYR    CG    7    -0.127300     12.01100 ; qtot -2.610  CA  
     8 opls_145     1   TYR   CD1    8    -0.085000     12.01100 ; qtot -2.695  CA  
     9 opls_145     1   TYR   CD2    9    -0.085000     12.01100 ; qtot -2.780  CA  
    10 opls_235     1   TYR     C   10     0.646100     12.01100 ; qtot -2.134  C   
    11 opls_145     1   TYR   CE1   11    -0.183000     12.01100 ; qtot -2.317  CA  
    12 opls_145     1   TYR   CE2   12    -0.183000     12.01100 ; qtot -2.500  CA  
    13 opls_145     1   TYR    CZ   13     0.128100     12.01100 ; qtot -2.372  CA  
    14 opls_140     1   TYR   HB1   14     0.061700      1.00800 ; qtot -2.310  HC  
    15 opls_140     1   TYR   HB2   15     0.061700      1.00800 ; qtot -2.248  HC  
    16 opls_140     1   TYR    HA   16     0.096700      1.00800 ; qtot -2.152  HC  
    17 opls_146     1   TYR   HD1   17     0.136500      1.00800 ; qtot -2.015  HA  
    18 opls_146     1   TYR   HD2   18     0.136500      1.00800 ; qtot -1.879  HA  
    19 opls_240     1   TYR    H1   19     0.363300      1.00800 ; qtot -1.515  H   
    20 opls_240     1   TYR    H2   20     0.363300      1.00800 ; qtot -1.152  H   
    21 opls_146     1   TYR   HE1   21     0.144000      1.00800 ; qtot -1.008  HA  
    22 opls_146     1   TYR   HE2   22     0.144000      1.00800 ; qtot -0.864  HA  
    23 opls_155     1   TYR     H   23     0.444000      1.00800 ; qtot -0.420  HO  
    24 opls_155     1   TYR    HH   24     0.420000      1.00800 ; qtot -0.000  HO  

[ bonds ]
;   ai     aj funct   r             k
     1     10   1 ;    1.3556e-01    3.0064e+05 ;      O - C          OH - C     
     1     23   1 ;    9.7250e-02    4.4811e+05 ;      O - H          OH - HO    
     2     13   1 ;    1.3644e-01    2.9167e+05 ;     OH - CZ         OH - CA    
     2     24   1 ;    9.7250e-02    4.4811e+05 ;     OH - HH         OH - HO    
     3     10   1 ;    1.2190e-01    4.9421e+05 ;    OXT - C           O - C     
     4      6   1 ;    1.4651e-01    2.1239e+05 ;      N - CA          x - CT    
     4     19   1 ;    1.0192e-01    3.8550e+05 ;      N - H1          x - H     
     4     20   1 ;    1.0192e-01    3.8550e+05 ;      N - H2          x - H     
     5      6   1 ;    1.5354e-01    1.9154e+05 ;     CB - CA         CT - CT    
     5      7   1 ;    1.5147e-01    2.0410e+05 ;     CB - CG         CT - CA    
     5     14   1 ;    1.0962e-01    2.8891e+05 ;     CB - HB1        CT - HC    
     5     15   1 ;    1.0962e-01    2.8891e+05 ;     CB - HB2        CT - HC    
     6     10   1 ;    1.5270e-01    1.9652e+05 ;     CA - C          CT - C     
     6     16   1 ;    1.0969e-01    2.8804e+05 ;     CA - HA         CT - HC    
     7      8   1 ;    1.3986e-01    2.9644e+05 ;     CG - CD1        CA - CA    
     7      9   1 ;    1.3986e-01    2.9644e+05 ;     CG - CD2        CA - CA    
     8     11   1 ;    1.3986e-01    2.9644e+05 ;    CD1 - CE1        CA - CA    
     8     17   1 ;    1.0860e-01    3.0183e+05 ;    CD1 - HD1        CA - HA    
     9     12   1 ;    1.3986e-01    2.9644e+05 ;    CD2 - CE2        CA - CA    
     9     18   1 ;    1.0860e-01    3.0183e+05 ;    CD2 - HD2        CA - HA    
    11     13   1 ;    1.3986e-01    2.9644e+05 ;    CE1 - CZ         CA - CA    
    11     21   1 ;    1.0860e-01    3.0183e+05 ;    CE1 - HE1        CA - HA    
    12     13   1 ;    1.3986e-01    2.9644e+05 ;    CE2 - CZ         CA - CA    
    12     22   1 ;    1.0860e-01    3.0183e+05 ;    CE2 - HE2        CA - HA    

[ pairs ]
;   ai     aj    funct
     1      4      1 ;      O - N     
     1      5      1 ;      O - CB    
     1     16      1 ;      O - HA    
     2      8      1 ;     OH - CD1   
     2      9      1 ;     OH - CD2   
     2     21      1 ;     OH - HE1   
     2     22      1 ;     OH - HE2   
     3      4      1 ;    OXT - N     
     3      5      1 ;    OXT - CB    
     3     16      1 ;    OXT - HA    
     4      7      1 ;      N - CG    
     4     14      1 ;      N - HB1   
     4     15      1 ;      N - HB2   
     5     11      1 ;     CB - CE1   
     5     12      1 ;     CB - CE2   
     5     17      1 ;     CB - HD1   
     5     18      1 ;     CB - HD2   
     5     19      1 ;     CB - H1    
     5     20      1 ;     CB - H2    
     6      8      1 ;     CA - CD1   
     6      9      1 ;     CA - CD2   
     7     10      1 ;     CG - C     
     7     13      1 ;     CG - CZ    
     7     16      1 ;     CG - HA    
     7     21      1 ;     CG - HE1   
     7     22      1 ;     CG - HE2   
     8     12      1 ;    CD1 - CE2   
     8     14      1 ;    CD1 - HB1   
     8     15      1 ;    CD1 - HB2   
     8     18      1 ;    CD1 - HD2   
     9     11      1 ;    CD2 - CE1   
     9     14      1 ;    CD2 - HB1   
     9     15      1 ;    CD2 - HB2   
     9     17      1 ;    CD2 - HD1   
    10     14      1 ;      C - HB1   
    10     15      1 ;      C - HB2   
    10     19      1 ;      C - H1    
    10     20      1 ;      C - H2    
    11     22      1 ;    CE1 - HE2   
    11     24      1 ;    CE1 - HH    
    12     21      1 ;    CE2 - HE1   
    12     24      1 ;    CE2 - HH    
    13     17      1 ;     CZ - HD1   
    13     18      1 ;     CZ - HD2   
    14     16      1 ;    HB1 - HA    
    15     16      1 ;    HB2 - HA    
    16     19      1 ;     HA - H1    
    16     20      1 ;     HA - H2    
    17     21      1 ;    HD1 - HE1   
    18     22      1 ;    HD2 - HE2   
    23      3      1 ;      H - OXT   
    23      6      1 ;      H - CA    

[ angles ]
;   ai     aj     ak    funct   theta         cth
     1     10      3      1 ;    1.2209e+02    8.5379e+02 ;      O - C    - OXT      OH -    C - O   
     1     10      6      1 ;    1.1274e+02    6.4785e+02 ;      O - C    - CA       OH -    C - CT  
     2     13     11      1 ;    1.1990e+02    6.5990e+02 ;     OH - CZ   - CE1      OH -   CA - CA  
     2     13     12      1 ;    1.1990e+02    6.5990e+02 ;     OH - CZ   - CE2      OH -   CA - CA  
     3     10      6      1 ;    1.2290e+02    6.3973e+02 ;    OXT - C    - CA        O -    C - CT  
     4      6      5      1 ;    1.1091e+02    5.4794e+02 ;      N - CA   - CB        x -   CT - CT  
     4      6     10      1 ;    1.1096e+02    5.4944e+02 ;      N - CA   - C         x -   CT - C   
     4      6     16      1 ;    1.0812e+02    4.0342e+02 ;      N - CA   - HA        x -   CT - HC  
     5      6     10      1 ;    1.1143e+02    5.0509e+02 ;     CB - CA   - C        CT -   CT - C   
     5      6     16      1 ;    1.0959e+02    3.6217e+02 ;     CB - CA   - HA       CT -   CT - HC  
     5      7      8      1 ;    1.2083e+02    5.0827e+02 ;     CB - CG   - CD1      CT -   CA - CA  
     5      7      9      1 ;    1.2083e+02    5.0827e+02 ;     CB - CG   - CD2      CT -   CA - CA  
     6      4     19      1 ;    1.0961e+02    4.7003e+02 ;     CA - N    - H1       CT -    x - H   
     6      4     20      1 ;    1.0961e+02    4.7003e+02 ;     CA - N    - H2       CT -    x - H   
     6      5      7      1 ;    1.1242e+02    5.0484e+02 ;     CA - CB   - CG       CT -   CT - CA  
     6      5     14      1 ;    1.0968e+02    3.6208e+02 ;     CA - CB   - HB1      CT -   CT - HC  
     6      5     15      1 ;    1.0968e+02    3.6208e+02 ;     CA - CB   - HB2      CT -   CT - HC  
     7      5     14      1 ;    1.1063e+02    3.6493e+02 ;     CG - CB   - HB1      CA -   CT - HC  
     7      5     15      1 ;    1.1063e+02    3.6493e+02 ;     CG - CB   - HB2      CA -   CT - HC  
     7      8     11      1 ;    1.2002e+02    5.3279e+02 ;     CG - CD1  - CE1      CA -   CA - CA  
     7      8     17      1 ;    1.1988e+02    3.7572e+02 ;     CG - CD1  - HD1      CA -   CA - HA  
     7      9     12      1 ;    1.2002e+02    5.3279e+02 ;     CG - CD2  - CE2      CA -   CA - CA  
     7      9     18      1 ;    1.1988e+02    3.7572e+02 ;     CG - CD2  - HD2      CA -   CA - HA  
     8      7      9      1 ;    1.2002e+02    5.3279e+02 ;    CD1 - CG   - CD2      CA -   CA - CA  
     8     11     13      1 ;    1.2002e+02    5.3279e+02 ;    CD1 - CE1  - CZ       CA -   CA - CA  
     8     11     21      1 ;    1.1988e+02    3.7572e+02 ;    CD1 - CE1  - HE1      CA -   CA - HA  
     9     12     13      1 ;    1.2002e+02    5.3279e+02 ;    CD2 - CE2  - CZ       CA -   CA - CA  
     9     12     22      1 ;    1.1988e+02    3.7572e+02 ;    CD2 - CE2  - HE2      CA -   CA - HA  
    10      1     23      1 ;    1.0654e+02    5.7287e+02 ;      C - O    - H         C -   OH - HO  
    10      6     16      1 ;    1.0837e+02    3.6602e+02 ;      C - CA   - HA        C -   CT - HC  
    11      8     17      1 ;    1.1988e+02    3.7572e+02 ;    CE1 - CD1  - HD1      CA -   CA - HA  
    11     13     12      1 ;    1.2002e+02    5.3279e+02 ;    CE1 - CZ   - CE2      CA -   CA - CA  
    12      9     18      1 ;    1.1988e+02    3.7572e+02 ;    CE2 - CD2  - HD2      CA -   CA - HA  
    13      2     24      1 ;    1.0858e+02    5.6409e+02 ;     CZ - OH   - HH       CA -   OH - HO  
    13     11     21      1 ;    1.1988e+02    3.7572e+02 ;     CZ - CE1  - HE1      CA -   CA - HA  
    13     12     22      1 ;    1.1988e+02    3.7572e+02 ;     CZ - CE2  - HE2      CA -   CA - HA  
    14      5     15      1 ;    1.0773e+02    2.9957e+02 ;    HB1 - CB   - HB2      HC -   CT - HC  
    19      4     20      1 ;    1.0638e+02    4.0074e+02 ;     H1 - N    - H2        H -    x - H   

[ dihedrals ] ; propers
; for gromacs 4.5 or higher, using funct 9
;    i      j      k      l   func   phase     kd      pn
     1     10      6      4      9 ;   180.00   0.00000   2 ;      O-     C-    CA-     N
     1     10      6      5      9 ;   180.00   0.00000   2 ;      O-     C-    CA-    CB
     1     10      6     16      9 ;   180.00   0.00000   2 ;      O-     C-    CA-    HA
     2     13     11      8      9 ;   180.00  15.16700   2 ;     OH-    CZ-   CE1-   CD1
     2     13     11     21      9 ;   180.00  15.16700   2 ;     OH-    CZ-   CE1-   HE1
     2     13     12      9      9 ;   180.00  15.16700   2 ;     OH-    CZ-   CE2-   CD2
     2     13     12     22      9 ;   180.00  15.16700   2 ;     OH-    CZ-   CE2-   HE2
     3     10      6      4      9 ;   180.00   0.00000   2 ;    OXT-     C-    CA-     N
     3     10      6      5      9 ;     0.00   2.84512   1 ;    OXT-     C-    CA-    CB
     3     10      6      5      9 ;   180.00   0.83680   2 ;    OXT-     C-    CA-    CB
     3     10      6      5      9 ;   180.00   1.84096   3 ;    OXT-     C-    CA-    CB
     3     10      6     16      9 ;     0.00   3.34720   1 ;    OXT-     C-    CA-    HA
     3     10      6     16      9 ;   180.00   0.33472   3 ;    OXT-     C-    CA-    HA
     4      6      5      7      9 ;   180.00   2.59408   1 ;      N-    CA-    CB-    CG
     4      6      5     14      9 ;     0.00   0.20920   3 ;      N-    CA-    CB-   HB1
     4      6      5     15      9 ;     0.00   0.20920   3 ;      N-    CA-    CB-   HB2
     5      6      4     19      9 ;   180.00   0.12552   3 ;     CB-    CA-     N-    H1
     5      6      4     20      9 ;   180.00   0.12552   3 ;     CB-    CA-     N-    H2
     5      7      8     11      9 ;   180.00  15.16700   2 ;     CB-    CG-   CD1-   CE1
     5      7      8     17      9 ;   180.00  15.16700   2 ;     CB-    CG-   CD1-   HD1
     5      7      9     12      9 ;   180.00  15.16700   2 ;     CB-    CG-   CD2-   CE2
     5      7      9     18      9 ;   180.00  15.16700   2 ;     CB-    CG-   CD2-   HD2
     6      5      7      8      9 ;   180.00   1.00416   2 ;     CA-    CB-    CG-   CD1
     6      5      7      9      9 ;   180.00   1.00416   2 ;     CA-    CB-    CG-   CD2
     7      5      6     10      9 ;     0.00   3.43088   1 ;     CG-    CB-    CA-     C
     7      5      6     16      9 ;     0.00   0.65084   3 ;     CG-    CB-    CA-    HA
     7      8     11     13      9 ;   180.00  15.16700   2 ;     CG-   CD1-   CE1-    CZ
     7      8     11     21      9 ;   180.00  15.16700   2 ;     CG-   CD1-   CE1-   HE1
     7      9     12     13      9 ;   180.00  15.16700   2 ;     CG-   CD2-   CE2-    CZ
     7      9     12     22      9 ;   180.00  15.16700   2 ;     CG-   CD2-   CE2-   HE2
     8      7      5     14      9 ;     0.00   0.00000   0 ;    CD1-    CG-    CB-   HB1
     8      7      5     15      9 ;     0.00   0.00000   0 ;    CD1-    CG-    CB-   HB2
     8      7      9     12      9 ;   180.00  15.16700   2 ;    CD1-    CG-   CD2-   CE2
     8      7      9     18      9 ;   180.00  15.16700   2 ;    CD1-    CG-   CD2-   HD2
     8     11     13     12      9 ;   180.00  15.16700   2 ;    CD1-   CE1-    CZ-   CE2
     9      7      5     14      9 ;     0.00   0.00000   0 ;    CD2-    CG-    CB-   HB1
     9      7      5     15      9 ;     0.00   0.00000   0 ;    CD2-    CG-    CB-   HB2
     9      7      8     11      9 ;   180.00  15.16700   2 ;    CD2-    CG-   CD1-   CE1
     9      7      8     17      9 ;   180.00  15.16700   2 ;    CD2-    CG-   CD1-   HD1
     9     12     13     11      9 ;   180.00  15.16700   2 ;    CD2-   CE2-    CZ-   CE1
    10      6      4     19      9 ;     0.00   1.25520   3 ;      C-    CA-     N-    H1
    10      6      4     20      9 ;     0.00   1.25520   3 ;      C-    CA-     N-    H2
    10      6      5     14      9 ;     0.00   0.65084   3 ;      C-    CA-    CB-   HB1
    10      6      5     15      9 ;     0.00   0.65084   3 ;      C-    CA-    CB-   HB2
    11     13      2     24      9 ;   180.00   3.57732   2 ;    CE1-    CZ-    OH-    HH
    11     13     12     22      9 ;   180.00  15.16700   2 ;    CE1-    CZ-   CE2-   HE2
    12     13      2     24      9 ;   180.00   3.57732   2 ;    CE2-    CZ-    OH-    HH
    12     13     11     21      9 ;   180.00  15.16700   2 ;    CE2-    CZ-   CE1-   HE1
    13     11      8     17      9 ;   180.00  15.16700   2 ;     CZ-   CE1-   CD1-   HD1
    13     12      9     18      9 ;   180.00  15.16700   2 ;     CZ-   CE2-   CD2-   HD2
    14      5      6     16      9 ;     0.00   0.65084   3 ;    HB1-    CB-    CA-    HA
    15      5      6     16      9 ;     0.00   0.65084   3 ;    HB2-    CB-    CA-    HA
    16      6      4     19      9 ;     0.00   1.25520   3 ;     HA-    CA-     N-    H1
    16      6      4     20      9 ;     0.00   1.25520   3 ;     HA-    CA-     N-    H2
    17      8     11     21      9 ;   180.00  15.16700   2 ;    HD1-   CD1-   CE1-   HE1
    18      9     12     22      9 ;   180.00  15.16700   2 ;    HD2-   CD2-   CE2-   HE2
    23      1     10      3      9 ;     0.00   7.94960   1 ;      H-     O-     C-   OXT
    23      1     10      3      9 ;   180.00   9.62320   2 ;      H-     O-     C-   OXT
    23      1     10      6      9 ;   180.00   7.53120   2 ;      H-     O-     C-    CA

[ dihedrals ] ; impropers
; treated as propers in GROMACS to use correct AMBER analytical function
;    i      j      k      l   func   phase     kd      pn
     1     10      3      6      4 ;   180.00   4.60240   2 ;      O-     C-   OXT-    CA
     7     11      8     17      4 ;   180.00   4.60240   2 ;     CG-   CE1-   CD1-   HD1
     7     12      9     18      4 ;   180.00   4.60240   2 ;     CG-   CE2-   CD2-   HD2
     8      9      7      5      4 ;   180.00   4.60240   2 ;    CD1-   CD2-    CG-    CB
     8     13     11     21      4 ;   180.00   4.60240   2 ;    CD1-    CZ-   CE1-   HE1
     9     13     12     22      4 ;   180.00   4.60240   2 ;    CD2-    CZ-   CE2-   HE2
    11     12     13      2      4 ;   180.00   4.60240   2 ;    CE1-   CE2-    CZ-    OH
