tyrosine_GMX.gro created by acpype (v: 2023.10.27) on Mon Feb  9 18:01:02 2026
 24
    1  TYR    O    1  -0.177  -0.163  -0.099
    1  TYR   OH    2   0.422  -0.064  -0.040
    1  TYR  OXT    3  -0.348  -0.116   0.042
    1  TYR    N    4  -0.324   0.150  -0.024
    1  TYR   CB    5  -0.105   0.102   0.076
    1  TYR   CA    6  -0.205   0.066  -0.035
    1  TYR   CG    7   0.036   0.058   0.045
    1  TYR  CD1    8   0.078  -0.068   0.086
    1  TYR  CD2    9   0.121   0.144  -0.023
    1  TYR    C   10  -0.252  -0.079  -0.024
    1  TYR  CE1   11   0.208  -0.109   0.057
    1  TYR  CE2   12   0.251   0.103  -0.051
    1  TYR   CZ   13   0.295  -0.024  -0.012
    1  TYR  HB1   14  -0.136   0.059   0.173
    1  TYR  HB2   15  -0.103   0.211   0.092
    1  TYR   HA   16  -0.163   0.081  -0.135
    1  TYR  HD1   17   0.012  -0.135   0.139
    1  TYR  HD2   18   0.088   0.242  -0.054
    1  TYR   H1   19  -0.298   0.247  -0.035
    1  TYR   H2   20  -0.363   0.142   0.070
    1  TYR  HE1   21   0.241  -0.208   0.089
    1  TYR  HE2   22   0.318   0.170  -0.105
    1  TYR    H   23  -0.209  -0.256  -0.093
    1  TYR   HH   24   0.435  -0.153  -0.005
   15.95800    10.06200     6.14200
