6057
    24
  -1.7730000  -1.6310000  -0.9930000   4.2180000  -0.6350000  -0.3950000
  -3.4800000  -1.1580000   0.4230000  -3.2390000   1.4950000  -0.2350000
  -1.0490000   1.0210000   0.7630000  -2.0480000   0.6550000  -0.3460000
   0.3620000   0.5770000   0.4530000   0.7800000  -0.6800000   0.8550000
   1.2080000   1.4370000  -0.2280000  -2.5200000  -0.7850000  -0.2380000
   2.0830000  -1.0890000   0.5690000   2.5100000   1.0280000  -0.5140000
   2.9480000  -0.2350000  -0.1160000  -1.3630000   0.5950000   1.7260000
  -1.0320000   2.1090000   0.9190000  -1.6250000   0.8140000  -1.3450000
   0.1160000  -1.3510000   1.3910000   0.8750000   2.4220000  -0.5440000
  -2.9780000   2.4740000  -0.3490000  -3.6300000   1.4190000   0.7040000
   2.4110000  -2.0750000   0.8850000   3.1790000   1.6970000  -1.0480000
  -2.0910000  -2.5570000  -0.9280000   4.3490000  -1.5340000  -0.0470000
