; tyrosine_GMX_OPLS.top created by acpype (v: 2023.10.27) on Mon Feb  9 18:01:02 2026

; Include forcefield parameters
#include "ffoplsaa.itp"

; Include tyrosine_GMX.itp topology
#include "tyrosine_GMX.itp"

; Ligand position restraints
#ifdef POSRES_LIG
#include "posre_tyrosine.itp"
#endif

[ system ]
 tyrosine

[ molecules ]
; Compound        nmols
 tyrosine         1     
