%VERSION  VERSION_STAMP = V0001.000  DATE = 02/09/26  18:01:10                  
%FLAG TITLE                                                                     
%FORMAT(20a4)                                                                   
6057                                                                            
%FLAG POINTERS                                                                  
%FORMAT(10I8)                                                                   
      24      10      11      13      21      17      43      23       0       0
     119       1      13      17      23      13      21      20      11       0
       0       0       0       0       0       0       0       0      24       0
       0
%FLAG ATOM_NAME                                                                 
%FORMAT(20a4)                                                                   
O   OH  OXT N   CB  CA  CG  CD1 CD2 C   CE1 CE2 CZ  HB1 HB2 HA  HD1 HD2 H1  H2  
HE1 HE2 H   HH  
%FLAG CHARGE                                                                    
%FORMAT(5E16.8)                                                                 
 -1.07712015E+01 -9.04008303E+00 -1.01498211E+01 -1.64510924E+01 -1.25916093E+00
  2.39623245E+00 -2.31969879E+00 -1.54889550E+00 -1.54889550E+00  1.17734280E+01
 -3.33468090E+00 -3.33468090E+00  2.33427663E+00  1.12431591E+00  1.12431591E+00
  1.76209641E+00  2.48734395E+00  2.48734395E+00  6.62016159E+00  6.62016159E+00
  2.62401120E+00  2.62401120E+00  8.09070120E+00  7.65336600E+00
%FLAG ATOMIC_NUMBER                                                             
%FORMAT(10I8)                                                                   
       8       8       8       7       6       6       6       6       6       6
       6       6       6       1       1       1       1       1       1       1
       1       1       1       1
%FLAG MASS                                                                      
%FORMAT(5E16.8)                                                                 
  1.60000000E+01  1.60000000E+01  1.60000000E+01  1.40100000E+01  1.20100000E+01
  1.20100000E+01  1.20100000E+01  1.20100000E+01  1.20100000E+01  1.20100000E+01
  1.20100000E+01  1.20100000E+01  1.20100000E+01  1.00800000E+00  1.00800000E+00
  1.00800000E+00  1.00800000E+00  1.00800000E+00  1.00800000E+00  1.00800000E+00
  1.00800000E+00  1.00800000E+00  1.00800000E+00  1.00800000E+00
%FLAG ATOM_TYPE_INDEX                                                           
%FORMAT(10I8)                                                                   
       1       1       2       3       4       4       5       5       5       5
       5       5       5       6       6       7       8       8       9       9
       8       8      10      10
%FLAG NUMBER_EXCLUDED_ATOMS                                                     
%FORMAT(10I8)                                                                   
       7       8       6       9      14      10      13       9       8       6
       6       5       5       2       1       2       1       1       1       1
       1       1       1       1
%FLAG NONBONDED_PARM_INDEX                                                      
%FORMAT(10I8)                                                                   
       1       2       4       7      11      16      22      29      37      46
       2       3       5       8      12      17      23      30      38      47
       4       5       6       9      13      18      24      31      39      48
       7       8       9      10      14      19      25      32      40      49
      11      12      13      14      15      20      26      33      41      50
      16      17      18      19      20      21      27      34      42      51
      22      23      24      25      26      27      28      35      43      52
      29      30      31      32      33      34      35      36      44      53
      37      38      39      40      41      42      43      44      45      54
      46      47      48      49      50      51      52      53      54      55
%FLAG RESIDUE_LABEL                                                             
%FORMAT(20a4)                                                                   
TYR 
%FLAG RESIDUE_POINTER                                                           
%FORMAT(10I8)                                                                   
       1
%FLAG BOND_FORCE_CONSTANT                                                       
%FORMAT(5E16.8)                                                                 
  3.59270000E+02  5.35510000E+02  3.48550000E+02  5.90600000E+02  2.53810000E+02
  4.60680000E+02  2.28890000E+02  2.43910000E+02  3.45250000E+02  2.34850000E+02
  3.44220000E+02  3.54250000E+02  3.60690000E+02
%FLAG BOND_EQUIL_VALUE                                                          
%FORMAT(5E16.8)                                                                 
  1.35560000E+00  9.72500000E-01  1.36440000E+00  1.21900000E+00  1.46510000E+00
  1.01920000E+00  1.53540000E+00  1.51470000E+00  1.09620000E+00  1.52700000E+00
  1.09690000E+00  1.39860000E+00  1.08600000E+00
%FLAG ANGLE_FORCE_CONSTANT                                                      
%FORMAT(5E16.8)                                                                 
  1.02030000E+02  7.74200000E+01  7.88600000E+01  7.64500000E+01  6.54800000E+01
  6.56600000E+01  4.82100000E+01  6.03600000E+01  4.32800000E+01  6.07400000E+01
  5.61700000E+01  6.03300000E+01  4.32700000E+01  4.36100000E+01  6.36700000E+01
  4.49000000E+01  6.84600000E+01  4.37400000E+01  6.74100000E+01  3.58000000E+01
  4.78900000E+01
%FLAG ANGLE_EQUIL_VALUE                                                         
%FORMAT(5E16.8)                                                                 
  2.13087340E+00  1.96768504E+00  2.09265067E+00  2.14501057E+00  1.93574550E+00
  1.93661817E+00  1.88705080E+00  1.94482122E+00  1.91270715E+00  2.10888224E+00
  1.91305621E+00  1.96209999E+00  1.91427794E+00  1.93085858E+00  2.09474507E+00
  2.09230160E+00  1.85947458E+00  1.89141412E+00  1.89507931E+00  1.88024401E+00
  1.85668205E+00
%FLAG DIHEDRAL_FORCE_CONSTANT                                                   
%FORMAT(5E16.8)                                                                 
  0.00000000E+00  3.62500000E+00  1.90000000E+00  2.30000000E+00  6.80000000E-01
  2.00000000E-01  4.40000000E-01  8.00000000E-01  8.00000000E-02  6.20000000E-01
  5.00000000E-02  3.00000000E-02  2.40000000E-01  1.80000000E+00  8.20000000E-01
  1.55555556E-01  0.00000000E+00  3.00000000E-01  8.55000000E-01  1.10000000E+00
%FLAG DIHEDRAL_PERIODICITY                                                      
%FORMAT(5E16.8)                                                                 
  2.00000000E+00  2.00000000E+00  1.00000000E+00  2.00000000E+00  1.00000000E+00
  2.00000000E+00  3.00000000E+00  1.00000000E+00  3.00000000E+00  1.00000000E+00
  3.00000000E+00  3.00000000E+00  2.00000000E+00  2.00000000E+00  1.00000000E+00
  3.00000000E+00  1.00000000E+00  3.00000000E+00  2.00000000E+00  2.00000000E+00
%FLAG DIHEDRAL_PHASE                                                            
%FORMAT(5E16.8)                                                                 
  3.14159400E+00  3.14159400E+00  0.00000000E+00  3.14159400E+00  0.00000000E+00
  3.14159400E+00  3.14159400E+00  0.00000000E+00  3.14159400E+00  3.14159400E+00
  0.00000000E+00  3.14159400E+00  3.14159400E+00  3.14159400E+00  0.00000000E+00
  0.00000000E+00  0.00000000E+00  0.00000000E+00  3.14159400E+00  3.14159400E+00
%FLAG SCEE_SCALE_FACTOR                                                         
%FORMAT(5E16.8)                                                                 
  1.20000000E+00  1.20000000E+00  1.20000000E+00  1.20000000E+00  1.20000000E+00
  1.20000000E+00  1.20000000E+00  1.20000000E+00  1.20000000E+00  1.20000000E+00
  1.20000000E+00  1.20000000E+00  1.20000000E+00  1.20000000E+00  1.20000000E+00
  1.20000000E+00  1.20000000E+00  1.20000000E+00  1.20000000E+00  0.00000000E+00
%FLAG SCNB_SCALE_FACTOR                                                         
%FORMAT(5E16.8)                                                                 
  2.00000000E+00  2.00000000E+00  2.00000000E+00  2.00000000E+00  2.00000000E+00
  2.00000000E+00  2.00000000E+00  2.00000000E+00  2.00000000E+00  2.00000000E+00
  2.00000000E+00  2.00000000E+00  2.00000000E+00  2.00000000E+00  2.00000000E+00
  2.00000000E+00  2.00000000E+00  2.00000000E+00  2.00000000E+00  0.00000000E+00
%FLAG SOLTY                                                                     
%FORMAT(5E16.8)                                                                 
  0.00000000E+00  0.00000000E+00  0.00000000E+00  0.00000000E+00  0.00000000E+00
  0.00000000E+00  0.00000000E+00  0.00000000E+00  0.00000000E+00  0.00000000E+00
  0.00000000E+00
%FLAG LENNARD_JONES_ACOEF                                                       
%FORMAT(5E16.8)                                                                 
  5.03152404E+05  4.37717034E+05  3.76435470E+05  6.15869455E+05  5.47655232E+05
  7.22850509E+05  7.18991463E+05  6.30925504E+05  8.65620051E+05  1.02073671E+06
  5.92438683E+05  5.17507491E+05  7.19505991E+05  8.43969952E+05  6.96551276E+05
  6.80216136E+04  5.68021765E+04  8.99910629E+04  1.00235148E+05  8.12662403E+04
  7.94617769E+03  4.69084694E+04  3.86646725E+04  6.36026248E+04  6.97998263E+04
  5.63013422E+04  5.22955465E+03  3.39005767E+03  6.30298721E+04  5.27277400E+04
  8.31063842E+04  9.27554496E+04  7.52549148E+04  7.41026906E+03  4.88692384E+03
  6.90855956E+03  1.36475542E+03  9.87857350E+02  2.35480845E+03  2.23577481E+03
  1.71458823E+03  9.47421632E+01  5.24570081E+01  9.04434904E+01  1.34728399E-01
  1.74176419E+02  1.15813907E+02  3.50407390E+02  3.03553352E+02  2.25372434E+02
  8.80612241E+00  4.36660257E+00  8.53132435E+00  2.61760843E-03  1.10360882E-05
%FLAG LENNARD_JONES_BCOEF                                                       
%FORMAT(5E16.8)                                                                 
  4.32634597E+02  4.51916854E+02  4.69350655E+02  3.67447838E+02  3.88056827E+02
  3.05601515E+02  5.36620538E+02  5.62969425E+02  4.52010965E+02  6.63431737E+02
  4.76608379E+02  4.98871431E+02  4.03215362E+02  5.90251928E+02  5.24668528E+02
  1.09393126E+02  1.11953944E+02  9.65931103E+01  1.37787728E+02  1.21392023E+02
  2.57122925E+01  9.08431526E+01  9.23664132E+01  8.12052260E+01  1.14981426E+02
  1.01040256E+02  2.08590256E+01  1.67944276E+01  9.87712192E+01  1.01173582E+02
  8.70671420E+01  1.24325688E+02  1.09570372E+02  2.32899892E+01  1.89134207E+01
  2.10929191E+01  1.29026271E+01  1.22938581E+01  1.30109323E+01  1.71355763E+01
  1.46824710E+01  2.33785449E+00  1.73959275E+00  2.14252117E+00  7.34107347E-02
  3.81654050E+00  3.48534600E+00  4.15567637E+00  5.22789272E+00  4.40751799E+00
  5.90150328E-01  4.15568027E-01  5.44840215E-01  8.47240681E-03  4.55498033E-04
%FLAG BONDS_INC_HYDROGEN                                                        
%FORMAT(10I8)                                                                   
       0      66       2       3      69       2       9      54       6       9
      57       6      12      39       9      12      42       9      15      45
      11      21      48      13      24      51      13      30      60      13
      33      63      13
%FLAG BONDS_WITHOUT_HYDROGEN                                                    
%FORMAT(10I8)                                                                   
       0      27       1       3      36       3       6      27       4       9
      15       5      12      15       7      12      18       8      15      27
      10      18      21      12      18      24      12      21      30      12
      24      33      12      30      36      12      33      36      12
%FLAG ANGLES_INC_HYDROGEN                                                       
%FORMAT(10I8)                                                                   
       9      15      45       7      12      15      45       9      15       9
      54      11      15       9      57      11      15      12      39      13
      15      12      42      13      18      12      39      14      18      12
      42      14      18      21      48      16      18      24      51      16
      21      30      60      16      24      33      63      16      27       0
      66      17      27      15      45      18      30      21      48      16
      33      24      51      16      36       3      69      19      36      30
      60      16      36      33      63      16      39      12      42      20
      54       9      57      21
%FLAG ANGLES_WITHOUT_HYDROGEN                                                   
%FORMAT(10I8)                                                                   
       0      27       6       1       0      27      15       2       3      36
      30       3       3      36      33       3       6      27      15       4
       9      15      12       5       9      15      27       6      12      15
      27       8      12      18      21      10      12      18      24      10
      15      12      18      12      18      21      30      15      18      24
      33      15      21      18      24      15      21      30      36      15
      24      33      36      15      30      36      33      15
%FLAG DIHEDRALS_INC_HYDROGEN                                                    
%FORMAT(10I8)                                                                   
       0      27      15      45       1       3      36      30      60       2
       3      36      33      63       2      66       0      27       6       3
      66       0     -27       6       4       6      27      15      45       8
       6      27     -15      45       9       9      15      12      39      11
       9      15      12      42      11      12      15       9      54      12
      12      15       9      57      12      12      18      21      48       2
      12      18      24      51       2      66       0      27      15      14
      18      12      15      45      16      18      21      30      60       2
      18      24      33      63       2      21      18      12      39      17
      21      18      12      42      17      21      18      24      51       2
      24      18      12      39      17      24      18      12      42      17
      24      18      21      48       2      27      15       9      54      18
      27      15       9      57      18      27      15      12      39      16
      27      15      12      42      16      30      36       3      69      19
      30      36      33      63       2      33      36       3      69      19
      33      36      30      60       2      36      30      21      48       2
      36      33      24      51       2      39      12      15      45      16
      42      12      15      45      16      45      15       9      54      18
      45      15       9      57      18      48      21      30      60       2
      51      24      33      63       2      18      30     -21     -48      20
      18      33     -24     -51      20      21      36     -30     -60      20
      24      36     -33     -63      20
%FLAG DIHEDRALS_WITHOUT_HYDROGEN                                                
%FORMAT(10I8)                                                                   
       0      27      15       9       1       0      27      15      12       1
       3      36      30      21       2       3      36      33      24       2
       6      27      15       9       1       6      27      15      12       5
       6      27     -15      12       6       6      27     -15      12       7
       9      15      12      18      10      12      18      21      30       2
      12      18      24      33       2      15      12      18      21      13
      15      12      18      24      13      18      12      15      27      15
      18      21      30      36       2      18      24     -33      36       2
      21      18      24      33       2      21      30     -36      33       2
      24      18      21      30       2      24      33     -36      30       2
      21      24     -18     -12      20       0      27      -6     -15      20
      30      33     -36      -3      20
%FLAG EXCLUDED_ATOMS_LIST                                                       
%FORMAT(10I8)                                                                   
       3       4       5       6      10      16      23       8       9      11
      12      13      21      22      24       4       5       6      10      16
      23       5       6       7      10      14      15      16      19      20
       6       7       8       9      10      11      12      14      15      16
      17      18      19      20       7       8       9      10      14      15
      16      19      20      23       8       9      10      11      12      13
      14      15      16      17      18      21      22       9      11      12
      13      14      15      17      18      21      11      12      13      14
      15      17      18      22      14      15      16      19      20      23
      12      13      17      21      22      24      13      18      21      22
      24      17      18      21      22      24      15      16      16      19
      20      21      22      20       0       0       0       0       0
%FLAG HBOND_ACOEF                                                               
%FORMAT(5E16.8)                                                                 

%FLAG HBOND_BCOEF                                                               
%FORMAT(5E16.8)                                                                 

%FLAG HBCUT                                                                     
%FORMAT(5E16.8)                                                                 

%FLAG AMBER_ATOM_TYPE                                                           
%FORMAT(20a4)                                                                   
oh  oh  o   n8  c3  c3  ca  ca  ca  c   ca  ca  ca  hc  hc  h1  ha  ha  hn  hn  
ha  ha  ho  ho  
%FLAG TREE_CHAIN_CLASSIFICATION                                                 
%FORMAT(20a4)                                                                   
BLA BLA BLA BLA BLA BLA BLA BLA BLA BLA BLA BLA BLA BLA BLA BLA BLA BLA BLA BLA 
BLA BLA BLA BLA 
%FLAG JOIN_ARRAY                                                                
%FORMAT(10I8)                                                                   
       0       0       0       0       0       0       0       0       0       0
       0       0       0       0       0       0       0       0       0       0
       0       0       0       0
%FLAG IROTAT                                                                    
%FORMAT(10I8)                                                                   
       0       0       0       0       0       0       0       0       0       0
       0       0       0       0       0       0       0       0       0       0
       0       0       0       0
%FLAG RADIUS_SET                                                                
%FORMAT(1a80)                                                                   
modified Bondi radii (mbondi)                                                   
%FLAG RADII                                                                     
%FORMAT(5E16.8)                                                                 
  1.50000000E+00  1.50000000E+00  1.50000000E+00  1.55000000E+00  1.70000000E+00
  1.70000000E+00  1.70000000E+00  1.70000000E+00  1.70000000E+00  1.70000000E+00
  1.70000000E+00  1.70000000E+00  1.70000000E+00  1.30000000E+00  1.30000000E+00
  1.30000000E+00  1.30000000E+00  1.30000000E+00  1.30000000E+00  1.30000000E+00
  1.30000000E+00  1.30000000E+00  8.00000000E-01  8.00000000E-01
%FLAG SCREEN                                                                    
%FORMAT(5E16.8)                                                                 
  8.50000000E-01  8.50000000E-01  8.50000000E-01  7.90000000E-01  7.20000000E-01
  7.20000000E-01  7.20000000E-01  7.20000000E-01  7.20000000E-01  7.20000000E-01
  7.20000000E-01  7.20000000E-01  7.20000000E-01  8.50000000E-01  8.50000000E-01
  8.50000000E-01  8.50000000E-01  8.50000000E-01  8.50000000E-01  8.50000000E-01
  8.50000000E-01  8.50000000E-01  8.50000000E-01  8.50000000E-01
%FLAG IPOL                                                                      
%FORMAT(1I8)                                                                    
       0
