; testosterone_GMX.top created by acpype (v: 2023.10.27) on Mon Feb  9 17:59:44 2026

[ defaults ]
; nbfunc        comb-rule       gen-pairs       fudgeLJ fudgeQQ
1               2               yes             0.5     0.8333333333

; Include testosterone_GMX.itp topology
#include "testosterone_GMX.itp"

; Ligand position restraints
#ifdef POSRES_LIG
#include "posre_testosterone.itp"
#endif

[ system ]
 testosterone

[ molecules ]
; Compound        nmols
 testosterone     1     
