; testosterone_GMX.itp created by acpype (v: 2023.10.27) on Mon Feb  9 17:59:44 2026

[ atomtypes ]
;name   bond_type     mass     charge   ptype   sigma         epsilon       Amb
 oh       oh          0.00000  0.00000   A     3.24287e-01   3.89112e-01 ; 1.82  0.0930
 o        o           0.00000  0.00000   A     3.04812e-01   6.12119e-01 ; 1.71  0.1463
 c5       c5          0.00000  0.00000   A     3.39771e-01   4.51035e-01 ; 1.91  0.1078
 c6       c6          0.00000  0.00000   A     3.39771e-01   4.51035e-01 ; 1.91  0.1078
 c2       c2          0.00000  0.00000   A     3.31521e-01   4.13379e-01 ; 1.86  0.0988
 c3       c3          0.00000  0.00000   A     3.39771e-01   4.51035e-01 ; 1.91  0.1078
 ce       ce          0.00000  0.00000   A     3.31521e-01   4.13379e-01 ; 1.86  0.0988
 c        c           0.00000  0.00000   A     3.31521e-01   4.13379e-01 ; 1.86  0.0988
 hc       hc          0.00000  0.00000   A     2.60018e-01   8.70272e-02 ; 1.46  0.0208
 h1       h1          0.00000  0.00000   A     2.42200e-01   8.70272e-02 ; 1.36  0.0208
 ha       ha          0.00000  0.00000   A     2.62548e-01   6.73624e-02 ; 1.47  0.0161
 ho       ho          0.00000  0.00000   A     5.37925e-02   1.96648e-02 ; 0.30  0.0047

[ moleculetype ]
;name            nrexcl
 testosterone     3

[ atoms ]
;   nr  type  resi  res  atom  cgnr     charge      mass       ; qtot   bond_type
     1   oh     1   UNL     O    1    -0.588800     16.00000 ; qtot -0.589
     2    o     1   UNL    O1    2    -0.535100     16.00000 ; qtot -1.124
     3   c5     1   UNL     C    3    -0.063700     12.01000 ; qtot -1.188
     4   c5     1   UNL    C1    4    -0.084000     12.01000 ; qtot -1.272
     5   c6     1   UNL    C2    5    -0.049700     12.01000 ; qtot -1.321
     6   c6     1   UNL    C3    6    -0.047700     12.01000 ; qtot -1.369
     7   c6     1   UNL    C4    7    -0.015800     12.01000 ; qtot -1.385
     8   c6     1   UNL    C5    8    -0.061400     12.01000 ; qtot -1.446
     9   c6     1   UNL    C6    9    -0.076400     12.01000 ; qtot -1.523
    10   c5     1   UNL    C7   10     0.145100     12.01000 ; qtot -1.378
    11   c5     1   UNL    C8   11    -0.073400     12.01000 ; qtot -1.451
    12   c6     1   UNL    C9   12    -0.072400     12.01000 ; qtot -1.523
    13   c5     1   UNL   C10   13    -0.114400     12.01000 ; qtot -1.638
    14   c2     1   UNL   C11   14    -0.028400     12.01000 ; qtot -1.666
    15   c6     1   UNL   C12   15    -0.054200     12.01000 ; qtot -1.720
    16   c3     1   UNL   C13   16    -0.090100     12.01000 ; qtot -1.810
    17   c6     1   UNL   C14   17    -0.070400     12.01000 ; qtot -1.881
    18   c3     1   UNL   C15   18    -0.085100     12.01000 ; qtot -1.966
    19   c6     1   UNL   C16   19    -0.182400     12.01000 ; qtot -2.148
    20   ce     1   UNL   C17   20    -0.265200     12.01000 ; qtot -2.414
    21    c     1   UNL   C18   21     0.569300     12.01000 ; qtot -1.844
    22   hc     1   UNL     H   22     0.049700      1.00800 ; qtot -1.794
    23   hc     1   UNL    H1   23     0.056700      1.00800 ; qtot -1.738
    24   hc     1   UNL    H2   24     0.051700      1.00800 ; qtot -1.686
    25   hc     1   UNL    H3   25     0.047200      1.00800 ; qtot -1.639
    26   hc     1   UNL    H4   26     0.047200      1.00800 ; qtot -1.592
    27   hc     1   UNL    H5   27     0.043200      1.00800 ; qtot -1.548
    28   hc     1   UNL    H6   28     0.043200      1.00800 ; qtot -1.505
    29   h1     1   UNL    H7   29     0.078700      1.00800 ; qtot -1.427
    30   hc     1   UNL    H8   30     0.044700      1.00800 ; qtot -1.382
    31   hc     1   UNL    H9   31     0.044700      1.00800 ; qtot -1.337
    32   hc     1   UNL   H10   32     0.047700      1.00800 ; qtot -1.290
    33   hc     1   UNL   H11   33     0.047700      1.00800 ; qtot -1.242
    34   hc     1   UNL   H12   34     0.049700      1.00800 ; qtot -1.192
    35   hc     1   UNL   H13   35     0.049700      1.00800 ; qtot -1.142
    36   hc     1   UNL   H14   36     0.055700      1.00800 ; qtot -1.087
    37   hc     1   UNL   H15   37     0.055700      1.00800 ; qtot -1.031
    38   hc     1   UNL   H16   38     0.038700      1.00800 ; qtot -0.992
    39   hc     1   UNL   H17   39     0.038700      1.00800 ; qtot -0.954
    40   hc     1   UNL   H18   40     0.038700      1.00800 ; qtot -0.915
    41   hc     1   UNL   H19   41     0.051200      1.00800 ; qtot -0.864
    42   hc     1   UNL   H20   42     0.051200      1.00800 ; qtot -0.812
    43   hc     1   UNL   H21   43     0.040700      1.00800 ; qtot -0.772
    44   hc     1   UNL   H22   44     0.040700      1.00800 ; qtot -0.731
    45   hc     1   UNL   H23   45     0.040700      1.00800 ; qtot -0.690
    46   hc     1   UNL   H24   46     0.071700      1.00800 ; qtot -0.619
    47   hc     1   UNL   H25   47     0.071700      1.00800 ; qtot -0.547
    48   ha     1   UNL   H26   48     0.148000      1.00800 ; qtot -0.399
    49   ho     1   UNL   H27   49     0.399000      1.00800 ; qtot 0.000

[ bonds ]
;   ai     aj funct   r             k
     1     10   1    1.4194e-01    2.4241e+05 ;      O - C7    
     1     49   1    9.7250e-02    4.4811e+05 ;      O - H27   
     2     21   1    1.2190e-01    4.9421e+05 ;     O1 - C18   
     3      4   1    1.5483e-01    1.8418e+05 ;      C - C1    
     3      5   1    1.5389e-01    1.8951e+05 ;      C - C2    
     3     11   1    1.5483e-01    1.8418e+05 ;      C - C8    
     3     22   1    1.0954e-01    2.8989e+05 ;      C - H     
     4      8   1    1.5389e-01    1.8951e+05 ;     C1 - C5    
     4     10   1    1.5483e-01    1.8418e+05 ;     C1 - C7    
     4     16   1    1.5372e-01    1.9049e+05 ;     C1 - C13   
     5      6   1    1.5384e-01    1.8979e+05 ;     C2 - C3    
     5     12   1    1.5384e-01    1.8979e+05 ;     C2 - C9    
     5     23   1    1.0979e-01    2.8681e+05 ;     C2 - H1    
     6      7   1    1.5384e-01    1.8979e+05 ;     C3 - C4    
     6      9   1    1.5384e-01    1.8979e+05 ;     C3 - C6    
     6     24   1    1.0979e-01    2.8681e+05 ;     C3 - H2    
     7     14   1    1.5133e-01    2.0498e+05 ;     C4 - C11   
     7     17   1    1.5384e-01    1.8979e+05 ;     C4 - C14   
     7     18   1    1.5428e-01    1.8728e+05 ;     C4 - C15   
     8      9   1    1.5384e-01    1.8979e+05 ;     C5 - C6    
     8     25   1    1.0979e-01    2.8681e+05 ;     C5 - H3    
     8     26   1    1.0979e-01    2.8681e+05 ;     C5 - H4    
     9     27   1    1.0979e-01    2.8681e+05 ;     C6 - H5    
     9     28   1    1.0979e-01    2.8681e+05 ;     C6 - H6    
    10     13   1    1.5483e-01    1.8418e+05 ;     C7 - C10   
    10     29   1    1.0972e-01    2.8768e+05 ;     C7 - H7    
    11     13   1    1.5483e-01    1.8418e+05 ;     C8 - C10   
    11     30   1    1.0954e-01    2.8989e+05 ;     C8 - H8    
    11     31   1    1.0954e-01    2.8989e+05 ;     C8 - H9    
    12     15   1    1.5384e-01    1.8979e+05 ;     C9 - C12   
    12     32   1    1.0979e-01    2.8681e+05 ;     C9 - H10   
    12     33   1    1.0979e-01    2.8681e+05 ;     C9 - H11   
    13     34   1    1.0954e-01    2.8989e+05 ;    C10 - H12   
    13     35   1    1.0954e-01    2.8989e+05 ;    C10 - H13   
    14     15   1    1.5133e-01    2.0498e+05 ;    C11 - C12   
    14     20   1    1.3457e-01    3.5505e+05 ;    C11 - C17   
    15     36   1    1.0979e-01    2.8681e+05 ;    C12 - H14   
    15     37   1    1.0979e-01    2.8681e+05 ;    C12 - H15   
    16     38   1    1.0962e-01    2.8891e+05 ;    C13 - H16   
    16     39   1    1.0962e-01    2.8891e+05 ;    C13 - H17   
    16     40   1    1.0962e-01    2.8891e+05 ;    C13 - H18   
    17     19   1    1.5384e-01    1.8979e+05 ;    C14 - C16   
    17     41   1    1.0979e-01    2.8681e+05 ;    C14 - H19   
    17     42   1    1.0979e-01    2.8681e+05 ;    C14 - H20   
    18     43   1    1.0962e-01    2.8891e+05 ;    C15 - H21   
    18     44   1    1.0962e-01    2.8891e+05 ;    C15 - H22   
    18     45   1    1.0962e-01    2.8891e+05 ;    C15 - H23   
    19     21   1    1.5287e-01    1.9550e+05 ;    C16 - C18   
    19     46   1    1.0979e-01    2.8681e+05 ;    C16 - H24   
    19     47   1    1.0979e-01    2.8681e+05 ;    C16 - H25   
    20     21   1    1.4848e-01    2.2406e+05 ;    C17 - C18   
    20     48   1    1.0880e-01    2.9923e+05 ;    C17 - H26   

[ pairs ]
;   ai     aj    funct
     1      3      1 ;      O - C     
     1      8      1 ;      O - C5    
     1     11      1 ;      O - C8    
     1     16      1 ;      O - C13   
     1     34      1 ;      O - H12   
     1     35      1 ;      O - H13   
     2     14      1 ;     O1 - C11   
     2     17      1 ;     O1 - C14   
     2     46      1 ;     O1 - H24   
     2     47      1 ;     O1 - H25   
     2     48      1 ;     O1 - H26   
     3      7      1 ;      C - C4    
     3      9      1 ;      C - C6    
     3     15      1 ;      C - C12   
     3     24      1 ;      C - H2    
     3     25      1 ;      C - H3    
     3     26      1 ;      C - H4    
     3     29      1 ;      C - H7    
     3     32      1 ;      C - H10   
     3     33      1 ;      C - H11   
     3     34      1 ;      C - H12   
     3     35      1 ;      C - H13   
     3     38      1 ;      C - H16   
     3     39      1 ;      C - H17   
     3     40      1 ;      C - H18   
     4      6      1 ;     C1 - C3    
     4     12      1 ;     C1 - C9    
     4     23      1 ;     C1 - H1    
     4     27      1 ;     C1 - H5    
     4     28      1 ;     C1 - H6    
     4     30      1 ;     C1 - H8    
     4     31      1 ;     C1 - H9    
     4     34      1 ;     C1 - H12   
     4     35      1 ;     C1 - H13   
     5      8      1 ;     C2 - C5    
     5     10      1 ;     C2 - C7    
     5     13      1 ;     C2 - C10   
     5     14      1 ;     C2 - C11   
     5     16      1 ;     C2 - C13   
     5     17      1 ;     C2 - C14   
     5     18      1 ;     C2 - C15   
     5     27      1 ;     C2 - H5    
     5     28      1 ;     C2 - H6    
     5     30      1 ;     C2 - H8    
     5     31      1 ;     C2 - H9    
     5     36      1 ;     C2 - H14   
     5     37      1 ;     C2 - H15   
     6     11      1 ;     C3 - C8    
     6     15      1 ;     C3 - C12   
     6     19      1 ;     C3 - C16   
     6     20      1 ;     C3 - C17   
     6     22      1 ;     C3 - H     
     6     25      1 ;     C3 - H3    
     6     26      1 ;     C3 - H4    
     6     32      1 ;     C3 - H10   
     6     33      1 ;     C3 - H11   
     6     41      1 ;     C3 - H19   
     6     42      1 ;     C3 - H20   
     6     43      1 ;     C3 - H21   
     6     44      1 ;     C3 - H22   
     6     45      1 ;     C3 - H23   
     7      8      1 ;     C4 - C5    
     7     12      1 ;     C4 - C9    
     7     21      1 ;     C4 - C18   
     7     23      1 ;     C4 - H1    
     7     27      1 ;     C4 - H5    
     7     28      1 ;     C4 - H6    
     7     36      1 ;     C4 - H14   
     7     37      1 ;     C4 - H15   
     7     46      1 ;     C4 - H24   
     7     47      1 ;     C4 - H25   
     7     48      1 ;     C4 - H26   
     8     11      1 ;     C5 - C8    
     8     13      1 ;     C5 - C10   
     8     22      1 ;     C5 - H     
     8     24      1 ;     C5 - H2    
     8     29      1 ;     C5 - H7    
     8     38      1 ;     C5 - H16   
     8     39      1 ;     C5 - H17   
     8     40      1 ;     C5 - H18   
     9     10      1 ;     C6 - C7    
     9     12      1 ;     C6 - C9    
     9     14      1 ;     C6 - C11   
     9     16      1 ;     C6 - C13   
     9     17      1 ;     C6 - C14   
     9     18      1 ;     C6 - C15   
     9     23      1 ;     C6 - H1    
    10     22      1 ;     C7 - H     
    10     25      1 ;     C7 - H3    
    10     26      1 ;     C7 - H4    
    10     30      1 ;     C7 - H8    
    10     31      1 ;     C7 - H9    
    10     38      1 ;     C7 - H16   
    10     39      1 ;     C7 - H17   
    10     40      1 ;     C7 - H18   
    11     12      1 ;     C8 - C9    
    11     16      1 ;     C8 - C13   
    11     23      1 ;     C8 - H1    
    11     29      1 ;     C8 - H7    
    12     20      1 ;     C9 - C17   
    12     22      1 ;     C9 - H     
    12     24      1 ;     C9 - H2    
    13     16      1 ;    C10 - C13   
    13     22      1 ;    C10 - H     
    14     19      1 ;    C11 - C16   
    14     24      1 ;    C11 - H2    
    14     32      1 ;    C11 - H10   
    14     33      1 ;    C11 - H11   
    14     41      1 ;    C11 - H19   
    14     42      1 ;    C11 - H20   
    14     43      1 ;    C11 - H21   
    14     44      1 ;    C11 - H22   
    14     45      1 ;    C11 - H23   
    15     17      1 ;    C12 - C14   
    15     18      1 ;    C12 - C15   
    15     21      1 ;    C12 - C18   
    15     23      1 ;    C12 - H1    
    15     48      1 ;    C12 - H26   
    16     22      1 ;    C13 - H     
    16     25      1 ;    C13 - H3    
    16     26      1 ;    C13 - H4    
    16     29      1 ;    C13 - H7    
    17     20      1 ;    C14 - C17   
    17     24      1 ;    C14 - H2    
    17     43      1 ;    C14 - H21   
    17     44      1 ;    C14 - H22   
    17     45      1 ;    C14 - H23   
    18     19      1 ;    C15 - C16   
    18     20      1 ;    C15 - C17   
    18     24      1 ;    C15 - H2    
    18     41      1 ;    C15 - H19   
    18     42      1 ;    C15 - H20   
    19     48      1 ;    C16 - H26   
    20     36      1 ;    C17 - H14   
    20     37      1 ;    C17 - H15   
    20     46      1 ;    C17 - H24   
    20     47      1 ;    C17 - H25   
    21     41      1 ;    C18 - H19   
    21     42      1 ;    C18 - H20   
    22     23      1 ;      H - H1    
    22     30      1 ;      H - H8    
    22     31      1 ;      H - H9    
    23     24      1 ;     H1 - H2    
    23     32      1 ;     H1 - H10   
    23     33      1 ;     H1 - H11   
    24     27      1 ;     H2 - H5    
    24     28      1 ;     H2 - H6    
    25     27      1 ;     H3 - H5    
    25     28      1 ;     H3 - H6    
    26     27      1 ;     H4 - H5    
    26     28      1 ;     H4 - H6    
    29     34      1 ;     H7 - H12   
    29     35      1 ;     H7 - H13   
    30     34      1 ;     H8 - H12   
    30     35      1 ;     H8 - H13   
    31     34      1 ;     H9 - H12   
    31     35      1 ;     H9 - H13   
    32     36      1 ;    H10 - H14   
    32     37      1 ;    H10 - H15   
    33     36      1 ;    H11 - H14   
    33     37      1 ;    H11 - H15   
    41     46      1 ;    H19 - H24   
    41     47      1 ;    H19 - H25   
    42     46      1 ;    H20 - H24   
    42     47      1 ;    H20 - H25   
    49      4      1 ;    H27 - C1    
    49     13      1 ;    H27 - C10   
    49     29      1 ;    H27 - H7    

[ angles ]
;   ai     aj     ak    funct   theta         cth
     1     10      4      1    1.1162e+02    6.3455e+02 ;      O - C7     - C1    
     1     10     13      1    1.1162e+02    6.3455e+02 ;      O - C7     - C10   
     1     10     29      1    1.1027e+02    4.7254e+02 ;      O - C7     - H7    
     2     21     19      1    1.2234e+02    6.4065e+02 ;     O1 - C18    - C16   
     2     21     20      1    1.2324e+02    6.5262e+02 ;     O1 - C18    - C17   
     3      4      8      1    1.1375e+02    4.9589e+02 ;      C - C1     - C5    
     3      4     10      1    1.0383e+02    5.1748e+02 ;      C - C1     - C7    
     3      4     16      1    1.1360e+02    4.9647e+02 ;      C - C1     - C13   
     3      5      6      1    1.1104e+02    5.0350e+02 ;      C - C2     - C3    
     3      5     12      1    1.1104e+02    5.0350e+02 ;      C - C2     - C9    
     3      5     23      1    1.0934e+02    3.6183e+02 ;      C - C2     - H1    
     3     11     13      1    1.0383e+02    5.1748e+02 ;      C - C8     - C10   
     3     11     30      1    1.1117e+02    3.5690e+02 ;      C - C8     - H8    
     3     11     31      1    1.1117e+02    3.5690e+02 ;      C - C8     - H9    
     4      3      5      1    1.1375e+02    4.9589e+02 ;     C1 - C      - C2    
     4      3     11      1    1.0383e+02    5.1748e+02 ;     C1 - C      - C8    
     4      3     22      1    1.1117e+02    3.5690e+02 ;     C1 - C      - H     
     4      8      9      1    1.1104e+02    5.0350e+02 ;     C1 - C5     - C6    
     4      8     25      1    1.0934e+02    3.6183e+02 ;     C1 - C5     - H3    
     4      8     26      1    1.0934e+02    3.6183e+02 ;     C1 - C5     - H4    
     4     10     13      1    1.0383e+02    5.1748e+02 ;     C1 - C7     - C10   
     4     10     29      1    1.1117e+02    3.5690e+02 ;     C1 - C7     - H7    
     4     16     38      1    1.1053e+02    3.6033e+02 ;     C1 - C13    - H16   
     4     16     39      1    1.1053e+02    3.6033e+02 ;     C1 - C13    - H17   
     4     16     40      1    1.1053e+02    3.6033e+02 ;     C1 - C13    - H18   
     5      3     11      1    1.1375e+02    4.9589e+02 ;     C2 - C      - C8    
     5      3     22      1    1.0642e+02    3.6685e+02 ;     C2 - C      - H     
     5      6      7      1    1.1106e+02    5.0359e+02 ;     C2 - C3     - C4    
     5      6      9      1    1.1106e+02    5.0359e+02 ;     C2 - C3     - C6    
     5      6     24      1    1.0945e+02    3.6175e+02 ;     C2 - C3     - H2    
     5     12     15      1    1.1106e+02    5.0359e+02 ;     C2 - C9     - C12   
     5     12     32      1    1.0945e+02    3.6175e+02 ;     C2 - C9     - H10   
     5     12     33      1    1.0945e+02    3.6175e+02 ;     C2 - C9     - H11   
     6      5     12      1    1.1106e+02    5.0359e+02 ;     C3 - C2     - C9    
     6      5     23      1    1.0945e+02    3.6175e+02 ;     C3 - C2     - H1    
     6      7     14      1    1.1141e+02    5.0685e+02 ;     C3 - C4     - C11   
     6      7     17      1    1.1106e+02    5.0359e+02 ;     C3 - C4     - C14   
     6      7     18      1    1.1143e+02    5.0200e+02 ;     C3 - C4     - C15   
     6      9      8      1    1.1106e+02    5.0359e+02 ;     C3 - C6     - C5    
     6      9     27      1    1.0945e+02    3.6175e+02 ;     C3 - C6     - H5    
     6      9     28      1    1.0945e+02    3.6175e+02 ;     C3 - C6     - H6    
     7      6      9      1    1.1106e+02    5.0359e+02 ;     C4 - C3     - C6    
     7      6     24      1    1.0945e+02    3.6175e+02 ;     C4 - C3     - H2    
     7     14     15      1    1.1596e+02    5.0099e+02 ;     C4 - C11    - C12   
     7     14     20      1    1.2265e+02    5.1212e+02 ;     C4 - C11    - C17   
     7     17     19      1    1.1106e+02    5.0359e+02 ;     C4 - C14    - C16   
     7     17     41      1    1.0945e+02    3.6175e+02 ;     C4 - C14    - H19   
     7     17     42      1    1.0945e+02    3.6175e+02 ;     C4 - C14    - H20   
     7     18     43      1    1.1063e+02    3.5890e+02 ;     C4 - C15    - H21   
     7     18     44      1    1.1063e+02    3.5890e+02 ;     C4 - C15    - H22   
     7     18     45      1    1.1063e+02    3.5890e+02 ;     C4 - C15    - H23   
     8      4     10      1    1.1375e+02    4.9589e+02 ;     C5 - C1     - C7    
     8      4     16      1    1.1056e+02    5.0484e+02 ;     C5 - C1     - C13   
     8      9     27      1    1.0945e+02    3.6175e+02 ;     C5 - C6     - H5    
     8      9     28      1    1.0945e+02    3.6175e+02 ;     C5 - C6     - H6    
     9      6     24      1    1.0945e+02    3.6175e+02 ;     C6 - C3     - H2    
     9      8     25      1    1.0945e+02    3.6175e+02 ;     C6 - C5     - H3    
     9      8     26      1    1.0945e+02    3.6175e+02 ;     C6 - C5     - H4    
    10      1     49      1    1.0717e+02    5.4727e+02 ;     C7 - O      - H27   
    10      4     16      1    1.1360e+02    4.9647e+02 ;     C7 - C1     - C13   
    10     13     11      1    1.0383e+02    5.1748e+02 ;     C7 - C10    - C8    
    10     13     34      1    1.1117e+02    3.5690e+02 ;     C7 - C10    - H12   
    10     13     35      1    1.1117e+02    3.5690e+02 ;     C7 - C10    - H13   
    11      3     22      1    1.1117e+02    3.5690e+02 ;     C8 - C      - H     
    11     13     34      1    1.1117e+02    3.5690e+02 ;     C8 - C10    - H12   
    11     13     35      1    1.1117e+02    3.5690e+02 ;     C8 - C10    - H13   
    12      5     23      1    1.0945e+02    3.6175e+02 ;     C9 - C2     - H1    
    12     15     14      1    1.1141e+02    5.0685e+02 ;     C9 - C12    - C11   
    12     15     36      1    1.0945e+02    3.6175e+02 ;     C9 - C12    - H14   
    12     15     37      1    1.0945e+02    3.6175e+02 ;     C9 - C12    - H15   
    13     10     29      1    1.1117e+02    3.5690e+02 ;    C10 - C7     - H7    
    13     11     30      1    1.1117e+02    3.5690e+02 ;    C10 - C8     - H8    
    13     11     31      1    1.1117e+02    3.5690e+02 ;    C10 - C8     - H9    
    14      7     17      1    1.1141e+02    5.0685e+02 ;    C11 - C4     - C14   
    14      7     18      1    1.0977e+02    5.0986e+02 ;    C11 - C4     - C15   
    14     15     36      1    1.0931e+02    3.6736e+02 ;    C11 - C12    - H14   
    14     15     37      1    1.0931e+02    3.6736e+02 ;    C11 - C12    - H15   
    14     20     21      1    1.2200e+02    5.1974e+02 ;    C11 - C17    - C18   
    14     20     48      1    1.2000e+02    3.8694e+02 ;    C11 - C17    - H26   
    15     12     32      1    1.0945e+02    3.6175e+02 ;    C12 - C9     - H10   
    15     12     33      1    1.0945e+02    3.6175e+02 ;    C12 - C9     - H11   
    15     14     20      1    1.2265e+02    5.1212e+02 ;    C12 - C11    - C17   
    17      7     18      1    1.1143e+02    5.0200e+02 ;    C14 - C4     - C15   
    17     19     21      1    1.1143e+02    5.0434e+02 ;    C14 - C16    - C18   
    17     19     46      1    1.0945e+02    3.6175e+02 ;    C14 - C16    - H24   
    17     19     47      1    1.0945e+02    3.6175e+02 ;    C14 - C16    - H25   
    19     17     41      1    1.0945e+02    3.6175e+02 ;    C16 - C14    - H19   
    19     17     42      1    1.0945e+02    3.6175e+02 ;    C16 - C14    - H20   
    19     21     20      1    1.1615e+02    5.0258e+02 ;    C16 - C18    - C17   
    21     19     46      1    1.0767e+02    3.6685e+02 ;    C18 - C16    - H24   
    21     19     47      1    1.0767e+02    3.6685e+02 ;    C18 - C16    - H25   
    21     20     48      1    1.1641e+02    3.6242e+02 ;    C18 - C17    - H26   
    25      8     26      1    1.0662e+02    3.0066e+02 ;     H3 - C5     - H4    
    27      9     28      1    1.0662e+02    3.0066e+02 ;     H5 - C6     - H6    
    30     11     31      1    1.0722e+02    3.0049e+02 ;     H8 - C8     - H9    
    32     12     33      1    1.0662e+02    3.0066e+02 ;    H10 - C9     - H11   
    34     13     35      1    1.0722e+02    3.0049e+02 ;    H12 - C10    - H13   
    36     15     37      1    1.0662e+02    3.0066e+02 ;    H14 - C12    - H15   
    38     16     39      1    1.0773e+02    2.9957e+02 ;    H16 - C13    - H17   
    38     16     40      1    1.0773e+02    2.9957e+02 ;    H16 - C13    - H18   
    39     16     40      1    1.0773e+02    2.9957e+02 ;    H17 - C13    - H18   
    41     17     42      1    1.0662e+02    3.0066e+02 ;    H19 - C14    - H20   
    43     18     44      1    1.0773e+02    2.9957e+02 ;    H21 - C15    - H22   
    43     18     45      1    1.0773e+02    2.9957e+02 ;    H21 - C15    - H23   
    44     18     45      1    1.0773e+02    2.9957e+02 ;    H22 - C15    - H23   
    46     19     47      1    1.0662e+02    3.0066e+02 ;    H24 - C16    - H25   

[ dihedrals ] ; propers
; for gromacs 4.5 or higher, using funct 9
;    i      j      k      l   func   phase     kd      pn
     1     10      4      3      9     0.00   0.75312   3 ;      O-    C7-    C1-     C
     1     10      4      8      9     0.00   0.75312   3 ;      O-    C7-    C1-    C5
     1     10      4     16      9     0.00   0.75312   3 ;      O-    C7-    C1-   C13
     1     10     13     11      9     0.00   0.75312   3 ;      O-    C7-   C10-    C8
     1     10     13     34      9     0.00   0.37656   3 ;      O-    C7-   C10-   H12
     1     10     13     35      9     0.00   0.37656   3 ;      O-    C7-   C10-   H13
     2     21     19     17      9     0.00   0.46024   2 ;     O1-   C18-   C16-   C14
     2     21     19     17      9     0.00  49.12016   1 ;     O1-   C18-   C16-   C14
     2     21     19     17      9   180.00   0.33472   3 ;     O1-   C18-   C16-   C14
     2     21     19     46      9     0.00  16.86152   1 ;     O1-   C18-   C16-   H24
     2     21     19     46      9   180.00  15.31344   2 ;     O1-   C18-   C16-   H24
     2     21     19     47      9     0.00  16.86152   1 ;     O1-   C18-   C16-   H25
     2     21     19     47      9   180.00  15.31344   2 ;     O1-   C18-   C16-   H25
     2     21     20     14      9   180.00   9.10020   2 ;     O1-   C18-   C17-   C11
     2     21     20     48      9   180.00   9.10020   2 ;     O1-   C18-   C17-   H26
     3      4      8      9      9     0.00   2.17568   3 ;      C-    C1-    C5-    C6
     3      4      8     25      9     0.00   0.54392   3 ;      C-    C1-    C5-    H3
     3      4      8     26      9     0.00   0.54392   3 ;      C-    C1-    C5-    H4
     3      4     10     13      9     0.00   2.17568   3 ;      C-    C1-    C7-   C10
     3      4     10     29      9     0.00   0.65084   3 ;      C-    C1-    C7-    H7
     3      4     16     38      9     0.00   0.54392   3 ;      C-    C1-   C13-   H16
     3      4     16     39      9     0.00   0.54392   3 ;      C-    C1-   C13-   H17
     3      4     16     40      9     0.00   0.54392   3 ;      C-    C1-   C13-   H18
     3      5      6      7      9     0.00   2.17568   3 ;      C-    C2-    C3-    C4
     3      5      6      9      9     0.00   2.17568   3 ;      C-    C2-    C3-    C6
     3      5      6     24      9     0.00   0.54392   3 ;      C-    C2-    C3-    H2
     3      5     12     15      9     0.00   2.17568   3 ;      C-    C2-    C9-   C12
     3      5     12     32      9     0.00   0.54392   3 ;      C-    C2-    C9-   H10
     3      5     12     33      9     0.00   0.54392   3 ;      C-    C2-    C9-   H11
     3     11     13     10      9     0.00   2.17568   3 ;      C-    C8-   C10-    C7
     3     11     13     34      9     0.00   0.54392   3 ;      C-    C8-   C10-   H12
     3     11     13     35      9     0.00   0.54392   3 ;      C-    C8-   C10-   H13
     4      3      5      6      9     0.00   2.17568   3 ;     C1-     C-    C2-    C3
     4      3      5     12      9     0.00   2.17568   3 ;     C1-     C-    C2-    C9
     4      3      5     23      9     0.00   0.54392   3 ;     C1-     C-    C2-    H1
     4      3     11     13      9     0.00   2.17568   3 ;     C1-     C-    C8-   C10
     4      3     11     30      9     0.00   0.54392   3 ;     C1-     C-    C8-    H8
     4      3     11     31      9     0.00   0.54392   3 ;     C1-     C-    C8-    H9
     4      8      9      6      9     0.00   2.17568   3 ;     C1-    C5-    C6-    C3
     4      8      9     27      9     0.00   0.54392   3 ;     C1-    C5-    C6-    H5
     4      8      9     28      9     0.00   0.54392   3 ;     C1-    C5-    C6-    H6
     4     10     13     11      9     0.00   2.17568   3 ;     C1-    C7-   C10-    C8
     4     10     13     34      9     0.00   0.54392   3 ;     C1-    C7-   C10-   H12
     4     10     13     35      9     0.00   0.54392   3 ;     C1-    C7-   C10-   H13
     5      3      4      8      9     0.00   2.17568   3 ;     C2-     C-    C1-    C5
     5      3      4     10      9     0.00   2.17568   3 ;     C2-     C-    C1-    C7
     5      3      4     16      9     0.00   2.17568   3 ;     C2-     C-    C1-   C13
     5      3     11     13      9     0.00   2.17568   3 ;     C2-     C-    C8-   C10
     5      3     11     30      9     0.00   0.54392   3 ;     C2-     C-    C8-    H8
     5      3     11     31      9     0.00   0.54392   3 ;     C2-     C-    C8-    H9
     5      6      7     14      9     0.00   0.65084   3 ;     C2-    C3-    C4-   C11
     5      6      7     17      9     0.00   2.17568   3 ;     C2-    C3-    C4-   C14
     5      6      7     18      9     0.00   2.17568   3 ;     C2-    C3-    C4-   C15
     5      6      9      8      9     0.00   2.17568   3 ;     C2-    C3-    C6-    C5
     5      6      9     27      9     0.00   0.54392   3 ;     C2-    C3-    C6-    H5
     5      6      9     28      9     0.00   0.54392   3 ;     C2-    C3-    C6-    H6
     5     12     15     14      9     0.00   0.65084   3 ;     C2-    C9-   C12-   C11
     5     12     15     36      9     0.00   0.54392   3 ;     C2-    C9-   C12-   H14
     5     12     15     37      9     0.00   0.54392   3 ;     C2-    C9-   C12-   H15
     6      5      3     11      9     0.00   2.17568   3 ;     C3-    C2-     C-    C8
     6      5      3     22      9     0.00   0.54392   3 ;     C3-    C2-     C-     H
     6      5     12     15      9     0.00   2.17568   3 ;     C3-    C2-    C9-   C12
     6      5     12     32      9     0.00   0.54392   3 ;     C3-    C2-    C9-   H10
     6      5     12     33      9     0.00   0.54392   3 ;     C3-    C2-    C9-   H11
     6      7     14     15      9     0.00   0.00000   0 ;     C3-    C4-   C11-   C12
     6      7     14     20      9     0.00   0.00000   0 ;     C3-    C4-   C11-   C17
     6      7     17     19      9     0.00   2.17568   3 ;     C3-    C4-   C14-   C16
     6      7     17     41      9     0.00   0.54392   3 ;     C3-    C4-   C14-   H19
     6      7     17     42      9     0.00   0.54392   3 ;     C3-    C4-   C14-   H20
     6      7     18     43      9     0.00   0.54392   3 ;     C3-    C4-   C15-   H21
     6      7     18     44      9     0.00   0.54392   3 ;     C3-    C4-   C15-   H22
     6      7     18     45      9     0.00   0.54392   3 ;     C3-    C4-   C15-   H23
     6      9      8     25      9     0.00   0.54392   3 ;     C3-    C6-    C5-    H3
     6      9      8     26      9     0.00   0.54392   3 ;     C3-    C6-    C5-    H4
     7      6      5     12      9     0.00   2.17568   3 ;     C4-    C3-    C2-    C9
     7      6      5     23      9     0.00   0.54392   3 ;     C4-    C3-    C2-    H1
     7      6      9      8      9     0.00   2.17568   3 ;     C4-    C3-    C6-    C5
     7      6      9     27      9     0.00   0.54392   3 ;     C4-    C3-    C6-    H5
     7      6      9     28      9     0.00   0.54392   3 ;     C4-    C3-    C6-    H6
     7     14     15     12      9     0.00   0.00000   0 ;     C4-   C11-   C12-    C9
     7     14     15     36      9     0.00   0.62760   3 ;     C4-   C11-   C12-   H14
     7     14     15     37      9     0.00   0.62760   3 ;     C4-   C11-   C12-   H15
     7     14     20     21      9   180.00  27.82360   2 ;     C4-   C11-   C17-   C18
     7     14     20     48      9   180.00  27.82360   2 ;     C4-   C11-   C17-   H26
     7     17     19     21      9     0.00   0.00000   0 ;     C4-   C14-   C16-   C18
     7     17     19     21      9     0.00   0.16736   2 ;     C4-   C14-   C16-   C18
     7     17     19     21      9   180.00   1.92464   1 ;     C4-   C14-   C16-   C18
     7     17     19     46      9     0.00   0.54392   3 ;     C4-   C14-   C16-   H24
     7     17     19     47      9     0.00   0.54392   3 ;     C4-   C14-   C16-   H25
     8      4      3     11      9     0.00   2.17568   3 ;     C5-    C1-     C-    C8
     8      4      3     22      9     0.00   0.54392   3 ;     C5-    C1-     C-     H
     8      4     10     13      9     0.00   2.17568   3 ;     C5-    C1-    C7-   C10
     8      4     10     29      9     0.00   0.65084   3 ;     C5-    C1-    C7-    H7
     8      4     16     38      9     0.00   0.54392   3 ;     C5-    C1-   C13-   H16
     8      4     16     39      9     0.00   0.54392   3 ;     C5-    C1-   C13-   H17
     8      4     16     40      9     0.00   0.54392   3 ;     C5-    C1-   C13-   H18
     8      9      6     24      9     0.00   0.54392   3 ;     C5-    C6-    C3-    H2
     9      6      5     12      9     0.00   2.17568   3 ;     C6-    C3-    C2-    C9
     9      6      5     23      9     0.00   0.54392   3 ;     C6-    C3-    C2-    H1
     9      6      7     14      9     0.00   0.65084   3 ;     C6-    C3-    C4-   C11
     9      6      7     17      9     0.00   2.17568   3 ;     C6-    C3-    C4-   C14
     9      6      7     18      9     0.00   2.17568   3 ;     C6-    C3-    C4-   C15
     9      8      4     10      9     0.00   2.17568   3 ;     C6-    C5-    C1-    C7
     9      8      4     16      9     0.00   2.17568   3 ;     C6-    C5-    C1-   C13
    10      4      3     11      9     0.00   2.17568   3 ;     C7-    C1-     C-    C8
    10      4      3     22      9     0.00   0.54392   3 ;     C7-    C1-     C-     H
    10      4      8     25      9     0.00   0.54392   3 ;     C7-    C1-    C5-    H3
    10      4      8     26      9     0.00   0.54392   3 ;     C7-    C1-    C5-    H4
    10      4     16     38      9     0.00   0.54392   3 ;     C7-    C1-   C13-   H16
    10      4     16     39      9     0.00   0.54392   3 ;     C7-    C1-   C13-   H17
    10      4     16     40      9     0.00   0.54392   3 ;     C7-    C1-   C13-   H18
    10     13     11     30      9     0.00   0.54392   3 ;     C7-   C10-    C8-    H8
    10     13     11     31      9     0.00   0.54392   3 ;     C7-   C10-    C8-    H9
    11      3      4     16      9     0.00   2.17568   3 ;     C8-     C-    C1-   C13
    11      3      5     12      9     0.00   2.17568   3 ;     C8-     C-    C2-    C9
    11      3      5     23      9     0.00   0.54392   3 ;     C8-     C-    C2-    H1
    11     13     10     29      9     0.00   0.65084   3 ;     C8-   C10-    C7-    H7
    12      5      3     22      9     0.00   0.54392   3 ;     C9-    C2-     C-     H
    12      5      6     24      9     0.00   0.54392   3 ;     C9-    C2-    C3-    H2
    12     15     14     20      9     0.00   0.00000   0 ;     C9-   C12-   C11-   C17
    13     10      4     16      9     0.00   2.17568   3 ;    C10-    C7-    C1-   C13
    13     11      3     22      9     0.00   0.54392   3 ;    C10-    C8-     C-     H
    14      7      6     24      9     0.00   0.65084   3 ;    C11-    C4-    C3-    H2
    14      7     17     19      9     0.00   0.65084   3 ;    C11-    C4-   C14-   C16
    14      7     17     41      9     0.00   0.65084   3 ;    C11-    C4-   C14-   H19
    14      7     17     42      9     0.00   0.65084   3 ;    C11-    C4-   C14-   H20
    14      7     18     43      9     0.00   0.65084   3 ;    C11-    C4-   C15-   H21
    14      7     18     44      9     0.00   0.65084   3 ;    C11-    C4-   C15-   H22
    14      7     18     45      9     0.00   0.65084   3 ;    C11-    C4-   C15-   H23
    14     15     12     32      9     0.00   0.65084   3 ;    C11-   C12-    C9-   H10
    14     15     12     33      9     0.00   0.65084   3 ;    C11-   C12-    C9-   H11
    14     20     21     19      9     0.00  12.13360   2 ;    C11-   C17-   C18-   C16
    15     12      5     23      9     0.00   0.54392   3 ;    C12-    C9-    C2-    H1
    15     14      7     17      9     0.00   0.00000   0 ;    C12-   C11-    C4-   C14
    15     14      7     18      9     0.00   0.00000   0 ;    C12-   C11-    C4-   C15
    15     14     20     21      9   180.00  27.82360   2 ;    C12-   C11-   C17-   C18
    15     14     20     48      9   180.00  27.82360   2 ;    C12-   C11-   C17-   H26
    16      4      3     22      9     0.00   0.54392   3 ;    C13-    C1-     C-     H
    16      4      8     25      9     0.00   0.54392   3 ;    C13-    C1-    C5-    H3
    16      4      8     26      9     0.00   0.54392   3 ;    C13-    C1-    C5-    H4
    16      4     10     29      9     0.00   0.65084   3 ;    C13-    C1-    C7-    H7
    17      7      6     24      9     0.00   0.54392   3 ;    C14-    C4-    C3-    H2
    17      7     14     20      9     0.00   0.00000   0 ;    C14-    C4-   C11-   C17
    17      7     18     43      9     0.00   0.54392   3 ;    C14-    C4-   C15-   H21
    17      7     18     44      9     0.00   0.54392   3 ;    C14-    C4-   C15-   H22
    17      7     18     45      9     0.00   0.54392   3 ;    C14-    C4-   C15-   H23
    17     19     21     20      9   180.00   0.00000   2 ;    C14-   C16-   C18-   C17
    18      7      6     24      9     0.00   0.54392   3 ;    C15-    C4-    C3-    H2
    18      7     14     20      9     0.00   0.00000   0 ;    C15-    C4-   C11-   C17
    18      7     17     19      9     0.00   2.17568   3 ;    C15-    C4-   C14-   C16
    18      7     17     41      9     0.00   0.54392   3 ;    C15-    C4-   C14-   H19
    18      7     17     42      9     0.00   0.54392   3 ;    C15-    C4-   C14-   H20
    19     21     20     48      9   180.00   9.10020   2 ;    C16-   C18-   C17-   H26
    20     14     15     36      9     0.00   0.00000   0 ;    C17-   C11-   C12-   H14
    20     14     15     37      9     0.00   0.00000   0 ;    C17-   C11-   C12-   H15
    20     21     19     46      9   180.00   0.00000   2 ;    C17-   C18-   C16-   H24
    20     21     19     47      9   180.00   0.00000   2 ;    C17-   C18-   C16-   H25
    21     19     17     41      9     0.00   0.65084   3 ;    C18-   C16-   C14-   H19
    21     19     17     42      9     0.00   0.65084   3 ;    C18-   C16-   C14-   H20
    22      3      5     23      9     0.00   0.50208   3 ;      H-     C-    C2-    H1
    22      3     11     30      9     0.00   0.50208   3 ;      H-     C-    C8-    H8
    22      3     11     31      9     0.00   0.50208   3 ;      H-     C-    C8-    H9
    23      5      6     24      9     0.00   0.50208   3 ;     H1-    C2-    C3-    H2
    23      5     12     32      9     0.00   0.50208   3 ;     H1-    C2-    C9-   H10
    23      5     12     33      9     0.00   0.50208   3 ;     H1-    C2-    C9-   H11
    24      6      9     27      9     0.00   0.50208   3 ;     H2-    C3-    C6-    H5
    24      6      9     28      9     0.00   0.50208   3 ;     H2-    C3-    C6-    H6
    25      8      9     27      9     0.00   0.50208   3 ;     H3-    C5-    C6-    H5
    25      8      9     28      9     0.00   0.50208   3 ;     H3-    C5-    C6-    H6
    26      8      9     27      9     0.00   0.50208   3 ;     H4-    C5-    C6-    H5
    26      8      9     28      9     0.00   0.50208   3 ;     H4-    C5-    C6-    H6
    29     10     13     34      9     0.00   0.65084   3 ;     H7-    C7-   C10-   H12
    29     10     13     35      9     0.00   0.65084   3 ;     H7-    C7-   C10-   H13
    30     11     13     34      9     0.00   0.50208   3 ;     H8-    C8-   C10-   H12
    30     11     13     35      9     0.00   0.50208   3 ;     H8-    C8-   C10-   H13
    31     11     13     34      9     0.00   0.50208   3 ;     H9-    C8-   C10-   H12
    31     11     13     35      9     0.00   0.50208   3 ;     H9-    C8-   C10-   H13
    32     12     15     36      9     0.00   0.50208   3 ;    H10-    C9-   C12-   H14
    32     12     15     37      9     0.00   0.50208   3 ;    H10-    C9-   C12-   H15
    33     12     15     36      9     0.00   0.50208   3 ;    H11-    C9-   C12-   H14
    33     12     15     37      9     0.00   0.50208   3 ;    H11-    C9-   C12-   H15
    41     17     19     46      9     0.00   0.50208   3 ;    H19-   C14-   C16-   H24
    41     17     19     47      9     0.00   0.50208   3 ;    H19-   C14-   C16-   H25
    42     17     19     46      9     0.00   0.50208   3 ;    H20-   C14-   C16-   H24
    42     17     19     47      9     0.00   0.50208   3 ;    H20-   C14-   C16-   H25
    49      1     10      4      9     0.00   0.25104   3 ;    H27-     O-    C7-    C1
    49      1     10     13      9     0.00   0.25104   3 ;    H27-     O-    C7-   C10
    49      1     10     29      9     0.00   0.51463   3 ;    H27-     O-    C7-    H7

[ dihedrals ] ; impropers
; treated as propers in GROMACS to use correct AMBER analytical function
;    i      j      k      l   func   phase     kd      pn
     7     15     14     20      4   180.00   4.60240   2 ;     C4-   C12-   C11-   C17
    19     20     21      2      4   180.00  43.93200   2 ;    C16-   C17-   C18-    O1
    21     14     20     48      4   180.00   4.60240   2 ;    C18-   C11-   C17-   H26
