%VERSION  VERSION_STAMP = V0001.000  DATE = 02/09/26  17:59:55                  
%FLAG TITLE                                                                     
%FORMAT(20a4)                                                                   
6013                                                                            
%FLAG POINTERS                                                                  
%FORMAT(10I8)                                                                   
      49       8      28      24      67      39     127      64       0       0
     334       1      24      39      64      17      33      24      12       0
       0       0       0       0       0       0       0       0      49       0
       0
%FLAG ATOM_NAME                                                                 
%FORMAT(20a4)                                                                   
O   O1  C   C1  C2  C3  C4  C5  C6  C7  C8  C9  C10 C11 C12 C13 C14 C15 C16 C17 
C18 H   H1  H2  H3  H4  H5  H6  H7  H8  H9  H10 H11 H12 H13 H14 H15 H16 H17 H18 
H19 H20 H21 H22 H23 H24 H25 H26 H27 
%FLAG CHARGE                                                                    
%FORMAT(5E16.8)                                                                 
 -1.07292902E+01 -9.75075273E+00 -1.16076051E+00 -1.53067320E+00 -9.05648310E-01
 -8.69203710E-01 -2.87912340E-01 -1.11884922E+00 -1.39218372E+00  2.64405573E+00
 -1.33751682E+00 -1.31929452E+00 -2.08463112E+00 -5.17513320E-01 -9.87648660E-01
 -1.64182923E+00 -1.28284992E+00 -1.55071773E+00 -3.32374752E+00 -4.83255396E+00
  1.03739554E+01  9.05648310E-01  1.03320441E+00  9.42092910E-01  8.60092560E-01
  8.60092560E-01  7.87203360E-01  7.87203360E-01  1.43409501E+00  8.14536810E-01
  8.14536810E-01  8.69203710E-01  8.69203710E-01  9.05648310E-01  9.05648310E-01
  1.01498211E+00  1.01498211E+00  7.05203010E-01  7.05203010E-01  7.05203010E-01
  9.32981760E-01  9.32981760E-01  7.41647610E-01  7.41647610E-01  7.41647610E-01
  1.30653891E+00  1.30653891E+00  2.69690040E+00  7.27069770E+00
%FLAG ATOMIC_NUMBER                                                             
%FORMAT(10I8)                                                                   
       8       8       6       6       6       6       6       6       6       6
       6       6       6       6       6       6       6       6       6       6
       6       1       1       1       1       1       1       1       1       1
       1       1       1       1       1       1       1       1       1       1
       1       1       1       1       1       1       1       1       1
%FLAG MASS                                                                      
%FORMAT(5E16.8)                                                                 
  1.60000000E+01  1.60000000E+01  1.20100000E+01  1.20100000E+01  1.20100000E+01
  1.20100000E+01  1.20100000E+01  1.20100000E+01  1.20100000E+01  1.20100000E+01
  1.20100000E+01  1.20100000E+01  1.20100000E+01  1.20100000E+01  1.20100000E+01
  1.20100000E+01  1.20100000E+01  1.20100000E+01  1.20100000E+01  1.20100000E+01
  1.20100000E+01  1.00800000E+00  1.00800000E+00  1.00800000E+00  1.00800000E+00
  1.00800000E+00  1.00800000E+00  1.00800000E+00  1.00800000E+00  1.00800000E+00
  1.00800000E+00  1.00800000E+00  1.00800000E+00  1.00800000E+00  1.00800000E+00
  1.00800000E+00  1.00800000E+00  1.00800000E+00  1.00800000E+00  1.00800000E+00
  1.00800000E+00  1.00800000E+00  1.00800000E+00  1.00800000E+00  1.00800000E+00
  1.00800000E+00  1.00800000E+00  1.00800000E+00  1.00800000E+00
%FLAG ATOM_TYPE_INDEX                                                           
%FORMAT(10I8)                                                                   
       1       2       3       3       3       3       3       3       3       3
       3       3       3       4       3       3       3       3       3       4
       4       5       5       5       5       5       5       5       6       5
       5       5       5       5       5       5       5       5       5       5
       5       5       5       5       5       5       5       7       8
%FLAG NUMBER_EXCLUDED_ATOMS                                                     
%FORMAT(10I8)                                                                   
      11       8      27      24      24      25      24      15      12      15
      10      10       8      17      10       7      12       8       7       6
       5       3       3       2       3       2       1       1       3       3
       2       3       2       1       1       1       1       2       1       1
       3       2       2       1       1       1       1       1       1
%FLAG NONBONDED_PARM_INDEX                                                      
%FORMAT(10I8)                                                                   
       1       2       4       7      11      16      22      29       2       3
       5       8      12      17      23      30       4       5       6       9
      13      18      24      31       7       8       9      10      14      19
      25      32      11      12      13      14      15      20      26      33
      16      17      18      19      20      21      27      34      22      23
      24      25      26      27      28      35      29      30      31      32
      33      34      35      36
%FLAG RESIDUE_LABEL                                                             
%FORMAT(20a4)                                                                   
UNL 
%FLAG RESIDUE_POINTER                                                           
%FORMAT(10I8)                                                                   
       1
%FLAG BOND_FORCE_CONSTANT                                                       
%FORMAT(5E16.8)                                                                 
  2.89690000E+02  5.35510000E+02  5.90600000E+02  2.20100000E+02  2.26470000E+02
  3.46430000E+02  2.27640000E+02  2.26810000E+02  3.42750000E+02  2.44960000E+02
  2.23800000E+02  3.43780000E+02  4.24300000E+02  3.45250000E+02  2.33630000E+02
  2.67760000E+02  3.57590000E+02
%FLAG BOND_EQUIL_VALUE                                                          
%FORMAT(5E16.8)                                                                 
  1.41940000E+00  9.72500000E-01  1.21900000E+00  1.54830000E+00  1.53890000E+00
  1.09540000E+00  1.53720000E+00  1.53840000E+00  1.09790000E+00  1.51330000E+00
  1.54280000E+00  1.09720000E+00  1.34570000E+00  1.09620000E+00  1.52870000E+00
  1.48480000E+00  1.08800000E+00
%FLAG ANGLE_FORCE_CONSTANT                                                      
%FORMAT(5E16.8)                                                                 
  7.58300000E+01  5.64700000E+01  7.65600000E+01  7.79900000E+01  5.92600000E+01
  6.18400000E+01  5.93300000E+01  6.01700000E+01  4.32400000E+01  4.26500000E+01
  4.26500000E+01  4.30600000E+01  4.38400000E+01  6.01800000E+01  4.32300000E+01
  6.05700000E+01  5.99900000E+01  5.98700000E+01  6.12000000E+01  4.28900000E+01
  6.03300000E+01  6.54000000E+01  6.09300000E+01  4.39000000E+01  6.21100000E+01
  4.62400000E+01  6.02700000E+01  6.00600000E+01  4.38400000E+01  4.33100000E+01
  3.59300000E+01  3.59100000E+01  3.58000000E+01
%FLAG ANGLE_EQUIL_VALUE                                                         
%FORMAT(5E16.8)                                                                 
  1.94813735E+00  1.92457539E+00  2.13523672E+00  2.15094469E+00  1.98531288E+00
  1.81217614E+00  1.98269488E+00  1.93801443E+00  1.90834382E+00  1.94028336E+00
  1.94028336E+00  1.92911325E+00  1.85738019E+00  1.93836350E+00  1.91026369E+00
  1.94447215E+00  1.94482122E+00  2.02388467E+00  2.14064725E+00  1.93085858E+00
  1.92963685E+00  1.87047016E+00  1.91584874E+00  1.90782022E+00  2.12930260E+00
  2.09439600E+00  1.94482122E+00  2.02720080E+00  1.87919681E+00  2.03173865E+00
  1.86087085E+00  1.87134283E+00  1.88024401E+00
%FLAG DIHEDRAL_FORCE_CONSTANT                                                   
%FORMAT(5E16.8)                                                                 
  1.80000000E-01  9.00000000E-02  1.17400000E+01  1.10000000E-01  8.00000000E-02
  4.03000000E+00  3.66000000E+00  2.17500000E+00  5.20000000E-01  1.30000000E-01
  1.55555556E-01  6.00000000E-02  0.00000000E+00  1.50000000E-01  6.65000000E+00
  4.60000000E-01  4.00000000E-02  0.00000000E+00  2.90000000E+00  0.00000000E+00
  1.20000000E-01  1.23000000E-01  1.10000000E+00  1.05000000E+01
%FLAG DIHEDRAL_PERIODICITY                                                      
%FORMAT(5E16.8)                                                                 
  3.00000000E+00  3.00000000E+00  1.00000000E+00  2.00000000E+00  3.00000000E+00
  1.00000000E+00  2.00000000E+00  2.00000000E+00  3.00000000E+00  3.00000000E+00
  3.00000000E+00  3.00000000E+00  2.00000000E+00  3.00000000E+00  2.00000000E+00
  1.00000000E+00  2.00000000E+00  3.00000000E+00  2.00000000E+00  2.00000000E+00
  3.00000000E+00  3.00000000E+00  2.00000000E+00  2.00000000E+00
%FLAG DIHEDRAL_PHASE                                                            
%FORMAT(5E16.8)                                                                 
  0.00000000E+00  0.00000000E+00  0.00000000E+00  0.00000000E+00  3.14159400E+00
  0.00000000E+00  3.14159400E+00  3.14159400E+00  0.00000000E+00  0.00000000E+00
  0.00000000E+00  0.00000000E+00  0.00000000E+00  0.00000000E+00  3.14159400E+00
  3.14159400E+00  0.00000000E+00  0.00000000E+00  0.00000000E+00  3.14159400E+00
  0.00000000E+00  0.00000000E+00  3.14159400E+00  3.14159400E+00
%FLAG SCEE_SCALE_FACTOR                                                         
%FORMAT(5E16.8)                                                                 
  1.20000000E+00  1.20000000E+00  1.20000000E+00  1.20000000E+00  1.20000000E+00
  1.20000000E+00  1.20000000E+00  1.20000000E+00  1.20000000E+00  1.20000000E+00
  1.20000000E+00  1.20000000E+00  1.20000000E+00  1.20000000E+00  1.20000000E+00
  1.20000000E+00  1.20000000E+00  1.20000000E+00  1.20000000E+00  1.20000000E+00
  1.20000000E+00  1.20000000E+00  0.00000000E+00  0.00000000E+00
%FLAG SCNB_SCALE_FACTOR                                                         
%FORMAT(5E16.8)                                                                 
  2.00000000E+00  2.00000000E+00  2.00000000E+00  2.00000000E+00  2.00000000E+00
  2.00000000E+00  2.00000000E+00  2.00000000E+00  2.00000000E+00  2.00000000E+00
  2.00000000E+00  2.00000000E+00  2.00000000E+00  2.00000000E+00  2.00000000E+00
  2.00000000E+00  2.00000000E+00  2.00000000E+00  2.00000000E+00  2.00000000E+00
  2.00000000E+00  2.00000000E+00  0.00000000E+00  0.00000000E+00
%FLAG SOLTY                                                                     
%FORMAT(5E16.8)                                                                 
  0.00000000E+00  0.00000000E+00  0.00000000E+00  0.00000000E+00  0.00000000E+00
  0.00000000E+00  0.00000000E+00  0.00000000E+00  0.00000000E+00  0.00000000E+00
  0.00000000E+00  0.00000000E+00
%FLAG LENNARD_JONES_ACOEF                                                       
%FORMAT(5E16.8)                                                                 
  5.03152404E+05  4.37717034E+05  3.76435470E+05  7.18991463E+05  6.30925504E+05
  1.02073671E+06  5.92438683E+05  5.17507491E+05  8.43969952E+05  6.96551276E+05
  6.80216136E+04  5.68021765E+04  1.00235148E+05  8.12662403E+04  7.94617769E+03
  4.69084694E+04  3.86646725E+04  6.97998263E+04  5.63013422E+04  5.22955465E+03
  3.39005767E+03  6.30298721E+04  5.27277400E+04  9.27554496E+04  7.52549148E+04
  7.41026906E+03  4.88692384E+03  6.90855956E+03  1.74176419E+02  1.15813907E+02
  3.03553352E+02  2.25372434E+02  8.80612241E+00  4.36660257E+00  8.53132435E+00
  1.10360882E-05
%FLAG LENNARD_JONES_BCOEF                                                       
%FORMAT(5E16.8)                                                                 
  4.32634597E+02  4.51916854E+02  4.69350655E+02  5.36620538E+02  5.62969425E+02
  6.63431737E+02  4.76608379E+02  4.98871431E+02  5.90251928E+02  5.24668528E+02
  1.09393126E+02  1.11953944E+02  1.37787728E+02  1.21392023E+02  2.57122925E+01
  9.08431526E+01  9.23664132E+01  1.14981426E+02  1.01040256E+02  2.08590256E+01
  1.67944276E+01  9.87712192E+01  1.01173582E+02  1.24325688E+02  1.09570372E+02
  2.32899892E+01  1.89134207E+01  2.10929191E+01  3.81654050E+00  3.48534600E+00
  5.22789272E+00  4.40751799E+00  5.90150328E-01  4.15568027E-01  5.44840215E-01
  4.55498033E-04
%FLAG BONDS_INC_HYDROGEN                                                        
%FORMAT(10I8)                                                                   
       0     144       2       6      63       6      12      66       9      15
      69       9      21      72       9      21      75       9      24      78
       9      24      81       9      27      84      12      30      87       6
      30      90       6      33      93       9      33      96       9      36
      99       6      36     102       6      42     105       9      42     108
       9      45     111      14      45     114      14      45     117      14
      48     120       9      48     123       9      51     126      14      51
     129      14      51     132      14      54     135       9      54     138
       9      57     141      17
%FLAG BONDS_WITHOUT_HYDROGEN                                                    
%FORMAT(10I8)                                                                   
       0      27       1       3      60       3       6       9       4       6
      12       5       6      30       4       9      21       5       9      27
       4       9      45       7      12      15       8      12      33       8
      15      18       8      15      24       8      18      39      10      18
      48       8      18      51      11      21      24       8      27      36
       4      30      36       4      33      42       8      39      42      10
      39      57      13      48      54       8      54      60      15      57
      60      16
%FLAG ANGLES_INC_HYDROGEN                                                       
%FORMAT(10I8)                                                                   
       0      27      84       2       6      12      66       9       6      30
      87      10       6      30      90      10       9       6      63      10
       9      21      72       9       9      21      75       9       9      27
      84      11       9      45     111      12       9      45     114      12
       9      45     117      12      12       6      63      13      12      15
      69      15      12      33      93      15      12      33      96      15
      15      12      66      15      15      24      78      15      15      24
      81      15      18      15      69      15      18      48     120      15
      18      48     123      15      18      51     126      20      18      51
     129      20      18      51     132      20      21      24      78      15
      21      24      81      15      24      15      69      15      24      21
      72      15      24      21      75      15      27       0     144      22
      27      36      99      10      27      36     102      10      30       6
      63      10      30      36      99      10      30      36     102      10
      33      12      66      15      33      42     105      15      33      42
     108      15      36      27      84      11      36      30      87      10
      36      30      90      10      39      42     105      24      39      42
     108      24      39      57     141      26      42      33      93      15
      42      33      96      15      48      54     135      15      48      54
     138      15      54      48     120      15      54      48     123      15
      60      54     135      29      60      54     138      29      60      57
     141      30      72      21      75      31      78      24      81      31
      87      30      90      32      93      33      96      31      99      36
     102      32     105      42     108      31     111      45     114      33
     111      45     117      33     114      45     117      33     120      48
     123      31     126      51     129      33     126      51     132      33
     129      51     132      33     135      54     138      31
%FLAG ANGLES_WITHOUT_HYDROGEN                                                   
%FORMAT(10I8)                                                                   
       0      27       9       1       0      27      36       1       3      60
      54       3       3      60      57       4       6       9      21       5
       6       9      27       6       6       9      45       7       6      12
      15       8       6      12      33       8       6      30      36       6
       9       6      12       5       9       6      30       6       9      21
      24       8       9      27      36       6      12       6      30       5
      12      15      18      14      12      15      24      14      12      33
      42      14      15      12      33      14      15      18      39      16
      15      18      48      14      15      18      51      17      15      24
      21      14      18      15      24      14      18      39      42      18
      18      39      57      19      18      48      54      14      21       9
      27       5      21       9      45      21      27       9      45       7
      27      36      30       6      33      42      39      16      39      18
      48      16      39      18      51      23      39      57      60      25
      42      39      57      19      48      18      51      17      48      54
      60      27      54      60      57      28
%FLAG DIHEDRALS_INC_HYDROGEN                                                    
%FORMAT(10I8)                                                                   
       0      27      36      99       2       0      27      36     102       2
       3      60      54     135       6       3      60     -54     135       7
       3      60      54     138       6       3      60     -54     138       7
       3      60      57     141       8       6       9      21      72      10
       6       9      21      75      10       6       9      27      84      11
       6       9      45     111      10       6       9      45     114      10
       6       9      45     117      10       6      12      15      69      10
       6      12      33      93      10       6      12      33      96      10
       6      30      36      99      10       6      30      36     102      10
       9       6      12      66      10       9       6      30      87      10
       9       6      30      90      10       9      21      24      78      10
       9      21      24      81      10     144       0      27       9      12
       9      27      36      99      10       9      27      36     102      10
      12       6      30      87      10      12       6      30      90      10
      12      15      24      78      10      12      15      24      81      10
      12      33      42     105      10      12      33      42     108      10
      15      12       6      63      10      15      12      33      93      10
      15      12      33      96      10      15      18      48     120      10
      15      18      48     123      10      15      18      51     126      10
      15      18      51     129      10      15      18      51     132      10
      15      24      21      72      10      15      24      21      75      10
      18      15      12      66      10      18      15      24      78      10
      18      15      24      81      10      18      39      42     105      14
      18      39      42     108      14      18      39      57     141      15
      18      48      54     135      10      18      48      54     138      10
      21       9       6      63      10      21       9      27      84      11
      21       9      45     111      10      21       9      45     114      10
      21       9      45     117      10      21      24      15      69      10
      24      15      12      66      10      27       9       6      63      10
      27       9      21      72      10      27       9      21      75      10
      27       9      45     111      10      27       9      45     114      10
      27       9      45     117      10      27      36      30      87      10
      27      36      30      90      10      30       6      12      66      10
      30      36      27      84      11      33      12       6      63      10
      33      12      15      69      10     144       0      27      36      12
      36      30       6      63      10      39      18      15      69      11
      39      18      48     120      11      39      18      48     123      11
      39      18      51     126      11      39      18      51     129      11
      39      18      51     132      11      39      42      33      93      11
      39      42      33      96      11      42      33      12      66      10
      42      39      57     141      15      45       9       6      63      10
      45       9      21      72      10      45       9      21      75      10
      45       9      27      84      11      48      18      15      69      10
      48      18      51     126      10      48      18      51     129      10
      48      18      51     132      10      51      18      15      69      10
      51      18      48     120      10      51      18      48     123      10
      54      60      57     141       8      57      39      42     105      13
      57      39      42     108      13      57      60      54     135      20
      57      60      54     138      20      60      54      48     120      11
      60      54      48     123      11      63       6      12      66      21
      63       6      30      87      21      63       6      30      90      21
      66      12      15      69      21      66      12      33      93      21
      66      12      33      96      21      69      15      24      78      21
      69      15      24      81      21      72      21      24      78      21
      72      21      24      81      21      75      21      24      78      21
      75      21      24      81      21     144       0      27      84      22
      84      27      36      99      11      84      27      36     102      11
      87      30      36      99      21      87      30      36     102      21
      90      30      36      99      21      90      30      36     102      21
      93      33      42     105      21      93      33      42     108      21
      96      33      42     105      21      96      33      42     108      21
     120      48      54     135      21     120      48      54     138      21
     123      48      54     135      21     123      48      54     138      21
      60      39     -57    -141      23
%FLAG DIHEDRALS_WITHOUT_HYDROGEN                                                
%FORMAT(10I8)                                                                   
       0      27       9       6       1       0      27       9      21       1
       0      27       9      45       1       0      27      36      30       1
       3      60      54      48       3       3      60     -54      48       4
       3      60     -54      48       5       3      60      57      39       8
       6       9      21      24       9       6       9     -27      36       9
       6      12      15      18       9       6      12     -15      24       9
       6      12      33      42       9       6      30     -36      27       9
       9       6      12      15       9       9       6      12      33       9
       9       6     -30      36       9       9      21     -24      15       9
       9      27     -36      30       9      12       6       9      21       9
      12       6       9      27       9      12       6       9      45       9
      12       6      30      36       9      12      15      18      39      11
      12      15      18      48       9      12      15      18      51       9
      12      15     -24      21       9      12      33     -42      39      11
      15      12       6      30       9      15      12      33      42       9
      15      18     -39      42      13      15      18      39      57      13
      15      18      48      54       9      18      15      12      33       9
      18      15      24      21       9      18      39     -42      33      13
      18      39      57      60      15      18      48     -54      60      16
      18      48     -54      60      17      18      48     -54      60      18
      21       9       6      30       9      21       9      27      36       9
      24      15      12      33       9      24      15      18      39      11
      24      15      18      48       9      24      15      18      51       9
      24      21       9      27       9      24      21       9      45       9
      27       9      -6      30       9      30       6       9      45       9
      30       6      12      33       9      33      42      39      57      13
      36      27       9      45       9      39      18      48      54      11
      39      57     -60      54      19      42      39      18      48      13
      42      39      18      51      13      42      39      57      60      15
      48      18      39      57      13      48      54     -60      57      20
      51      18      39      57      13      51      18      48      54       9
      18      42     -39     -57      23      54      57     -60      -3      24
%FLAG EXCLUDED_ATOMS_LIST                                                       
%FORMAT(10I8)                                                                   
       3       4       8      10      11      13      16      29      34      35
      49      14      17      19      20      21      46      47      48       4
       5       6       7       8       9      10      11      12      13      15
      16      22      23      24      25      26      29      30      31      32
      33      34      35      38      39      40       5       6       8       9
      10      11      12      13      16      22      23      25      26      27
      28      29      30      31      34      35      38      39      40      49
       6       7       8       9      10      11      12      13      14      15
      16      17      18      22      23      24      27      28      30      31
      32      33      36      37       7       8       9      11      12      14
      15      17      18      19      20      22      23      24      25      26
      27      28      32      33      41      42      43      44      45       8
       9      12      14      15      17      18      19      20      21      23
      24      27      28      36      37      41      42      43      44      45
      46      47      48       9      10      11      13      16      22      24
      25      26      27      28      29      38      39      40      10      12
      14      16      17      18      23      24      25      26      27      28
      11      13      16      22      25      26      29      30      31      34
      35      38      39      40      49      12      13      16      22      23
      29      30      31      34      35      14      15      20      22      23
      24      32      33      36      37      16      22      29      30      31
      34      35      49      15      17      18      19      20      21      24
      32      33      36      37      41      42      43      44      45      48
      17      18      20      21      23      32      33      36      37      48
      22      25      26      29      38      39      40      18      19      20
      21      24      41      42      43      44      45      46      47      19
      20      24      41      42      43      44      45      20      21      41
      42      46      47      48      21      36      37      46      47      48
      41      42      46      47      48      23      30      31      24      32
      33      27      28      26      27      28      27      28      28       0
      34      35      49      31      34      35      34      35      33      36
      37      36      37      35       0      37       0      39      40      40
       0      42      46      47      46      47      44      45      45       0
      47       0       0       0
%FLAG HBOND_ACOEF                                                               
%FORMAT(5E16.8)                                                                 

%FLAG HBOND_BCOEF                                                               
%FORMAT(5E16.8)                                                                 

%FLAG HBCUT                                                                     
%FORMAT(5E16.8)                                                                 

%FLAG AMBER_ATOM_TYPE                                                           
%FORMAT(20a4)                                                                   
oh  o   c5  c5  c6  c6  c6  c6  c6  c5  c5  c6  c5  c2  c6  c3  c6  c3  c6  ce  
c   hc  hc  hc  hc  hc  hc  hc  h1  hc  hc  hc  hc  hc  hc  hc  hc  hc  hc  hc  
hc  hc  hc  hc  hc  hc  hc  ha  ho  
%FLAG TREE_CHAIN_CLASSIFICATION                                                 
%FORMAT(20a4)                                                                   
BLA BLA BLA BLA BLA BLA BLA BLA BLA BLA BLA BLA BLA BLA BLA BLA BLA BLA BLA BLA 
BLA BLA BLA BLA BLA BLA BLA BLA BLA BLA BLA BLA BLA BLA BLA BLA BLA BLA BLA BLA 
BLA BLA BLA BLA BLA BLA BLA BLA BLA 
%FLAG JOIN_ARRAY                                                                
%FORMAT(10I8)                                                                   
       0       0       0       0       0       0       0       0       0       0
       0       0       0       0       0       0       0       0       0       0
       0       0       0       0       0       0       0       0       0       0
       0       0       0       0       0       0       0       0       0       0
       0       0       0       0       0       0       0       0       0
%FLAG IROTAT                                                                    
%FORMAT(10I8)                                                                   
       0       0       0       0       0       0       0       0       0       0
       0       0       0       0       0       0       0       0       0       0
       0       0       0       0       0       0       0       0       0       0
       0       0       0       0       0       0       0       0       0       0
       0       0       0       0       0       0       0       0       0
%FLAG RADIUS_SET                                                                
%FORMAT(1a80)                                                                   
modified Bondi radii (mbondi)                                                   
%FLAG RADII                                                                     
%FORMAT(5E16.8)                                                                 
  1.50000000E+00  1.50000000E+00  1.70000000E+00  1.70000000E+00  1.50000000E+00
  1.50000000E+00  1.50000000E+00  1.50000000E+00  1.50000000E+00  1.70000000E+00
  1.70000000E+00  1.50000000E+00  1.70000000E+00  1.70000000E+00  1.50000000E+00
  1.70000000E+00  1.50000000E+00  1.70000000E+00  1.50000000E+00  1.70000000E+00
  1.70000000E+00  1.30000000E+00  1.30000000E+00  1.30000000E+00  1.30000000E+00
  1.30000000E+00  1.30000000E+00  1.30000000E+00  1.30000000E+00  1.30000000E+00
  1.30000000E+00  1.30000000E+00  1.30000000E+00  1.30000000E+00  1.30000000E+00
  1.30000000E+00  1.30000000E+00  1.30000000E+00  1.30000000E+00  1.30000000E+00
  1.30000000E+00  1.30000000E+00  1.30000000E+00  1.30000000E+00  1.30000000E+00
  1.30000000E+00  1.30000000E+00  1.30000000E+00  8.00000000E-01
%FLAG SCREEN                                                                    
%FORMAT(5E16.8)                                                                 
  8.50000000E-01  8.50000000E-01  7.20000000E-01  7.20000000E-01  8.00000000E-01
  8.00000000E-01  8.00000000E-01  8.00000000E-01  8.00000000E-01  7.20000000E-01
  7.20000000E-01  8.00000000E-01  7.20000000E-01  7.20000000E-01  8.00000000E-01
  7.20000000E-01  8.00000000E-01  7.20000000E-01  8.00000000E-01  7.20000000E-01
  7.20000000E-01  8.50000000E-01  8.50000000E-01  8.50000000E-01  8.50000000E-01
  8.50000000E-01  8.50000000E-01  8.50000000E-01  8.50000000E-01  8.50000000E-01
  8.50000000E-01  8.50000000E-01  8.50000000E-01  8.50000000E-01  8.50000000E-01
  8.50000000E-01  8.50000000E-01  8.50000000E-01  8.50000000E-01  8.50000000E-01
  8.50000000E-01  8.50000000E-01  8.50000000E-01  8.50000000E-01  8.50000000E-01
  8.50000000E-01  8.50000000E-01  8.50000000E-01  8.50000000E-01
%FLAG IPOL                                                                      
%FORMAT(1I8)                                                                    
       0
