testosterone_GMX.gro created by acpype (v: 2023.10.27) on Mon Feb  9 17:59:44 2026
 49
    1  UNL    O    1  -0.517   0.106   0.036
    1  UNL   O1    2   0.559  -0.014   0.097
    1  UNL    C    3  -0.200  -0.074   0.036
    1  UNL   C1    4  -0.278   0.055   0.003
    1  UNL   C2    5  -0.062  -0.078  -0.031
    1  UNL   C3    6   0.021   0.045   0.018
    1  UNL   C4    7   0.167   0.047  -0.042
    1  UNL   C5    8  -0.199   0.174   0.058
    1  UNL   C6    9  -0.056   0.178   0.001
    1  UNL   C7   10  -0.409   0.024   0.077
    1  UNL   C8   11  -0.300  -0.185   0.006
    1  UNL   C9   12   0.012  -0.208   0.001
    1  UNL  C10   13  -0.436  -0.124   0.047
    1  UNL  C11   14   0.233  -0.090  -0.024
    1  UNL  C12   15   0.150  -0.211  -0.063
    1  UNL  C13   16  -0.306   0.077  -0.148
    1  UNL  C14   17   0.249   0.155   0.034
    1  UNL  C15   18   0.167   0.081  -0.193
    1  UNL  C16   19   0.400   0.144   0.014
    1  UNL  C17   20   0.358  -0.109   0.022
    1  UNL  C18   21   0.447   0.006   0.051
    1  UNL    H   22  -0.182  -0.077   0.145
    1  UNL   H1   23  -0.075  -0.072  -0.140
    1  UNL   H2   24   0.033   0.031   0.127
    1  UNL   H3   25  -0.193   0.168   0.168
    1  UNL   H4   26  -0.250   0.269   0.036
    1  UNL   H5   27  -0.060   0.207  -0.104
    1  UNL   H6   28  -0.003   0.259   0.053
    1  UNL   H7   29  -0.397   0.038   0.185
    1  UNL   H8   30  -0.279  -0.276   0.063
    1  UNL   H9   31  -0.301  -0.212  -0.100
    1  UNL  H10   32  -0.046  -0.294  -0.036
    1  UNL  H11   33   0.021  -0.221   0.109
    1  UNL  H12   34  -0.510  -0.139  -0.033
    1  UNL  H13   35  -0.475  -0.174   0.136
    1  UNL  H14   36   0.140  -0.212  -0.173
    1  UNL  H15   37   0.200  -0.304  -0.036
    1  UNL  H16   38  -0.367  -0.003  -0.192
    1  UNL  H17   39  -0.360   0.171  -0.164
    1  UNL  H18   40  -0.214   0.082  -0.208
    1  UNL  H19   41   0.229   0.148   0.142
    1  UNL  H20   42   0.218   0.256   0.004
    1  UNL  H21   43   0.100   0.017  -0.250
    1  UNL  H22   44   0.137   0.185  -0.211
    1  UNL  H23   45   0.267   0.069  -0.237
    1  UNL  H24   46   0.451   0.216   0.078
    1  UNL  H25   47   0.428   0.164  -0.090
    1  UNL  H26   48   0.400  -0.208   0.035
    1  UNL  H27   49  -0.545   0.079  -0.053
   22.08200    11.45400     8.70200
