; testosterone_GMX_OPLS.top created by acpype (v: 2023.10.27) on Mon Feb  9 17:59:44 2026

; Include forcefield parameters
#include "ffoplsaa.itp"

; Include testosterone_GMX.itp topology
#include "testosterone_GMX.itp"

; Ligand position restraints
#ifdef POSRES_LIG
#include "posre_testosterone.itp"
#endif

[ system ]
 testosterone

[ molecules ]
; Compound        nmols
 testosterone     1     
