6013
    49
  -5.1690000   1.0640000   0.3610000   5.5930000  -0.1430000   0.9670000
  -1.9990000  -0.7360000   0.3560000  -2.7810000   0.5500000   0.0270000
  -0.6210000  -0.7770000  -0.3130000   0.2140000   0.4460000   0.1820000
   1.6730000   0.4720000  -0.4170000  -1.9900000   1.7420000   0.5810000
  -0.5600000   1.7830000   0.0140000  -4.0930000   0.2440000   0.7740000
  -3.0020000  -1.8480000   0.0630000   0.1170000  -2.0830000   0.0070000
  -4.3590000  -1.2440000   0.4680000   2.3270000  -0.9040000  -0.2370000
   1.4990000  -2.1050000  -0.6320000  -3.0590000   0.7690000  -1.4820000
   2.4940000   1.5540000   0.3430000   1.6730000   0.8120000  -1.9250000
   3.9960000   1.4370000   0.1370000   3.5760000  -1.0890000   0.2210000
   4.4700000   0.0570000   0.5070000  -1.8230000  -0.7660000   1.4450000
  -0.7470000  -0.7250000  -1.3990000   0.3290000   0.3090000   1.2700000
  -1.9290000   1.6770000   1.6750000  -2.5030000   2.6850000   0.3560000
  -0.6040000   2.0660000  -1.0420000  -0.0250000   2.5910000   0.5260000
  -3.9660000   0.3780000   1.8550000  -2.7860000  -2.7570000   0.6330000
  -3.0060000  -2.1150000  -1.0000000  -0.4560000  -2.9410000  -0.3650000
   0.2100000  -2.2100000   1.0930000  -5.0990000  -1.3850000  -0.3270000
  -4.7540000  -1.7420000   1.3600000   1.3980000  -2.1230000  -1.7250000
   1.9980000  -3.0420000  -0.3560000  -3.6680000  -0.0290000  -1.9170000
  -3.5950000   1.7110000  -1.6440000  -2.1430000   0.8240000  -2.0760000
   2.2930000   1.4750000   1.4210000   2.1810000   2.5610000   0.0430000
   0.9980000   0.1670000  -2.4960000   1.3680000   1.8480000  -2.1050000
   2.6710000   0.6930000  -2.3650000   4.5050000   2.1630000   0.7810000
   4.2830000   1.6420000  -0.8990000   4.0000000  -2.0790000   0.3470000
  -5.4480000   0.7930000  -0.5290000
