6287
    19
  -1.5450000  -1.4730000  -0.2630000  -1.7310000   0.3760000   1.0300000
  -0.2560000   1.7670000  -0.8570000   1.3800000   0.0130000  -0.2310000
  -0.0460000   0.3240000  -0.7450000   1.7320000  -1.4770000  -0.1630000
   1.6520000   0.6840000   1.1200000  -1.1860000  -0.2140000   0.1080000
   2.0840000   0.4570000  -0.9500000  -0.1590000  -0.0970000  -1.7520000
   1.5570000  -1.9580000  -1.1300000   1.1290000  -1.9950000   0.5910000
   2.7870000  -1.6170000   0.0970000   0.9890000   0.2970000   1.9010000
   2.6820000   0.4930000   1.4400000   1.5290000   1.7700000   1.0720000
  -1.1410000   1.9510000  -1.3280000   0.4680000   2.1740000  -1.4480000
  -2.2750000  -1.8230000   0.2910000
