; valine_GMX.top created by acpype (v: 2023.10.27) on Mon Feb  9 18:01:21 2026

[ defaults ]
; nbfunc        comb-rule       gen-pairs       fudgeLJ fudgeQQ
1               2               yes             0.5     0.8333333333

; Include valine_GMX.itp topology
#include "valine_GMX.itp"

; Ligand position restraints
#ifdef POSRES_LIG
#include "posre_valine.itp"
#endif

[ system ]
 valine

[ molecules ]
; Compound        nmols
 valine           1     
