; valine_GMX_OPLS.top created by acpype (v: 2023.10.27) on Mon Feb  9 18:01:21 2026

; Include forcefield parameters
#include "ffoplsaa.itp"

; Include valine_GMX.itp topology
#include "valine_GMX.itp"

; Ligand position restraints
#ifdef POSRES_LIG
#include "posre_valine.itp"
#endif

[ system ]
 valine

[ molecules ]
; Compound        nmols
 valine           1     
