%VERSION  VERSION_STAMP = V0001.000  DATE = 02/09/26  18:01:24                  
%FLAG TITLE                                                                     
%FORMAT(20a4)                                                                   
6287                                                                            
%FLAG POINTERS                                                                  
%FORMAT(10I8)                                                                   
      19       9      11       7      22       9      35      15       0       0
      94       1       7       9      15       9      15      20       9       0
       0       0       0       0       0       0       0       0      19       0
       0
%FLAG ATOM_NAME                                                                 
%FORMAT(20a4)                                                                   
O   OXT N   CB  CA  CG1 CG2 C   HB  HA  HG11HG12HG13HG21HG22HG23H1  H2  H   
%FLAG CHARGE                                                                    
%FORMAT(5E16.8)                                                                 
 -1.09716468E+01 -1.00587096E+01 -1.63782032E+01 -1.81676331E+00  2.35978785E+00
 -1.82405223E+00 -1.82405223E+00  1.17369834E+01  9.78537510E-01  1.68920721E+00
  7.93271386E-01  7.93271386E-01  7.93271386E-01  7.93271386E-01  7.93271386E-01
  7.93271386E-01  6.62016159E+00  6.62016159E+00  8.09070120E+00
%FLAG ATOMIC_NUMBER                                                             
%FORMAT(10I8)                                                                   
       8       8       7       6       6       6       6       6       1       1
       1       1       1       1       1       1       1       1       1
%FLAG MASS                                                                      
%FORMAT(5E16.8)                                                                 
  1.60000000E+01  1.60000000E+01  1.40100000E+01  1.20100000E+01  1.20100000E+01
  1.20100000E+01  1.20100000E+01  1.20100000E+01  1.00800000E+00  1.00800000E+00
  1.00800000E+00  1.00800000E+00  1.00800000E+00  1.00800000E+00  1.00800000E+00
  1.00800000E+00  1.00800000E+00  1.00800000E+00  1.00800000E+00
%FLAG ATOM_TYPE_INDEX                                                           
%FORMAT(10I8)                                                                   
       1       2       3       4       4       4       4       5       6       7
       6       6       6       6       6       6       8       8       9
%FLAG NUMBER_EXCLUDED_ATOMS                                                     
%FORMAT(10I8)                                                                   
       7       6       9      14      14      10       9       5       7       2
       2       1       1       2       1       1       1       1       1
%FLAG NONBONDED_PARM_INDEX                                                      
%FORMAT(10I8)                                                                   
       1       2       4       7      11      16      22      29      37       2
       3       5       8      12      17      23      30      38       4       5
       6       9      13      18      24      31      39       7       8       9
      10      14      19      25      32      40      11      12      13      14
      15      20      26      33      41      16      17      18      19      20
      21      27      34      42      22      23      24      25      26      27
      28      35      43      29      30      31      32      33      34      35
      36      44      37      38      39      40      41      42      43      44
      45
%FLAG RESIDUE_LABEL                                                             
%FORMAT(20a4)                                                                   
VAL 
%FLAG RESIDUE_POINTER                                                           
%FORMAT(10I8)                                                                   
       1
%FLAG BOND_FORCE_CONSTANT                                                       
%FORMAT(5E16.8)                                                                 
  3.59270000E+02  5.35510000E+02  5.90600000E+02  2.53810000E+02  4.60680000E+02
  2.28890000E+02  3.45250000E+02  2.34850000E+02  3.44220000E+02
%FLAG BOND_EQUIL_VALUE                                                          
%FORMAT(5E16.8)                                                                 
  1.35560000E+00  9.72500000E-01  1.21900000E+00  1.46510000E+00  1.01920000E+00
  1.53540000E+00  1.09620000E+00  1.52700000E+00  1.09690000E+00
%FLAG ANGLE_FORCE_CONSTANT                                                      
%FORMAT(5E16.8)                                                                 
  1.02030000E+02  7.74200000E+01  7.64500000E+01  6.54800000E+01  6.56600000E+01
  4.82100000E+01  6.03600000E+01  4.32800000E+01  4.32700000E+01  5.61700000E+01
  5.98700000E+01  6.84600000E+01  4.37400000E+01  3.58000000E+01  4.78900000E+01
%FLAG ANGLE_EQUIL_VALUE                                                         
%FORMAT(5E16.8)                                                                 
  2.13087340E+00  1.96768504E+00  2.14501057E+00  1.93574550E+00  1.93661817E+00
  1.88705080E+00  1.94482122E+00  1.91270715E+00  1.91427794E+00  1.91305621E+00
  1.96576518E+00  1.85947458E+00  1.89141412E+00  1.88024401E+00  1.85668205E+00
%FLAG DIHEDRAL_FORCE_CONSTANT                                                   
%FORMAT(5E16.8)                                                                 
  0.00000000E+00  1.90000000E+00  2.30000000E+00  6.80000000E-01  2.00000000E-01
  4.40000000E-01  8.00000000E-01  8.00000000E-02  5.20000000E-01  5.00000000E-02
  3.00000000E-02  1.30000000E-01  1.80000000E+00  4.60000000E-01  4.00000000E-02
  0.00000000E+00  1.55555556E-01  3.00000000E-01  1.20000000E-01  1.10000000E+00
%FLAG DIHEDRAL_PERIODICITY                                                      
%FORMAT(5E16.8)                                                                 
  2.00000000E+00  1.00000000E+00  2.00000000E+00  1.00000000E+00  2.00000000E+00
  3.00000000E+00  1.00000000E+00  3.00000000E+00  3.00000000E+00  3.00000000E+00
  3.00000000E+00  3.00000000E+00  2.00000000E+00  1.00000000E+00  2.00000000E+00
  3.00000000E+00  3.00000000E+00  3.00000000E+00  3.00000000E+00  2.00000000E+00
%FLAG DIHEDRAL_PHASE                                                            
%FORMAT(5E16.8)                                                                 
  3.14159400E+00  0.00000000E+00  3.14159400E+00  0.00000000E+00  3.14159400E+00
  3.14159400E+00  0.00000000E+00  3.14159400E+00  0.00000000E+00  0.00000000E+00
  3.14159400E+00  0.00000000E+00  3.14159400E+00  3.14159400E+00  0.00000000E+00
  0.00000000E+00  0.00000000E+00  0.00000000E+00  0.00000000E+00  3.14159400E+00
%FLAG SCEE_SCALE_FACTOR                                                         
%FORMAT(5E16.8)                                                                 
  1.20000000E+00  1.20000000E+00  1.20000000E+00  1.20000000E+00  1.20000000E+00
  1.20000000E+00  1.20000000E+00  1.20000000E+00  1.20000000E+00  1.20000000E+00
  1.20000000E+00  1.20000000E+00  1.20000000E+00  1.20000000E+00  1.20000000E+00
  1.20000000E+00  1.20000000E+00  1.20000000E+00  1.20000000E+00  0.00000000E+00
%FLAG SCNB_SCALE_FACTOR                                                         
%FORMAT(5E16.8)                                                                 
  2.00000000E+00  2.00000000E+00  2.00000000E+00  2.00000000E+00  2.00000000E+00
  2.00000000E+00  2.00000000E+00  2.00000000E+00  2.00000000E+00  2.00000000E+00
  2.00000000E+00  2.00000000E+00  2.00000000E+00  2.00000000E+00  2.00000000E+00
  2.00000000E+00  2.00000000E+00  2.00000000E+00  2.00000000E+00  0.00000000E+00
%FLAG SOLTY                                                                     
%FORMAT(5E16.8)                                                                 
  0.00000000E+00  0.00000000E+00  0.00000000E+00  0.00000000E+00  0.00000000E+00
  0.00000000E+00  0.00000000E+00  0.00000000E+00  0.00000000E+00
%FLAG LENNARD_JONES_ACOEF                                                       
%FORMAT(5E16.8)                                                                 
  5.03152404E+05  4.37717034E+05  3.76435470E+05  6.15869455E+05  5.47655232E+05
  7.22850509E+05  7.18991463E+05  6.30925504E+05  8.65620051E+05  1.02073671E+06
  5.92438683E+05  5.17507491E+05  7.19505991E+05  8.43969952E+05  6.96551276E+05
  6.80216136E+04  5.68021765E+04  8.99910629E+04  1.00235148E+05  8.12662403E+04
  7.94617769E+03  4.69084694E+04  3.86646725E+04  6.36026248E+04  6.97998263E+04
  5.63013422E+04  5.22955465E+03  3.39005767E+03  1.36475542E+03  9.87857350E+02
  2.35480845E+03  2.23577481E+03  1.71458823E+03  9.47421632E+01  5.24570081E+01
  1.34728399E-01  1.74176419E+02  1.15813907E+02  3.50407390E+02  3.03553352E+02
  2.25372434E+02  8.80612241E+00  4.36660257E+00  2.61760843E-03  1.10360882E-05
%FLAG LENNARD_JONES_BCOEF                                                       
%FORMAT(5E16.8)                                                                 
  4.32634597E+02  4.51916854E+02  4.69350655E+02  3.67447838E+02  3.88056827E+02
  3.05601515E+02  5.36620538E+02  5.62969425E+02  4.52010965E+02  6.63431737E+02
  4.76608379E+02  4.98871431E+02  4.03215362E+02  5.90251928E+02  5.24668528E+02
  1.09393126E+02  1.11953944E+02  9.65931103E+01  1.37787728E+02  1.21392023E+02
  2.57122925E+01  9.08431526E+01  9.23664132E+01  8.12052260E+01  1.14981426E+02
  1.01040256E+02  2.08590256E+01  1.67944276E+01  1.29026271E+01  1.22938581E+01
  1.30109323E+01  1.71355763E+01  1.46824710E+01  2.33785449E+00  1.73959275E+00
  7.34107347E-02  3.81654050E+00  3.48534600E+00  4.15567637E+00  5.22789272E+00
  4.40751799E+00  5.90150328E-01  4.15568027E-01  8.47240681E-03  4.55498033E-04
%FLAG BONDS_INC_HYDROGEN                                                        
%FORMAT(10I8)                                                                   
       0      54       2       6      48       5       6      51       5       9
      24       7      12      27       9      15      30       7      15      33
       7      15      36       7      18      39       7      18      42       7
      18      45       7
%FLAG BONDS_WITHOUT_HYDROGEN                                                    
%FORMAT(10I8)                                                                   
       0      21       1       3      21       3       6      12       4       9
      12       6       9      15       6       9      18       6      12      21
       8
%FLAG ANGLES_INC_HYDROGEN                                                       
%FORMAT(10I8)                                                                   
       6      12      27       6       9      12      27       8       9      15
      30       9       9      15      33       9       9      15      36       9
       9      18      39       9       9      18      42       9       9      18
      45       9      12       6      48      10      12       6      51      10
      12       9      24       9      15       9      24       9      18       9
      24       9      21       0      54      12      21      12      27      13
      30      15      33      14      30      15      36      14      33      15
      36      14      39      18      42      14      39      18      45      14
      42      18      45      14      48       6      51      15
%FLAG ANGLES_WITHOUT_HYDROGEN                                                   
%FORMAT(10I8)                                                                   
       0      21       3       1       0      21      12       2       3      21
      12       3       6      12       9       4       6      12      21       5
       9      12      21       7      12       9      15      11      12       9
      18      11      15       9      18      11
%FLAG DIHEDRALS_INC_HYDROGEN                                                    
%FORMAT(10I8)                                                                   
       0      21      12      27       1      54       0      21       3       2
      54       0     -21       3       3       3      21      12      27       7
       3      21     -12      27       8       6      12       9      24      10
       9      12       6      48      11       9      12       6      51      11
      12       9      15      30      12      12       9      15      33      12
      12       9      15      36      12      12       9      18      39      12
      12       9      18      42      12      12       9      18      45      12
      54       0      21      12      13      15       9      12      27      17
      15       9      18      39      12      15       9      18      42      12
      15       9      18      45      12      18       9      12      27      17
      18       9      15      30      12      18       9      15      33      12
      18       9      15      36      12      21      12       6      48      18
      21      12       6      51      18      21      12       9      24      17
      24       9      12      27      17      24       9      15      30      19
      24       9      15      33      19      24       9      15      36      19
      24       9      18      39      19      24       9      18      42      19
      24       9      18      45      19      27      12       6      48      18
      27      12       6      51      18
%FLAG DIHEDRALS_WITHOUT_HYDROGEN                                                
%FORMAT(10I8)                                                                   
       0      21      12       6       1       0      21      12       9       1
       3      21      12       6       1       3      21      12       9       4
       3      21     -12       9       5       3      21     -12       9       6
       6      12       9      15       9       6      12       9      18       9
      15       9      12      21      14      15       9     -12      21      15
      15       9     -12      21      16      18       9      12      21      14
      18       9     -12      21      15      18       9     -12      21      16
       0      21      -3     -12      20
%FLAG EXCLUDED_ATOMS_LIST                                                       
%FORMAT(10I8)                                                                   
       2       3       4       5       8      10      19       3       4       5
       8      10      19       4       5       6       7       8       9      10
      17      18       5       6       7       8       9      10      11      12
      13      14      15      16      17      18       6       7       8       9
      10      11      12      13      14      15      16      17      18      19
       7       8       9      10      11      12      13      14      15      16
       8       9      10      11      12      13      14      15      16       9
      10      17      18      19      10      11      12      13      14      15
      16      17      18      12      13      13       0      15      16      16
       0      18       0       0
%FLAG HBOND_ACOEF                                                               
%FORMAT(5E16.8)                                                                 

%FLAG HBOND_BCOEF                                                               
%FORMAT(5E16.8)                                                                 

%FLAG HBCUT                                                                     
%FORMAT(5E16.8)                                                                 

%FLAG AMBER_ATOM_TYPE                                                           
%FORMAT(20a4)                                                                   
oh  o   n8  c3  c3  c3  c3  c   hc  h1  hc  hc  hc  hc  hc  hc  hn  hn  ho  
%FLAG TREE_CHAIN_CLASSIFICATION                                                 
%FORMAT(20a4)                                                                   
BLA BLA BLA BLA BLA BLA BLA BLA BLA BLA BLA BLA BLA BLA BLA BLA BLA BLA BLA 
%FLAG JOIN_ARRAY                                                                
%FORMAT(10I8)                                                                   
       0       0       0       0       0       0       0       0       0       0
       0       0       0       0       0       0       0       0       0
%FLAG IROTAT                                                                    
%FORMAT(10I8)                                                                   
       0       0       0       0       0       0       0       0       0       0
       0       0       0       0       0       0       0       0       0
%FLAG RADIUS_SET                                                                
%FORMAT(1a80)                                                                   
modified Bondi radii (mbondi)                                                   
%FLAG RADII                                                                     
%FORMAT(5E16.8)                                                                 
  1.50000000E+00  1.50000000E+00  1.55000000E+00  1.70000000E+00  1.70000000E+00
  1.70000000E+00  1.70000000E+00  1.70000000E+00  1.30000000E+00  1.30000000E+00
  1.30000000E+00  1.30000000E+00  1.30000000E+00  1.30000000E+00  1.30000000E+00
  1.30000000E+00  1.30000000E+00  1.30000000E+00  8.00000000E-01
%FLAG SCREEN                                                                    
%FORMAT(5E16.8)                                                                 
  8.50000000E-01  8.50000000E-01  7.90000000E-01  7.20000000E-01  7.20000000E-01
  7.20000000E-01  7.20000000E-01  7.20000000E-01  8.50000000E-01  8.50000000E-01
  8.50000000E-01  8.50000000E-01  8.50000000E-01  8.50000000E-01  8.50000000E-01
  8.50000000E-01  8.50000000E-01  8.50000000E-01  8.50000000E-01
%FLAG IPOL                                                                      
%FORMAT(1I8)                                                                    
       0
