valine_GMX.gro created by acpype (v: 2023.10.27) on Mon Feb  9 18:01:21 2026
 19
    1  VAL    O    1  -0.154  -0.147  -0.026
    1  VAL  OXT    2  -0.173   0.038   0.103
    1  VAL    N    3  -0.026   0.177  -0.086
    1  VAL   CB    4   0.138   0.001  -0.023
    1  VAL   CA    5  -0.005   0.032  -0.074
    1  VAL  CG1    6   0.173  -0.148  -0.016
    1  VAL  CG2    7   0.165   0.068   0.112
    1  VAL    C    8  -0.119  -0.021   0.011
    1  VAL   HB    9   0.208   0.046  -0.095
    1  VAL   HA   10  -0.016  -0.010  -0.175
    1  VAL HG11   11   0.156  -0.196  -0.113
    1  VAL HG12   12   0.113  -0.200   0.059
    1  VAL HG13   13   0.279  -0.162   0.010
    1  VAL HG21   14   0.099   0.030   0.190
    1  VAL HG22   15   0.268   0.049   0.144
    1  VAL HG23   16   0.153   0.177   0.107
    1  VAL   H1   17  -0.114   0.195  -0.133
    1  VAL   H2   18   0.047   0.217  -0.145
    1  VAL    H   19  -0.228  -0.182   0.029
   10.12400     8.33800     7.30600
