; nonylphenol_GMX_OPLS.itp created by acpype (v: 2023.10.27) on Mon Feb  9 17:54:42 2026

; For OPLS atomtypes manual fine tuning
; AC_at:OPLS_at:OPLScode: Possible_Alternatives (see ffoplsaa.atp and ffoplsaanb.itp)
; oh:OH:opls_154: ['167']
; c3:CT:opls_135: ['136', '137', '149', '157', '158', '206', '209', '210', '223B', '224B', '245', '246', '274', '283', '284', '285', '292', '292B', '293B', '296', '307', '308', '505']
; ca:CA:opls_145: ['166', '501', '502']
; hc:HC:opls_140: []
; ha:HA:opls_146: []
; ho:HO:opls_155: ['168']

[ moleculetype ]
;name            nrexcl
 nonylphenol      3

[ atoms ]
;   nr  type  resi  res  atom  cgnr     charge      mass       ; qtot   bond_type
     1 opls_154     1   UNL     O    1    -0.500101     15.99940 ; qtot -0.500  OH  
     2 opls_135     1   UNL     C    2    -0.078400     12.01100 ; qtot -0.579  CT  
     3 opls_135     1   UNL    C1    3    -0.079400     12.01100 ; qtot -0.658  CT  
     4 opls_135     1   UNL    C2    4    -0.079400     12.01100 ; qtot -0.737  CT  
     5 opls_135     1   UNL    C3    5    -0.079400     12.01100 ; qtot -0.817  CT  
     6 opls_135     1   UNL    C4    6    -0.074400     12.01100 ; qtot -0.891  CT  
     7 opls_135     1   UNL    C5    7    -0.079400     12.01100 ; qtot -0.971  CT  
     8 opls_135     1   UNL    C6    8    -0.031100     12.01100 ; qtot -1.002  CT  
     9 opls_135     1   UNL    C7    9    -0.080400     12.01100 ; qtot -1.082  CT  
    10 opls_145     1   UNL    C8   10    -0.098300     12.01100 ; qtot -1.180  CA  
    11 opls_135     1   UNL    C9   11    -0.092100     12.01100 ; qtot -1.272  CT  
    12 opls_145     1   UNL   C10   12     0.124100     12.01100 ; qtot -1.148  CA  
    13 opls_145     1   UNL   C11   13    -0.099000     12.01100 ; qtot -1.247  CA  
    14 opls_145     1   UNL   C12   14    -0.211000     12.01100 ; qtot -1.458  CA  
    15 opls_145     1   UNL   C13   15    -0.162000     12.01100 ; qtot -1.620  CA  
    16 opls_145     1   UNL   C14   16    -0.095000     12.01100 ; qtot -1.715  CA  
    17 opls_140     1   UNL     H   17     0.039700      1.00800 ; qtot -1.676  HC  
    18 opls_140     1   UNL    H1   18     0.039700      1.00800 ; qtot -1.636  HC  
    19 opls_140     1   UNL    H2   19     0.039200      1.00800 ; qtot -1.597  HC  
    20 opls_140     1   UNL    H3   20     0.039200      1.00800 ; qtot -1.558  HC  
    21 opls_140     1   UNL    H4   21     0.039700      1.00800 ; qtot -1.518  HC  
    22 opls_140     1   UNL    H5   22     0.039700      1.00800 ; qtot -1.478  HC  
    23 opls_140     1   UNL    H6   23     0.039200      1.00800 ; qtot -1.439  HC  
    24 opls_140     1   UNL    H7   24     0.039200      1.00800 ; qtot -1.400  HC  
    25 opls_140     1   UNL    H8   25     0.042700      1.00800 ; qtot -1.357  HC  
    26 opls_140     1   UNL    H9   26     0.042700      1.00800 ; qtot -1.314  HC  
    27 opls_140     1   UNL   H10   27     0.039700      1.00800 ; qtot -1.275  HC  
    28 opls_140     1   UNL   H11   28     0.039700      1.00800 ; qtot -1.235  HC  
    29 opls_140     1   UNL   H12   29     0.055700      1.00800 ; qtot -1.179  HC  
    30 opls_140     1   UNL   H13   30     0.055700      1.00800 ; qtot -1.124  HC  
    31 opls_140     1   UNL   H14   31     0.038200      1.00800 ; qtot -1.085  HC  
    32 opls_140     1   UNL   H15   32     0.038200      1.00800 ; qtot -1.047  HC  
    33 opls_140     1   UNL   H16   33     0.032367      1.00800 ; qtot -1.015  HC  
    34 opls_140     1   UNL   H17   34     0.032367      1.00800 ; qtot -0.982  HC  
    35 opls_140     1   UNL   H18   35     0.032367      1.00800 ; qtot -0.950  HC  
    36 opls_146     1   UNL   H19   36     0.135000      1.00800 ; qtot -0.815  HA  
    37 opls_146     1   UNL   H20   37     0.132000      1.00800 ; qtot -0.683  HA  
    38 opls_146     1   UNL   H21   38     0.133000      1.00800 ; qtot -0.550  HA  
    39 opls_146     1   UNL   H22   39     0.132000      1.00800 ; qtot -0.418  HA  
    40 opls_155     1   UNL   H23   40     0.418000      1.00800 ; qtot  0.000  HO  

[ bonds ]
;   ai     aj funct   r             k
     1     12   1 ;    1.3644e-01    2.9167e+05 ;      O - C10        OH - CA    
     1     40   1 ;    9.7250e-02    4.4811e+05 ;      O - H23        OH - HO    
     2      3   1 ;    1.5354e-01    1.9154e+05 ;      C - C1         CT - CT    
     2      4   1 ;    1.5354e-01    1.9154e+05 ;      C - C2         CT - CT    
     2     17   1 ;    1.0962e-01    2.8891e+05 ;      C - H          CT - HC    
     2     18   1 ;    1.0962e-01    2.8891e+05 ;      C - H1         CT - HC    
     3      5   1 ;    1.5354e-01    1.9154e+05 ;     C1 - C3         CT - CT    
     3     19   1 ;    1.0962e-01    2.8891e+05 ;     C1 - H2         CT - HC    
     3     20   1 ;    1.0962e-01    2.8891e+05 ;     C1 - H3         CT - HC    
     4      6   1 ;    1.5354e-01    1.9154e+05 ;     C2 - C4         CT - CT    
     4     21   1 ;    1.0962e-01    2.8891e+05 ;     C2 - H4         CT - HC    
     4     22   1 ;    1.0962e-01    2.8891e+05 ;     C2 - H5         CT - HC    
     5      7   1 ;    1.5354e-01    1.9154e+05 ;     C3 - C5         CT - CT    
     5     23   1 ;    1.0962e-01    2.8891e+05 ;     C3 - H6         CT - HC    
     5     24   1 ;    1.0962e-01    2.8891e+05 ;     C3 - H7         CT - HC    
     6      8   1 ;    1.5354e-01    1.9154e+05 ;     C4 - C6         CT - CT    
     6     25   1 ;    1.0962e-01    2.8891e+05 ;     C4 - H8         CT - HC    
     6     26   1 ;    1.0962e-01    2.8891e+05 ;     C4 - H9         CT - HC    
     7      9   1 ;    1.5354e-01    1.9154e+05 ;     C5 - C7         CT - CT    
     7     27   1 ;    1.0962e-01    2.8891e+05 ;     C5 - H10        CT - HC    
     7     28   1 ;    1.0962e-01    2.8891e+05 ;     C5 - H11        CT - HC    
     8     10   1 ;    1.5147e-01    2.0410e+05 ;     C6 - C8         CT - CA    
     8     29   1 ;    1.0962e-01    2.8891e+05 ;     C6 - H12        CT - HC    
     8     30   1 ;    1.0962e-01    2.8891e+05 ;     C6 - H13        CT - HC    
     9     11   1 ;    1.5354e-01    1.9154e+05 ;     C7 - C9         CT - CT    
     9     31   1 ;    1.0962e-01    2.8891e+05 ;     C7 - H14        CT - HC    
     9     32   1 ;    1.0962e-01    2.8891e+05 ;     C7 - H15        CT - HC    
    10     12   1 ;    1.3986e-01    2.9644e+05 ;     C8 - C10        CA - CA    
    10     13   1 ;    1.3986e-01    2.9644e+05 ;     C8 - C11        CA - CA    
    11     33   1 ;    1.0962e-01    2.8891e+05 ;     C9 - H16        CT - HC    
    11     34   1 ;    1.0962e-01    2.8891e+05 ;     C9 - H17        CT - HC    
    11     35   1 ;    1.0962e-01    2.8891e+05 ;     C9 - H18        CT - HC    
    12     14   1 ;    1.3986e-01    2.9644e+05 ;    C10 - C12        CA - CA    
    13     15   1 ;    1.3986e-01    2.9644e+05 ;    C11 - C13        CA - CA    
    13     36   1 ;    1.0860e-01    3.0183e+05 ;    C11 - H19        CA - HA    
    14     16   1 ;    1.3986e-01    2.9644e+05 ;    C12 - C14        CA - CA    
    14     37   1 ;    1.0860e-01    3.0183e+05 ;    C12 - H20        CA - HA    
    15     16   1 ;    1.3986e-01    2.9644e+05 ;    C13 - C14        CA - CA    
    15     38   1 ;    1.0860e-01    3.0183e+05 ;    C13 - H21        CA - HA    
    16     39   1 ;    1.0860e-01    3.0183e+05 ;    C14 - H22        CA - HA    

[ pairs ]
;   ai     aj    funct
     1      8      1 ;      O - C6    
     1     13      1 ;      O - C11   
     1     16      1 ;      O - C14   
     1     37      1 ;      O - H20   
     2      7      1 ;      C - C5    
     2      8      1 ;      C - C6    
     2     23      1 ;      C - H6    
     2     24      1 ;      C - H7    
     2     25      1 ;      C - H8    
     2     26      1 ;      C - H9    
     3      6      1 ;     C1 - C4    
     3      9      1 ;     C1 - C7    
     3     21      1 ;     C1 - H4    
     3     22      1 ;     C1 - H5    
     3     27      1 ;     C1 - H10   
     3     28      1 ;     C1 - H11   
     4      5      1 ;     C2 - C3    
     4     10      1 ;     C2 - C8    
     4     19      1 ;     C2 - H2    
     4     20      1 ;     C2 - H3    
     4     29      1 ;     C2 - H12   
     4     30      1 ;     C2 - H13   
     5     11      1 ;     C3 - C9    
     5     17      1 ;     C3 - H     
     5     18      1 ;     C3 - H1    
     5     31      1 ;     C3 - H14   
     5     32      1 ;     C3 - H15   
     6     12      1 ;     C4 - C10   
     6     13      1 ;     C4 - C11   
     6     17      1 ;     C4 - H     
     6     18      1 ;     C4 - H1    
     7     19      1 ;     C5 - H2    
     7     20      1 ;     C5 - H3    
     7     33      1 ;     C5 - H16   
     7     34      1 ;     C5 - H17   
     7     35      1 ;     C5 - H18   
     8     14      1 ;     C6 - C12   
     8     15      1 ;     C6 - C13   
     8     21      1 ;     C6 - H4    
     8     22      1 ;     C6 - H5    
     8     36      1 ;     C6 - H19   
     9     23      1 ;     C7 - H6    
     9     24      1 ;     C7 - H7    
    10     16      1 ;     C8 - C14   
    10     25      1 ;     C8 - H8    
    10     26      1 ;     C8 - H9    
    10     37      1 ;     C8 - H20   
    10     38      1 ;     C8 - H21   
    11     27      1 ;     C9 - H10   
    11     28      1 ;     C9 - H11   
    12     15      1 ;    C10 - C13   
    12     29      1 ;    C10 - H12   
    12     30      1 ;    C10 - H13   
    12     36      1 ;    C10 - H19   
    12     39      1 ;    C10 - H22   
    13     14      1 ;    C11 - C12   
    13     29      1 ;    C11 - H12   
    13     30      1 ;    C11 - H13   
    13     39      1 ;    C11 - H22   
    14     38      1 ;    C12 - H21   
    15     37      1 ;    C13 - H20   
    16     36      1 ;    C14 - H19   
    17     19      1 ;      H - H2    
    17     20      1 ;      H - H3    
    17     21      1 ;      H - H4    
    17     22      1 ;      H - H5    
    18     19      1 ;     H1 - H2    
    18     20      1 ;     H1 - H3    
    18     21      1 ;     H1 - H4    
    18     22      1 ;     H1 - H5    
    19     23      1 ;     H2 - H6    
    19     24      1 ;     H2 - H7    
    20     23      1 ;     H3 - H6    
    20     24      1 ;     H3 - H7    
    21     25      1 ;     H4 - H8    
    21     26      1 ;     H4 - H9    
    22     25      1 ;     H5 - H8    
    22     26      1 ;     H5 - H9    
    23     27      1 ;     H6 - H10   
    23     28      1 ;     H6 - H11   
    24     27      1 ;     H7 - H10   
    24     28      1 ;     H7 - H11   
    25     29      1 ;     H8 - H12   
    25     30      1 ;     H8 - H13   
    26     29      1 ;     H9 - H12   
    26     30      1 ;     H9 - H13   
    27     31      1 ;    H10 - H14   
    27     32      1 ;    H10 - H15   
    28     31      1 ;    H11 - H14   
    28     32      1 ;    H11 - H15   
    31     33      1 ;    H14 - H16   
    31     34      1 ;    H14 - H17   
    31     35      1 ;    H14 - H18   
    32     33      1 ;    H15 - H16   
    32     34      1 ;    H15 - H17   
    32     35      1 ;    H15 - H18   
    36     38      1 ;    H19 - H21   
    37     39      1 ;    H20 - H22   
    38     39      1 ;    H21 - H22   
    40     10      1 ;    H23 - C8    
    40     14      1 ;    H23 - C12   

[ angles ]
;   ai     aj     ak    funct   theta         cth
     1     12     10      1 ;    1.1990e+02    6.5990e+02 ;      O - C10  - C8       OH -   CA - CA  
     1     12     14      1 ;    1.1990e+02    6.5990e+02 ;      O - C10  - C12      OH -   CA - CA  
     2      3      5      1 ;    1.1263e+02    5.0099e+02 ;      C - C1   - C3       CT -   CT - CT  
     2      3     19      1 ;    1.0968e+02    3.6208e+02 ;      C - C1   - H2       CT -   CT - HC  
     2      3     20      1 ;    1.0968e+02    3.6208e+02 ;      C - C1   - H3       CT -   CT - HC  
     2      4      6      1 ;    1.1263e+02    5.0099e+02 ;      C - C2   - C4       CT -   CT - CT  
     2      4     21      1 ;    1.0968e+02    3.6208e+02 ;      C - C2   - H4       CT -   CT - HC  
     2      4     22      1 ;    1.0968e+02    3.6208e+02 ;      C - C2   - H5       CT -   CT - HC  
     3      2      4      1 ;    1.1263e+02    5.0099e+02 ;     C1 - C    - C2       CT -   CT - CT  
     3      2     17      1 ;    1.0968e+02    3.6208e+02 ;     C1 - C    - H        CT -   CT - HC  
     3      2     18      1 ;    1.0968e+02    3.6208e+02 ;     C1 - C    - H1       CT -   CT - HC  
     3      5      7      1 ;    1.1263e+02    5.0099e+02 ;     C1 - C3   - C5       CT -   CT - CT  
     3      5     23      1 ;    1.0968e+02    3.6208e+02 ;     C1 - C3   - H6       CT -   CT - HC  
     3      5     24      1 ;    1.0968e+02    3.6208e+02 ;     C1 - C3   - H7       CT -   CT - HC  
     4      2     17      1 ;    1.0968e+02    3.6208e+02 ;     C2 - C    - H        CT -   CT - HC  
     4      2     18      1 ;    1.0968e+02    3.6208e+02 ;     C2 - C    - H1       CT -   CT - HC  
     4      6      8      1 ;    1.1263e+02    5.0099e+02 ;     C2 - C4   - C6       CT -   CT - CT  
     4      6     25      1 ;    1.0968e+02    3.6208e+02 ;     C2 - C4   - H8       CT -   CT - HC  
     4      6     26      1 ;    1.0968e+02    3.6208e+02 ;     C2 - C4   - H9       CT -   CT - HC  
     5      3     19      1 ;    1.0968e+02    3.6208e+02 ;     C3 - C1   - H2       CT -   CT - HC  
     5      3     20      1 ;    1.0968e+02    3.6208e+02 ;     C3 - C1   - H3       CT -   CT - HC  
     5      7      9      1 ;    1.1263e+02    5.0099e+02 ;     C3 - C5   - C7       CT -   CT - CT  
     5      7     27      1 ;    1.0968e+02    3.6208e+02 ;     C3 - C5   - H10      CT -   CT - HC  
     5      7     28      1 ;    1.0968e+02    3.6208e+02 ;     C3 - C5   - H11      CT -   CT - HC  
     6      4     21      1 ;    1.0968e+02    3.6208e+02 ;     C4 - C2   - H4       CT -   CT - HC  
     6      4     22      1 ;    1.0968e+02    3.6208e+02 ;     C4 - C2   - H5       CT -   CT - HC  
     6      8     10      1 ;    1.1242e+02    5.0484e+02 ;     C4 - C6   - C8       CT -   CT - CA  
     6      8     29      1 ;    1.0968e+02    3.6208e+02 ;     C4 - C6   - H12      CT -   CT - HC  
     6      8     30      1 ;    1.0968e+02    3.6208e+02 ;     C4 - C6   - H13      CT -   CT - HC  
     7      5     23      1 ;    1.0968e+02    3.6208e+02 ;     C5 - C3   - H6       CT -   CT - HC  
     7      5     24      1 ;    1.0968e+02    3.6208e+02 ;     C5 - C3   - H7       CT -   CT - HC  
     7      9     11      1 ;    1.1263e+02    5.0099e+02 ;     C5 - C7   - C9       CT -   CT - CT  
     7      9     31      1 ;    1.0968e+02    3.6208e+02 ;     C5 - C7   - H14      CT -   CT - HC  
     7      9     32      1 ;    1.0968e+02    3.6208e+02 ;     C5 - C7   - H15      CT -   CT - HC  
     8      6     25      1 ;    1.0968e+02    3.6208e+02 ;     C6 - C4   - H8       CT -   CT - HC  
     8      6     26      1 ;    1.0968e+02    3.6208e+02 ;     C6 - C4   - H9       CT -   CT - HC  
     8     10     12      1 ;    1.2083e+02    5.0827e+02 ;     C6 - C8   - C10      CT -   CA - CA  
     8     10     13      1 ;    1.2083e+02    5.0827e+02 ;     C6 - C8   - C11      CT -   CA - CA  
     9      7     27      1 ;    1.0968e+02    3.6208e+02 ;     C7 - C5   - H10      CT -   CT - HC  
     9      7     28      1 ;    1.0968e+02    3.6208e+02 ;     C7 - C5   - H11      CT -   CT - HC  
     9     11     33      1 ;    1.0968e+02    3.6208e+02 ;     C7 - C9   - H16      CT -   CT - HC  
     9     11     34      1 ;    1.0968e+02    3.6208e+02 ;     C7 - C9   - H17      CT -   CT - HC  
     9     11     35      1 ;    1.0968e+02    3.6208e+02 ;     C7 - C9   - H18      CT -   CT - HC  
    10      8     29      1 ;    1.1063e+02    3.6493e+02 ;     C8 - C6   - H12      CA -   CT - HC  
    10      8     30      1 ;    1.1063e+02    3.6493e+02 ;     C8 - C6   - H13      CA -   CT - HC  
    10     12     14      1 ;    1.2002e+02    5.3279e+02 ;     C8 - C10  - C12      CA -   CA - CA  
    10     13     15      1 ;    1.2002e+02    5.3279e+02 ;     C8 - C11  - C13      CA -   CA - CA  
    10     13     36      1 ;    1.1988e+02    3.7572e+02 ;     C8 - C11  - H19      CA -   CA - HA  
    11      9     31      1 ;    1.0968e+02    3.6208e+02 ;     C9 - C7   - H14      CT -   CT - HC  
    11      9     32      1 ;    1.0968e+02    3.6208e+02 ;     C9 - C7   - H15      CT -   CT - HC  
    12      1     40      1 ;    1.0858e+02    5.6409e+02 ;    C10 - O    - H23      CA -   OH - HO  
    12     10     13      1 ;    1.2002e+02    5.3279e+02 ;    C10 - C8   - C11      CA -   CA - CA  
    12     14     16      1 ;    1.2002e+02    5.3279e+02 ;    C10 - C12  - C14      CA -   CA - CA  
    12     14     37      1 ;    1.1988e+02    3.7572e+02 ;    C10 - C12  - H20      CA -   CA - HA  
    13     15     16      1 ;    1.2002e+02    5.3279e+02 ;    C11 - C13  - C14      CA -   CA - CA  
    13     15     38      1 ;    1.1988e+02    3.7572e+02 ;    C11 - C13  - H21      CA -   CA - HA  
    14     16     15      1 ;    1.2002e+02    5.3279e+02 ;    C12 - C14  - C13      CA -   CA - CA  
    14     16     39      1 ;    1.1988e+02    3.7572e+02 ;    C12 - C14  - H22      CA -   CA - HA  
    15     13     36      1 ;    1.1988e+02    3.7572e+02 ;    C13 - C11  - H19      CA -   CA - HA  
    15     16     39      1 ;    1.1988e+02    3.7572e+02 ;    C13 - C14  - H22      CA -   CA - HA  
    16     14     37      1 ;    1.1988e+02    3.7572e+02 ;    C14 - C12  - H20      CA -   CA - HA  
    16     15     38      1 ;    1.1988e+02    3.7572e+02 ;    C14 - C13  - H21      CA -   CA - HA  
    17      2     18      1 ;    1.0773e+02    2.9957e+02 ;      H - C    - H1       HC -   CT - HC  
    19      3     20      1 ;    1.0773e+02    2.9957e+02 ;     H2 - C1   - H3       HC -   CT - HC  
    21      4     22      1 ;    1.0773e+02    2.9957e+02 ;     H4 - C2   - H5       HC -   CT - HC  
    23      5     24      1 ;    1.0773e+02    2.9957e+02 ;     H6 - C3   - H7       HC -   CT - HC  
    25      6     26      1 ;    1.0773e+02    2.9957e+02 ;     H8 - C4   - H9       HC -   CT - HC  
    27      7     28      1 ;    1.0773e+02    2.9957e+02 ;    H10 - C5   - H11      HC -   CT - HC  
    29      8     30      1 ;    1.0773e+02    2.9957e+02 ;    H12 - C6   - H13      HC -   CT - HC  
    31      9     32      1 ;    1.0773e+02    2.9957e+02 ;    H14 - C7   - H15      HC -   CT - HC  
    33     11     34      1 ;    1.0773e+02    2.9957e+02 ;    H16 - C9   - H17      HC -   CT - HC  
    33     11     35      1 ;    1.0773e+02    2.9957e+02 ;    H16 - C9   - H18      HC -   CT - HC  
    34     11     35      1 ;    1.0773e+02    2.9957e+02 ;    H17 - C9   - H18      HC -   CT - HC  

[ dihedrals ] ; propers
; for gromacs 4.5 or higher, using funct 9
;    i      j      k      l   func   phase     kd      pn
     1     12     10      8      9 ;   180.00  15.16700   2 ;      O-   C10-    C8-    C6
     1     12     10     13      9 ;   180.00  15.16700   2 ;      O-   C10-    C8-   C11
     1     12     14     16      9 ;   180.00  15.16700   2 ;      O-   C10-   C12-   C14
     1     12     14     37      9 ;   180.00  15.16700   2 ;      O-   C10-   C12-   H20
     2      3      5      7      9 ;     0.00   2.17568   3 ;      C-    C1-    C3-    C5
     2      3      5     23      9 ;     0.00   0.54392   3 ;      C-    C1-    C3-    H6
     2      3      5     24      9 ;     0.00   0.54392   3 ;      C-    C1-    C3-    H7
     2      4      6      8      9 ;     0.00   2.17568   3 ;      C-    C2-    C4-    C6
     2      4      6     25      9 ;     0.00   0.54392   3 ;      C-    C2-    C4-    H8
     2      4      6     26      9 ;     0.00   0.54392   3 ;      C-    C2-    C4-    H9
     3      2      4      6      9 ;     0.00   2.17568   3 ;     C1-     C-    C2-    C4
     3      2      4     21      9 ;     0.00   0.54392   3 ;     C1-     C-    C2-    H4
     3      2      4     22      9 ;     0.00   0.54392   3 ;     C1-     C-    C2-    H5
     3      5      7      9      9 ;     0.00   2.17568   3 ;     C1-    C3-    C5-    C7
     3      5      7     27      9 ;     0.00   0.54392   3 ;     C1-    C3-    C5-   H10
     3      5      7     28      9 ;     0.00   0.54392   3 ;     C1-    C3-    C5-   H11
     4      2      3      5      9 ;     0.00   2.17568   3 ;     C2-     C-    C1-    C3
     4      2      3     19      9 ;     0.00   0.54392   3 ;     C2-     C-    C1-    H2
     4      2      3     20      9 ;     0.00   0.54392   3 ;     C2-     C-    C1-    H3
     4      6      8     10      9 ;     0.00   0.65084   3 ;     C2-    C4-    C6-    C8
     4      6      8     29      9 ;     0.00   0.54392   3 ;     C2-    C4-    C6-   H12
     4      6      8     30      9 ;     0.00   0.54392   3 ;     C2-    C4-    C6-   H13
     5      3      2     17      9 ;     0.00   0.54392   3 ;     C3-    C1-     C-     H
     5      3      2     18      9 ;     0.00   0.54392   3 ;     C3-    C1-     C-    H1
     5      7      9     11      9 ;     0.00   2.17568   3 ;     C3-    C5-    C7-    C9
     5      7      9     31      9 ;     0.00   0.54392   3 ;     C3-    C5-    C7-   H14
     5      7      9     32      9 ;     0.00   0.54392   3 ;     C3-    C5-    C7-   H15
     6      4      2     17      9 ;     0.00   0.54392   3 ;     C4-    C2-     C-     H
     6      4      2     18      9 ;     0.00   0.54392   3 ;     C4-    C2-     C-    H1
     6      8     10     12      9 ;   180.00   1.00416   2 ;     C4-    C6-    C8-   C10
     6      8     10     13      9 ;   180.00   1.00416   2 ;     C4-    C6-    C8-   C11
     7      5      3     19      9 ;     0.00   0.54392   3 ;     C5-    C3-    C1-    H2
     7      5      3     20      9 ;     0.00   0.54392   3 ;     C5-    C3-    C1-    H3
     7      9     11     33      9 ;     0.00   0.54392   3 ;     C5-    C7-    C9-   H16
     7      9     11     34      9 ;     0.00   0.54392   3 ;     C5-    C7-    C9-   H17
     7      9     11     35      9 ;     0.00   0.54392   3 ;     C5-    C7-    C9-   H18
     8      6      4     21      9 ;     0.00   0.54392   3 ;     C6-    C4-    C2-    H4
     8      6      4     22      9 ;     0.00   0.54392   3 ;     C6-    C4-    C2-    H5
     8     10     12     14      9 ;   180.00  15.16700   2 ;     C6-    C8-   C10-   C12
     8     10     13     15      9 ;   180.00  15.16700   2 ;     C6-    C8-   C11-   C13
     8     10     13     36      9 ;   180.00  15.16700   2 ;     C6-    C8-   C11-   H19
     9      7      5     23      9 ;     0.00   0.54392   3 ;     C7-    C5-    C3-    H6
     9      7      5     24      9 ;     0.00   0.54392   3 ;     C7-    C5-    C3-    H7
    10      8      6     25      9 ;     0.00   0.65084   3 ;     C8-    C6-    C4-    H8
    10      8      6     26      9 ;     0.00   0.65084   3 ;     C8-    C6-    C4-    H9
    10     12     14     16      9 ;   180.00  15.16700   2 ;     C8-   C10-   C12-   C14
    10     12     14     37      9 ;   180.00  15.16700   2 ;     C8-   C10-   C12-   H20
    10     13     15     16      9 ;   180.00  15.16700   2 ;     C8-   C11-   C13-   C14
    10     13     15     38      9 ;   180.00  15.16700   2 ;     C8-   C11-   C13-   H21
    11      9      7     27      9 ;     0.00   0.54392   3 ;     C9-    C7-    C5-   H10
    11      9      7     28      9 ;     0.00   0.54392   3 ;     C9-    C7-    C5-   H11
    12     10      8     29      9 ;     0.00   0.00000   0 ;    C10-    C8-    C6-   H12
    12     10      8     30      9 ;     0.00   0.00000   0 ;    C10-    C8-    C6-   H13
    12     10     13     15      9 ;   180.00  15.16700   2 ;    C10-    C8-   C11-   C13
    12     10     13     36      9 ;   180.00  15.16700   2 ;    C10-    C8-   C11-   H19
    12     14     16     15      9 ;   180.00  15.16700   2 ;    C10-   C12-   C14-   C13
    12     14     16     39      9 ;   180.00  15.16700   2 ;    C10-   C12-   C14-   H22
    13     10      8     29      9 ;     0.00   0.00000   0 ;    C11-    C8-    C6-   H12
    13     10      8     30      9 ;     0.00   0.00000   0 ;    C11-    C8-    C6-   H13
    13     10     12     14      9 ;   180.00  15.16700   2 ;    C11-    C8-   C10-   C12
    13     15     16     14      9 ;   180.00  15.16700   2 ;    C11-   C13-   C14-   C12
    13     15     16     39      9 ;   180.00  15.16700   2 ;    C11-   C13-   C14-   H22
    14     16     15     38      9 ;   180.00  15.16700   2 ;    C12-   C14-   C13-   H21
    15     16     14     37      9 ;   180.00  15.16700   2 ;    C13-   C14-   C12-   H20
    16     15     13     36      9 ;   180.00  15.16700   2 ;    C14-   C13-   C11-   H19
    17      2      3     19      9 ;     0.00   0.50208   3 ;      H-     C-    C1-    H2
    17      2      3     20      9 ;     0.00   0.50208   3 ;      H-     C-    C1-    H3
    17      2      4     21      9 ;     0.00   0.50208   3 ;      H-     C-    C2-    H4
    17      2      4     22      9 ;     0.00   0.50208   3 ;      H-     C-    C2-    H5
    18      2      3     19      9 ;     0.00   0.50208   3 ;     H1-     C-    C1-    H2
    18      2      3     20      9 ;     0.00   0.50208   3 ;     H1-     C-    C1-    H3
    18      2      4     21      9 ;     0.00   0.50208   3 ;     H1-     C-    C2-    H4
    18      2      4     22      9 ;     0.00   0.50208   3 ;     H1-     C-    C2-    H5
    19      3      5     23      9 ;     0.00   0.50208   3 ;     H2-    C1-    C3-    H6
    19      3      5     24      9 ;     0.00   0.50208   3 ;     H2-    C1-    C3-    H7
    20      3      5     23      9 ;     0.00   0.50208   3 ;     H3-    C1-    C3-    H6
    20      3      5     24      9 ;     0.00   0.50208   3 ;     H3-    C1-    C3-    H7
    21      4      6     25      9 ;     0.00   0.50208   3 ;     H4-    C2-    C4-    H8
    21      4      6     26      9 ;     0.00   0.50208   3 ;     H4-    C2-    C4-    H9
    22      4      6     25      9 ;     0.00   0.50208   3 ;     H5-    C2-    C4-    H8
    22      4      6     26      9 ;     0.00   0.50208   3 ;     H5-    C2-    C4-    H9
    23      5      7     27      9 ;     0.00   0.50208   3 ;     H6-    C3-    C5-   H10
    23      5      7     28      9 ;     0.00   0.50208   3 ;     H6-    C3-    C5-   H11
    24      5      7     27      9 ;     0.00   0.50208   3 ;     H7-    C3-    C5-   H10
    24      5      7     28      9 ;     0.00   0.50208   3 ;     H7-    C3-    C5-   H11
    25      6      8     29      9 ;     0.00   0.50208   3 ;     H8-    C4-    C6-   H12
    25      6      8     30      9 ;     0.00   0.50208   3 ;     H8-    C4-    C6-   H13
    26      6      8     29      9 ;     0.00   0.50208   3 ;     H9-    C4-    C6-   H12
    26      6      8     30      9 ;     0.00   0.50208   3 ;     H9-    C4-    C6-   H13
    27      7      9     31      9 ;     0.00   0.50208   3 ;    H10-    C5-    C7-   H14
    27      7      9     32      9 ;     0.00   0.50208   3 ;    H10-    C5-    C7-   H15
    28      7      9     31      9 ;     0.00   0.50208   3 ;    H11-    C5-    C7-   H14
    28      7      9     32      9 ;     0.00   0.50208   3 ;    H11-    C5-    C7-   H15
    31      9     11     33      9 ;     0.00   0.50208   3 ;    H14-    C7-    C9-   H16
    31      9     11     34      9 ;     0.00   0.50208   3 ;    H14-    C7-    C9-   H17
    31      9     11     35      9 ;     0.00   0.50208   3 ;    H14-    C7-    C9-   H18
    32      9     11     33      9 ;     0.00   0.50208   3 ;    H15-    C7-    C9-   H16
    32      9     11     34      9 ;     0.00   0.50208   3 ;    H15-    C7-    C9-   H17
    32      9     11     35      9 ;     0.00   0.50208   3 ;    H15-    C7-    C9-   H18
    36     13     15     38      9 ;   180.00  15.16700   2 ;    H19-   C11-   C13-   H21
    37     14     16     39      9 ;   180.00  15.16700   2 ;    H20-   C12-   C14-   H22
    38     15     16     39      9 ;   180.00  15.16700   2 ;    H21-   C13-   C14-   H22
    40      1     12     10      9 ;   180.00   3.57732   2 ;    H23-     O-   C10-    C8
    40      1     12     14      9 ;   180.00   3.57732   2 ;    H23-     O-   C10-   C12

[ dihedrals ] ; impropers
; treated as propers in GROMACS to use correct AMBER analytical function
;    i      j      k      l   func   phase     kd      pn
     1     12     14     10      4 ;   180.00   4.60240   2 ;      O-   C10-   C12-    C8
    10     15     13     36      4 ;   180.00   4.60240   2 ;     C8-   C13-   C11-   H19
    12     13     10      8      4 ;   180.00   4.60240   2 ;    C10-   C11-    C8-    C6
    12     16     14     37      4 ;   180.00   4.60240   2 ;    C10-   C14-   C12-   H20
    13     16     15     38      4 ;   180.00   4.60240   2 ;    C11-   C14-   C13-   H21
    14     15     16     39      4 ;   180.00   4.60240   2 ;    C12-   C13-   C14-   H22
