67296
    40
   3.2480000  -2.2010000  -0.0370000  -1.9560000   0.0340000   0.1890000
  -3.3170000  -0.0600000  -0.5060000  -0.7720000  -0.0540000  -0.7800000
  -4.4630000   0.0570000   0.5030000   0.5870000   0.1140000  -0.0920000
  -5.8230000   0.0030000  -0.1970000   1.7660000   0.0130000  -1.0680000
  -7.0060000   0.0840000   0.7700000   3.1140000   0.1630000  -0.4100000
  -8.3590000   0.1020000   0.0750000   3.7830000  -0.9530000   0.0710000
   3.6650000   1.4320000  -0.2990000   5.0300000  -0.7960000   0.6780000
   4.9110000   1.5880000   0.3070000   5.5930000   0.4740000   0.7960000
  -1.8970000   0.9820000   0.7380000  -1.8710000  -0.7680000   0.9330000
  -3.3900000  -1.0130000  -1.0420000  -3.4000000   0.7390000  -1.2520000
  -0.8800000   0.7190000  -1.5500000  -0.8010000  -1.0220000  -1.2950000
  -4.3940000  -0.7570000   1.2350000  -4.3760000   1.0000000   1.0560000
   0.6160000   1.0840000   0.4190000   0.6920000  -0.6510000   0.6880000
  -5.8990000  -0.9270000  -0.7750000  -5.8900000   0.8280000  -0.9160000
   1.6580000   0.7830000  -1.8450000   1.7190000  -0.9400000  -1.6100000
  -6.9130000   0.9900000   1.3810000  -6.9710000  -0.7680000   1.4590000
  -9.1650000   0.1600000   0.8120000  -8.5040000  -0.8050000  -0.5190000
  -8.4440000   0.9670000  -0.5920000   3.1410000   2.3070000  -0.6730000
   5.5730000  -1.6550000   1.0620000   5.3500000   2.5780000   0.4000000
   6.5640000   0.5960000   1.2680000   3.8610000  -2.8450000   0.3560000
