nonylphenol_GMX.gro created by acpype (v: 2023.10.27) on Mon Feb  9 17:54:42 2026
 40
    1  UNL    O    1   0.325  -0.220  -0.004
    1  UNL    C    2  -0.196   0.003   0.019
    1  UNL   C1    3  -0.332  -0.006  -0.051
    1  UNL   C2    4  -0.077  -0.005  -0.078
    1  UNL   C3    5  -0.446   0.006   0.050
    1  UNL   C4    6   0.059   0.011  -0.009
    1  UNL   C5    7  -0.582   0.000  -0.020
    1  UNL   C6    8   0.177   0.001  -0.107
    1  UNL   C7    9  -0.701   0.008   0.077
    1  UNL   C8   10   0.311   0.016  -0.041
    1  UNL   C9   11  -0.836   0.010   0.007
    1  UNL  C10   12   0.378  -0.095   0.007
    1  UNL  C11   13   0.367   0.143  -0.030
    1  UNL  C12   14   0.503  -0.080   0.068
    1  UNL  C13   15   0.491   0.159   0.031
    1  UNL  C14   16   0.559   0.047   0.080
    1  UNL    H   17  -0.190   0.098   0.074
    1  UNL   H1   18  -0.187  -0.077   0.093
    1  UNL   H2   19  -0.339  -0.101  -0.104
    1  UNL   H3   20  -0.340   0.074  -0.125
    1  UNL   H4   21  -0.088   0.072  -0.155
    1  UNL   H5   22  -0.080  -0.102  -0.130
    1  UNL   H6   23  -0.439  -0.076   0.124
    1  UNL   H7   24  -0.438   0.100   0.106
    1  UNL   H8   25   0.062   0.108   0.042
    1  UNL   H9   26   0.069  -0.065   0.069
    1  UNL  H10   27  -0.590  -0.093  -0.078
    1  UNL  H11   28  -0.589   0.083  -0.092
    1  UNL  H12   29   0.166   0.078  -0.184
    1  UNL  H13   30   0.172  -0.094  -0.161
    1  UNL  H14   31  -0.691   0.099   0.138
    1  UNL  H15   32  -0.697  -0.077   0.146
    1  UNL  H16   33  -0.916   0.016   0.081
    1  UNL  H17   34  -0.850  -0.081  -0.052
    1  UNL  H18   35  -0.844   0.097  -0.059
    1  UNL  H19   36   0.314   0.231  -0.067
    1  UNL  H20   37   0.557  -0.166   0.106
    1  UNL  H21   38   0.535   0.258   0.040
    1  UNL  H22   39   0.656   0.060   0.127
    1  UNL  H23   40   0.386  -0.285   0.036
   31.45800    10.84600     6.60800
