; nonylphenol_GMX.top created by acpype (v: 2023.10.27) on Mon Feb  9 17:54:42 2026

[ defaults ]
; nbfunc        comb-rule       gen-pairs       fudgeLJ fudgeQQ
1               2               yes             0.5     0.8333333333

; Include nonylphenol_GMX.itp topology
#include "nonylphenol_GMX.itp"

; Ligand position restraints
#ifdef POSRES_LIG
#include "posre_nonylphenol.itp"
#endif

[ system ]
 nonylphenol

[ molecules ]
; Compound        nmols
 nonylphenol      1     
