%VERSION  VERSION_STAMP = V0001.000  DATE = 02/09/26  17:55:16                  
%FLAG TITLE                                                                     
%FORMAT(20a4)                                                                   
67296                                                                           
%FLAG POINTERS                                                                  
%FORMAT(10I8)                                                                   
      40       6      24      16      55      18      88      22       0       0
     218       1      16      18      22       7      10       9       6       0
       0       0       0       0       0       0       0       0      40       0
       0
%FLAG ATOM_NAME                                                                 
%FORMAT(20a4)                                                                   
O   C   C1  C2  C3  C4  C5  C6  C7  C8  C9  C10 C11 C12 C13 C14 H   H1  H2  H3  
H4  H5  H6  H7  H8  H9  H10 H11 H12 H13 H14 H15 H16 H17 H18 H19 H20 H21 H22 H23 
%FLAG CHARGE                                                                    
%FORMAT(5E16.8)                                                                 
 -9.09474993E+00 -1.42862832E+00 -1.44685062E+00 -1.44685062E+00 -1.44685062E+00
 -1.35573912E+00 -1.44685062E+00 -5.66713530E-01 -1.46507292E+00 -1.79125209E+00
 -1.67827383E+00  2.26138743E+00 -1.80400770E+00 -3.84490530E+00 -2.95201260E+00
 -1.73111850E+00  7.23425310E-01  7.23425310E-01  7.14314160E-01  7.14314160E-01
  7.23425310E-01  7.23425310E-01  7.14314160E-01  7.14314160E-01  7.78092210E-01
  7.78092210E-01  7.23425310E-01  7.23425310E-01  1.01498211E+00  1.01498211E+00
  6.96091860E-01  6.96091860E-01  5.89801184E-01  5.89801184E-01  5.89801184E-01
  2.46001050E+00  2.40534360E+00  2.42356590E+00  2.40534360E+00  7.61692140E+00
%FLAG ATOMIC_NUMBER                                                             
%FORMAT(10I8)                                                                   
       8       6       6       6       6       6       6       6       6       6
       6       6       6       6       6       6       1       1       1       1
       1       1       1       1       1       1       1       1       1       1
       1       1       1       1       1       1       1       1       1       1
%FLAG MASS                                                                      
%FORMAT(5E16.8)                                                                 
  1.60000000E+01  1.20100000E+01  1.20100000E+01  1.20100000E+01  1.20100000E+01
  1.20100000E+01  1.20100000E+01  1.20100000E+01  1.20100000E+01  1.20100000E+01
  1.20100000E+01  1.20100000E+01  1.20100000E+01  1.20100000E+01  1.20100000E+01
  1.20100000E+01  1.00800000E+00  1.00800000E+00  1.00800000E+00  1.00800000E+00
  1.00800000E+00  1.00800000E+00  1.00800000E+00  1.00800000E+00  1.00800000E+00
  1.00800000E+00  1.00800000E+00  1.00800000E+00  1.00800000E+00  1.00800000E+00
  1.00800000E+00  1.00800000E+00  1.00800000E+00  1.00800000E+00  1.00800000E+00
  1.00800000E+00  1.00800000E+00  1.00800000E+00  1.00800000E+00  1.00800000E+00
%FLAG ATOM_TYPE_INDEX                                                           
%FORMAT(10I8)                                                                   
       1       2       2       2       2       2       2       2       2       3
       2       3       3       3       3       3       4       4       4       4
       4       4       4       4       4       4       4       4       4       4
       4       4       4       4       4       5       5       5       5       6
%FLAG NUMBER_EXCLUDED_ATOMS                                                     
%FORMAT(10I8)                                                                   
       8      16      15      14      13      12      13      12      10      13
       7      10       8       6       5       4       5       4       3       2
       3       2       3       2       3       2       3       2       1       1
       4       3       2       1       1       1       1       1       1       1
%FLAG NONBONDED_PARM_INDEX                                                      
%FORMAT(10I8)                                                                   
       1       2       4       7      11      16       2       3       5       8
      12      17       4       5       6       9      13      18       7       8
       9      10      14      19      11      12      13      14      15      20
      16      17      18      19      20      21
%FLAG RESIDUE_LABEL                                                             
%FORMAT(20a4)                                                                   
UNL 
%FLAG RESIDUE_POINTER                                                           
%FORMAT(10I8)                                                                   
       1
%FLAG BOND_FORCE_CONSTANT                                                       
%FORMAT(5E16.8)                                                                 
  3.48550000E+02  5.35510000E+02  2.28890000E+02  3.45250000E+02  2.43910000E+02
  3.54250000E+02  3.60690000E+02
%FLAG BOND_EQUIL_VALUE                                                          
%FORMAT(5E16.8)                                                                 
  1.36440000E+00  9.72500000E-01  1.53540000E+00  1.09620000E+00  1.51470000E+00
  1.39860000E+00  1.08600000E+00
%FLAG ANGLE_FORCE_CONSTANT                                                      
%FORMAT(5E16.8)                                                                 
  7.88600000E+01  5.98700000E+01  4.32700000E+01  6.03300000E+01  6.07400000E+01
  4.36100000E+01  6.36700000E+01  4.49000000E+01  6.74100000E+01  3.58000000E+01
%FLAG ANGLE_EQUIL_VALUE                                                         
%FORMAT(5E16.8)                                                                 
  2.09265067E+00  1.96576518E+00  1.91427794E+00  1.96209999E+00  2.10888224E+00
  1.93085858E+00  2.09474507E+00  2.09230160E+00  1.89507931E+00  1.88024401E+00
%FLAG DIHEDRAL_FORCE_CONSTANT                                                   
%FORMAT(5E16.8)                                                                 
  3.62500000E+00  5.20000000E-01  1.30000000E-01  1.55555556E-01  2.40000000E-01
  8.55000000E-01  0.00000000E+00  1.20000000E-01  1.10000000E+00
%FLAG DIHEDRAL_PERIODICITY                                                      
%FORMAT(5E16.8)                                                                 
  2.00000000E+00  3.00000000E+00  3.00000000E+00  3.00000000E+00  2.00000000E+00
  2.00000000E+00  1.00000000E+00  3.00000000E+00  2.00000000E+00
%FLAG DIHEDRAL_PHASE                                                            
%FORMAT(5E16.8)                                                                 
  3.14159400E+00  0.00000000E+00  0.00000000E+00  0.00000000E+00  3.14159400E+00
  3.14159400E+00  0.00000000E+00  0.00000000E+00  3.14159400E+00
%FLAG SCEE_SCALE_FACTOR                                                         
%FORMAT(5E16.8)                                                                 
  1.20000000E+00  1.20000000E+00  1.20000000E+00  1.20000000E+00  1.20000000E+00
  1.20000000E+00  1.20000000E+00  1.20000000E+00  0.00000000E+00
%FLAG SCNB_SCALE_FACTOR                                                         
%FORMAT(5E16.8)                                                                 
  2.00000000E+00  2.00000000E+00  2.00000000E+00  2.00000000E+00  2.00000000E+00
  2.00000000E+00  2.00000000E+00  2.00000000E+00  0.00000000E+00
%FLAG SOLTY                                                                     
%FORMAT(5E16.8)                                                                 
  0.00000000E+00  0.00000000E+00  0.00000000E+00  0.00000000E+00  0.00000000E+00
  0.00000000E+00
%FLAG LENNARD_JONES_ACOEF                                                       
%FORMAT(5E16.8)                                                                 
  5.03152404E+05  7.18991463E+05  1.02073671E+06  5.92438683E+05  8.43969952E+05
  6.96551276E+05  6.80216136E+04  1.00235148E+05  8.12662403E+04  7.94617769E+03
  6.30298721E+04  9.27554496E+04  7.52549148E+04  7.41026906E+03  6.90855956E+03
  1.74176419E+02  3.03553352E+02  2.25372434E+02  8.80612241E+00  8.53132435E+00
  1.10360882E-05
%FLAG LENNARD_JONES_BCOEF                                                       
%FORMAT(5E16.8)                                                                 
  4.32634597E+02  5.36620538E+02  6.63431737E+02  4.76608379E+02  5.90251928E+02
  5.24668528E+02  1.09393126E+02  1.37787728E+02  1.21392023E+02  2.57122925E+01
  9.87712192E+01  1.24325688E+02  1.09570372E+02  2.32899892E+01  2.10929191E+01
  3.81654050E+00  5.22789272E+00  4.40751799E+00  5.90150328E-01  5.44840215E-01
  4.55498033E-04
%FLAG BONDS_INC_HYDROGEN                                                        
%FORMAT(10I8)                                                                   
       0     117       2       3      48       4       3      51       4       6
      54       4       6      57       4       9      60       4       9      63
       4      12      66       4      12      69       4      15      72       4
      15      75       4      18      78       4      18      81       4      21
      84       4      21      87       4      24      90       4      24      93
       4      30      96       4      30      99       4      30     102       4
      36     105       7      39     108       7      42     111       7      45
     114       7
%FLAG BONDS_WITHOUT_HYDROGEN                                                    
%FORMAT(10I8)                                                                   
       0      33       1       3       6       3       3       9       3       6
      12       3       9      15       3      12      18       3      15      21
       3      18      24       3      21      27       5      24      30       3
      27      33       6      27      36       6      33      39       6      36
      42       6      39      45       6      42      45       6
%FLAG ANGLES_INC_HYDROGEN                                                       
%FORMAT(10I8)                                                                   
       3       6      54       3       3       6      57       3       3       9
      60       3       3       9      63       3       6       3      48       3
       6       3      51       3       6      12      66       3       6      12
      69       3       9       3      48       3       9       3      51       3
       9      15      72       3       9      15      75       3      12       6
      54       3      12       6      57       3      12      18      78       3
      12      18      81       3      15       9      60       3      15       9
      63       3      15      21      84       3      15      21      87       3
      18      12      66       3      18      12      69       3      18      24
      90       3      18      24      93       3      21      15      72       3
      21      15      75       3      24      18      78       3      24      18
      81       3      24      30      96       3      24      30      99       3
      24      30     102       3      27      21      84       6      27      21
      87       6      27      36     105       8      30      24      90       3
      30      24      93       3      33       0     117       9      33      39
     108       8      36      42     111       8      39      45     114       8
      42      36     105       8      42      45     114       8      45      39
     108       8      45      42     111       8      48       3      51      10
      54       6      57      10      60       9      63      10      66      12
      69      10      72      15      75      10      78      18      81      10
      84      21      87      10      90      24      93      10      96      30
      99      10      96      30     102      10      99      30     102      10
%FLAG ANGLES_WITHOUT_HYDROGEN                                                   
%FORMAT(10I8)                                                                   
       0      33      27       1       0      33      39       1       3       6
      12       2       3       9      15       2       6       3       9       2
       6      12      18       2       9      15      21       2      12      18
      24       2      15      21      27       4      18      24      30       2
      21      27      33       5      21      27      36       5      27      33
      39       7      27      36      42       7      33      27      36       7
      33      39      45       7      36      42      45       7      39      45
      42       7
%FLAG DIHEDRALS_INC_HYDROGEN                                                    
%FORMAT(10I8)                                                                   
       0      33      39     108       1       3       6      12      66       3
       3       6      12      69       3       3       9      15      72       3
       3       9      15      75       3       6       3       9      60       3
       6       3       9      63       3       6      12      18      78       3
       6      12      18      81       3       9       3       6      54       3
       9       3       6      57       3       9      15      21      84       3
       9      15      21      87       3      12       6       3      48       3
      12       6       3      51       3      12      18      24      90       3
      12      18      24      93       3      15       9       3      48       3
      15       9       3      51       3      18      12       6      54       3
      18      12       6      57       3      18      24      30      96       3
      18      24      30      99       3      18      24      30     102       3
      21      15       9      60       3      21      15       9      63       3
      21      27      36     105       1      24      18      12      66       3
      24      18      12      69       3      27      21      15      72       4
      27      21      15      75       4     117       0      33      27       6
      27      33      39     108       1      27      36      42     111       1
      30      24      18      78       3      30      24      18      81       3
      33      27      21      84       7      33      27      21      87       7
      33      27      36     105       1      33      39      45     114       1
      36      27      21      84       7      36      27      21      87       7
      36      42      45     114       1     117       0      33      39       6
      39      45      42     111       1      42      45      39     108       1
      45      42      36     105       1      48       3       6      54       8
      48       3       6      57       8      48       3       9      60       8
      48       3       9      63       8      51       3       6      54       8
      51       3       6      57       8      51       3       9      60       8
      51       3       9      63       8      54       6      12      66       8
      54       6      12      69       8      57       6      12      66       8
      57       6      12      69       8      60       9      15      72       8
      60       9      15      75       8      63       9      15      72       8
      63       9      15      75       8      66      12      18      78       8
      66      12      18      81       8      69      12      18      78       8
      69      12      18      81       8      72      15      21      84       8
      72      15      21      87       8      75      15      21      84       8
      75      15      21      87       8      78      18      24      90       8
      78      18      24      93       8      81      18      24      90       8
      81      18      24      93       8      90      24      30      96       8
      90      24      30      99       8      90      24      30     102       8
      93      24      30      96       8      93      24      30      99       8
      93      24      30     102       8     105      36      42     111       1
     108      39      45     114       1     111      42      45     114       1
      27      42     -36    -105       9      33      45     -39    -108       9
      36      45     -42    -111       9      39      42     -45    -114       9
%FLAG DIHEDRALS_WITHOUT_HYDROGEN                                                
%FORMAT(10I8)                                                                   
       0      33      27      21       1       0      33      27      36       1
       0      33      39      45       1       3       6      12      18       2
       3       9      15      21       2       6       3       9      15       2
       6      12      18      24       2       9       3       6      12       2
       9      15      21      27       4      12      18      24      30       2
      15      21      27      33       5      15      21      27      36       5
      21      27      33      39       1      21      27      36      42       1
      27      33      39      45       1      27      36     -42      45       1
      33      27      36      42       1      33      39     -45      42       1
      36      27      33      39       1      36      42     -45      39       1
      33      36     -27     -21       9       0      33     -39     -27       9
%FLAG EXCLUDED_ATOMS_LIST                                                       
%FORMAT(10I8)                                                                   
       8      10      12      13      14      16      37      40       3       4
       5       6       7       8      17      18      19      20      21      22
      23      24      25      26       4       5       6       7       9      17
      18      19      20      21      22      23      24      27      28       5
       6       8      10      17      18      19      20      21      22      25
      26      29      30       7       9      11      17      18      19      20
      23      24      27      28      31      32       8      10      12      13
      17      18      21      22      25      26      29      30       9      11
      19      20      23      24      27      28      31      32      33      34
      35      10      12      13      14      15      21      22      25      26
      29      30      36      11      23      24      27      28      31      32
      33      34      35      12      13      14      15      16      25      26
      29      30      36      37      38      40      27      28      31      32
      33      34      35      13      14      15      16      29      30      36
      37      39      40      14      15      16      29      30      36      38
      39      15      16      37      38      39      40      16      36      37
      38      39      36      37      38      39      18      19      20      21
      22      19      20      21      22      20      23      24      23      24
      22      25      26      25      26      24      27      28      27      28
      26      29      30      29      30      28      31      32      31      32
      30       0      32      33      34      35      33      34      35      34
      35      35       0      38      39      39       0       0
%FLAG HBOND_ACOEF                                                               
%FORMAT(5E16.8)                                                                 

%FLAG HBOND_BCOEF                                                               
%FORMAT(5E16.8)                                                                 

%FLAG HBCUT                                                                     
%FORMAT(5E16.8)                                                                 

%FLAG AMBER_ATOM_TYPE                                                           
%FORMAT(20a4)                                                                   
oh  c3  c3  c3  c3  c3  c3  c3  c3  ca  c3  ca  ca  ca  ca  ca  hc  hc  hc  hc  
hc  hc  hc  hc  hc  hc  hc  hc  hc  hc  hc  hc  hc  hc  hc  ha  ha  ha  ha  ho  
%FLAG TREE_CHAIN_CLASSIFICATION                                                 
%FORMAT(20a4)                                                                   
BLA BLA BLA BLA BLA BLA BLA BLA BLA BLA BLA BLA BLA BLA BLA BLA BLA BLA BLA BLA 
BLA BLA BLA BLA BLA BLA BLA BLA BLA BLA BLA BLA BLA BLA BLA BLA BLA BLA BLA BLA 
%FLAG JOIN_ARRAY                                                                
%FORMAT(10I8)                                                                   
       0       0       0       0       0       0       0       0       0       0
       0       0       0       0       0       0       0       0       0       0
       0       0       0       0       0       0       0       0       0       0
       0       0       0       0       0       0       0       0       0       0
%FLAG IROTAT                                                                    
%FORMAT(10I8)                                                                   
       0       0       0       0       0       0       0       0       0       0
       0       0       0       0       0       0       0       0       0       0
       0       0       0       0       0       0       0       0       0       0
       0       0       0       0       0       0       0       0       0       0
%FLAG RADIUS_SET                                                                
%FORMAT(1a80)                                                                   
modified Bondi radii (mbondi)                                                   
%FLAG RADII                                                                     
%FORMAT(5E16.8)                                                                 
  1.50000000E+00  1.70000000E+00  1.70000000E+00  1.70000000E+00  1.70000000E+00
  1.70000000E+00  1.70000000E+00  1.70000000E+00  1.70000000E+00  1.70000000E+00
  1.70000000E+00  1.70000000E+00  1.70000000E+00  1.70000000E+00  1.70000000E+00
  1.70000000E+00  1.30000000E+00  1.30000000E+00  1.30000000E+00  1.30000000E+00
  1.30000000E+00  1.30000000E+00  1.30000000E+00  1.30000000E+00  1.30000000E+00
  1.30000000E+00  1.30000000E+00  1.30000000E+00  1.30000000E+00  1.30000000E+00
  1.30000000E+00  1.30000000E+00  1.30000000E+00  1.30000000E+00  1.30000000E+00
  1.30000000E+00  1.30000000E+00  1.30000000E+00  1.30000000E+00  8.00000000E-01
%FLAG SCREEN                                                                    
%FORMAT(5E16.8)                                                                 
  8.50000000E-01  7.20000000E-01  7.20000000E-01  7.20000000E-01  7.20000000E-01
  7.20000000E-01  7.20000000E-01  7.20000000E-01  7.20000000E-01  7.20000000E-01
  7.20000000E-01  7.20000000E-01  7.20000000E-01  7.20000000E-01  7.20000000E-01
  7.20000000E-01  8.50000000E-01  8.50000000E-01  8.50000000E-01  8.50000000E-01
  8.50000000E-01  8.50000000E-01  8.50000000E-01  8.50000000E-01  8.50000000E-01
  8.50000000E-01  8.50000000E-01  8.50000000E-01  8.50000000E-01  8.50000000E-01
  8.50000000E-01  8.50000000E-01  8.50000000E-01  8.50000000E-01  8.50000000E-01
  8.50000000E-01  8.50000000E-01  8.50000000E-01  8.50000000E-01  8.50000000E-01
%FLAG IPOL                                                                      
%FORMAT(1I8)                                                                    
       0
