%VERSION  VERSION_STAMP = V0001.000  DATE = 02/09/26  17:29:16                  
%FLAG TITLE                                                                     
%FORMAT(20a4)                                                                   
424                                                                             
%FLAG POINTERS                                                                  
%FORMAT(10I8)                                                                   
      16       9       7       8      13      10      28      16       0       0
      73       1       8      10      16       9      15      19       9       0
       0       0       0       0       0       0       0       0      16       0
       0
%FLAG ATOM_NAME                                                                 
%FORMAT(20a4)                                                                   
O   OD1 OXT OD2 N   CA  CB  C   CG  HA  HB1 HB2 H1  H2  H   HD1 
%FLAG CHARGE                                                                    
%FORMAT(5E16.8)                                                                 
 -1.08623130E+01 -1.10263137E+01 -1.00222650E+01 -9.82181970E+00 -1.63599809E+01
  2.61490005E+00 -2.32152102E+00  1.05707562E+01  1.16094273E+01  2.09009781E+00
  1.81676331E+00  1.81676331E+00  6.74771769E+00  6.74771769E+00  8.18181270E+00
  8.18181270E+00
%FLAG ATOMIC_NUMBER                                                             
%FORMAT(10I8)                                                                   
       8       8       8       8       7       6       6       6       6       1
       1       1       1       1       1       1
%FLAG MASS                                                                      
%FORMAT(5E16.8)                                                                 
  1.60000000E+01  1.60000000E+01  1.60000000E+01  1.60000000E+01  1.40100000E+01
  1.20100000E+01  1.20100000E+01  1.20100000E+01  1.20100000E+01  1.00800000E+00
  1.00800000E+00  1.00800000E+00  1.00800000E+00  1.00800000E+00  1.00800000E+00
  1.00800000E+00
%FLAG ATOM_TYPE_INDEX                                                           
%FORMAT(10I8)                                                                   
       1       1       2       2       3       4       4       5       5       6
       7       7       8       8       9       9
%FLAG NUMBER_EXCLUDED_ATOMS                                                     
%FORMAT(10I8)                                                                   
       7       7       6       6       9       9       8       7       4       4
       1       1       1       1       1       1
%FLAG NONBONDED_PARM_INDEX                                                      
%FORMAT(10I8)                                                                   
       1       2       4       7      11      16      22      29      37       2
       3       5       8      12      17      23      30      38       4       5
       6       9      13      18      24      31      39       7       8       9
      10      14      19      25      32      40      11      12      13      14
      15      20      26      33      41      16      17      18      19      20
      21      27      34      42      22      23      24      25      26      27
      28      35      43      29      30      31      32      33      34      35
      36      44      37      38      39      40      41      42      43      44
      45
%FLAG RESIDUE_LABEL                                                             
%FORMAT(20a4)                                                                   
ASP 
%FLAG RESIDUE_POINTER                                                           
%FORMAT(10I8)                                                                   
       1
%FLAG BOND_FORCE_CONSTANT                                                       
%FORMAT(5E16.8)                                                                 
  3.59270000E+02  5.35510000E+02  5.90600000E+02  2.53810000E+02  4.60680000E+02
  2.28890000E+02  2.34850000E+02  3.44220000E+02  3.45250000E+02
%FLAG BOND_EQUIL_VALUE                                                          
%FORMAT(5E16.8)                                                                 
  1.35560000E+00  9.72500000E-01  1.21900000E+00  1.46510000E+00  1.01920000E+00
  1.53540000E+00  1.52700000E+00  1.09690000E+00  1.09620000E+00
%FLAG ANGLE_FORCE_CONSTANT                                                      
%FORMAT(5E16.8)                                                                 
  1.02030000E+02  7.74200000E+01  7.64500000E+01  6.54800000E+01  6.56600000E+01
  4.82100000E+01  5.61700000E+01  6.03600000E+01  4.32700000E+01  4.32800000E+01
  6.84600000E+01  4.37400000E+01  4.36300000E+01  3.58000000E+01  4.78900000E+01
%FLAG ANGLE_EQUIL_VALUE                                                         
%FORMAT(5E16.8)                                                                 
  2.13087340E+00  1.96768504E+00  2.14501057E+00  1.93574550E+00  1.93661817E+00
  1.88705080E+00  1.91305621E+00  1.94482122E+00  1.91427794E+00  1.91270715E+00
  1.85947458E+00  1.89141412E+00  1.90153704E+00  1.88024401E+00  1.85668205E+00
%FLAG DIHEDRAL_FORCE_CONSTANT                                                   
%FORMAT(5E16.8)                                                                 
  0.00000000E+00  1.90000000E+00  2.30000000E+00  6.80000000E-01  2.00000000E-01
  4.40000000E-01  8.00000000E-01  8.00000000E-02  4.03000000E+00  3.66000000E+00
  1.55555556E-01  5.00000000E-02  1.80000000E+00  3.00000000E-02  3.00000000E-01
  1.20000000E+00  3.70000000E-01  2.22222222E-01  1.10000000E+00
%FLAG DIHEDRAL_PERIODICITY                                                      
%FORMAT(5E16.8)                                                                 
  2.00000000E+00  1.00000000E+00  2.00000000E+00  1.00000000E+00  2.00000000E+00
  3.00000000E+00  1.00000000E+00  3.00000000E+00  1.00000000E+00  2.00000000E+00
  3.00000000E+00  3.00000000E+00  2.00000000E+00  3.00000000E+00  3.00000000E+00
  1.00000000E+00  2.00000000E+00  3.00000000E+00  2.00000000E+00
%FLAG DIHEDRAL_PHASE                                                            
%FORMAT(5E16.8)                                                                 
  3.14159400E+00  0.00000000E+00  3.14159400E+00  0.00000000E+00  3.14159400E+00
  3.14159400E+00  0.00000000E+00  3.14159400E+00  0.00000000E+00  3.14159400E+00
  0.00000000E+00  0.00000000E+00  3.14159400E+00  3.14159400E+00  0.00000000E+00
  0.00000000E+00  0.00000000E+00  3.14159400E+00  3.14159400E+00
%FLAG SCEE_SCALE_FACTOR                                                         
%FORMAT(5E16.8)                                                                 
  1.20000000E+00  1.20000000E+00  1.20000000E+00  1.20000000E+00  1.20000000E+00
  1.20000000E+00  1.20000000E+00  1.20000000E+00  1.20000000E+00  1.20000000E+00
  1.20000000E+00  1.20000000E+00  1.20000000E+00  1.20000000E+00  1.20000000E+00
  1.20000000E+00  1.20000000E+00  1.20000000E+00  0.00000000E+00
%FLAG SCNB_SCALE_FACTOR                                                         
%FORMAT(5E16.8)                                                                 
  2.00000000E+00  2.00000000E+00  2.00000000E+00  2.00000000E+00  2.00000000E+00
  2.00000000E+00  2.00000000E+00  2.00000000E+00  2.00000000E+00  2.00000000E+00
  2.00000000E+00  2.00000000E+00  2.00000000E+00  2.00000000E+00  2.00000000E+00
  2.00000000E+00  2.00000000E+00  2.00000000E+00  0.00000000E+00
%FLAG SOLTY                                                                     
%FORMAT(5E16.8)                                                                 
  0.00000000E+00  0.00000000E+00  0.00000000E+00  0.00000000E+00  0.00000000E+00
  0.00000000E+00  0.00000000E+00  0.00000000E+00  0.00000000E+00
%FLAG LENNARD_JONES_ACOEF                                                       
%FORMAT(5E16.8)                                                                 
  5.03152404E+05  4.37717034E+05  3.76435470E+05  6.15869455E+05  5.47655232E+05
  7.22850509E+05  7.18991463E+05  6.30925504E+05  8.65620051E+05  1.02073671E+06
  5.92438683E+05  5.17507491E+05  7.19505991E+05  8.43969952E+05  6.96551276E+05
  4.69084694E+04  3.86646725E+04  6.36026248E+04  6.97998263E+04  5.63013422E+04
  3.39005767E+03  6.80216136E+04  5.68021765E+04  8.99910629E+04  1.00235148E+05
  8.12662403E+04  5.22955465E+03  7.94617769E+03  1.36475542E+03  9.87857350E+02
  2.35480845E+03  2.23577481E+03  1.71458823E+03  5.24570081E+01  9.47421632E+01
  1.34728399E-01  1.74176419E+02  1.15813907E+02  3.50407390E+02  3.03553352E+02
  2.25372434E+02  4.36660257E+00  8.80612241E+00  2.61760843E-03  1.10360882E-05
%FLAG LENNARD_JONES_BCOEF                                                       
%FORMAT(5E16.8)                                                                 
  4.32634597E+02  4.51916854E+02  4.69350655E+02  3.67447838E+02  3.88056827E+02
  3.05601515E+02  5.36620538E+02  5.62969425E+02  4.52010965E+02  6.63431737E+02
  4.76608379E+02  4.98871431E+02  4.03215362E+02  5.90251928E+02  5.24668528E+02
  9.08431526E+01  9.23664132E+01  8.12052260E+01  1.14981426E+02  1.01040256E+02
  1.67944276E+01  1.09393126E+02  1.11953944E+02  9.65931103E+01  1.37787728E+02
  1.21392023E+02  2.08590256E+01  2.57122925E+01  1.29026271E+01  1.22938581E+01
  1.30109323E+01  1.71355763E+01  1.46824710E+01  1.73959275E+00  2.33785449E+00
  7.34107347E-02  3.81654050E+00  3.48534600E+00  4.15567637E+00  5.22789272E+00
  4.40751799E+00  4.15568027E-01  5.90150328E-01  8.47240681E-03  4.55498033E-04
%FLAG BONDS_INC_HYDROGEN                                                        
%FORMAT(10I8)                                                                   
       0      42       2       3      45       2      12      36       5      12
      39       5      15      27       8      18      30       9      18      33
       9
%FLAG BONDS_WITHOUT_HYDROGEN                                                    
%FORMAT(10I8)                                                                   
       0      21       1       3      24       1       6      21       3       9
      24       3      12      15       4      15      18       6      15      21
       7      18      24       7
%FLAG ANGLES_INC_HYDROGEN                                                       
%FORMAT(10I8)                                                                   
      12      15      27       6      15      12      36       7      15      12
      39       7      15      18      30       9      15      18      33       9
      18      15      27      10      21       0      42      11      21      15
      27      12      24       3      45      11      24      18      30      13
      24      18      33      13      30      18      33      14      36      12
      39      15
%FLAG ANGLES_WITHOUT_HYDROGEN                                                   
%FORMAT(10I8)                                                                   
       0      21       6       1       0      21      15       2       3      24
       9       1       3      24      18       2       6      21      15       3
       9      24      18       3      12      15      18       4      12      15
      21       5      15      18      24       8      18      15      21       8
%FLAG DIHEDRALS_INC_HYDROGEN                                                    
%FORMAT(10I8)                                                                   
       0      21      15      27       1       3      24      18      30       1
       3      24      18      33       1      42       0      21       6       2
      42       0     -21       6       3       6      21      15      27       7
       6      21     -15      27       8       9      24       3      45       2
       9      24      -3      45       3       9      24      18      30       9
       9      24     -18      30      10       9      24      18      33       9
       9      24     -18      33      10      12      15      18      30      12
      12      15      18      33      12      42       0      21      15      13
      18      15      12      36      14      18      15      12      39      14
      18      24       3      45      13      21      15      12      36      15
      21      15      12      39      15      21      15      18      30      11
      21      15      18      33      11      24      18      15      27      11
      27      15      12      36      15      27      15      12      39      15
      27      15      18      30      11      27      15      18      33      11
%FLAG DIHEDRALS_WITHOUT_HYDROGEN                                                
%FORMAT(10I8)                                                                   
       0      21      15      12       1       0      21      15      18       1
       3      24      18      15       1       6      21      15      12       1
       6      21      15      18       4       6      21     -15      18       5
       6      21     -15      18       6       9      24      18      15       4
       9      24     -18      15       5       9      24     -18      15       6
      12      15      18      24      11      21      15      18      24      16
      21      15     -18      24      17      21      15     -18      24      18
       0      21      -6     -15      19      18       9     -24      -3      19
%FLAG EXCLUDED_ATOMS_LIST                                                       
%FORMAT(10I8)                                                                   
       3       5       6       7       8      10      15       4       6       7
       9      11      12      16       5       6       7       8      10      15
       6       7       9      11      12      16       6       7       8       9
      10      11      12      13      14       7       8       9      10      11
      12      13      14      15       8       9      10      11      12      13
      14      16       9      10      11      12      13      14      15      10
      11      12      16      11      12      13      14      12       0      14
       0       0       0
%FLAG HBOND_ACOEF                                                               
%FORMAT(5E16.8)                                                                 

%FLAG HBOND_BCOEF                                                               
%FORMAT(5E16.8)                                                                 

%FLAG HBCUT                                                                     
%FORMAT(5E16.8)                                                                 

%FLAG AMBER_ATOM_TYPE                                                           
%FORMAT(20a4)                                                                   
oh  oh  o   o   n8  c3  c3  c   c   h1  hc  hc  hn  hn  ho  ho  
%FLAG TREE_CHAIN_CLASSIFICATION                                                 
%FORMAT(20a4)                                                                   
BLA BLA BLA BLA BLA BLA BLA BLA BLA BLA BLA BLA BLA BLA BLA BLA 
%FLAG JOIN_ARRAY                                                                
%FORMAT(10I8)                                                                   
       0       0       0       0       0       0       0       0       0       0
       0       0       0       0       0       0
%FLAG IROTAT                                                                    
%FORMAT(10I8)                                                                   
       0       0       0       0       0       0       0       0       0       0
       0       0       0       0       0       0
%FLAG RADIUS_SET                                                                
%FORMAT(1a80)                                                                   
modified Bondi radii (mbondi)                                                   
%FLAG RADII                                                                     
%FORMAT(5E16.8)                                                                 
  1.50000000E+00  1.50000000E+00  1.50000000E+00  1.50000000E+00  1.55000000E+00
  1.70000000E+00  1.70000000E+00  1.70000000E+00  1.70000000E+00  1.30000000E+00
  1.30000000E+00  1.30000000E+00  1.30000000E+00  1.30000000E+00  8.00000000E-01
  8.00000000E-01
%FLAG SCREEN                                                                    
%FORMAT(5E16.8)                                                                 
  8.50000000E-01  8.50000000E-01  8.50000000E-01  8.50000000E-01  7.90000000E-01
  7.20000000E-01  7.20000000E-01  7.20000000E-01  7.20000000E-01  8.50000000E-01
  8.50000000E-01  8.50000000E-01  8.50000000E-01  8.50000000E-01  8.50000000E-01
  8.50000000E-01
%FLAG IPOL                                                                      
%FORMAT(1I8)                                                                    
       0
