; aspartic-acid_GMX.top created by acpype (v: 2023.10.27) on Mon Feb  9 17:29:14 2026

[ defaults ]
; nbfunc        comb-rule       gen-pairs       fudgeLJ fudgeQQ
1               2               yes             0.5     0.8333333333

; Include aspartic-acid_GMX.itp topology
#include "aspartic-acid_GMX.itp"

; Ligand position restraints
#ifdef POSRES_LIG
#include "posre_aspartic-acid.itp"
#endif

[ system ]
 aspartic-acid

[ molecules ]
; Compound        nmols
 aspartic-acid    1     
