; aspartic-acid_GMX_OPLS.itp created by acpype (v: 2023.10.27) on Mon Feb  9 17:29:14 2026

; For OPLS atomtypes manual fine tuning
; AC_at:OPLS_at:OPLScode: Possible_Alternatives (see ffoplsaa.atp and ffoplsaanb.itp)
; oh:OH:opls_154: ['167']
; o:O:opls_236: ['272']
; n8:x:opls_x: []
; c3:CT:opls_135: ['136', '137', '149', '157', '158', '206', '209', '210', '223B', '224B', '245', '246', '274', '283', '284', '285', '292', '292B', '293B', '296', '307', '308', '505']
; c:C:opls_235: ['271']
; h1:HC:opls_140: []
; hc:HC:opls_140: []
; hn:H:opls_240: ['241', '290', '301', '304', '310', '504', '513']
; ho:HO:opls_155: ['168']

[ moleculetype ]
;name            nrexcl
 aspartic-acid    3

[ atoms ]
;   nr  type  resi  res  atom  cgnr     charge      mass       ; qtot   bond_type
     1 opls_154     1   ASP     O    1    -0.596100     15.99940 ; qtot -0.596  OH  
     2 opls_154     1   ASP   OD1    2    -0.605100     15.99940 ; qtot -1.201  OH  
     3 opls_236     1   ASP   OXT    3    -0.550000     15.99940 ; qtot -1.751  O   
     4 opls_236     1   ASP   OD2    4    -0.539000     15.99940 ; qtot -2.290  O   
     5 opls_x     1   ASP     N    5    -0.895800      0.00000 ; qtot -3.186  x   
     6 opls_135     1   ASP    CA    6     0.143500     12.01100 ; qtot -3.042  CT  
     7 opls_135     1   ASP    CB    7    -0.127400     12.01100 ; qtot -3.170  CT  
     8 opls_235     1   ASP     C    8     0.580100     12.01100 ; qtot -2.590  C   
     9 opls_235     1   ASP    CG    9     0.637100     12.01100 ; qtot -1.953  C   
    10 opls_140     1   ASP    HA   10     0.114700      1.00800 ; qtot -1.838  HC  
    11 opls_140     1   ASP   HB1   11     0.099700      1.00800 ; qtot -1.738  HC  
    12 opls_140     1   ASP   HB2   12     0.099700      1.00800 ; qtot -1.639  HC  
    13 opls_240     1   ASP    H1   13     0.370300      1.00800 ; qtot -1.268  H   
    14 opls_240     1   ASP    H2   14     0.370300      1.00800 ; qtot -0.898  H   
    15 opls_155     1   ASP     H   15     0.449000      1.00800 ; qtot -0.449  HO  
    16 opls_155     1   ASP   HD1   16     0.449000      1.00800 ; qtot -0.000  HO  

[ bonds ]
;   ai     aj funct   r             k
     1      8   1 ;    1.3556e-01    3.0064e+05 ;      O - C          OH - C     
     1     15   1 ;    9.7250e-02    4.4811e+05 ;      O - H          OH - HO    
     2      9   1 ;    1.3556e-01    3.0064e+05 ;    OD1 - CG         OH - C     
     2     16   1 ;    9.7250e-02    4.4811e+05 ;    OD1 - HD1        OH - HO    
     3      8   1 ;    1.2190e-01    4.9421e+05 ;    OXT - C           O - C     
     4      9   1 ;    1.2190e-01    4.9421e+05 ;    OD2 - CG          O - C     
     5      6   1 ;    1.4651e-01    2.1239e+05 ;      N - CA          x - CT    
     5     13   1 ;    1.0192e-01    3.8550e+05 ;      N - H1          x - H     
     5     14   1 ;    1.0192e-01    3.8550e+05 ;      N - H2          x - H     
     6      7   1 ;    1.5354e-01    1.9154e+05 ;     CA - CB         CT - CT    
     6      8   1 ;    1.5270e-01    1.9652e+05 ;     CA - C          CT - C     
     6     10   1 ;    1.0969e-01    2.8804e+05 ;     CA - HA         CT - HC    
     7      9   1 ;    1.5270e-01    1.9652e+05 ;     CB - CG         CT - C     
     7     11   1 ;    1.0962e-01    2.8891e+05 ;     CB - HB1        CT - HC    
     7     12   1 ;    1.0962e-01    2.8891e+05 ;     CB - HB2        CT - HC    

[ pairs ]
;   ai     aj    funct
     1      5      1 ;      O - N     
     1      7      1 ;      O - CB    
     1     10      1 ;      O - HA    
     2      6      1 ;    OD1 - CA    
     2     11      1 ;    OD1 - HB1   
     2     12      1 ;    OD1 - HB2   
     3      5      1 ;    OXT - N     
     3      7      1 ;    OXT - CB    
     3     10      1 ;    OXT - HA    
     4      6      1 ;    OD2 - CA    
     4     11      1 ;    OD2 - HB1   
     4     12      1 ;    OD2 - HB2   
     4     16      1 ;    OD2 - HD1   
     5      9      1 ;      N - CG    
     5     11      1 ;      N - HB1   
     5     12      1 ;      N - HB2   
     7     13      1 ;     CB - H1    
     7     14      1 ;     CB - H2    
     7     16      1 ;     CB - HD1   
     8      9      1 ;      C - CG    
     8     11      1 ;      C - HB1   
     8     12      1 ;      C - HB2   
     8     13      1 ;      C - H1    
     8     14      1 ;      C - H2    
     9     10      1 ;     CG - HA    
    10     11      1 ;     HA - HB1   
    10     12      1 ;     HA - HB2   
    10     13      1 ;     HA - H1    
    10     14      1 ;     HA - H2    
    15      3      1 ;      H - OXT   
    15      6      1 ;      H - CA    

[ angles ]
;   ai     aj     ak    funct   theta         cth
     1      8      3      1 ;    1.2209e+02    8.5379e+02 ;      O - C    - OXT      OH -    C - O   
     1      8      6      1 ;    1.1274e+02    6.4785e+02 ;      O - C    - CA       OH -    C - CT  
     2      9      4      1 ;    1.2209e+02    8.5379e+02 ;    OD1 - CG   - OD2      OH -    C - O   
     2      9      7      1 ;    1.1274e+02    6.4785e+02 ;    OD1 - CG   - CB       OH -    C - CT  
     3      8      6      1 ;    1.2290e+02    6.3973e+02 ;    OXT - C    - CA        O -    C - CT  
     4      9      7      1 ;    1.2290e+02    6.3973e+02 ;    OD2 - CG   - CB        O -    C - CT  
     5      6      7      1 ;    1.1091e+02    5.4794e+02 ;      N - CA   - CB        x -   CT - CT  
     5      6      8      1 ;    1.1096e+02    5.4944e+02 ;      N - CA   - C         x -   CT - C   
     5      6     10      1 ;    1.0812e+02    4.0342e+02 ;      N - CA   - HA        x -   CT - HC  
     6      5     13      1 ;    1.0961e+02    4.7003e+02 ;     CA - N    - H1       CT -    x - H   
     6      5     14      1 ;    1.0961e+02    4.7003e+02 ;     CA - N    - H2       CT -    x - H   
     6      7      9      1 ;    1.1143e+02    5.0509e+02 ;     CA - CB   - CG       CT -   CT - C   
     6      7     11      1 ;    1.0968e+02    3.6208e+02 ;     CA - CB   - HB1      CT -   CT - HC  
     6      7     12      1 ;    1.0968e+02    3.6208e+02 ;     CA - CB   - HB2      CT -   CT - HC  
     7      6      8      1 ;    1.1143e+02    5.0509e+02 ;     CB - CA   - C        CT -   CT - C   
     7      6     10      1 ;    1.0959e+02    3.6217e+02 ;     CB - CA   - HA       CT -   CT - HC  
     8      1     15      1 ;    1.0654e+02    5.7287e+02 ;      C - O    - H         C -   OH - HO  
     8      6     10      1 ;    1.0837e+02    3.6602e+02 ;      C - CA   - HA        C -   CT - HC  
     9      2     16      1 ;    1.0654e+02    5.7287e+02 ;     CG - OD1  - HD1       C -   OH - HO  
     9      7     11      1 ;    1.0895e+02    3.6510e+02 ;     CG - CB   - HB1       C -   CT - HC  
     9      7     12      1 ;    1.0895e+02    3.6510e+02 ;     CG - CB   - HB2       C -   CT - HC  
    11      7     12      1 ;    1.0773e+02    2.9957e+02 ;    HB1 - CB   - HB2      HC -   CT - HC  
    13      5     14      1 ;    1.0638e+02    4.0074e+02 ;     H1 - N    - H2        H -    x - H   

[ dihedrals ] ; propers
; for gromacs 4.5 or higher, using funct 9
;    i      j      k      l   func   phase     kd      pn
     1      8      6      5      9 ;   180.00   0.00000   2 ;      O-     C-    CA-     N
     1      8      6      7      9 ;   180.00   0.00000   2 ;      O-     C-    CA-    CB
     1      8      6     10      9 ;   180.00   0.00000   2 ;      O-     C-    CA-    HA
     2      9      7      6      9 ;   180.00   0.00000   2 ;    OD1-    CG-    CB-    CA
     2      9      7     11      9 ;   180.00   0.00000   2 ;    OD1-    CG-    CB-   HB1
     2      9      7     12      9 ;   180.00   0.00000   2 ;    OD1-    CG-    CB-   HB2
     3      8      6      5      9 ;   180.00   0.00000   2 ;    OXT-     C-    CA-     N
     3      8      6      7      9 ;     0.00   2.84512   1 ;    OXT-     C-    CA-    CB
     3      8      6      7      9 ;   180.00   0.83680   2 ;    OXT-     C-    CA-    CB
     3      8      6      7      9 ;   180.00   1.84096   3 ;    OXT-     C-    CA-    CB
     3      8      6     10      9 ;     0.00   3.34720   1 ;    OXT-     C-    CA-    HA
     3      8      6     10      9 ;   180.00   0.33472   3 ;    OXT-     C-    CA-    HA
     4      9      2     16      9 ;     0.00   7.94960   1 ;    OD2-    CG-   OD1-   HD1
     4      9      2     16      9 ;   180.00   9.62320   2 ;    OD2-    CG-   OD1-   HD1
     4      9      7      6      9 ;     0.00   2.84512   1 ;    OD2-    CG-    CB-    CA
     4      9      7      6      9 ;   180.00   0.83680   2 ;    OD2-    CG-    CB-    CA
     4      9      7      6      9 ;   180.00   1.84096   3 ;    OD2-    CG-    CB-    CA
     4      9      7     11      9 ;     0.00  16.86152   1 ;    OD2-    CG-    CB-   HB1
     4      9      7     11      9 ;   180.00  15.31344   2 ;    OD2-    CG-    CB-   HB1
     4      9      7     12      9 ;     0.00  16.86152   1 ;    OD2-    CG-    CB-   HB2
     4      9      7     12      9 ;   180.00  15.31344   2 ;    OD2-    CG-    CB-   HB2
     5      6      7      9      9 ;     0.00   0.65084   3 ;      N-    CA-    CB-    CG
     5      6      7     11      9 ;     0.00   0.20920   3 ;      N-    CA-    CB-   HB1
     5      6      7     12      9 ;     0.00   0.20920   3 ;      N-    CA-    CB-   HB2
     7      6      5     13      9 ;   180.00   0.12552   3 ;     CB-    CA-     N-    H1
     7      6      5     14      9 ;   180.00   0.12552   3 ;     CB-    CA-     N-    H2
     7      9      2     16      9 ;   180.00   7.53120   2 ;     CB-    CG-   OD1-   HD1
     8      6      5     13      9 ;     0.00   1.25520   3 ;      C-    CA-     N-    H1
     8      6      5     14      9 ;     0.00   1.25520   3 ;      C-    CA-     N-    H2
     8      6      7      9      9 ;     0.00   1.54808   2 ;      C-    CA-    CB-    CG
     8      6      7      9      9 ;     0.00   5.02080   1 ;      C-    CA-    CB-    CG
     8      6      7      9      9 ;   180.00   0.92978   3 ;      C-    CA-    CB-    CG
     8      6      7     11      9 ;     0.00   0.65084   3 ;      C-    CA-    CB-   HB1
     8      6      7     12      9 ;     0.00   0.65084   3 ;      C-    CA-    CB-   HB2
     9      7      6     10      9 ;     0.00   0.65084   3 ;     CG-    CB-    CA-    HA
    10      6      5     13      9 ;     0.00   1.25520   3 ;     HA-    CA-     N-    H1
    10      6      5     14      9 ;     0.00   1.25520   3 ;     HA-    CA-     N-    H2
    10      6      7     11      9 ;     0.00   0.65084   3 ;     HA-    CA-    CB-   HB1
    10      6      7     12      9 ;     0.00   0.65084   3 ;     HA-    CA-    CB-   HB2
    15      1      8      3      9 ;     0.00   7.94960   1 ;      H-     O-     C-   OXT
    15      1      8      3      9 ;   180.00   9.62320   2 ;      H-     O-     C-   OXT
    15      1      8      6      9 ;   180.00   7.53120   2 ;      H-     O-     C-    CA

[ dihedrals ] ; impropers
; treated as propers in GROMACS to use correct AMBER analytical function
;    i      j      k      l   func   phase     kd      pn
     1      8      3      6      4 ;   180.00   4.60240   2 ;      O-     C-   OXT-    CA
     7      4      9      2      4 ;   180.00   4.60240   2 ;     CB-   OD2-    CG-   OD1
