aspartic-acid_GMX.gro created by acpype (v: 2023.10.27) on Mon Feb  9 17:29:14 2026
 16
    1  ASP    O    1  -0.066   0.160   0.090
    1  ASP  OD1    2   0.201  -0.016   0.112
    1  ASP  OXT    3  -0.197   0.097  -0.084
    1  ASP  OD2    4   0.222   0.057  -0.102
    1  ASP    N    5  -0.180  -0.169   0.010
    1  ASP   CA    6  -0.075  -0.074   0.035
    1  ASP   CB    7   0.050  -0.108  -0.047
    1  ASP    C    8  -0.120   0.068   0.006
    1  ASP   CG    9   0.166  -0.014  -0.019
    1  ASP   HA   10  -0.052  -0.080   0.142
    1  ASP  HB1   11   0.028  -0.102  -0.154
    1  ASP  HB2   12   0.085  -0.210  -0.027
    1  ASP   H1   13  -0.207  -0.167  -0.089
    1  ASP   H2   14  -0.264  -0.145   0.063
    1  ASP    H   15  -0.097   0.250   0.069
    1  ASP  HD1   16   0.276   0.045   0.131
   10.78400     9.20600     5.92600
