; aspartic-acid_GMX.itp created by acpype (v: 2023.10.27) on Mon Feb  9 17:29:14 2026

[ atomtypes ]
;name   bond_type     mass     charge   ptype   sigma         epsilon       Amb
 oh       oh          0.00000  0.00000   A     3.24287e-01   3.89112e-01 ; 1.82  0.0930
 o        o           0.00000  0.00000   A     3.04812e-01   6.12119e-01 ; 1.71  0.1463
 n8       n8          0.00000  0.00000   A     3.65019e-01   1.35143e-01 ; 2.05  0.0323
 c3       c3          0.00000  0.00000   A     3.39771e-01   4.51035e-01 ; 1.91  0.1078
 c        c           0.00000  0.00000   A     3.31521e-01   4.13379e-01 ; 1.86  0.0988
 h1       h1          0.00000  0.00000   A     2.42200e-01   8.70272e-02 ; 1.36  0.0208
 hc       hc          0.00000  0.00000   A     2.60018e-01   8.70272e-02 ; 1.46  0.0208
 hn       hn          0.00000  0.00000   A     1.10650e-01   4.18400e-02 ; 0.62  0.0100
 ho       ho          0.00000  0.00000   A     5.37925e-02   1.96648e-02 ; 0.30  0.0047

[ moleculetype ]
;name            nrexcl
 aspartic-acid    3

[ atoms ]
;   nr  type  resi  res  atom  cgnr     charge      mass       ; qtot   bond_type
     1   oh     1   ASP     O    1    -0.596100     16.00000 ; qtot -0.596
     2   oh     1   ASP   OD1    2    -0.605100     16.00000 ; qtot -1.201
     3    o     1   ASP   OXT    3    -0.550000     16.00000 ; qtot -1.751
     4    o     1   ASP   OD2    4    -0.539000     16.00000 ; qtot -2.290
     5   n8     1   ASP     N    5    -0.895800     14.01000 ; qtot -3.186
     6   c3     1   ASP    CA    6     0.143500     12.01000 ; qtot -3.042
     7   c3     1   ASP    CB    7    -0.127400     12.01000 ; qtot -3.170
     8    c     1   ASP     C    8     0.580100     12.01000 ; qtot -2.590
     9    c     1   ASP    CG    9     0.637100     12.01000 ; qtot -1.953
    10   h1     1   ASP    HA   10     0.114700      1.00800 ; qtot -1.838
    11   hc     1   ASP   HB1   11     0.099700      1.00800 ; qtot -1.738
    12   hc     1   ASP   HB2   12     0.099700      1.00800 ; qtot -1.639
    13   hn     1   ASP    H1   13     0.370300      1.00800 ; qtot -1.268
    14   hn     1   ASP    H2   14     0.370300      1.00800 ; qtot -0.898
    15   ho     1   ASP     H   15     0.449000      1.00800 ; qtot -0.449
    16   ho     1   ASP   HD1   16     0.449000      1.00800 ; qtot -0.000

[ bonds ]
;   ai     aj funct   r             k
     1      8   1    1.3556e-01    3.0064e+05 ;      O - C     
     1     15   1    9.7250e-02    4.4811e+05 ;      O - H     
     2      9   1    1.3556e-01    3.0064e+05 ;    OD1 - CG    
     2     16   1    9.7250e-02    4.4811e+05 ;    OD1 - HD1   
     3      8   1    1.2190e-01    4.9421e+05 ;    OXT - C     
     4      9   1    1.2190e-01    4.9421e+05 ;    OD2 - CG    
     5      6   1    1.4651e-01    2.1239e+05 ;      N - CA    
     5     13   1    1.0192e-01    3.8550e+05 ;      N - H1    
     5     14   1    1.0192e-01    3.8550e+05 ;      N - H2    
     6      7   1    1.5354e-01    1.9154e+05 ;     CA - CB    
     6      8   1    1.5270e-01    1.9652e+05 ;     CA - C     
     6     10   1    1.0969e-01    2.8804e+05 ;     CA - HA    
     7      9   1    1.5270e-01    1.9652e+05 ;     CB - CG    
     7     11   1    1.0962e-01    2.8891e+05 ;     CB - HB1   
     7     12   1    1.0962e-01    2.8891e+05 ;     CB - HB2   

[ pairs ]
;   ai     aj    funct
     1      5      1 ;      O - N     
     1      7      1 ;      O - CB    
     1     10      1 ;      O - HA    
     2      6      1 ;    OD1 - CA    
     2     11      1 ;    OD1 - HB1   
     2     12      1 ;    OD1 - HB2   
     3      5      1 ;    OXT - N     
     3      7      1 ;    OXT - CB    
     3     10      1 ;    OXT - HA    
     4      6      1 ;    OD2 - CA    
     4     11      1 ;    OD2 - HB1   
     4     12      1 ;    OD2 - HB2   
     4     16      1 ;    OD2 - HD1   
     5      9      1 ;      N - CG    
     5     11      1 ;      N - HB1   
     5     12      1 ;      N - HB2   
     7     13      1 ;     CB - H1    
     7     14      1 ;     CB - H2    
     7     16      1 ;     CB - HD1   
     8      9      1 ;      C - CG    
     8     11      1 ;      C - HB1   
     8     12      1 ;      C - HB2   
     8     13      1 ;      C - H1    
     8     14      1 ;      C - H2    
     9     10      1 ;     CG - HA    
    10     11      1 ;     HA - HB1   
    10     12      1 ;     HA - HB2   
    10     13      1 ;     HA - H1    
    10     14      1 ;     HA - H2    
    15      3      1 ;      H - OXT   
    15      6      1 ;      H - CA    

[ angles ]
;   ai     aj     ak    funct   theta         cth
     1      8      3      1    1.2209e+02    8.5379e+02 ;      O - C      - OXT   
     1      8      6      1    1.1274e+02    6.4785e+02 ;      O - C      - CA    
     2      9      4      1    1.2209e+02    8.5379e+02 ;    OD1 - CG     - OD2   
     2      9      7      1    1.1274e+02    6.4785e+02 ;    OD1 - CG     - CB    
     3      8      6      1    1.2290e+02    6.3973e+02 ;    OXT - C      - CA    
     4      9      7      1    1.2290e+02    6.3973e+02 ;    OD2 - CG     - CB    
     5      6      7      1    1.1091e+02    5.4794e+02 ;      N - CA     - CB    
     5      6      8      1    1.1096e+02    5.4944e+02 ;      N - CA     - C     
     5      6     10      1    1.0812e+02    4.0342e+02 ;      N - CA     - HA    
     6      5     13      1    1.0961e+02    4.7003e+02 ;     CA - N      - H1    
     6      5     14      1    1.0961e+02    4.7003e+02 ;     CA - N      - H2    
     6      7      9      1    1.1143e+02    5.0509e+02 ;     CA - CB     - CG    
     6      7     11      1    1.0968e+02    3.6208e+02 ;     CA - CB     - HB1   
     6      7     12      1    1.0968e+02    3.6208e+02 ;     CA - CB     - HB2   
     7      6      8      1    1.1143e+02    5.0509e+02 ;     CB - CA     - C     
     7      6     10      1    1.0959e+02    3.6217e+02 ;     CB - CA     - HA    
     8      1     15      1    1.0654e+02    5.7287e+02 ;      C - O      - H     
     8      6     10      1    1.0837e+02    3.6602e+02 ;      C - CA     - HA    
     9      2     16      1    1.0654e+02    5.7287e+02 ;     CG - OD1    - HD1   
     9      7     11      1    1.0895e+02    3.6510e+02 ;     CG - CB     - HB1   
     9      7     12      1    1.0895e+02    3.6510e+02 ;     CG - CB     - HB2   
    11      7     12      1    1.0773e+02    2.9957e+02 ;    HB1 - CB     - HB2   
    13      5     14      1    1.0638e+02    4.0074e+02 ;     H1 - N      - H2    

[ dihedrals ] ; propers
; for gromacs 4.5 or higher, using funct 9
;    i      j      k      l   func   phase     kd      pn
     1      8      6      5      9   180.00   0.00000   2 ;      O-     C-    CA-     N
     1      8      6      7      9   180.00   0.00000   2 ;      O-     C-    CA-    CB
     1      8      6     10      9   180.00   0.00000   2 ;      O-     C-    CA-    HA
     2      9      7      6      9   180.00   0.00000   2 ;    OD1-    CG-    CB-    CA
     2      9      7     11      9   180.00   0.00000   2 ;    OD1-    CG-    CB-   HB1
     2      9      7     12      9   180.00   0.00000   2 ;    OD1-    CG-    CB-   HB2
     3      8      6      5      9   180.00   0.00000   2 ;    OXT-     C-    CA-     N
     3      8      6      7      9     0.00   2.84512   1 ;    OXT-     C-    CA-    CB
     3      8      6      7      9   180.00   0.83680   2 ;    OXT-     C-    CA-    CB
     3      8      6      7      9   180.00   1.84096   3 ;    OXT-     C-    CA-    CB
     3      8      6     10      9     0.00   3.34720   1 ;    OXT-     C-    CA-    HA
     3      8      6     10      9   180.00   0.33472   3 ;    OXT-     C-    CA-    HA
     4      9      2     16      9     0.00   7.94960   1 ;    OD2-    CG-   OD1-   HD1
     4      9      2     16      9   180.00   9.62320   2 ;    OD2-    CG-   OD1-   HD1
     4      9      7      6      9     0.00   2.84512   1 ;    OD2-    CG-    CB-    CA
     4      9      7      6      9   180.00   0.83680   2 ;    OD2-    CG-    CB-    CA
     4      9      7      6      9   180.00   1.84096   3 ;    OD2-    CG-    CB-    CA
     4      9      7     11      9     0.00  16.86152   1 ;    OD2-    CG-    CB-   HB1
     4      9      7     11      9   180.00  15.31344   2 ;    OD2-    CG-    CB-   HB1
     4      9      7     12      9     0.00  16.86152   1 ;    OD2-    CG-    CB-   HB2
     4      9      7     12      9   180.00  15.31344   2 ;    OD2-    CG-    CB-   HB2
     5      6      7      9      9     0.00   0.65084   3 ;      N-    CA-    CB-    CG
     5      6      7     11      9     0.00   0.20920   3 ;      N-    CA-    CB-   HB1
     5      6      7     12      9     0.00   0.20920   3 ;      N-    CA-    CB-   HB2
     7      6      5     13      9   180.00   0.12552   3 ;     CB-    CA-     N-    H1
     7      6      5     14      9   180.00   0.12552   3 ;     CB-    CA-     N-    H2
     7      9      2     16      9   180.00   7.53120   2 ;     CB-    CG-   OD1-   HD1
     8      6      5     13      9     0.00   1.25520   3 ;      C-    CA-     N-    H1
     8      6      5     14      9     0.00   1.25520   3 ;      C-    CA-     N-    H2
     8      6      7      9      9     0.00   1.54808   2 ;      C-    CA-    CB-    CG
     8      6      7      9      9     0.00   5.02080   1 ;      C-    CA-    CB-    CG
     8      6      7      9      9   180.00   0.92978   3 ;      C-    CA-    CB-    CG
     8      6      7     11      9     0.00   0.65084   3 ;      C-    CA-    CB-   HB1
     8      6      7     12      9     0.00   0.65084   3 ;      C-    CA-    CB-   HB2
     9      7      6     10      9     0.00   0.65084   3 ;     CG-    CB-    CA-    HA
    10      6      5     13      9     0.00   1.25520   3 ;     HA-    CA-     N-    H1
    10      6      5     14      9     0.00   1.25520   3 ;     HA-    CA-     N-    H2
    10      6      7     11      9     0.00   0.65084   3 ;     HA-    CA-    CB-   HB1
    10      6      7     12      9     0.00   0.65084   3 ;     HA-    CA-    CB-   HB2
    15      1      8      3      9     0.00   7.94960   1 ;      H-     O-     C-   OXT
    15      1      8      3      9   180.00   9.62320   2 ;      H-     O-     C-   OXT
    15      1      8      6      9   180.00   7.53120   2 ;      H-     O-     C-    CA

[ dihedrals ] ; impropers
; treated as propers in GROMACS to use correct AMBER analytical function
;    i      j      k      l   func   phase     kd      pn
     1      8      3      6      4   180.00   4.60240   2 ;      O-     C-   OXT-    CA
     7      4      9      2      4   180.00   4.60240   2 ;     CB-   OD2-    CG-   OD1
