424
    16
  -0.6610000   1.5960000   0.8950000   2.0100000  -0.1570000   1.1210000
  -1.9740000   0.9720000  -0.8430000   2.2170000   0.5660000  -1.0220000
  -1.8030000  -1.6940000   0.0970000  -0.7470000  -0.7450000   0.3520000
   0.5030000  -1.0780000  -0.4680000  -1.2000000   0.6760000   0.0590000
   1.6560000  -0.1350000  -0.1910000  -0.5150000  -0.8000000   1.4220000
   0.2840000  -1.0170000  -1.5410000   0.8510000  -2.0990000  -0.2670000
  -2.0700000  -1.6720000  -0.8870000  -2.6360000  -1.4460000   0.6290000
  -0.9650000   2.5040000   0.6860000   2.7560000   0.4520000   1.3080000
