1174
    12
   2.3260000   0.9650000   0.0000000  -2.2970000   1.0230000   0.0010000
   0.0180000   1.0200000  -0.0000000   1.1640000  -1.0220000   0.0000000
   1.2520000   0.3630000   0.0000000  -1.2320000   0.4140000  -0.0000000
  -0.0270000  -1.6960000   0.0000000  -1.2050000  -1.0680000  -0.0000000
   0.0380000   2.0360000  -0.0000000   2.0190000  -1.5700000   0.0000000
  -2.1440000  -1.6060000  -0.0000000   0.0470000  -2.7760000   0.0000000
