uracil_GMX.gro created by acpype (v: 2023.10.27) on Mon Feb  9 18:01:10 2026
 12
    1  UNL    O    1   0.233   0.097   0.000
    1  UNL   O1    2  -0.230   0.102   0.000
    1  UNL    N    3   0.002   0.102  -0.000
    1  UNL   N1    4   0.116  -0.102   0.000
    1  UNL    C    5   0.125   0.036   0.000
    1  UNL   C1    6  -0.123   0.041  -0.000
    1  UNL   C2    7  -0.003  -0.170   0.000
    1  UNL   C3    8  -0.121  -0.107  -0.000
    1  UNL    H    9   0.004   0.204  -0.000
    1  UNL   H1   10   0.202  -0.157   0.000
    1  UNL   H2   11  -0.214  -0.161  -0.000
    1  UNL   H3   12   0.005  -0.278   0.000
    9.24600     9.62400     0.00200
