; uracil_GMX_OPLS.top created by acpype (v: 2023.10.27) on Mon Feb  9 18:01:10 2026

; Include forcefield parameters
#include "ffoplsaa.itp"

; Include uracil_GMX.itp topology
#include "uracil_GMX.itp"

; Ligand position restraints
#ifdef POSRES_LIG
#include "posre_uracil.itp"
#endif

[ system ]
 uracil

[ molecules ]
; Compound        nmols
 uracil           1     
