; uracil_GMX_OPLS.itp created by acpype (v: 2023.10.27) on Mon Feb  9 18:01:10 2026

; For OPLS atomtypes manual fine tuning
; AC_at:OPLS_at:OPLScode: Possible_Alternatives (see ffoplsaa.atp and ffoplsaanb.itp)
; o:O:opls_236: ['272']
; ns:x:opls_x: []
; c:C:opls_235: ['271']
; cc:C*:opls_500: ['506', '507', '508', '514']
; cd:C*:opls_500: ['506', '507', '508', '514']
; hn:H:opls_240: ['241', '290', '301', '304', '310', '504', '513']
; ha:HA:opls_146: []
; h4:HA:opls_146: []

[ moleculetype ]
;name            nrexcl
 uracil           3

[ atoms ]
;   nr  type  resi  res  atom  cgnr     charge      mass       ; qtot   bond_type
     1 opls_236     1   UNL     O    1    -0.636500     15.99940 ; qtot -0.636  O   
     2 opls_236     1   UNL    O1    2    -0.605500     15.99940 ; qtot -1.242  O   
     3 opls_x     1   UNL     N    3    -0.585500      0.00000 ; qtot -1.828  x   
     4 opls_x     1   UNL    N1    4    -0.475100      0.00000 ; qtot -2.303  x   
     5 opls_235     1   UNL     C    5     0.805500     12.01100 ; qtot -1.497  C   
     6 opls_235     1   UNL    C1    6     0.714700     12.01100 ; qtot -0.782  C   
     7 opls_500     1   UNL    C2    7     0.050600     12.01100 ; qtot -0.732  C*  
     8 opls_500     1   UNL    C3    8    -0.319200     12.01100 ; qtot -1.051  C*  
     9 opls_240     1   UNL     H    9     0.353500      1.00800 ; qtot -0.698  H   
    10 opls_240     1   UNL    H1   10     0.354500      1.00800 ; qtot -0.343  H   
    11 opls_146     1   UNL    H2   11     0.180000      1.00800 ; qtot -0.163  HA  
    12 opls_146     1   UNL    H3   12     0.163000      1.00800 ; qtot -0.000  HA  

[ bonds ]
;   ai     aj funct   r             k
     1      5   1 ;    1.2190e-01    4.9421e+05 ;      O - C           O - C     
     2      6   1 ;    1.2190e-01    4.9421e+05 ;     O1 - C1          O - C     
     3      5   1 ;    1.3798e-01    2.8122e+05 ;      N - C           x - C     
     3      6   1 ;    1.3798e-01    2.8122e+05 ;      N - C1          x - C     
     3      9   1 ;    1.0132e-01    3.9630e+05 ;      N - H           x - H     
     4      5   1 ;    1.3798e-01    2.8122e+05 ;     N1 - C           x - C     
     4      7   1 ;    1.3804e-01    2.8065e+05 ;     N1 - C2          x - C*    
     4     10   1 ;    1.0132e-01    3.9630e+05 ;     N1 - H1          x - H     
     6      8   1 ;    1.4728e-01    2.3273e+05 ;     C1 - C3          C - C*    
     7      8   1 ;    1.3730e-01    3.2321e+05 ;     C2 - C3         C* - C*    
     7     12   1 ;    1.0809e-01    3.0854e+05 ;     C2 - H3         C* - HA    
     8     11   1 ;    1.0835e-01    3.0510e+05 ;     C3 - H2         C* - HA    

[ pairs ]
;   ai     aj    funct
     1      6      1 ;      O - C1    
     1      7      1 ;      O - C2    
     1      9      1 ;      O - H     
     1     10      1 ;      O - H1    
     2      5      1 ;     O1 - C     
     2      7      1 ;     O1 - C2    
     2      9      1 ;     O1 - H     
     2     11      1 ;     O1 - H2    
     3      7      1 ;      N - C2    
     3     10      1 ;      N - H1    
     3     11      1 ;      N - H2    
     4      6      1 ;     N1 - C1    
     4      9      1 ;     N1 - H     
     4     11      1 ;     N1 - H2    
     5      8      1 ;      C - C3    
     5     12      1 ;      C - H3    
     6     12      1 ;     C1 - H3    
     8      9      1 ;     C3 - H     
     8     10      1 ;     C3 - H1    
    10     12      1 ;     H1 - H3    
    11     12      1 ;     H2 - H3    

[ angles ]
;   ai     aj     ak    funct   theta         cth
     1      5      3      1 ;    1.2305e+02    7.2977e+02 ;      O - C    - N         O -    C - x   
     1      5      4      1 ;    1.2305e+02    7.2977e+02 ;      O - C    - N1        O -    C - x   
     2      6      3      1 ;    1.2305e+02    7.2977e+02 ;     O1 - C1   - N         O -    C - x   
     2      6      8      1 ;    1.2371e+02    6.5530e+02 ;     O1 - C1   - C3        O -    C - C*  
     3      5      4      1 ;    1.1289e+02    6.2752e+02 ;      N - C    - N1        x -    C - x   
     3      6      8      1 ;    1.1220e+02    5.7245e+02 ;      N - C1   - C3        x -    C - C*  
     4      7      8      1 ;    1.2145e+02    5.7120e+02 ;     N1 - C2   - C3        x -   C* - C*  
     4      7     12      1 ;    1.1582e+02    4.1045e+02 ;     N1 - C2   - H3        x -   C* - HA  
     5      3      6      1 ;    1.2805e+02    6.4618e+02 ;      C - N    - C1        C -    x - C   
     5      3      9      1 ;    1.1726e+02    4.8007e+02 ;      C - N    - H         C -    x - H   
     5      4      7      1 ;    1.2518e+02    6.5346e+02 ;      C - N1   - C2        C -    x - C*  
     5      4     10      1 ;    1.1726e+02    4.8007e+02 ;      C - N1   - H1        C -    x - H   
     6      3      9      1 ;    1.1726e+02    4.8007e+02 ;     C1 - N    - H         C -    x - H   
     6      8      7      1 ;    1.2132e+02    5.1965e+02 ;     C1 - C3   - C2        C -   C* - C*  
     6      8     11      1 ;    1.1638e+02    3.6526e+02 ;     C1 - C3   - H2        C -   C* - HA  
     7      4     10      1 ;    1.1891e+02    4.7656e+02 ;     C2 - N1   - H1       C* -    x - H   
     7      8     11      1 ;    1.2170e+02    3.7865e+02 ;     C2 - C3   - H2       C* -   C* - HA  
     8      7     12      1 ;    1.2911e+02    3.6777e+02 ;     C3 - C2   - H3       C* -   C* - HA  

[ dihedrals ] ; propers
; for gromacs 4.5 or higher, using funct 9
;    i      j      k      l   func   phase     kd      pn
     1      5      3      6      9 ;   180.00  10.46000   2 ;      O-     C-     N-    C1
     1      5      3      9      9 ;     0.00   8.36800   1 ;      O-     C-     N-     H
     1      5      3      9      9 ;   180.00  10.46000   2 ;      O-     C-     N-     H
     1      5      4      7      9 ;   180.00  10.46000   2 ;      O-     C-    N1-    C2
     1      5      4     10      9 ;     0.00   8.36800   1 ;      O-     C-    N1-    H1
     1      5      4     10      9 ;   180.00  10.46000   2 ;      O-     C-    N1-    H1
     2      6      3      5      9 ;   180.00  10.46000   2 ;     O1-    C1-     N-     C
     2      6      3      9      9 ;     0.00   8.36800   1 ;     O1-    C1-     N-     H
     2      6      3      9      9 ;   180.00  10.46000   2 ;     O1-    C1-     N-     H
     2      6      8      7      9 ;   180.00  12.02900   2 ;     O1-    C1-    C3-    C2
     2      6      8     11      9 ;   180.00  12.02900   2 ;     O1-    C1-    C3-    H2
     3      5      4      7      9 ;   180.00  10.46000   2 ;      N-     C-    N1-    C2
     3      5      4     10      9 ;   180.00  10.46000   2 ;      N-     C-    N1-    H1
     3      6      8      7      9 ;   180.00  12.02900   2 ;      N-    C1-    C3-    C2
     3      6      8     11      9 ;   180.00  12.02900   2 ;      N-    C1-    C3-    H2
     4      5      3      6      9 ;   180.00  10.46000   2 ;     N1-     C-     N-    C1
     4      5      3      9      9 ;   180.00  10.46000   2 ;     N1-     C-     N-     H
     4      7      8      6      9 ;   180.00  16.73600   2 ;     N1-    C2-    C3-    C1
     4      7      8     11      9 ;   180.00  16.73600   2 ;     N1-    C2-    C3-    H2
     5      3      6      8      9 ;   180.00  10.46000   2 ;      C-     N-    C1-    C3
     5      4      7      8      9 ;   180.00   6.90360   2 ;      C-    N1-    C2-    C3
     5      4      7     12      9 ;   180.00   6.90360   2 ;      C-    N1-    C2-    H3
     6      8      7     12      9 ;   180.00  16.73600   2 ;     C1-    C3-    C2-    H3
     8      6      3      9      9 ;   180.00  10.46000   2 ;     C3-    C1-     N-     H
     8      7      4     10      9 ;   180.00   6.90360   2 ;     C3-    C2-    N1-    H1
    10      4      7     12      9 ;   180.00   6.90360   2 ;     H1-    N1-    C2-    H3
    11      8      7     12      9 ;   180.00  16.73600   2 ;     H2-    C3-    C2-    H3

[ dihedrals ] ; impropers
; treated as propers in GROMACS to use correct AMBER analytical function
;    i      j      k      l   func   phase     kd      pn
     1      5      4      3      4 ;   180.00  43.93200   2 ;      O-     C-    N1-     N
     5      6      3      9      4 ;   180.00   4.60240   2 ;      C-    C1-     N-     H
     5      7      4     10      4 ;   180.00   4.60240   2 ;      C-    C2-    N1-    H1
     6      7      8     11      4 ;   180.00   4.60240   2 ;     C1-    C2-    C3-    H2
     8      3      6      2      4 ;   180.00  43.93200   2 ;     C3-     N-    C1-    O1
     8     12      7      4      4 ;   180.00   4.60240   2 ;     C3-    H3-    C2-    N1
