%VERSION  VERSION_STAMP = V0001.000  DATE = 02/09/26  18:01:11                  
%FLAG TITLE                                                                     
%FORMAT(20a4)                                                                   
1174                                                                            
%FLAG POINTERS                                                                  
%FORMAT(10I8)                                                                   
      12       6       4       8       8      10      21      12       0       0
      53       1       8      10      12       8      14       7       8       0
       0       0       0       0       0       0       0       0      12       0
       0
%FLAG ATOM_NAME                                                                 
%FORMAT(20a4)                                                                   
O   O1  N   N1  C   C1  C2  C3  H   H1  H2  H3  
%FLAG CHARGE                                                                    
%FORMAT(5E16.8)                                                                 
 -1.15984939E+01 -1.10336027E+01 -1.06691567E+01 -8.65741473E+00  1.46416180E+01
  1.30234778E+01  9.22048380E-01 -5.81655816E+00  6.44158305E+00  6.45980535E+00
  3.28001400E+00  2.97023490E+00
%FLAG ATOMIC_NUMBER                                                             
%FORMAT(10I8)                                                                   
       8       8       7       7       6       6       6       6       1       1
       1       1
%FLAG MASS                                                                      
%FORMAT(5E16.8)                                                                 
  1.60000000E+01  1.60000000E+01  1.40100000E+01  1.40100000E+01  1.20100000E+01
  1.20100000E+01  1.20100000E+01  1.20100000E+01  1.00800000E+00  1.00800000E+00
  1.00800000E+00  1.00800000E+00
%FLAG ATOM_TYPE_INDEX                                                           
%FORMAT(10I8)                                                                   
       1       1       2       2       3       3       3       3       4       4
       5       6
%FLAG NUMBER_EXCLUDED_ATOMS                                                     
%FORMAT(10I8)                                                                   
       7       7       8       8       6       5       4       4       1       1
       1       1
%FLAG NONBONDED_PARM_INDEX                                                      
%FORMAT(10I8)                                                                   
       1       2       4       7      11      16       2       3       5       8
      12      17       4       5       6       9      13      18       7       8
       9      10      14      19      11      12      13      14      15      20
      16      17      18      19      20      21
%FLAG RESIDUE_LABEL                                                             
%FORMAT(20a4)                                                                   
UNL 
%FLAG RESIDUE_POINTER                                                           
%FORMAT(10I8)                                                                   
       1
%FLAG BOND_FORCE_CONSTANT                                                       
%FORMAT(5E16.8)                                                                 
  5.90600000E+02  3.36070000E+02  4.73590000E+02  3.35390000E+02  2.78120000E+02
  3.86240000E+02  3.68720000E+02  3.64600000E+02
%FLAG BOND_EQUIL_VALUE                                                          
%FORMAT(5E16.8)                                                                 
  1.21900000E+00  1.37980000E+00  1.01320000E+00  1.38040000E+00  1.47280000E+00
  1.37300000E+00  1.08090000E+00  1.08350000E+00
%FLAG ANGLE_FORCE_CONSTANT                                                      
%FORMAT(5E16.8)                                                                 
  8.72100000E+01  7.83100000E+01  7.49900000E+01  6.84100000E+01  6.82600000E+01
  4.90500000E+01  7.72200000E+01  5.73700000E+01  7.80900000E+01  6.21000000E+01
  4.36500000E+01  5.69500000E+01  4.52500000E+01  4.39500000E+01
%FLAG ANGLE_EQUIL_VALUE                                                         
%FORMAT(5E16.8)                                                                 
  2.14762857E+00  2.15914774E+00  1.97030304E+00  1.95826026E+00  2.11970329E+00
  2.02144121E+00  2.23489507E+00  2.04657396E+00  2.18480409E+00  2.11743436E+00
  2.03121505E+00  2.07537190E+00  2.12406661E+00  2.25339556E+00
%FLAG DIHEDRAL_FORCE_CONSTANT                                                   
%FORMAT(5E16.8)                                                                 
  2.50000000E+00  2.00000000E+00  2.87500000E+00  4.00000000E+00  1.65000000E+00
  1.10000000E+00  1.05000000E+01
%FLAG DIHEDRAL_PERIODICITY                                                      
%FORMAT(5E16.8)                                                                 
  2.00000000E+00  1.00000000E+00  2.00000000E+00  2.00000000E+00  2.00000000E+00
  2.00000000E+00  2.00000000E+00
%FLAG DIHEDRAL_PHASE                                                            
%FORMAT(5E16.8)                                                                 
  3.14159400E+00  0.00000000E+00  3.14159400E+00  3.14159400E+00  3.14159400E+00
  3.14159400E+00  3.14159400E+00
%FLAG SCEE_SCALE_FACTOR                                                         
%FORMAT(5E16.8)                                                                 
  1.20000000E+00  1.20000000E+00  1.20000000E+00  1.20000000E+00  1.20000000E+00
  0.00000000E+00  0.00000000E+00
%FLAG SCNB_SCALE_FACTOR                                                         
%FORMAT(5E16.8)                                                                 
  2.00000000E+00  2.00000000E+00  2.00000000E+00  2.00000000E+00  2.00000000E+00
  0.00000000E+00  0.00000000E+00
%FLAG SOLTY                                                                     
%FORMAT(5E16.8)                                                                 
  0.00000000E+00  0.00000000E+00  0.00000000E+00  0.00000000E+00  0.00000000E+00
  0.00000000E+00  0.00000000E+00  0.00000000E+00
%FLAG LENNARD_JONES_ACOEF                                                       
%FORMAT(5E16.8)                                                                 
  3.76435470E+05  5.17814271E+05  7.01825028E+05  5.17507491E+05  6.99381362E+05
  6.96551276E+05  9.87857350E+02  1.65195713E+03  1.71458823E+03  1.34728399E-01
  5.27277400E+04  7.48403283E+04  7.52549148E+04  9.04434904E+01  6.90855956E+03
  4.36069364E+04  6.23418310E+04  6.27751680E+04  6.76796831E+01  5.62610481E+03
  4.56536476E+03
%FLAG LENNARD_JONES_BCOEF                                                       
%FORMAT(5E16.8)                                                                 
  4.69350655E+02  5.21008860E+02  5.74088001E+02  4.98871431E+02  5.48900066E+02
  5.24668528E+02  1.22938581E+01  1.50468782E+01  1.46824710E+01  7.34107347E-02
  1.01173582E+02  1.14083104E+02  1.09570372E+02  2.14252117E+00  2.10929191E+01
  9.20079458E+01  1.04122183E+02  1.00073628E+02  1.85338491E+00  1.90347353E+01
  1.71467049E+01
%FLAG BONDS_INC_HYDROGEN                                                        
%FORMAT(10I8)                                                                   
       6      24       3       9      27       3      18      33       7      21
      30       8
%FLAG BONDS_WITHOUT_HYDROGEN                                                    
%FORMAT(10I8)                                                                   
       0      12       1       3      15       1       6      12       2       6
      15       2       9      12       2       9      18       4      15      21
       5      18      21       6
%FLAG ANGLES_INC_HYDROGEN                                                       
%FORMAT(10I8)                                                                   
       9      18      33       6      12       6      24       8      12       9
      27       8      15       6      24       8      15      21      30      11
      18       9      27      12      18      21      30      13      21      18
      33      14
%FLAG ANGLES_WITHOUT_HYDROGEN                                                   
%FORMAT(10I8)                                                                   
       0      12       6       1       0      12       9       1       3      15
       6       1       3      15      21       2       6      12       9       3
       6      15      21       4       9      18      21       5      12       6
      15       7      12       9      18       9      15      21      18      10
%FLAG DIHEDRALS_INC_HYDROGEN                                                    
%FORMAT(10I8)                                                                   
       0      12       6      24       2       0      12      -6      24       1
       0      12       9      27       2       0      12      -9      27       1
       3      15       6      24       2       3      15      -6      24       1
       3      15      21      30       3       6      12       9      27       1
       6      15      21      30       3       9      12       6      24       1
       9      18      21      30       4      12       9      18      33       5
      15      21      18      33       4      21      15       6      24       1
      21      18       9      27       5      27       9      18      33       5
      30      21      18      33       4      12      15      -6     -24       6
      12      18      -9     -27       6      21      33     -18      -9       6
      15      18     -21     -30       6
%FLAG DIHEDRALS_WITHOUT_HYDROGEN                                                
%FORMAT(10I8)                                                                   
       0      12       6      15       1       0      12       9      18       1
       3      15       6      12       1       3      15      21      18       3
       6      12       9      18       1       6      15     -21      18       3
       9      12       6      15       1       9      18     -21      15       4
      12       6      15      21       1      12       9     -18      21       5
       0      12      -9      -6       7      21       6     -15      -3       7
%FLAG EXCLUDED_ATOMS_LIST                                                       
%FORMAT(10I8)                                                                   
       3       4       5       6       7       9      10       3       5       6
       7       8       9      11       4       5       6       7       8       9
      10      11       5       6       7       8       9      10      11      12
       6       7       8       9      10      12       7       8       9      11
      12       8      10      11      12       9      10      11      12       0
      12      12       0
%FLAG HBOND_ACOEF                                                               
%FORMAT(5E16.8)                                                                 

%FLAG HBOND_BCOEF                                                               
%FORMAT(5E16.8)                                                                 

%FLAG HBCUT                                                                     
%FORMAT(5E16.8)                                                                 

%FLAG AMBER_ATOM_TYPE                                                           
%FORMAT(20a4)                                                                   
o   o   ns  ns  c   c   cc  cd  hn  hn  ha  h4  
%FLAG TREE_CHAIN_CLASSIFICATION                                                 
%FORMAT(20a4)                                                                   
BLA BLA BLA BLA BLA BLA BLA BLA BLA BLA BLA BLA 
%FLAG JOIN_ARRAY                                                                
%FORMAT(10I8)                                                                   
       0       0       0       0       0       0       0       0       0       0
       0       0
%FLAG IROTAT                                                                    
%FORMAT(10I8)                                                                   
       0       0       0       0       0       0       0       0       0       0
       0       0
%FLAG RADIUS_SET                                                                
%FORMAT(1a80)                                                                   
modified Bondi radii (mbondi)                                                   
%FLAG RADII                                                                     
%FORMAT(5E16.8)                                                                 
  1.50000000E+00  1.50000000E+00  1.55000000E+00  1.55000000E+00  1.70000000E+00
  1.70000000E+00  1.70000000E+00  1.70000000E+00  1.30000000E+00  1.30000000E+00
  1.30000000E+00  1.30000000E+00
%FLAG SCREEN                                                                    
%FORMAT(5E16.8)                                                                 
  8.50000000E-01  8.50000000E-01  7.90000000E-01  7.90000000E-01  7.20000000E-01
  7.20000000E-01  7.20000000E-01  7.20000000E-01  8.50000000E-01  8.50000000E-01
  8.50000000E-01  8.50000000E-01
%FLAG IPOL                                                                      
%FORMAT(1I8)                                                                    
       0
