439577
    72
   7.6720000  -0.5790000   1.1900000  -0.7690000   0.7580000  -0.6530000
  -0.1270000  -0.6390000  -0.5540000   1.3890000  -0.6270000  -0.7810000
   2.0620000   0.3170000   0.2570000  -2.2520000   0.3650000  -0.4420000
  -0.1670000   1.6230000   0.4630000   3.6260000   0.3940000   0.0390000
  -0.9990000  -1.5050000  -1.4590000   1.3650000   1.7030000   0.3490000
  -2.4130000  -0.9210000  -1.2850000   1.9680000  -2.0450000  -0.6600000
  -3.2910000   1.4260000  -0.7740000  -0.5650000   1.4500000  -2.0240000
   4.2130000  -1.0030000  -0.2060000   4.2690000   0.9990000   1.3230000
   3.4540000  -2.0730000  -0.5010000   3.9820000   1.2820000  -1.1780000
   5.7130000  -1.1510000  -0.0950000   5.7920000   0.8890000   1.3780000
  -4.7350000   0.9460000  -0.5100000   6.2480000  -0.5550000   1.2040000
  -3.0220000   2.6950000   0.0450000  -5.0510000   0.5910000   0.9500000
  -6.4850000   0.1860000   1.1520000  -7.0430000  -1.0280000   0.9840000
  -8.5120000  -1.2300000   1.2480000  -6.3220000  -2.2680000   0.5390000
  -0.2850000  -1.0170000   0.4700000   1.6000000  -0.2690000  -1.7950000
   1.8990000  -0.1550000   1.2400000  -2.3630000   0.0780000   0.6130000
  -0.4250000   1.2100000   1.4470000  -0.5280000   2.6510000   0.4500000
  -0.9660000  -2.5610000  -1.1710000  -0.6830000  -1.4360000  -2.5060000
   1.6130000   2.3160000  -0.5220000   1.7410000   2.2470000   1.2230000
  -2.8510000  -0.7210000  -2.2700000  -3.0670000  -1.6370000  -0.7740000
   1.7000000  -2.6180000  -1.5560000   1.5280000  -2.5710000   0.1960000
  -3.2420000   1.6890000  -1.8380000  -0.9660000   2.4670000  -2.0270000
   0.4900000   1.5370000  -2.2970000  -1.0530000   0.9080000  -2.8410000
   3.8640000   0.4920000   2.2100000   3.9980000   2.0570000   1.4240000
   3.9260000  -3.0420000  -0.6430000   3.7250000   2.3310000  -1.0020000
   5.0530000   1.2660000  -1.4060000   3.4620000   0.9560000  -2.0850000
   6.0210000  -2.2030000  -0.1540000   6.1960000  -0.6680000  -0.9540000
   6.2530000   1.5270000   0.6140000   6.1570000   1.2760000   2.3370000
  -4.9530000   0.0820000  -1.1510000  -5.4280000   1.7330000  -0.8380000
   5.9120000  -1.1520000   2.0610000  -2.7630000   2.4790000   1.0860000
  -2.2460000   3.3120000  -0.4110000  -3.9130000   3.3340000   0.0620000
  -4.8520000   1.4450000   1.6060000  -4.4010000  -0.2160000   1.3030000
   7.9480000  -1.5050000   1.0830000  -7.1320000   1.0050000   1.4660000
  -9.0100000  -0.3100000   1.5730000  -9.0160000  -1.5770000   0.3400000
  -8.6560000  -1.9790000   2.0330000  -6.7670000  -2.6540000  -0.3830000
  -5.2610000  -2.0930000   0.3420000  -6.3910000  -3.0430000   1.3090000
