; desmosterol_GMX_OPLS.top created by acpype (v: 2023.10.27) on Mon Feb  9 17:39:46 2026

; Include forcefield parameters
#include "ffoplsaa.itp"

; Include desmosterol_GMX.itp topology
#include "desmosterol_GMX.itp"

; Ligand position restraints
#ifdef POSRES_LIG
#include "posre_desmosterol.itp"
#endif

[ system ]
 desmosterol

[ molecules ]
; Compound        nmols
 desmosterol      1     
