desmosterol_GMX.gro created by acpype (v: 2023.10.27) on Mon Feb  9 17:39:46 2026
 72
    1  UNL    O    1   0.767  -0.058   0.119
    1  UNL    C    2  -0.077   0.076  -0.065
    1  UNL   C1    3  -0.013  -0.064  -0.055
    1  UNL   C2    4   0.139  -0.063  -0.078
    1  UNL   C3    5   0.206   0.032   0.026
    1  UNL   C4    6  -0.225   0.036  -0.044
    1  UNL   C5    7  -0.017   0.162   0.046
    1  UNL   C6    8   0.363   0.039   0.004
    1  UNL   C7    9  -0.100  -0.150  -0.146
    1  UNL   C8   10   0.137   0.170   0.035
    1  UNL   C9   11  -0.241  -0.092  -0.129
    1  UNL  C10   12   0.197  -0.205  -0.066
    1  UNL  C11   13  -0.329   0.143  -0.077
    1  UNL  C12   14  -0.056   0.145  -0.202
    1  UNL  C13   15   0.421  -0.100  -0.021
    1  UNL  C14   16   0.427   0.100   0.132
    1  UNL  C15   17   0.345  -0.207  -0.050
    1  UNL  C16   18   0.398   0.128  -0.118
    1  UNL  C17   19   0.571  -0.115  -0.010
    1  UNL  C18   20   0.579   0.089   0.138
    1  UNL  C19   21  -0.474   0.095  -0.051
    1  UNL  C20   22   0.625  -0.056   0.120
    1  UNL  C21   23  -0.302   0.270   0.004
    1  UNL  C22   24  -0.505   0.059   0.095
    1  UNL  C23   25  -0.649   0.019   0.115
    1  UNL  C24   26  -0.704  -0.103   0.098
    1  UNL  C25   27  -0.851  -0.123   0.125
    1  UNL  C26   28  -0.632  -0.227   0.054
    1  UNL    H   29  -0.028  -0.102   0.047
    1  UNL   H1   30   0.160  -0.027  -0.179
    1  UNL   H2   31   0.190  -0.015   0.124
    1  UNL   H3   32  -0.236   0.008   0.061
    1  UNL   H4   33  -0.043   0.121   0.145
    1  UNL   H5   34  -0.053   0.265   0.045
    1  UNL   H6   35  -0.097  -0.256  -0.117
    1  UNL   H7   36  -0.068  -0.144  -0.251
    1  UNL   H8   37   0.161   0.232  -0.052
    1  UNL   H9   38   0.174   0.225   0.122
    1  UNL  H10   39  -0.285  -0.072  -0.227
    1  UNL  H11   40  -0.307  -0.164  -0.077
    1  UNL  H12   41   0.170  -0.262  -0.156
    1  UNL  H13   42   0.153  -0.257   0.020
    1  UNL  H14   43  -0.324   0.169  -0.184
    1  UNL  H15   44  -0.097   0.247  -0.203
    1  UNL  H16   45   0.049   0.154  -0.230
    1  UNL  H17   46  -0.105   0.091  -0.284
    1  UNL  H18   47   0.386   0.049   0.221
    1  UNL  H19   48   0.400   0.206   0.142
    1  UNL  H20   49   0.393  -0.304  -0.064
    1  UNL  H21   50   0.373   0.233  -0.100
    1  UNL  H22   51   0.505   0.127  -0.141
    1  UNL  H23   52   0.346   0.096  -0.209
    1  UNL  H24   53   0.602  -0.220  -0.015
    1  UNL  H25   54   0.620  -0.067  -0.095
    1  UNL  H26   55   0.625   0.153   0.061
    1  UNL  H27   56   0.616   0.128   0.234
    1  UNL  H28   57  -0.495   0.008  -0.115
    1  UNL  H29   58  -0.543   0.173  -0.084
    1  UNL  H30   59   0.591  -0.115   0.206
    1  UNL  H31   60  -0.276   0.248   0.109
    1  UNL  H32   61  -0.225   0.331  -0.041
    1  UNL  H33   62  -0.391   0.333   0.006
    1  UNL  H34   63  -0.485   0.145   0.161
    1  UNL  H35   64  -0.440  -0.022   0.130
    1  UNL  H36   65   0.795  -0.150   0.108
    1  UNL  H37   66  -0.713   0.100   0.147
    1  UNL  H38   67  -0.901  -0.031   0.157
    1  UNL  H39   68  -0.902  -0.158   0.034
    1  UNL  H40   69  -0.866  -0.198   0.203
    1  UNL  H41   70  -0.677  -0.265  -0.038
    1  UNL  H42   71  -0.526  -0.209   0.034
    1  UNL  H43   72  -0.639  -0.304   0.131
   33.92800    12.75400    10.35600
