%VERSION  VERSION_STAMP = V0001.000  DATE = 02/09/26  17:43:04                  
%FLAG TITLE                                                                     
%FORMAT(20a4)                                                                   
439577                                                                          
%FLAG POINTERS                                                                  
%FORMAT(10I8)                                                                   
      72       7      44      31     103      48     179      78       0       0
     467       1      31      48      78      16      36      16       9       0
       0       0       0       0       0       0       0       0      72       0
       0
%FLAG ATOM_NAME                                                                 
%FORMAT(20a4)                                                                   
O   C   C1  C2  C3  C4  C5  C6  C7  C8  C9  C10 C11 C12 C13 C14 C15 C16 C17 C18 
C19 C20 C21 C22 C23 C24 C25 C26 H   H1  H2  H3  H4  H5  H6  H7  H8  H9  H10 H11 
H12 H13 H14 H15 H16 H17 H18 H19 H20 H21 H22 H23 H24 H25 H26 H27 H28 H29 H30 H31 
H32 H33 H34 H35 H36 H37 H38 H39 H40 H41 H42 H43 
%FLAG CHARGE                                                                    
%FORMAT(5E16.8)                                                                 
 -1.09479578E+01 -8.20003500E-01 -1.17898281E+00 -8.50981410E-01 -8.87426010E-01
 -9.96759810E-01 -1.19173842E+00  3.64446000E-03 -1.35573912E+00 -1.37396142E+00
 -1.42862832E+00 -7.68981060E-01 -1.01498211E+00 -1.49605083E+00 -1.92063042E+00
 -1.28284992E+00 -3.04676856E+00 -1.51427313E+00 -1.37031696E+00 -1.37396142E+00
 -1.35573912E+00  2.64405573E+00 -1.64182923E+00 -8.60092560E-01 -3.19254696E+00
 -2.30329872E+00 -1.04596002E+00 -1.04596002E+00  8.32759110E-01  1.06964901E+00
  8.69203710E-01  8.69203710E-01  7.41647610E-01  7.41647610E-01  7.59869910E-01
  7.59869910E-01  7.59869910E-01  7.59869910E-01  7.68981060E-01  7.68981060E-01
  8.96537160E-01  8.96537160E-01  8.69203710E-01  6.50536110E-01  6.50536110E-01
  6.50536110E-01  8.14536810E-01  8.14536810E-01  2.16845370E+00  6.80912684E-01
  6.80912684E-01  6.80912684E-01  9.32981760E-01  9.32981760E-01  1.00587096E+00
  1.00587096E+00  7.32536460E-01  7.32536460E-01  6.50536110E-01  6.26245784E-01
  6.26245784E-01  6.26245784E-01  8.87426010E-01  8.87426010E-01  7.25247540E+00
  2.20489830E+00  7.26468434E-01  7.26468434E-01  7.26468434E-01  7.26468434E-01
  7.26468434E-01  7.26468434E-01
%FLAG ATOMIC_NUMBER                                                             
%FORMAT(10I8)                                                                   
       8       6       6       6       6       6       6       6       6       6
       6       6       6       6       6       6       6       6       6       6
       6       6       6       6       6       6       6       6       1       1
       1       1       1       1       1       1       1       1       1       1
       1       1       1       1       1       1       1       1       1       1
       1       1       1       1       1       1       1       1       1       1
       1       1       1       1       1       1       1       1       1       1
       1       1
%FLAG MASS                                                                      
%FORMAT(5E16.8)                                                                 
  1.60000000E+01  1.20100000E+01  1.20100000E+01  1.20100000E+01  1.20100000E+01
  1.20100000E+01  1.20100000E+01  1.20100000E+01  1.20100000E+01  1.20100000E+01
  1.20100000E+01  1.20100000E+01  1.20100000E+01  1.20100000E+01  1.20100000E+01
  1.20100000E+01  1.20100000E+01  1.20100000E+01  1.20100000E+01  1.20100000E+01
  1.20100000E+01  1.20100000E+01  1.20100000E+01  1.20100000E+01  1.20100000E+01
  1.20100000E+01  1.20100000E+01  1.20100000E+01  1.00800000E+00  1.00800000E+00
  1.00800000E+00  1.00800000E+00  1.00800000E+00  1.00800000E+00  1.00800000E+00
  1.00800000E+00  1.00800000E+00  1.00800000E+00  1.00800000E+00  1.00800000E+00
  1.00800000E+00  1.00800000E+00  1.00800000E+00  1.00800000E+00  1.00800000E+00
  1.00800000E+00  1.00800000E+00  1.00800000E+00  1.00800000E+00  1.00800000E+00
  1.00800000E+00  1.00800000E+00  1.00800000E+00  1.00800000E+00  1.00800000E+00
  1.00800000E+00  1.00800000E+00  1.00800000E+00  1.00800000E+00  1.00800000E+00
  1.00800000E+00  1.00800000E+00  1.00800000E+00  1.00800000E+00  1.00800000E+00
  1.00800000E+00  1.00800000E+00  1.00800000E+00  1.00800000E+00  1.00800000E+00
  1.00800000E+00  1.00800000E+00
%FLAG ATOM_TYPE_INDEX                                                           
%FORMAT(10I8)                                                                   
       1       2       2       2       2       2       2       2       2       2
       2       2       2       2       3       2       3       2       2       2
       2       2       2       2       3       3       2       2       4       4
       4       4       4       4       4       4       4       4       4       4
       4       4       4       4       4       4       4       4       5       4
       4       4       4       4       4       4       4       4       6       4
       4       4       4       4       7       5       4       4       4       4
       4       4
%FLAG NUMBER_EXCLUDED_ATOMS                                                     
%FORMAT(10I8)                                                                   
      11      28      27      23      25      26      16      23      11      11
      11       9      16       7      18      14       9       8       9       9
      14       8       8      10      14      11       8       7       3       3
       2       3       3       2       3       2       1       1       1       1
       2       1       5       2       1       1       3       2       1       2
       1       1       2       1       2       1       3       2       1       2
       1       1       2       1       1       1       2       1       1       2
       1       1
%FLAG NONBONDED_PARM_INDEX                                                      
%FORMAT(10I8)                                                                   
       1       2       4       7      11      16      22       2       3       5
       8      12      17      23       4       5       6       9      13      18
      24       7       8       9      10      14      19      25      11      12
      13      14      15      20      26      16      17      18      19      20
      21      27      22      23      24      25      26      27      28
%FLAG RESIDUE_LABEL                                                             
%FORMAT(20a4)                                                                   
UNL 
%FLAG RESIDUE_POINTER                                                           
%FORMAT(10I8)                                                                   
       1
%FLAG BOND_FORCE_CONSTANT                                                       
%FORMAT(5E16.8)                                                                 
  2.85250000E+02  5.35510000E+02  2.20100000E+02  2.26470000E+02  2.27640000E+02
  3.46430000E+02  2.26810000E+02  3.42750000E+02  2.44960000E+02  2.23800000E+02
  2.28890000E+02  3.45250000E+02  4.36000000E+02  3.57290000E+02  3.42020000E+02
  2.48400000E+02
%FLAG BOND_EQUIL_VALUE                                                          
%FORMAT(5E16.8)                                                                 
  1.42410000E+00  9.72500000E-01  1.54830000E+00  1.53890000E+00  1.53720000E+00
  1.09540000E+00  1.53840000E+00  1.09790000E+00  1.51330000E+00  1.54280000E+00
  1.53540000E+00  1.09620000E+00  1.33790000E+00  1.08820000E+00  1.09840000E+00
  1.50880000E+00
%FLAG ANGLE_FORCE_CONSTANT                                                      
%FORMAT(5E16.8)                                                                 
  7.65600000E+01  5.63900000E+01  5.92600000E+01  6.18400000E+01  4.26500000E+01
  5.93300000E+01  6.01700000E+01  4.32400000E+01  4.30600000E+01  4.38400000E+01
  6.01800000E+01  4.32300000E+01  6.05700000E+01  5.99900000E+01  5.95600000E+01
  6.03300000E+01  6.12400000E+01  5.98700000E+01  4.28900000E+01  4.25500000E+01
  4.36000000E+01  5.98700000E+01  4.32700000E+01  6.09300000E+01  4.63700000E+01
  4.39000000E+01  4.32800000E+01  6.04000000E+01  6.52300000E+01  6.08800000E+01
  4.29500000E+01  4.37600000E+01  6.03000000E+01  3.59300000E+01  3.59100000E+01
  3.58000000E+01
%FLAG ANGLE_EQUIL_VALUE                                                         
%FORMAT(5E16.8)                                                                 
  1.92073567E+00  1.91916487E+00  1.98531288E+00  1.81217614E+00  1.94028336E+00
  1.98269488E+00  1.93801443E+00  1.90834382E+00  1.92911325E+00  1.85738019E+00
  1.93836350E+00  1.91026369E+00  1.94447215E+00  1.94482122E+00  1.98444021E+00
  1.92963685E+00  2.14710497E+00  2.02388467E+00  1.93085858E+00  2.03453118E+00
  1.88129121E+00  1.96576518E+00  1.91427794E+00  1.91584874E+00  2.10120279E+00
  1.90782022E+00  1.90555129E+00  1.96489251E+00  1.86872483E+00  2.18078984E+00
  2.00800217E+00  1.93120765E+00  2.00730403E+00  1.86087085E+00  1.87134283E+00
  1.88024401E+00
%FLAG DIHEDRAL_FORCE_CONSTANT                                                   
%FORMAT(5E16.8)                                                                 
  1.55555556E-01  9.00000000E-02  1.80000000E-01  5.20000000E-01  1.30000000E-01
  0.00000000E+00  1.50000000E-01  5.78000000E+00  1.33000000E+00  6.65000000E+00
  1.50000000E-01  2.60000000E-01  6.00000000E-02  1.20000000E-01  1.23000000E-01
  1.10000000E+00
%FLAG DIHEDRAL_PERIODICITY                                                      
%FORMAT(5E16.8)                                                                 
  3.00000000E+00  3.00000000E+00  3.00000000E+00  3.00000000E+00  3.00000000E+00
  2.00000000E+00  1.00000000E+00  2.00000000E+00  3.00000000E+00  2.00000000E+00
  3.00000000E+00  3.00000000E+00  3.00000000E+00  3.00000000E+00  3.00000000E+00
  2.00000000E+00
%FLAG DIHEDRAL_PHASE                                                            
%FORMAT(5E16.8)                                                                 
  0.00000000E+00  0.00000000E+00  0.00000000E+00  0.00000000E+00  0.00000000E+00
  0.00000000E+00  0.00000000E+00  3.14159400E+00  3.14159400E+00  3.14159400E+00
  0.00000000E+00  3.14159400E+00  0.00000000E+00  0.00000000E+00  0.00000000E+00
  3.14159400E+00
%FLAG SCEE_SCALE_FACTOR                                                         
%FORMAT(5E16.8)                                                                 
  1.20000000E+00  1.20000000E+00  1.20000000E+00  1.20000000E+00  1.20000000E+00
  1.20000000E+00  1.20000000E+00  1.20000000E+00  1.20000000E+00  1.20000000E+00
  1.20000000E+00  1.20000000E+00  1.20000000E+00  1.20000000E+00  1.20000000E+00
  0.00000000E+00
%FLAG SCNB_SCALE_FACTOR                                                         
%FORMAT(5E16.8)                                                                 
  2.00000000E+00  2.00000000E+00  2.00000000E+00  2.00000000E+00  2.00000000E+00
  2.00000000E+00  2.00000000E+00  2.00000000E+00  2.00000000E+00  2.00000000E+00
  2.00000000E+00  2.00000000E+00  2.00000000E+00  2.00000000E+00  2.00000000E+00
  0.00000000E+00
%FLAG SOLTY                                                                     
%FORMAT(5E16.8)                                                                 
  0.00000000E+00  0.00000000E+00  0.00000000E+00  0.00000000E+00  0.00000000E+00
  0.00000000E+00  0.00000000E+00  0.00000000E+00  0.00000000E+00
%FLAG LENNARD_JONES_ACOEF                                                       
%FORMAT(5E16.8)                                                                 
  5.03152404E+05  7.18991463E+05  1.02073671E+06  5.92438683E+05  8.43969952E+05
  6.96551276E+05  6.80216136E+04  1.00235148E+05  8.12662403E+04  7.94617769E+03
  6.30298721E+04  9.27554496E+04  7.52549148E+04  7.41026906E+03  6.90855956E+03
  4.69084694E+04  6.97998263E+04  5.63013422E+04  5.22955465E+03  4.88692384E+03
  3.39005767E+03  1.74176419E+02  3.03553352E+02  2.25372434E+02  8.80612241E+00
  8.53132435E+00  4.36660257E+00  1.10360882E-05
%FLAG LENNARD_JONES_BCOEF                                                       
%FORMAT(5E16.8)                                                                 
  4.32634597E+02  5.36620538E+02  6.63431737E+02  4.76608379E+02  5.90251928E+02
  5.24668528E+02  1.09393126E+02  1.37787728E+02  1.21392023E+02  2.57122925E+01
  9.87712192E+01  1.24325688E+02  1.09570372E+02  2.32899892E+01  2.10929191E+01
  9.08431526E+01  1.14981426E+02  1.01040256E+02  2.08590256E+01  1.89134207E+01
  1.67944276E+01  3.81654050E+00  5.22789272E+00  4.40751799E+00  5.90150328E-01
  5.44840215E-01  4.15568027E-01  4.55498033E-04
%FLAG BONDS_INC_HYDROGEN                                                        
%FORMAT(10I8)                                                                   
       0     192       2       6      84       6       9      87       8      12
      90       8      15      93       6      18      96       8      18      99
       8      24     102       6      24     105       6      27     108       8
      27     111       8      30     114       6      30     117       6      33
     120       8      33     123       8      36     126      12      39     129
      12      39     132      12      39     135      12      45     138       8
      45     141       8      48     144      14      51     147      12      51
     150      12      51     153      12      54     156       8      54     159
       8      57     162       8      57     165       8      60     168      12
      60     171      12      63     174      15      66     177      12      66
     180      12      66     183      12      69     186      12      69     189
      12      72     195      14      78     198      12      78     201      12
      78     204      12      81     207      12      81     210      12      81
     213      12
%FLAG BONDS_WITHOUT_HYDROGEN                                                    
%FORMAT(10I8)                                                                   
       0      63       1       3       6       3       3      15       3       3
      18       4       3      39       5       6       9       4       6      24
       3       9      12       7       9      33       7      12      21       7
      12      27       7      15      30       3      15      36       5      18
      27       7      21      42       9      21      45       7      21      51
      10      24      30       3      33      48       9      36      60      11
      36      66      11      42      48      13      42      54       9      45
      57       7      54      63       7      57      63       7      60      69
      11      69      72      16      72      75      13      75      78      16
      75      81      16
%FLAG ANGLES_INC_HYDROGEN                                                       
%FORMAT(10I8)                                                                   
       0      63     174       2       3       6      84       5       3      15
      93       5       3      18      96       8       3      18      99       8
       3      39     129       9       3      39     132       9       3      39
     135       9       6       9      87       8       6      24     102       5
       6      24     105       5       9       6      84      10       9      12
      90      12       9      33     120      12       9      33     123      12
      12       9      87      12      12      27     108      12      12      27
     111      12      15      30     114       5      15      30     117       5
      15      36     126       9      18      27     108      12      18      27
     111      12      21      12      90      12      21      45     138      12
      21      45     141      12      21      51     147      19      21      51
     150      19      21      51     153      19      24       6      84       5
      24      30     114       5      24      30     117       5      27      12
      90      12      27      18      96      12      27      18      99      12
      30      15      93       5      30      24     102       5      30      24
     105       5      33       9      87      12      33      48     144      20
      36      15      93      21      36      60     168      23      36      60
     171      23      36      66     177      23      36      66     180      23
      36      66     183      23      42      48     144      25      42      54
     156      26      42      54     159      26      45      57     162      12
      45      57     165      12      48      33     120      26      48      33
     123      26      54      63     174      27      57      45     138      12
      57      45     141      12      57      63     174      27      60      36
     126      23      60      69     186      23      60      69     189      23
      63       0     192      29      63      54     156      12      63      54
     159      12      63      57     162      12      63      57     165      12
      66      36     126      23      69      60     168      23      69      60
     171      23      69      72     195      31      72      69     186      32
      72      69     189      32      75      72     195      25      75      78
     198      32      75      78     201      32      75      78     204      32
      75      81     207      32      75      81     210      32      75      81
     213      32      96      18      99      34     102      24     105      35
     108      27     111      34     114      30     117      35     120      33
     123      34     129      39     132      36     129      39     135      36
     132      39     135      36     138      45     141      34     147      51
     150      36     147      51     153      36     150      51     153      36
     156      54     159      34     162      57     165      34     168      60
     171      36     177      66     180      36     177      66     183      36
     180      66     183      36     186      69     189      36     198      78
     201      36     198      78     204      36     201      78     204      36
     207      81     210      36     207      81     213      36     210      81
     213      36
%FLAG ANGLES_WITHOUT_HYDROGEN                                                   
%FORMAT(10I8)                                                                   
       0      63      54       1       0      63      57       1       3       6
       9       3       3       6      24       4       3      15      30       4
       3      15      36       6       3      18      27       7       6       3
      15       4       6       3      18       3       6       3      39       6
       6       9      12       7       6       9      33       7       6      24
      30       4       9       6      24       3       9      12      21      11
       9      12      27      11       9      33      48      13      12       9
      33      11      12      21      42      13      12      21      45      11
      12      21      51      14      12      27      18      11      15       3
      18       3      15       3      39       6      15      30      24       4
      15      36      60      15      15      36      66      15      18       3
      39      16      21      12      27      11      21      42      48      17
      21      42      54      18      21      45      57      11      30      15
      36       6      33      48      42      17      36      60      69      22
      42      21      45      13      42      21      51      24      42      54
      63      13      45      21      51      14      45      57      63      11
      48      42      54      17      54      63      57      11      60      36
      66      22      60      69      72      28      69      72      75      30
      72      75      78      30      72      75      81      30      78      75
      81      33
%FLAG DIHEDRALS_INC_HYDROGEN                                                    
%FORMAT(10I8)                                                                   
       0      63      54     156       2       0      63      54     159       2
       0      63      57     162       2       0      63      57     165       2
       3       6       9      87       5       3       6      24     102       5
       3       6      24     105       5       3      15      30     114       5
       3      15      30     117       5       3      15      36     126       5
       3      18      27     108       5       3      18      27     111       5
       6       3      15      93       5       6       3      18      96       5
       6       3      18      99       5       6       3      39     129       5
       6       3      39     132       5       6       3      39     135       5
       6       9      12      90       5       6       9      33     120       5
       6       9      33     123       5       6      24      30     114       5
       6      24      30     117       5       9       6      24     102       5
       9       6      24     105       5       9      12      27     108       5
       9      12      27     111       5       9      33      48     144       6
      12       9       6      84       5      12       9      33     120       5
      12       9      33     123       5      12      21      45     138       5
      12      21      45     141       5      12      21      51     147       5
      12      21      51     150       5      12      21      51     153       5
      12      27      18      96       5      12      27      18      99       5
      15       3       6      84       5      15       3      18      96       5
      15       3      18      99       5      15       3      39     129       5
      15       3      39     132       5      15       3      39     135       5
      15      30      24     102       5      15      30      24     105       5
      15      36      60     168       5      15      36      60     171       5
      15      36      66     177       5      15      36      66     180       5
      15      36      66     183       5      18       3       6      84       5
      18       3      15      93       5      18       3      39     129       5
      18       3      39     132       5      18       3      39     135       5
      18      27      12      90       5      21      12       9      87       5
      21      12      27     108       5      21      12      27     111       5
      21      42      48     144      10      21      42      54     156      11
      21      42      54     159      11      21      45      57     162       5
      21      45      57     165       5      24       6       9      87       5
      24      30      15      93       5      27      12       9      87       5
      30      15      36     126       5      30      24       6      84       5
      33       9       6      84       5      33       9      12      90       5
      36      15      30     114       5      36      15      30     117       5
      36      60      69     186       5      36      60      69     189       5
      39       3       6      84       5      39       3      15      93       5
      39       3      18      96       5      39       3      18      99       5
      42      21      12      90       1      42      21      45     138       1
      42      21      45     141       1      42      21      51     147       1
      42      21      51     150       1      42      21      51     153       1
      42      48      33     120      12      42      48      33     123      12
      42      54      63     174       1      45      21      12      90       5
      45      21      51     147       5      45      21      51     150       5
      45      21      51     153       5      45      57      63     174       1
      48      33       9      87       1      48      42      54     156      12
      48      42      54     159      12      51      21      12      90       5
      51      21      45     138       5      51      21      45     141       5
      54      42      48     144      10     192       0      63      54      13
      54      63      57     162       5      54      63      57     165       5
     192       0      63      57      13      57      63      54     156       5
      57      63      54     159       5      60      36      15      93       5
      60      36      66     177       5      60      36      66     180       5
      60      36      66     183       5      60      69      72     195       6
      63      57      45     138       5      63      57      45     141       5
      66      36      15      93       5      66      36      60     168       5
      66      36      60     171       5      69      60      36     126       5
      72      69      60     168       1      72      69      60     171       1
      72      75      78     198      12      72      75      78     201      12
      72      75      78     204      12      72      75      81     207      12
      72      75      81     210      12      72      75      81     213      12
      75      72      69     186      12      75      72      69     189      12
      78      75      72     195      10      78      75      81     207      11
      78      75      81     210      11      78      75      81     213      11
      81      75      72     195      10      81      75      78     198      11
      81      75      78     201      11      81      75      78     204      11
      84       6       9      87      14      84       6      24     102      14
      84       6      24     105      14      87       9      12      90      14
      87       9      33     120      14      87       9      33     123      14
      90      12      27     108      14      90      12      27     111      14
      93      15      30     114      14      93      15      30     117      14
      93      15      36     126      14      96      18      27     108      14
      96      18      27     111      14      99      18      27     108      14
      99      18      27     111      14     102      24      30     114      14
     102      24      30     117      14     105      24      30     114      14
     105      24      30     117      14     120      33      48     144       6
     123      33      48     144       6     126      36      60     168      14
     126      36      60     171      14     126      36      66     177      14
     126      36      66     180      14     126      36      66     183      14
     138      45      57     162      14     138      45      57     165      14
     141      45      57     162      14     141      45      57     165      14
     156      54      63     174       1     159      54      63     174       1
     162      57      63     174       1     165      57      63     174       1
     168      60      69     186      14     168      60      69     189      14
     171      60      69     186      14     171      60      69     189      14
     192       0      63     174      15     186      69      72     195       6
     189      69      72     195       6      42      33     -48    -144      16
      75      69     -72    -195      16
%FLAG DIHEDRALS_WITHOUT_HYDROGEN                                                
%FORMAT(10I8)                                                                   
       0      63      54      42       1       0      63      57      45       3
       3       6       9      12       4       3       6       9      33       4
       3       6     -24      30       4       3      15     -30      24       4
       3      15      36      60       4       3      15      36      66       4
       3      18     -27      12       4       6       3     -15      30       4
       6       3      15      36       4       6       3      18      27       4
       6       9      12      21       4       6       9     -12      27       4
       6       9      33      48       1       6      24     -30      15       4
       9       6       3      15       4       9       6       3      18       4
       9       6       3      39       4       9       6      24      30       4
       9      12      21      42       1       9      12      21      45       4
       9      12      21      51       4       9      12     -27      18       4
       9      33     -48      42       6      12       9       6      24       4
      12       9      33      48       1      12      21     -42      48       6
      12      21      42      54       6      12      21      45      57       4
      15       3      -6      24       4      15       3      18      27       4
      15      36      60      69       4      18       3       6      24       4
      18       3      15      30       4      18       3      15      36       4
      18      27      12      21       4      21      12       9      33       4
      21      42     -48      33       7      21      42     -48      33       8
      21      42     -48      33       9      21      42      54      63       6
      21      45     -57      63       4      24       6       3      39       4
      24       6       9      33       4      24      30      15      36       4
      27      12       9      33       4      27      12      21      42       1
      27      12      21      45       4      27      12      21      51       4
      27      18       3      39       4      30      15       3      39       4
      30      15      36      60       4      30      15      36      66       4
      33      48      42      54       7      33      48     -42      54       8
      33      48     -42      54       9      36      15       3      39       4
      36      60      69      72       1      42      21      45      57       1
      42      54     -63      57       1      45      21      42      48       6
      45      21      42      54       6      45      57     -63      54       4
      48      42      21      51       6      48      42      54      63       6
      51      21      42      54       6      51      21      45      57       4
      60      69      72      75       6      66      36      60      69       4
      69      72      75      78       7      69      72     -75      78       8
      69      72     -75      78       9      69      72      75      81       7
      69      72     -75      81       8      69      72     -75      81       9
      48      21     -42     -54      16      72      78     -75     -81      16
%FLAG EXCLUDED_ATOMS_LIST                                                       
%FORMAT(10I8)                                                                   
      15      16      19      20      22      53      54      55      56      59
      65       3       4       5       6       7       9      10      11      12
      13      14      21      23      29      30      32      33      34      35
      36      37      38      39      40      43      44      45      46       4
       5       6       7       8       9      10      11      12      13      14
      17      29      30      31      32      33      34      35      36      39
      40      41      42      44      45      46       5       6       7       8
       9      10      11      12      14      15      16      17      18      29
      30      31      35      36      37      38      41      42      49       7
       8       9      10      12      15      16      17      18      19      20
      29      30      31      33      34      37      38      41      42      47
      48      50      51      52       7       9      10      11      13      14
      21      23      24      29      32      33      34      35      36      39
      40      43      44      45      46      57      58      60      61      62
       8       9      10      11      13      14      29      31      32      33
      34      37      38      44      45      46      10      12      15      16
      17      18      19      20      22      30      31      37      38      47
      48      49      50      51      52      53      54      55      56      11
      12      13      14      29      30      32      35      36      39      40
      12      14      15      16      18      30      31      33      34      37
      38      13      14      21      23      29      32      35      36      39
      40      43      15      17      19      29      30      31      41      42
      49      14      21      23      24      25      32      39      40      43
      57      58      60      61      62      63      64      29      32      33
      34      44      45      46      16      17      18      19      20      22
      31      41      42      47      48      49      50      51      52      53
      54      59      17      18      19      20      22      31      47      48
      50      51      52      55      56      59      18      19      22      30
      41      42      49      53      54      19      20      31      47      48
      50      51      52      20      22      49      53      54      55      56
      59      65      22      47      48      53      54      55      56      59
      65      23      24      25      26      32      43      57      58      60
      61      62      63      64      66      47      48      53      54      55
      56      59      65      24      32      43      57      58      60      61
      62      25      26      27      28      43      57      58      63      64
      66      26      27      28      57      58      63      64      66      67
      68      69      70      71      72      27      28      63      64      66
      67      68      69      70      71      72      28      66      67      68
      69      70      71      72      66      67      68      69      70      71
      72      30      35      36      31      41      42      37      38      39
      40      43      34      37      38      37      38      36      39      40
      39      40      38       0      40       0      42      49      49      57
      58      60      61      62      45      46      46       0      48      55
      56      55      56       0      51      52      52       0      54      59
      59      56      59      59      58      63      64      63      64      65
      61      62      62       0      64      66      66       0       0      68
      69      69       0      71      72      72       0
%FLAG HBOND_ACOEF                                                               
%FORMAT(5E16.8)                                                                 

%FLAG HBOND_BCOEF                                                               
%FORMAT(5E16.8)                                                                 

%FLAG HBCUT                                                                     
%FORMAT(5E16.8)                                                                 

%FLAG AMBER_ATOM_TYPE                                                           
%FORMAT(20a4)                                                                   
oh  c5  c5  c6  c6  c5  c6  c6  c5  c6  c5  c6  c3  c3  c2  c6  c2  c3  c6  c6  
c3  c6  c3  c3  c2  c2  c3  c3  hc  hc  hc  hc  hc  hc  hc  hc  hc  hc  hc  hc  
hc  hc  hc  hc  hc  hc  hc  hc  ha  hc  hc  hc  hc  hc  hc  hc  hc  hc  h1  hc  
hc  hc  hc  hc  ho  ha  hc  hc  hc  hc  hc  hc  
%FLAG TREE_CHAIN_CLASSIFICATION                                                 
%FORMAT(20a4)                                                                   
BLA BLA BLA BLA BLA BLA BLA BLA BLA BLA BLA BLA BLA BLA BLA BLA BLA BLA BLA BLA 
BLA BLA BLA BLA BLA BLA BLA BLA BLA BLA BLA BLA BLA BLA BLA BLA BLA BLA BLA BLA 
BLA BLA BLA BLA BLA BLA BLA BLA BLA BLA BLA BLA BLA BLA BLA BLA BLA BLA BLA BLA 
BLA BLA BLA BLA BLA BLA BLA BLA BLA BLA BLA BLA 
%FLAG JOIN_ARRAY                                                                
%FORMAT(10I8)                                                                   
       0       0       0       0       0       0       0       0       0       0
       0       0       0       0       0       0       0       0       0       0
       0       0       0       0       0       0       0       0       0       0
       0       0       0       0       0       0       0       0       0       0
       0       0       0       0       0       0       0       0       0       0
       0       0       0       0       0       0       0       0       0       0
       0       0       0       0       0       0       0       0       0       0
       0       0
%FLAG IROTAT                                                                    
%FORMAT(10I8)                                                                   
       0       0       0       0       0       0       0       0       0       0
       0       0       0       0       0       0       0       0       0       0
       0       0       0       0       0       0       0       0       0       0
       0       0       0       0       0       0       0       0       0       0
       0       0       0       0       0       0       0       0       0       0
       0       0       0       0       0       0       0       0       0       0
       0       0       0       0       0       0       0       0       0       0
       0       0
%FLAG RADIUS_SET                                                                
%FORMAT(1a80)                                                                   
modified Bondi radii (mbondi)                                                   
%FLAG RADII                                                                     
%FORMAT(5E16.8)                                                                 
  1.50000000E+00  1.70000000E+00  1.70000000E+00  1.50000000E+00  1.50000000E+00
  1.70000000E+00  1.50000000E+00  1.50000000E+00  1.70000000E+00  1.50000000E+00
  1.70000000E+00  1.50000000E+00  1.70000000E+00  1.70000000E+00  1.70000000E+00
  1.50000000E+00  1.70000000E+00  1.70000000E+00  1.50000000E+00  1.50000000E+00
  1.70000000E+00  1.50000000E+00  1.70000000E+00  1.70000000E+00  1.70000000E+00
  1.70000000E+00  1.70000000E+00  1.70000000E+00  1.30000000E+00  1.30000000E+00
  1.30000000E+00  1.30000000E+00  1.30000000E+00  1.30000000E+00  1.30000000E+00
  1.30000000E+00  1.30000000E+00  1.30000000E+00  1.30000000E+00  1.30000000E+00
  1.30000000E+00  1.30000000E+00  1.30000000E+00  1.30000000E+00  1.30000000E+00
  1.30000000E+00  1.30000000E+00  1.30000000E+00  1.30000000E+00  1.30000000E+00
  1.30000000E+00  1.30000000E+00  1.30000000E+00  1.30000000E+00  1.30000000E+00
  1.30000000E+00  1.30000000E+00  1.30000000E+00  1.30000000E+00  1.30000000E+00
  1.30000000E+00  1.30000000E+00  1.30000000E+00  1.30000000E+00  8.00000000E-01
  1.30000000E+00  1.30000000E+00  1.30000000E+00  1.30000000E+00  1.30000000E+00
  1.30000000E+00  1.30000000E+00
%FLAG SCREEN                                                                    
%FORMAT(5E16.8)                                                                 
  8.50000000E-01  7.20000000E-01  7.20000000E-01  8.00000000E-01  8.00000000E-01
  7.20000000E-01  8.00000000E-01  8.00000000E-01  7.20000000E-01  8.00000000E-01
  7.20000000E-01  8.00000000E-01  7.20000000E-01  7.20000000E-01  7.20000000E-01
  8.00000000E-01  7.20000000E-01  7.20000000E-01  8.00000000E-01  8.00000000E-01
  7.20000000E-01  8.00000000E-01  7.20000000E-01  7.20000000E-01  7.20000000E-01
  7.20000000E-01  7.20000000E-01  7.20000000E-01  8.50000000E-01  8.50000000E-01
  8.50000000E-01  8.50000000E-01  8.50000000E-01  8.50000000E-01  8.50000000E-01
  8.50000000E-01  8.50000000E-01  8.50000000E-01  8.50000000E-01  8.50000000E-01
  8.50000000E-01  8.50000000E-01  8.50000000E-01  8.50000000E-01  8.50000000E-01
  8.50000000E-01  8.50000000E-01  8.50000000E-01  8.50000000E-01  8.50000000E-01
  8.50000000E-01  8.50000000E-01  8.50000000E-01  8.50000000E-01  8.50000000E-01
  8.50000000E-01  8.50000000E-01  8.50000000E-01  8.50000000E-01  8.50000000E-01
  8.50000000E-01  8.50000000E-01  8.50000000E-01  8.50000000E-01  8.50000000E-01
  8.50000000E-01  8.50000000E-01  8.50000000E-01  8.50000000E-01  8.50000000E-01
  8.50000000E-01  8.50000000E-01
%FLAG IPOL                                                                      
%FORMAT(1I8)                                                                    
       0
