; mannose_GMX_OPLS.top created by acpype (v: 2023.10.27) on Mon Feb  9 17:54:12 2026

; Include forcefield parameters
#include "ffoplsaa.itp"

; Include mannose_GMX.itp topology
#include "mannose_GMX.itp"

; Ligand position restraints
#ifdef POSRES_LIG
#include "posre_mannose.itp"
#endif

[ system ]
 mannose

[ molecules ]
; Compound        nmols
 mannose          1     
