18950
    24
  -0.6720000   1.1270000   0.0820000  -0.5980000  -2.5240000  -0.3180000
   2.1890000  -1.8650000   0.0630000   1.8600000   0.6420000   1.2420000
   0.9540000   2.7790000  -0.2880000  -3.3710000   0.6630000   0.0690000
  -0.1410000  -1.2570000   0.1490000   1.2280000  -0.9540000  -0.4630000
  -1.1580000  -0.1780000  -0.2480000   1.6510000   0.4850000  -0.1650000
   0.5450000   1.4490000  -0.5950000  -2.4890000  -0.3680000   0.4720000
  -0.0540000  -1.3300000   1.2400000   1.2000000  -1.1110000  -1.5480000
  -1.3530000  -0.2050000  -1.3290000   2.6040000   0.7230000  -0.6480000
   0.3770000   1.4030000  -1.6760000  -2.3690000  -0.2990000   1.5590000
  -2.9470000  -1.3310000   0.2290000  -0.6810000  -2.4750000  -1.2850000
   1.8730000  -2.7640000  -0.1290000   0.9950000   0.6180000   1.6850000
   1.4610000   2.7560000   0.5410000  -2.9530000   1.5120000   0.2900000
