; mannose_GMX.top created by acpype (v: 2023.10.27) on Mon Feb  9 17:54:12 2026

[ defaults ]
; nbfunc        comb-rule       gen-pairs       fudgeLJ fudgeQQ
1               2               yes             0.5     0.8333333333

; Include mannose_GMX.itp topology
#include "mannose_GMX.itp"

; Ligand position restraints
#ifdef POSRES_LIG
#include "posre_mannose.itp"
#endif

[ system ]
 mannose

[ molecules ]
; Compound        nmols
 mannose          1     
