mannose_GMX.gro created by acpype (v: 2023.10.27) on Mon Feb  9 17:54:12 2026
 24
    1  UNL    O    1  -0.067   0.113   0.008
    1  UNL   O1    2  -0.060  -0.252  -0.032
    1  UNL   O2    3   0.219  -0.186   0.006
    1  UNL   O3    4   0.186   0.064   0.124
    1  UNL   O4    5   0.095   0.278  -0.029
    1  UNL   O5    6  -0.337   0.066   0.007
    1  UNL    C    7  -0.014  -0.126   0.015
    1  UNL   C1    8   0.123  -0.095  -0.046
    1  UNL   C2    9  -0.116  -0.018  -0.025
    1  UNL   C3   10   0.165   0.049  -0.017
    1  UNL   C4   11   0.055   0.145  -0.059
    1  UNL   C5   12  -0.249  -0.037   0.047
    1  UNL    H   13  -0.005  -0.133   0.124
    1  UNL   H1   14   0.120  -0.111  -0.155
    1  UNL   H2   15  -0.135  -0.021  -0.133
    1  UNL   H3   16   0.260   0.072  -0.065
    1  UNL   H4   17   0.038   0.140  -0.168
    1  UNL   H5   18  -0.237  -0.030   0.156
    1  UNL   H6   19  -0.295  -0.133   0.023
    1  UNL   H7   20  -0.068  -0.248  -0.129
    1  UNL   H8   21   0.187  -0.276  -0.013
    1  UNL   H9   22   0.100   0.062   0.169
    1  UNL  H10   23   0.146   0.276   0.054
    1  UNL  H11   24  -0.295   0.151   0.029
   11.95000    11.08600     6.72200
