benzocaine_GMX.gro created by acpype (v: 2023.10.27) on Mon Feb  9 17:30:37 2026
 23
    1  UNL    O    1  -0.211  -0.036   0.000
    1  UNL   O1    2  -0.171   0.191   0.000
    1  UNL    N    3   0.416  -0.073  -0.000
    1  UNL    C    4   0.011   0.036   0.000
    1  UNL   C1    5   0.110   0.135  -0.000
    1  UNL   C2    6   0.047  -0.099   0.000
    1  UNL   C3    7   0.280  -0.036  -0.000
    1  UNL   C4    8   0.244   0.098  -0.000
    1  UNL   C5    9   0.181  -0.135   0.000
    1  UNL   C6   10  -0.130   0.074   0.000
    1  UNL   C7   11  -0.352  -0.011  -0.000
    1  UNL   C8   12  -0.425  -0.144  -0.000
    1  UNL    H   13   0.084   0.240  -0.000
    1  UNL   H1   14  -0.027  -0.179   0.000
    1  UNL   H2   15   0.320   0.176  -0.000
    1  UNL   H3   16   0.208  -0.240   0.000
    1  UNL   H4   17  -0.380   0.046   0.089
    1  UNL   H5   18  -0.379   0.046  -0.090
    1  UNL   H6   19  -0.534  -0.129  -0.000
    1  UNL   H7   20  -0.398  -0.203  -0.088
    1  UNL   H8   21  -0.398  -0.203   0.088
    1  UNL   H9   22   0.442  -0.171   0.000
    1  UNL  H10   23   0.488  -0.002  -0.000
   20.43400     9.61000     3.57600
