; benzocaine_GMX.itp created by acpype (v: 2023.10.27) on Mon Feb  9 17:30:37 2026

[ atomtypes ]
;name   bond_type     mass     charge   ptype   sigma         epsilon       Amb
 os       os          0.00000  0.00000   A     3.15610e-01   3.03758e-01 ; 1.77  0.0726
 o        o           0.00000  0.00000   A     3.04812e-01   6.12119e-01 ; 1.71  0.1463
 nv       nv          0.00000  0.00000   A     3.36813e-01   4.68608e-01 ; 1.89  0.1120
 ca       ca          0.00000  0.00000   A     3.31521e-01   4.13379e-01 ; 1.86  0.0988
 c        c           0.00000  0.00000   A     3.31521e-01   4.13379e-01 ; 1.86  0.0988
 c3       c3          0.00000  0.00000   A     3.39771e-01   4.51035e-01 ; 1.91  0.1078
 ha       ha          0.00000  0.00000   A     2.62548e-01   6.73624e-02 ; 1.47  0.0161
 h1       h1          0.00000  0.00000   A     2.42200e-01   8.70272e-02 ; 1.36  0.0208
 hc       hc          0.00000  0.00000   A     2.60018e-01   8.70272e-02 ; 1.46  0.0208
 hn       hn          0.00000  0.00000   A     1.10650e-01   4.18400e-02 ; 0.62  0.0100

[ moleculetype ]
;name            nrexcl
 benzocaine       3

[ atoms ]
;   nr  type  resi  res  atom  cgnr     charge      mass       ; qtot   bond_type
     1   os     1   UNL     O    1    -0.445900     16.00000 ; qtot -0.446
     2    o     1   UNL    O1    2    -0.557000     16.00000 ; qtot -1.003
     3   nv     1   UNL     N    3    -0.833201     14.01000 ; qtot -1.836
     4   ca     1   UNL     C    4    -0.189600     12.01000 ; qtot -2.026
     5   ca     1   UNL    C1    5    -0.027500     12.01000 ; qtot -2.053
     6   ca     1   UNL    C2    6    -0.027500     12.01000 ; qtot -2.081
     7   ca     1   UNL    C3    7     0.191600     12.01000 ; qtot -1.889
     8   ca     1   UNL    C4    8    -0.221000     12.01000 ; qtot -2.110
     9   ca     1   UNL    C5    9    -0.221000     12.01000 ; qtot -2.331
    10    c     1   UNL    C6   10     0.654700     12.01000 ; qtot -1.676
    11   c3     1   UNL    C7   11     0.140400     12.01000 ; qtot -1.536
    12   c3     1   UNL    C8   12    -0.100100     12.01000 ; qtot -1.636
    13   ha     1   UNL     H   13     0.154000      1.00800 ; qtot -1.482
    14   ha     1   UNL    H1   14     0.154000      1.00800 ; qtot -1.328
    15   ha     1   UNL    H2   15     0.137500      1.00800 ; qtot -1.191
    16   ha     1   UNL    H3   16     0.137500      1.00800 ; qtot -1.053
    17   h1     1   UNL    H4   17     0.051200      1.00800 ; qtot -1.002
    18   h1     1   UNL    H5   18     0.051200      1.00800 ; qtot -0.951
    19   hc     1   UNL    H6   19     0.046367      1.00800 ; qtot -0.904
    20   hc     1   UNL    H7   20     0.046367      1.00800 ; qtot -0.858
    21   hc     1   UNL    H8   21     0.046367      1.00800 ; qtot -0.812
    22   hn     1   UNL    H9   22     0.405800      1.00800 ; qtot -0.406
    23   hn     1   UNL   H10   23     0.405800      1.00800 ; qtot 0.000

[ bonds ]
;   ai     aj funct   r             k
     1     10   1    1.3621e-01    2.9398e+05 ;      O - C6    
     1     11   1    1.4273e-01    2.3620e+05 ;      O - C7    
     2     10   1    1.2190e-01    4.9421e+05 ;     O1 - C6    
     3      7   1    1.3744e-01    2.8644e+05 ;      N - C3    
     3     22   1    1.0114e-01    3.9961e+05 ;      N - H9    
     3     23   1    1.0114e-01    3.9961e+05 ;      N - H10   
     4      5   1    1.3986e-01    2.9644e+05 ;      C - C1    
     4      6   1    1.3986e-01    2.9644e+05 ;      C - C2    
     4     10   1    1.4907e-01    2.1994e+05 ;      C - C6    
     5      8   1    1.3986e-01    2.9644e+05 ;     C1 - C4    
     5     13   1    1.0860e-01    3.0183e+05 ;     C1 - H     
     6      9   1    1.3986e-01    2.9644e+05 ;     C2 - C5    
     6     14   1    1.0860e-01    3.0183e+05 ;     C2 - H1    
     7      8   1    1.3986e-01    2.9644e+05 ;     C3 - C4    
     7      9   1    1.3986e-01    2.9644e+05 ;     C3 - C5    
     8     15   1    1.0860e-01    3.0183e+05 ;     C4 - H2    
     9     16   1    1.0860e-01    3.0183e+05 ;     C5 - H3    
    11     12   1    1.5354e-01    1.9154e+05 ;     C7 - C8    
    11     17   1    1.0969e-01    2.8804e+05 ;     C7 - H4    
    11     18   1    1.0969e-01    2.8804e+05 ;     C7 - H5    
    12     19   1    1.0962e-01    2.8891e+05 ;     C8 - H6    
    12     20   1    1.0962e-01    2.8891e+05 ;     C8 - H7    
    12     21   1    1.0962e-01    2.8891e+05 ;     C8 - H8    

[ pairs ]
;   ai     aj    funct
     1      5      1 ;      O - C1    
     1      6      1 ;      O - C2    
     1     19      1 ;      O - H6    
     1     20      1 ;      O - H7    
     1     21      1 ;      O - H8    
     2      5      1 ;     O1 - C1    
     2      6      1 ;     O1 - C2    
     3      5      1 ;      N - C1    
     3      6      1 ;      N - C2    
     3     15      1 ;      N - H2    
     3     16      1 ;      N - H3    
     4      7      1 ;      C - C3    
     4     15      1 ;      C - H2    
     4     16      1 ;      C - H3    
     5      9      1 ;     C1 - C5    
     5     14      1 ;     C1 - H1    
     6      8      1 ;     C2 - C4    
     6     13      1 ;     C2 - H     
     7     13      1 ;     C3 - H     
     7     14      1 ;     C3 - H1    
     8     10      1 ;     C4 - C6    
     8     16      1 ;     C4 - H3    
     8     22      1 ;     C4 - H9    
     8     23      1 ;     C4 - H10   
     9     10      1 ;     C5 - C6    
     9     15      1 ;     C5 - H2    
     9     22      1 ;     C5 - H9    
     9     23      1 ;     C5 - H10   
    10     12      1 ;     C6 - C8    
    10     13      1 ;     C6 - H     
    10     14      1 ;     C6 - H1    
    10     17      1 ;     C6 - H4    
    10     18      1 ;     C6 - H5    
    11      2      1 ;     C7 - O1    
    11      4      1 ;     C7 - C     
    13     15      1 ;      H - H2    
    14     16      1 ;     H1 - H3    
    17     19      1 ;     H4 - H6    
    17     20      1 ;     H4 - H7    
    17     21      1 ;     H4 - H8    
    18     19      1 ;     H5 - H6    
    18     20      1 ;     H5 - H7    
    18     21      1 ;     H5 - H8    

[ angles ]
;   ai     aj     ak    funct   theta         cth
     1     10      2      1    1.2320e+02    8.4734e+02 ;      O - C6     - O1    
     1     10      4      1    1.1241e+02    6.5756e+02 ;      O - C6     - C     
     1     11     12      1    1.0762e+02    6.4802e+02 ;      O - C7     - C8    
     1     11     17      1    1.1034e+02    4.7028e+02 ;      O - C7     - H4    
     1     11     18      1    1.1034e+02    4.7028e+02 ;      O - C7     - H5    
     2     10      4      1    1.2260e+02    6.5237e+02 ;     O1 - C6     - C     
     3      7      8      1    1.2094e+02    5.6827e+02 ;      N - C3     - C4    
     3      7      9      1    1.2094e+02    5.6827e+02 ;      N - C3     - C5    
     4      5      8      1    1.2002e+02    5.3279e+02 ;      C - C1     - C4    
     4      5     13      1    1.1988e+02    3.7572e+02 ;      C - C1     - H     
     4      6      9      1    1.2002e+02    5.3279e+02 ;      C - C2     - C5    
     4      6     14      1    1.1988e+02    3.7572e+02 ;      C - C2     - H1    
     5      4      6      1    1.2002e+02    5.3279e+02 ;     C1 - C      - C2    
     5      4     10      1    1.2033e+02    5.1413e+02 ;     C1 - C      - C6    
     5      8      7      1    1.2002e+02    5.3279e+02 ;     C1 - C4     - C3    
     5      8     15      1    1.1988e+02    3.7572e+02 ;     C1 - C4     - H2    
     6      4     10      1    1.2033e+02    5.1413e+02 ;     C2 - C      - C6    
     6      9      7      1    1.2002e+02    5.3279e+02 ;     C2 - C5     - C3    
     6      9     16      1    1.1988e+02    3.7572e+02 ;     C2 - C5     - H3    
     7      3     22      1    1.1673e+02    4.8292e+02 ;     C3 - N      - H9    
     7      3     23      1    1.1673e+02    4.8292e+02 ;     C3 - N      - H10   
     7      8     15      1    1.1988e+02    3.7572e+02 ;     C3 - C4     - H2    
     7      9     16      1    1.1988e+02    3.7572e+02 ;     C3 - C5     - H3    
     8      5     13      1    1.1988e+02    3.7572e+02 ;     C4 - C1     - H     
     8      7      9      1    1.2002e+02    5.3279e+02 ;     C4 - C3     - C5    
     9      6     14      1    1.1988e+02    3.7572e+02 ;     C5 - C2     - H1    
    10      1     11      1    1.1582e+02    7.4835e+02 ;     C6 - O      - C7    
    11     12     19      1    1.0968e+02    3.6208e+02 ;     C7 - C8     - H6    
    11     12     20      1    1.0968e+02    3.6208e+02 ;     C7 - C8     - H7    
    11     12     21      1    1.0968e+02    3.6208e+02 ;     C7 - C8     - H8    
    12     11     17      1    1.0959e+02    3.6217e+02 ;     C8 - C7     - H4    
    12     11     18      1    1.0959e+02    3.6217e+02 ;     C8 - C7     - H5    
    17     11     18      1    1.0855e+02    2.9824e+02 ;     H4 - C7     - H5    
    19     12     20      1    1.0773e+02    2.9957e+02 ;     H6 - C8     - H7    
    19     12     21      1    1.0773e+02    2.9957e+02 ;     H6 - C8     - H8    
    20     12     21      1    1.0773e+02    2.9957e+02 ;     H7 - C8     - H8    
    22      3     23      1    1.1528e+02    3.8794e+02 ;     H9 - N      - H10   

[ dihedrals ] ; propers
; for gromacs 4.5 or higher, using funct 9
;    i      j      k      l   func   phase     kd      pn
     1     10      4      5      9   180.00   4.18400   2 ;      O-    C6-     C-    C1
     1     10      4      6      9   180.00   4.18400   2 ;      O-    C6-     C-    C2
     1     11     12     19      9     0.00   0.00000   0 ;      O-    C7-    C8-    H6
     1     11     12     19      9     0.00   1.04600   1 ;      O-    C7-    C8-    H6
     1     11     12     20      9     0.00   0.00000   0 ;      O-    C7-    C8-    H7
     1     11     12     20      9     0.00   1.04600   1 ;      O-    C7-    C8-    H7
     1     11     12     21      9     0.00   0.00000   0 ;      O-    C7-    C8-    H8
     1     11     12     21      9     0.00   1.04600   1 ;      O-    C7-    C8-    H8
     2     10      4      5      9   180.00   2.42672   2 ;     O1-    C6-     C-    C1
     2     10      4      6      9   180.00   2.42672   2 ;     O1-    C6-     C-    C2
     3      7      8      5      9   180.00  15.16700   2 ;      N-    C3-    C4-    C1
     3      7      8     15      9   180.00  15.16700   2 ;      N-    C3-    C4-    H2
     3      7      9      6      9   180.00  15.16700   2 ;      N-    C3-    C5-    C2
     3      7      9     16      9   180.00  15.16700   2 ;      N-    C3-    C5-    H3
     4      5      8      7      9   180.00  15.16700   2 ;      C-    C1-    C4-    C3
     4      5      8     15      9   180.00  15.16700   2 ;      C-    C1-    C4-    H2
     4      6      9      7      9   180.00  15.16700   2 ;      C-    C2-    C5-    C3
     4      6      9     16      9   180.00  15.16700   2 ;      C-    C2-    C5-    H3
     5      4      6      9      9   180.00  15.16700   2 ;     C1-     C-    C2-    C5
     5      4      6     14      9   180.00  15.16700   2 ;     C1-     C-    C2-    H1
     5      8      7      9      9   180.00  15.16700   2 ;     C1-    C4-    C3-    C5
     6      4      5      8      9   180.00  15.16700   2 ;     C2-     C-    C1-    C4
     6      4      5     13      9   180.00  15.16700   2 ;     C2-     C-    C1-     H
     6      9      7      8      9   180.00  15.16700   2 ;     C2-    C5-    C3-    C4
     7      8      5     13      9   180.00  15.16700   2 ;     C3-    C4-    C1-     H
     7      9      6     14      9   180.00  15.16700   2 ;     C3-    C5-    C2-    H1
     8      5      4     10      9   180.00  15.16700   2 ;     C4-    C1-     C-    C6
     8      7      3     22      9   180.00   4.39320   2 ;     C4-    C3-     N-    H9
     8      7      3     23      9   180.00   4.39320   2 ;     C4-    C3-     N-   H10
     8      7      9     16      9   180.00  15.16700   2 ;     C4-    C3-    C5-    H3
     9      6      4     10      9   180.00  15.16700   2 ;     C5-    C2-     C-    C6
     9      7      3     22      9   180.00   4.39320   2 ;     C5-    C3-     N-    H9
     9      7      3     23      9   180.00   4.39320   2 ;     C5-    C3-     N-   H10
     9      7      8     15      9   180.00  15.16700   2 ;     C5-    C3-    C4-    H2
    10      1     11     12      9     0.00   1.60247   3 ;     C6-     O-    C7-    C8
    10      1     11     12      9   180.00   3.34720   1 ;     C6-     O-    C7-    C8
    10      1     11     17      9     0.00   1.60387   3 ;     C6-     O-    C7-    H4
    10      1     11     18      9     0.00   1.60387   3 ;     C6-     O-    C7-    H5
    10      4      5     13      9   180.00  15.16700   2 ;     C6-     C-    C1-     H
    10      4      6     14      9   180.00  15.16700   2 ;     C6-     C-    C2-    H1
    11      1     10      2      9   180.00   5.85760   1 ;     C7-     O-    C6-    O1
    11      1     10      2      9   180.00  11.29680   2 ;     C7-     O-    C6-    O1
    11      1     10      4      9     0.00   1.29704   3 ;     C7-     O-    C6-     C
    11      1     10      4      9   180.00   6.69440   1 ;     C7-     O-    C6-     C
    11      1     10      4      9   180.00  15.35528   2 ;     C7-     O-    C6-     C
    13      5      8     15      9   180.00  15.16700   2 ;      H-    C1-    C4-    H2
    14      6      9     16      9   180.00  15.16700   2 ;     H1-    C2-    C5-    H3
    17     11     12     19      9     0.00   0.65084   3 ;     H4-    C7-    C8-    H6
    17     11     12     20      9     0.00   0.65084   3 ;     H4-    C7-    C8-    H7
    17     11     12     21      9     0.00   0.65084   3 ;     H4-    C7-    C8-    H8
    18     11     12     19      9     0.00   0.65084   3 ;     H5-    C7-    C8-    H6
    18     11     12     20      9     0.00   0.65084   3 ;     H5-    C7-    C8-    H7
    18     11     12     21      9     0.00   0.65084   3 ;     H5-    C7-    C8-    H8

[ dihedrals ] ; impropers
; treated as propers in GROMACS to use correct AMBER analytical function
;    i      j      k      l   func   phase     kd      pn
     1     10      2      4      4   180.00   4.60240   2 ;      O-    C6-    O1-     C
     4      8      5     13      4   180.00   4.60240   2 ;      C-    C4-    C1-     H
     4      9      6     14      4   180.00   4.60240   2 ;      C-    C5-    C2-    H1
     5      7      8     15      4   180.00   4.60240   2 ;     C1-    C3-    C4-    H2
     6      7      9     16      4   180.00   4.60240   2 ;     C2-    C3-    C5-    H3
     7     22      3     23      4   180.00   4.60240   2 ;     C3-    H9-     N-   H10
     8      9      7      3      4   180.00   4.60240   2 ;     C4-    C5-    C3-     N
    10      5      4      6      4   180.00   4.60240   2 ;     C6-    C1-     C-    C2
