%VERSION  VERSION_STAMP = V0001.000  DATE = 02/09/26  17:30:40                  
%FLAG TITLE                                                                     
%FORMAT(20a4)                                                                   
2337                                                                            
%FLAG POINTERS                                                                  
%FORMAT(10I8)                                                                   
      23       9      11      12      22      15      37      24       0       0
     107       1      12      15      24      11      16      16      10       0
       0       0       0       0       0       0       0       0      23       0
       0
%FLAG ATOM_NAME                                                                 
%FORMAT(20a4)                                                                   
O   O1  N   C   C1  C2  C3  C4  C5  C6  C7  C8  H   H1  H2  H3  H4  H5  H6  H7  
H8  H9  H10 
%FLAG CHARGE                                                                    
%FORMAT(5E16.8)                                                                 
 -8.12532357E+00 -1.01498211E+01 -1.52374873E+01 -3.45494808E+00 -5.01113250E-01
 -5.01113250E-01  3.49139268E+00 -4.02712830E+00 -4.02712830E+00  1.19301398E+01
  2.55841092E+00 -1.82405223E+00  2.80623420E+00  2.80623420E+00  2.50556625E+00
  2.50556625E+00  9.32981760E-01  9.32981760E-01  8.44913384E-01  8.44913384E-01
  8.44913384E-01  7.39460934E+00  7.39460934E+00
%FLAG ATOMIC_NUMBER                                                             
%FORMAT(10I8)                                                                   
       8       8       7       6       6       6       6       6       6       6
       6       6       1       1       1       1       1       1       1       1
       1       1       1
%FLAG MASS                                                                      
%FORMAT(5E16.8)                                                                 
  1.60000000E+01  1.60000000E+01  1.40100000E+01  1.20100000E+01  1.20100000E+01
  1.20100000E+01  1.20100000E+01  1.20100000E+01  1.20100000E+01  1.20100000E+01
  1.20100000E+01  1.20100000E+01  1.00800000E+00  1.00800000E+00  1.00800000E+00
  1.00800000E+00  1.00800000E+00  1.00800000E+00  1.00800000E+00  1.00800000E+00
  1.00800000E+00  1.00800000E+00  1.00800000E+00
%FLAG ATOM_TYPE_INDEX                                                           
%FORMAT(10I8)                                                                   
       1       2       3       4       4       4       4       4       4       4
       5       5       6       6       6       6       7       7       8       8
       8       9       9
%FLAG NUMBER_EXCLUDED_ATOMS                                                     
%FORMAT(10I8)                                                                   
      12       5       9      11       8       7       8       7       6       6
       6       5       1       1       1       1       4       3       2       1
       1       1       1
%FLAG NONBONDED_PARM_INDEX                                                      
%FORMAT(10I8)                                                                   
       1       2       4       7      11      16      22      29      37       2
       3       5       8      12      17      23      30      38       4       5
       6       9      13      18      24      31      39       7       8       9
      10      14      19      25      32      40      11      12      13      14
      15      20      26      33      41      16      17      18      19      20
      21      27      34      42      22      23      24      25      26      27
      28      35      43      29      30      31      32      33      34      35
      36      44      37      38      39      40      41      42      43      44
      45
%FLAG RESIDUE_LABEL                                                             
%FORMAT(20a4)                                                                   
UNL 
%FLAG RESIDUE_POINTER                                                           
%FORMAT(10I8)                                                                   
       1
%FLAG BOND_FORCE_CONSTANT                                                       
%FORMAT(5E16.8)                                                                 
  3.51310000E+02  2.82270000E+02  5.90600000E+02  3.42300000E+02  4.77540000E+02
  3.54250000E+02  2.62840000E+02  3.60690000E+02  2.28890000E+02  3.44220000E+02
  3.45250000E+02
%FLAG BOND_EQUIL_VALUE                                                          
%FORMAT(5E16.8)                                                                 
  1.36210000E+00  1.42730000E+00  1.21900000E+00  1.37440000E+00  1.01140000E+00
  1.39860000E+00  1.49070000E+00  1.08600000E+00  1.53540000E+00  1.09690000E+00
  1.09620000E+00
%FLAG ANGLE_FORCE_CONSTANT                                                      
%FORMAT(5E16.8)                                                                 
  1.01260000E+02  7.85800000E+01  7.74400000E+01  5.62000000E+01  7.79600000E+01
  6.79100000E+01  6.36700000E+01  4.49000000E+01  6.14400000E+01  5.77100000E+01
  8.94300000E+01  4.32700000E+01  4.32800000E+01  3.56400000E+01  3.58000000E+01
  4.63600000E+01
%FLAG ANGLE_EQUIL_VALUE                                                         
%FORMAT(5E16.8)                                                                 
  2.15024656E+00  1.96192545E+00  1.87832415E+00  1.92579712E+00  2.13977458E+00
  2.11080210E+00  2.09474507E+00  2.09230160E+00  2.10015559E+00  2.03732371E+00
  2.02144121E+00  1.91427794E+00  1.91270715E+00  1.89455572E+00  1.88024401E+00
  2.01201642E+00
%FLAG DIHEDRAL_FORCE_CONSTANT                                                   
%FORMAT(5E16.8)                                                                 
  1.00000000E+00  2.50000000E-01  0.00000000E+00  1.40000000E+00  2.70000000E+00
  5.80000000E-01  3.62500000E+00  1.60000000E+00  3.67000000E+00  3.10000000E-01
  1.05000000E+00  8.00000000E-01  3.83000000E-01  3.83333333E-01  1.55555556E-01
  1.10000000E+00
%FLAG DIHEDRAL_PERIODICITY                                                      
%FORMAT(5E16.8)                                                                 
  2.00000000E+00  1.00000000E+00  3.00000000E+00  1.00000000E+00  2.00000000E+00
  2.00000000E+00  2.00000000E+00  1.00000000E+00  2.00000000E+00  3.00000000E+00
  2.00000000E+00  1.00000000E+00  3.00000000E+00  3.00000000E+00  3.00000000E+00
  2.00000000E+00
%FLAG DIHEDRAL_PHASE                                                            
%FORMAT(5E16.8)                                                                 
  3.14159400E+00  0.00000000E+00  0.00000000E+00  3.14159400E+00  3.14159400E+00
  3.14159400E+00  3.14159400E+00  3.14159400E+00  3.14159400E+00  0.00000000E+00
  3.14159400E+00  3.14159400E+00  0.00000000E+00  0.00000000E+00  0.00000000E+00
  3.14159400E+00
%FLAG SCEE_SCALE_FACTOR                                                         
%FORMAT(5E16.8)                                                                 
  1.20000000E+00  1.20000000E+00  1.20000000E+00  1.20000000E+00  1.20000000E+00
  1.20000000E+00  1.20000000E+00  1.20000000E+00  1.20000000E+00  1.20000000E+00
  1.20000000E+00  1.20000000E+00  1.20000000E+00  1.20000000E+00  1.20000000E+00
  0.00000000E+00
%FLAG SCNB_SCALE_FACTOR                                                         
%FORMAT(5E16.8)                                                                 
  2.00000000E+00  2.00000000E+00  2.00000000E+00  2.00000000E+00  2.00000000E+00
  2.00000000E+00  2.00000000E+00  2.00000000E+00  2.00000000E+00  2.00000000E+00
  2.00000000E+00  2.00000000E+00  2.00000000E+00  2.00000000E+00  2.00000000E+00
  0.00000000E+00
%FLAG SOLTY                                                                     
%FORMAT(5E16.8)                                                                 
  0.00000000E+00  0.00000000E+00  0.00000000E+00  0.00000000E+00  0.00000000E+00
  0.00000000E+00  0.00000000E+00  0.00000000E+00  0.00000000E+00  0.00000000E+00
%FLAG LENNARD_JONES_ACOEF                                                       
%FORMAT(5E16.8)                                                                 
  2.83662575E+05  3.27367585E+05  3.76435470E+05  5.23754919E+05  6.08567325E+05
  9.54875571E+05  4.46121722E+05  5.17507491E+05  8.15855629E+05  6.96551276E+05
  5.42502534E+05  6.30925504E+05  9.87370297E+05  8.43969952E+05  1.02073671E+06
  4.65732396E+04  5.27277400E+04  8.91217989E+04  7.52549148E+04  9.27554496E+04
  6.90855956E+03  3.44374471E+04  3.86646725E+04  6.69267216E+04  5.63013422E+04
  6.97998263E+04  4.88692384E+03  3.39005767E+03  5.02224902E+04  5.68021765E+04
  9.62844277E+04  8.12662403E+04  1.00235148E+05  7.41026906E+03  5.22955465E+03
  7.94617769E+03  9.46795083E+02  9.87857350E+02  2.10567903E+03  1.71458823E+03
  2.23577481E+03  9.04434904E+01  5.24570081E+01  9.47421632E+01  1.34728399E-01
%FLAG LENNARD_JONES_BCOEF                                                       
%FORMAT(5E16.8)                                                                 
  2.87011518E+02  3.67361018E+02  4.69350655E+02  4.34643024E+02  5.58212938E+02
  6.54052181E+02  3.88758656E+02  4.98871431E+02  5.85909304E+02  5.24668528E+02
  4.38146883E+02  5.62969425E+02  6.58763033E+02  5.90251928E+02  6.63431737E+02
  7.98066064E+01  1.01173582E+02  1.23036209E+02  1.09570372E+02  1.24325688E+02
  2.10929191E+01  7.31636661E+01  9.23664132E+01  1.13671113E+02  1.01040256E+02
  1.14981426E+02  1.89134207E+01  1.67944276E+01  8.83545880E+01  1.11953944E+02
  1.36341592E+02  1.21392023E+02  1.37787728E+02  2.32899892E+01  2.08590256E+01
  2.57122925E+01  1.01016461E+01  1.22938581E+01  1.67892226E+01  1.46824710E+01
  1.71355763E+01  2.14252117E+00  1.73959275E+00  2.33785449E+00  7.34107347E-02
%FLAG BONDS_INC_HYDROGEN                                                        
%FORMAT(10I8)                                                                   
       6      63       5       6      66       5      12      36       8      15
      39       8      21      42       8      24      45       8      30      48
      10      30      51      10      33      54      11      33      57      11
      33      60      11
%FLAG BONDS_WITHOUT_HYDROGEN                                                    
%FORMAT(10I8)                                                                   
       0      27       1       0      30       2       3      27       3       6
      18       4       9      12       6       9      15       6       9      27
       7      12      21       6      15      24       6      18      21       6
      18      24       6      30      33       9
%FLAG ANGLES_INC_HYDROGEN                                                       
%FORMAT(10I8)                                                                   
       0      30      48       4       0      30      51       4       9      12
      36       8       9      15      39       8      12      21      42       8
      15      24      45       8      18       6      63      10      18       6
      66      10      18      21      42       8      18      24      45       8
      21      12      36       8      24      15      39       8      30      33
      54      12      30      33      57      12      30      33      60      12
      33      30      48      13      33      30      51      13      48      30
      51      14      54      33      57      15      54      33      60      15
      57      33      60      15      63       6      66      16
%FLAG ANGLES_WITHOUT_HYDROGEN                                                   
%FORMAT(10I8)                                                                   
       0      27       3       1       0      27       9       2       0      30
      33       3       3      27       9       5       6      18      21       6
       6      18      24       6       9      12      21       7       9      15
      24       7      12       9      15       7      12       9      27       9
      12      21      18       7      15       9      27       9      15      24
      18       7      21      18      24       7      27       0      30      11
%FLAG DIHEDRALS_INC_HYDROGEN                                                    
%FORMAT(10I8)                                                                   
       0      30      33      54       2       0      30     -33      54       3
       0      30      33      57       2       0      30     -33      57       3
       0      30      33      60       2       0      30     -33      60       3
       6      18      21      42       7       6      18      24      45       7
       9      12      21      42       7       9      15      24      45       7
      12       9      15      39       7      15       9      12      36       7
      18      21      12      36       7      18      24      15      39       7
      21      18       6      63      11      21      18       6      66      11
      21      18      24      45       7      24      18       6      63      11
      24      18       6      66      11      24      18      21      42       7
      27       0      30      48      14      27       0      30      51      14
      27       9      12      36       7      27       9      15      39       7
      36      12      21      42       7      39      15      24      45       7
      48      30      33      54      15      48      30      33      57      15
      48      30      33      60      15      51      30      33      54      15
      51      30      33      57      15      51      30      33      60      15
      18      63      -6     -66      16       9      21     -12     -36      16
       9      24     -15     -39      16      12      18     -21     -42      16
      15      18     -24     -45      16
%FLAG DIHEDRALS_WITHOUT_HYDROGEN                                                
%FORMAT(10I8)                                                                   
       0      27       9      12       1       0      27       9      15       1
      30       0      27       3       4      30       0     -27       3       5
       3      27       9      12       6       3      27       9      15       6
       6      18      21      12       7       6      18      24      15       7
       9      12      21      18       7       9      15     -24      18       7
      30       0      27       9       8      30       0     -27       9       9
      30       0     -27       9      10      12       9      15      24       7
      12      21     -18      24       7      15       9      12      21       7
      15      24     -18      21       7      21      12       9      27       7
      24      15       9      27       7      27       0      30      33      12
      27       0     -30      33      13      27      12      -9     -15      16
      21      24     -18      -6      16       0      27      -3      -9      16
%FLAG EXCLUDED_ATOMS_LIST                                                       
%FORMAT(10I8)                                                                   
       2       4       5       6      10      11      12      17      18      19
      20      21       4       5       6      10      11       5       6       7
       8       9      15      16      22      23       5       6       7       8
       9      10      11      13      14      15      16       6       7       8
       9      10      13      14      15       7       8       9      10      13
      14      16       8       9      13      14      15      16      22      23
       9      10      13      15      16      22      23      10      14      15
      16      22      23      11      12      13      14      17      18      12
      17      18      19      20      21      17      18      19      20      21
      15      16       0       0      18      19      20      21      19      20
      21      20      21      21       0      23       0
%FLAG HBOND_ACOEF                                                               
%FORMAT(5E16.8)                                                                 

%FLAG HBOND_BCOEF                                                               
%FORMAT(5E16.8)                                                                 

%FLAG HBCUT                                                                     
%FORMAT(5E16.8)                                                                 

%FLAG AMBER_ATOM_TYPE                                                           
%FORMAT(20a4)                                                                   
os  o   nv  ca  ca  ca  ca  ca  ca  c   c3  c3  ha  ha  ha  ha  h1  h1  hc  hc  
hc  hn  hn  
%FLAG TREE_CHAIN_CLASSIFICATION                                                 
%FORMAT(20a4)                                                                   
BLA BLA BLA BLA BLA BLA BLA BLA BLA BLA BLA BLA BLA BLA BLA BLA BLA BLA BLA BLA 
BLA BLA BLA 
%FLAG JOIN_ARRAY                                                                
%FORMAT(10I8)                                                                   
       0       0       0       0       0       0       0       0       0       0
       0       0       0       0       0       0       0       0       0       0
       0       0       0
%FLAG IROTAT                                                                    
%FORMAT(10I8)                                                                   
       0       0       0       0       0       0       0       0       0       0
       0       0       0       0       0       0       0       0       0       0
       0       0       0
%FLAG RADIUS_SET                                                                
%FORMAT(1a80)                                                                   
modified Bondi radii (mbondi)                                                   
%FLAG RADII                                                                     
%FORMAT(5E16.8)                                                                 
  1.50000000E+00  1.50000000E+00  1.55000000E+00  1.70000000E+00  1.70000000E+00
  1.70000000E+00  1.70000000E+00  1.70000000E+00  1.70000000E+00  1.70000000E+00
  1.70000000E+00  1.70000000E+00  1.30000000E+00  1.30000000E+00  1.30000000E+00
  1.30000000E+00  1.30000000E+00  1.30000000E+00  1.30000000E+00  1.30000000E+00
  1.30000000E+00  1.30000000E+00  1.30000000E+00
%FLAG SCREEN                                                                    
%FORMAT(5E16.8)                                                                 
  8.50000000E-01  8.50000000E-01  7.90000000E-01  7.20000000E-01  7.20000000E-01
  7.20000000E-01  7.20000000E-01  7.20000000E-01  7.20000000E-01  7.20000000E-01
  7.20000000E-01  7.20000000E-01  8.50000000E-01  8.50000000E-01  8.50000000E-01
  8.50000000E-01  8.50000000E-01  8.50000000E-01  8.50000000E-01  8.50000000E-01
  8.50000000E-01  8.50000000E-01  8.50000000E-01
%FLAG IPOL                                                                      
%FORMAT(1I8)                                                                    
       0
