2337
    23
  -2.1130000  -0.3570000   0.0010000  -1.7060000   1.9090000   0.0000000
   4.1630000  -0.7320000  -0.0010000   0.1080000   0.3620000   0.0010000
   1.0960000   1.3470000  -0.0000000   0.4670000  -0.9860000   0.0010000
   2.8020000  -0.3650000  -0.0000000   2.4430000   0.9830000  -0.0010000
   1.8140000  -1.3490000   0.0010000  -1.2960000   0.7410000   0.0010000
  -3.5240000  -0.1130000  -0.0010000  -4.2530000  -1.4400000  -0.0010000
   0.8380000   2.4020000  -0.0010000  -0.2680000  -1.7870000   0.0020000
   3.2030000   1.7600000  -0.0020000   2.0810000  -2.4030000   0.0010000
  -3.7950000   0.4600000   0.8930000  -3.7930000   0.4590000  -0.8950000
  -5.3370000  -1.2900000  -0.0020000  -3.9770000  -2.0310000  -0.8800000
  -3.9780000  -2.0300000   0.8790000   4.4240000  -1.7090000   0.0000000
   4.8800000  -0.0180000  -0.0010000
