; benzocaine_GMX.top created by acpype (v: 2023.10.27) on Mon Feb  9 17:30:37 2026

[ defaults ]
; nbfunc        comb-rule       gen-pairs       fudgeLJ fudgeQQ
1               2               yes             0.5     0.8333333333

; Include benzocaine_GMX.itp topology
#include "benzocaine_GMX.itp"

; Ligand position restraints
#ifdef POSRES_LIG
#include "posre_benzocaine.itp"
#endif

[ system ]
 benzocaine

[ molecules ]
; Compound        nmols
 benzocaine       1     
