750
    10
  -1.6490000   0.6570000  -0.0100000  -0.4840000  -1.2930000  -0.0010000
   1.9010000  -0.0810000  -0.0090000   0.7340000   0.7870000   0.0080000
  -0.5020000  -0.0690000   0.0120000   0.7330000   1.4210000  -0.8820000
   0.7460000   1.4090000   0.9070000   1.8740000  -0.6840000  -0.8300000
   1.8890000  -0.6970000   0.8030000  -2.4450000   0.0840000  -0.0260000
