; glycine_GMX.itp created by acpype (v: 2023.10.27) on Mon Feb  9 17:46:16 2026

[ atomtypes ]
;name   bond_type     mass     charge   ptype   sigma         epsilon       Amb
 oh       oh          0.00000  0.00000   A     3.24287e-01   3.89112e-01 ; 1.82  0.0930
 o        o           0.00000  0.00000   A     3.04812e-01   6.12119e-01 ; 1.71  0.1463
 n8       n8          0.00000  0.00000   A     3.65019e-01   1.35143e-01 ; 2.05  0.0323
 c3       c3          0.00000  0.00000   A     3.39771e-01   4.51035e-01 ; 1.91  0.1078
 c        c           0.00000  0.00000   A     3.31521e-01   4.13379e-01 ; 1.86  0.0988
 h1       h1          0.00000  0.00000   A     2.42200e-01   8.70272e-02 ; 1.36  0.0208
 hn       hn          0.00000  0.00000   A     1.10650e-01   4.18400e-02 ; 0.62  0.0100
 ho       ho          0.00000  0.00000   A     5.37925e-02   1.96648e-02 ; 0.30  0.0047

[ moleculetype ]
;name            nrexcl
 glycine          3

[ atoms ]
;   nr  type  resi  res  atom  cgnr     charge      mass       ; qtot   bond_type
     1   oh     1   GLY     O    1    -0.604100     16.00000 ; qtot -0.604
     2    o     1   GLY   OXT    2    -0.559000     16.00000 ; qtot -1.163
     3   n8     1   GLY     N    3    -0.894800     14.01000 ; qtot -2.058
     4   c3     1   GLY    CA    4     0.118800     12.01000 ; qtot -1.939
     5    c     1   GLY     C    5     0.583100     12.01000 ; qtot -1.356
     6   h1     1   GLY   HA1    6     0.090700      1.00800 ; qtot -1.265
     7   h1     1   GLY   HA2    7     0.090700      1.00800 ; qtot -1.175
     8   hn     1   GLY    H1    8     0.364800      1.00800 ; qtot -0.810
     9   hn     1   GLY    H2    9     0.364800      1.00800 ; qtot -0.445
    10   ho     1   GLY     H   10     0.445000      1.00800 ; qtot 0.000

[ bonds ]
;   ai     aj funct   r             k
     1      5   1    1.3556e-01    3.0064e+05 ;      O - C     
     1     10   1    9.7250e-02    4.4811e+05 ;      O - H     
     2      5   1    1.2190e-01    4.9421e+05 ;    OXT - C     
     3      4   1    1.4651e-01    2.1239e+05 ;      N - CA    
     3      8   1    1.0192e-01    3.8550e+05 ;      N - H1    
     3      9   1    1.0192e-01    3.8550e+05 ;      N - H2    
     4      5   1    1.5270e-01    1.9652e+05 ;     CA - C     
     4      6   1    1.0969e-01    2.8804e+05 ;     CA - HA1   
     4      7   1    1.0969e-01    2.8804e+05 ;     CA - HA2   

[ pairs ]
;   ai     aj    funct
     1      3      1 ;      O - N     
     1      6      1 ;      O - HA1   
     1      7      1 ;      O - HA2   
     2      3      1 ;    OXT - N     
     2      6      1 ;    OXT - HA1   
     2      7      1 ;    OXT - HA2   
     5      8      1 ;      C - H1    
     5      9      1 ;      C - H2    
     6      8      1 ;    HA1 - H1    
     6      9      1 ;    HA1 - H2    
     7      8      1 ;    HA2 - H1    
     7      9      1 ;    HA2 - H2    
    10      2      1 ;      H - OXT   
    10      4      1 ;      H - CA    

[ angles ]
;   ai     aj     ak    funct   theta         cth
     1      5      2      1    1.2209e+02    8.5379e+02 ;      O - C      - OXT   
     1      5      4      1    1.1274e+02    6.4785e+02 ;      O - C      - CA    
     2      5      4      1    1.2290e+02    6.3973e+02 ;    OXT - C      - CA    
     3      4      5      1    1.1096e+02    5.4944e+02 ;      N - CA     - C     
     3      4      6      1    1.0812e+02    4.0342e+02 ;      N - CA     - HA1   
     3      4      7      1    1.0812e+02    4.0342e+02 ;      N - CA     - HA2   
     4      3      8      1    1.0961e+02    4.7003e+02 ;     CA - N      - H1    
     4      3      9      1    1.0961e+02    4.7003e+02 ;     CA - N      - H2    
     5      1     10      1    1.0654e+02    5.7287e+02 ;      C - O      - H     
     5      4      6      1    1.0837e+02    3.6602e+02 ;      C - CA     - HA1   
     5      4      7      1    1.0837e+02    3.6602e+02 ;      C - CA     - HA2   
     6      4      7      1    1.0855e+02    2.9824e+02 ;    HA1 - CA     - HA2   
     8      3      9      1    1.0638e+02    4.0074e+02 ;     H1 - N      - H2    

[ dihedrals ] ; propers
; for gromacs 4.5 or higher, using funct 9
;    i      j      k      l   func   phase     kd      pn
     1      5      4      3      9   180.00   0.00000   2 ;      O-     C-    CA-     N
     1      5      4      6      9   180.00   0.00000   2 ;      O-     C-    CA-   HA1
     1      5      4      7      9   180.00   0.00000   2 ;      O-     C-    CA-   HA2
     2      5      4      3      9   180.00   0.00000   2 ;    OXT-     C-    CA-     N
     2      5      4      6      9     0.00   3.34720   1 ;    OXT-     C-    CA-   HA1
     2      5      4      6      9   180.00   0.33472   3 ;    OXT-     C-    CA-   HA1
     2      5      4      7      9     0.00   3.34720   1 ;    OXT-     C-    CA-   HA2
     2      5      4      7      9   180.00   0.33472   3 ;    OXT-     C-    CA-   HA2
     5      4      3      8      9     0.00   1.25520   3 ;      C-    CA-     N-    H1
     5      4      3      9      9     0.00   1.25520   3 ;      C-    CA-     N-    H2
     6      4      3      8      9     0.00   1.25520   3 ;    HA1-    CA-     N-    H1
     6      4      3      9      9     0.00   1.25520   3 ;    HA1-    CA-     N-    H2
     7      4      3      8      9     0.00   1.25520   3 ;    HA2-    CA-     N-    H1
     7      4      3      9      9     0.00   1.25520   3 ;    HA2-    CA-     N-    H2
    10      1      5      2      9     0.00   7.94960   1 ;      H-     O-     C-   OXT
    10      1      5      2      9   180.00   9.62320   2 ;      H-     O-     C-   OXT
    10      1      5      4      9   180.00   7.53120   2 ;      H-     O-     C-    CA

[ dihedrals ] ; impropers
; treated as propers in GROMACS to use correct AMBER analytical function
;    i      j      k      l   func   phase     kd      pn
     1      5      2      4      4   180.00   4.60240   2 ;      O-     C-   OXT-    CA
