; glycine_GMX_OPLS.top created by acpype (v: 2023.10.27) on Mon Feb  9 17:46:16 2026

; Include forcefield parameters
#include "ffoplsaa.itp"

; Include glycine_GMX.itp topology
#include "glycine_GMX.itp"

; Ligand position restraints
#ifdef POSRES_LIG
#include "posre_glycine.itp"
#endif

[ system ]
 glycine

[ molecules ]
; Compound        nmols
 glycine          1     
