glycine_GMX.gro created by acpype (v: 2023.10.27) on Mon Feb  9 17:46:16 2026
 10
    1  GLY    O    1  -0.165   0.066  -0.001
    1  GLY  OXT    2  -0.048  -0.129  -0.000
    1  GLY    N    3   0.190  -0.008  -0.001
    1  GLY   CA    4   0.073   0.079   0.001
    1  GLY    C    5  -0.050  -0.007   0.001
    1  GLY  HA1    6   0.073   0.142  -0.088
    1  GLY  HA2    7   0.075   0.141   0.091
    1  GLY   H1    8   0.187  -0.068  -0.083
    1  GLY   H2    9   0.189  -0.070   0.080
    1  GLY    H   10  -0.244   0.008  -0.003
    8.69200     5.42800     3.57800
