; glycine_GMX.top created by acpype (v: 2023.10.27) on Mon Feb  9 17:46:16 2026

[ defaults ]
; nbfunc        comb-rule       gen-pairs       fudgeLJ fudgeQQ
1               2               yes             0.5     0.8333333333

; Include glycine_GMX.itp topology
#include "glycine_GMX.itp"

; Ligand position restraints
#ifdef POSRES_LIG
#include "posre_glycine.itp"
#endif

[ system ]
 glycine

[ molecules ]
; Compound        nmols
 glycine          1     
