; glycine_GMX_OPLS.itp created by acpype (v: 2023.10.27) on Mon Feb  9 17:46:16 2026

; For OPLS atomtypes manual fine tuning
; AC_at:OPLS_at:OPLScode: Possible_Alternatives (see ffoplsaa.atp and ffoplsaanb.itp)
; oh:OH:opls_154: ['167']
; o:O:opls_236: ['272']
; n8:x:opls_x: []
; c3:CT:opls_135: ['136', '137', '149', '157', '158', '206', '209', '210', '223B', '224B', '245', '246', '274', '283', '284', '285', '292', '292B', '293B', '296', '307', '308', '505']
; c:C:opls_235: ['271']
; h1:HC:opls_140: []
; hn:H:opls_240: ['241', '290', '301', '304', '310', '504', '513']
; ho:HO:opls_155: ['168']

[ moleculetype ]
;name            nrexcl
 glycine          3

[ atoms ]
;   nr  type  resi  res  atom  cgnr     charge      mass       ; qtot   bond_type
     1 opls_154     1   GLY     O    1    -0.604100     15.99940 ; qtot -0.604  OH  
     2 opls_236     1   GLY   OXT    2    -0.559000     15.99940 ; qtot -1.163  O   
     3 opls_x     1   GLY     N    3    -0.894800      0.00000 ; qtot -2.058  x   
     4 opls_135     1   GLY    CA    4     0.118800     12.01100 ; qtot -1.939  CT  
     5 opls_235     1   GLY     C    5     0.583100     12.01100 ; qtot -1.356  C   
     6 opls_140     1   GLY   HA1    6     0.090700      1.00800 ; qtot -1.265  HC  
     7 opls_140     1   GLY   HA2    7     0.090700      1.00800 ; qtot -1.175  HC  
     8 opls_240     1   GLY    H1    8     0.364800      1.00800 ; qtot -0.810  H   
     9 opls_240     1   GLY    H2    9     0.364800      1.00800 ; qtot -0.445  H   
    10 opls_155     1   GLY     H   10     0.445000      1.00800 ; qtot  0.000  HO  

[ bonds ]
;   ai     aj funct   r             k
     1      5   1 ;    1.3556e-01    3.0064e+05 ;      O - C          OH - C     
     1     10   1 ;    9.7250e-02    4.4811e+05 ;      O - H          OH - HO    
     2      5   1 ;    1.2190e-01    4.9421e+05 ;    OXT - C           O - C     
     3      4   1 ;    1.4651e-01    2.1239e+05 ;      N - CA          x - CT    
     3      8   1 ;    1.0192e-01    3.8550e+05 ;      N - H1          x - H     
     3      9   1 ;    1.0192e-01    3.8550e+05 ;      N - H2          x - H     
     4      5   1 ;    1.5270e-01    1.9652e+05 ;     CA - C          CT - C     
     4      6   1 ;    1.0969e-01    2.8804e+05 ;     CA - HA1        CT - HC    
     4      7   1 ;    1.0969e-01    2.8804e+05 ;     CA - HA2        CT - HC    

[ pairs ]
;   ai     aj    funct
     1      3      1 ;      O - N     
     1      6      1 ;      O - HA1   
     1      7      1 ;      O - HA2   
     2      3      1 ;    OXT - N     
     2      6      1 ;    OXT - HA1   
     2      7      1 ;    OXT - HA2   
     5      8      1 ;      C - H1    
     5      9      1 ;      C - H2    
     6      8      1 ;    HA1 - H1    
     6      9      1 ;    HA1 - H2    
     7      8      1 ;    HA2 - H1    
     7      9      1 ;    HA2 - H2    
    10      2      1 ;      H - OXT   
    10      4      1 ;      H - CA    

[ angles ]
;   ai     aj     ak    funct   theta         cth
     1      5      2      1 ;    1.2209e+02    8.5379e+02 ;      O - C    - OXT      OH -    C - O   
     1      5      4      1 ;    1.1274e+02    6.4785e+02 ;      O - C    - CA       OH -    C - CT  
     2      5      4      1 ;    1.2290e+02    6.3973e+02 ;    OXT - C    - CA        O -    C - CT  
     3      4      5      1 ;    1.1096e+02    5.4944e+02 ;      N - CA   - C         x -   CT - C   
     3      4      6      1 ;    1.0812e+02    4.0342e+02 ;      N - CA   - HA1       x -   CT - HC  
     3      4      7      1 ;    1.0812e+02    4.0342e+02 ;      N - CA   - HA2       x -   CT - HC  
     4      3      8      1 ;    1.0961e+02    4.7003e+02 ;     CA - N    - H1       CT -    x - H   
     4      3      9      1 ;    1.0961e+02    4.7003e+02 ;     CA - N    - H2       CT -    x - H   
     5      1     10      1 ;    1.0654e+02    5.7287e+02 ;      C - O    - H         C -   OH - HO  
     5      4      6      1 ;    1.0837e+02    3.6602e+02 ;      C - CA   - HA1       C -   CT - HC  
     5      4      7      1 ;    1.0837e+02    3.6602e+02 ;      C - CA   - HA2       C -   CT - HC  
     6      4      7      1 ;    1.0855e+02    2.9824e+02 ;    HA1 - CA   - HA2      HC -   CT - HC  
     8      3      9      1 ;    1.0638e+02    4.0074e+02 ;     H1 - N    - H2        H -    x - H   

[ dihedrals ] ; propers
; for gromacs 4.5 or higher, using funct 9
;    i      j      k      l   func   phase     kd      pn
     1      5      4      3      9 ;   180.00   0.00000   2 ;      O-     C-    CA-     N
     1      5      4      6      9 ;   180.00   0.00000   2 ;      O-     C-    CA-   HA1
     1      5      4      7      9 ;   180.00   0.00000   2 ;      O-     C-    CA-   HA2
     2      5      4      3      9 ;   180.00   0.00000   2 ;    OXT-     C-    CA-     N
     2      5      4      6      9 ;     0.00   3.34720   1 ;    OXT-     C-    CA-   HA1
     2      5      4      6      9 ;   180.00   0.33472   3 ;    OXT-     C-    CA-   HA1
     2      5      4      7      9 ;     0.00   3.34720   1 ;    OXT-     C-    CA-   HA2
     2      5      4      7      9 ;   180.00   0.33472   3 ;    OXT-     C-    CA-   HA2
     5      4      3      8      9 ;     0.00   1.25520   3 ;      C-    CA-     N-    H1
     5      4      3      9      9 ;     0.00   1.25520   3 ;      C-    CA-     N-    H2
     6      4      3      8      9 ;     0.00   1.25520   3 ;    HA1-    CA-     N-    H1
     6      4      3      9      9 ;     0.00   1.25520   3 ;    HA1-    CA-     N-    H2
     7      4      3      8      9 ;     0.00   1.25520   3 ;    HA2-    CA-     N-    H1
     7      4      3      9      9 ;     0.00   1.25520   3 ;    HA2-    CA-     N-    H2
    10      1      5      2      9 ;     0.00   7.94960   1 ;      H-     O-     C-   OXT
    10      1      5      2      9 ;   180.00   9.62320   2 ;      H-     O-     C-   OXT
    10      1      5      4      9 ;   180.00   7.53120   2 ;      H-     O-     C-    CA

[ dihedrals ] ; impropers
; treated as propers in GROMACS to use correct AMBER analytical function
;    i      j      k      l   func   phase     kd      pn
     1      5      2      4      4 ;   180.00   4.60240   2 ;      O-     C-   OXT-    CA
