; threonine_GMX.itp created by acpype (v: 2023.10.27) on Mon Feb  9 17:59:57 2026

[ atomtypes ]
;name   bond_type     mass     charge   ptype   sigma         epsilon       Amb
 oh       oh          0.00000  0.00000   A     3.24287e-01   3.89112e-01 ; 1.82  0.0930
 o        o           0.00000  0.00000   A     3.04812e-01   6.12119e-01 ; 1.71  0.1463
 n8       n8          0.00000  0.00000   A     3.65019e-01   1.35143e-01 ; 2.05  0.0323
 c3       c3          0.00000  0.00000   A     3.39771e-01   4.51035e-01 ; 1.91  0.1078
 c        c           0.00000  0.00000   A     3.31521e-01   4.13379e-01 ; 1.86  0.0988
 h1       h1          0.00000  0.00000   A     2.42200e-01   8.70272e-02 ; 1.36  0.0208
 hc       hc          0.00000  0.00000   A     2.60018e-01   8.70272e-02 ; 1.46  0.0208
 hn       hn          0.00000  0.00000   A     1.10650e-01   4.18400e-02 ; 0.62  0.0100
 ho       ho          0.00000  0.00000   A     5.37925e-02   1.96648e-02 ; 0.30  0.0047

[ moleculetype ]
;name            nrexcl
 threonine        3

[ atoms ]
;   nr  type  resi  res  atom  cgnr     charge      mass       ; qtot   bond_type
     1   oh     1   THR   OG1    1    -0.598800     16.00000 ; qtot -0.599
     2   oh     1   THR     O    2    -0.609100     16.00000 ; qtot -1.208
     3    o     1   THR   OXT    3    -0.550000     16.00000 ; qtot -1.758
     4   n8     1   THR     N    4    -0.891801     14.01000 ; qtot -2.650
     5   c3     1   THR    CB    5     0.155100     12.01000 ; qtot -2.495
     6   c3     1   THR    CA    6     0.097500     12.01000 ; qtot -2.397
     7   c3     1   THR   CG2    7    -0.105100     12.01000 ; qtot -2.502
     8    c     1   THR     C    8     0.594100     12.01000 ; qtot -1.908
     9   h1     1   THR    HA    9     0.087700      1.00800 ; qtot -1.820
    10   h1     1   THR    HB   10     0.056700      1.00800 ; qtot -1.764
    11   hc     1   THR  HG21   11     0.054367      1.00800 ; qtot -1.709
    12   hc     1   THR  HG22   12     0.054367      1.00800 ; qtot -1.655
    13   hc     1   THR  HG23   13     0.054367      1.00800 ; qtot -1.601
    14   hn     1   THR    H1   14     0.368800      1.00800 ; qtot -1.232
    15   hn     1   THR    H2   15     0.368800      1.00800 ; qtot -0.863
    16   ho     1   THR   HG1   16     0.414000      1.00800 ; qtot -0.449
    17   ho     1   THR     H   17     0.449000      1.00800 ; qtot 0.000

[ bonds ]
;   ai     aj funct   r             k
     1      5   1    1.4242e-01    2.3861e+05 ;    OG1 - CB    
     1     16   1    9.7250e-02    4.4811e+05 ;    OG1 - HG1   
     2      8   1    1.3556e-01    3.0064e+05 ;      O - C     
     2     17   1    9.7250e-02    4.4811e+05 ;      O - H     
     3      8   1    1.2190e-01    4.9421e+05 ;    OXT - C     
     4      6   1    1.4651e-01    2.1239e+05 ;      N - CA    
     4     14   1    1.0192e-01    3.8550e+05 ;      N - H1    
     4     15   1    1.0192e-01    3.8550e+05 ;      N - H2    
     5      6   1    1.5354e-01    1.9154e+05 ;     CB - CA    
     5      7   1    1.5354e-01    1.9154e+05 ;     CB - CG2   
     5     10   1    1.0969e-01    2.8804e+05 ;     CB - HB    
     6      8   1    1.5270e-01    1.9652e+05 ;     CA - C     
     6      9   1    1.0969e-01    2.8804e+05 ;     CA - HA    
     7     11   1    1.0962e-01    2.8891e+05 ;    CG2 - HG21  
     7     12   1    1.0962e-01    2.8891e+05 ;    CG2 - HG22  
     7     13   1    1.0962e-01    2.8891e+05 ;    CG2 - HG23  

[ pairs ]
;   ai     aj    funct
     1      4      1 ;    OG1 - N     
     1      8      1 ;    OG1 - C     
     1      9      1 ;    OG1 - HA    
     1     11      1 ;    OG1 - HG21  
     1     12      1 ;    OG1 - HG22  
     1     13      1 ;    OG1 - HG23  
     2      4      1 ;      O - N     
     2      5      1 ;      O - CB    
     2      9      1 ;      O - HA    
     3      4      1 ;    OXT - N     
     3      5      1 ;    OXT - CB    
     3      9      1 ;    OXT - HA    
     3     17      1 ;    OXT - H     
     4      7      1 ;      N - CG2   
     4     10      1 ;      N - HB    
     5     14      1 ;     CB - H1    
     5     15      1 ;     CB - H2    
     6     11      1 ;     CA - HG21  
     6     12      1 ;     CA - HG22  
     6     13      1 ;     CA - HG23  
     6     17      1 ;     CA - H     
     7      8      1 ;    CG2 - C     
     7      9      1 ;    CG2 - HA    
     8     10      1 ;      C - HB    
     8     14      1 ;      C - H1    
     8     15      1 ;      C - H2    
     9     10      1 ;     HA - HB    
     9     14      1 ;     HA - H1    
     9     15      1 ;     HA - H2    
    10     11      1 ;     HB - HG21  
    10     12      1 ;     HB - HG22  
    10     13      1 ;     HB - HG23  
    16      6      1 ;    HG1 - CA    
    16      7      1 ;    HG1 - CG2   
    16     10      1 ;    HG1 - HB    

[ angles ]
;   ai     aj     ak    funct   theta         cth
     1      5      6      1    1.0966e+02    6.4258e+02 ;    OG1 - CB     - CA    
     1      5      7      1    1.0966e+02    6.4258e+02 ;    OG1 - CB     - CG2   
     1      5     10      1    1.1038e+02    4.7103e+02 ;    OG1 - CB     - HB    
     2      8      3      1    1.2209e+02    8.5379e+02 ;      O - C      - OXT   
     2      8      6      1    1.1274e+02    6.4785e+02 ;      O - C      - CA    
     3      8      6      1    1.2290e+02    6.3973e+02 ;    OXT - C      - CA    
     4      6      5      1    1.1091e+02    5.4794e+02 ;      N - CA     - CB    
     4      6      8      1    1.1096e+02    5.4944e+02 ;      N - CA     - C     
     4      6      9      1    1.0812e+02    4.0342e+02 ;      N - CA     - HA    
     5      1     16      1    1.0739e+02    5.4501e+02 ;     CB - OG1    - HG1   
     5      6      8      1    1.1143e+02    5.0509e+02 ;     CB - CA     - C     
     5      6      9      1    1.0959e+02    3.6217e+02 ;     CB - CA     - HA    
     5      7     11      1    1.0968e+02    3.6208e+02 ;     CB - CG2    - HG21  
     5      7     12      1    1.0968e+02    3.6208e+02 ;     CB - CG2    - HG22  
     5      7     13      1    1.0968e+02    3.6208e+02 ;     CB - CG2    - HG23  
     6      4     14      1    1.0961e+02    4.7003e+02 ;     CA - N      - H1    
     6      4     15      1    1.0961e+02    4.7003e+02 ;     CA - N      - H2    
     6      5      7      1    1.1263e+02    5.0099e+02 ;     CA - CB     - CG2   
     6      5     10      1    1.0959e+02    3.6217e+02 ;     CA - CB     - HB    
     7      5     10      1    1.0959e+02    3.6217e+02 ;    CG2 - CB     - HB    
     8      2     17      1    1.0654e+02    5.7287e+02 ;      C - O      - H     
     8      6      9      1    1.0837e+02    3.6602e+02 ;      C - CA     - HA    
    11      7     12      1    1.0773e+02    2.9957e+02 ;   HG21 - CG2    - HG22  
    11      7     13      1    1.0773e+02    2.9957e+02 ;   HG21 - CG2    - HG23  
    12      7     13      1    1.0773e+02    2.9957e+02 ;   HG22 - CG2    - HG23  
    14      4     15      1    1.0638e+02    4.0074e+02 ;     H1 - N      - H2    

[ dihedrals ] ; propers
; for gromacs 4.5 or higher, using funct 9
;    i      j      k      l   func   phase     kd      pn
     1      5      6      4      9     0.00   0.65084   3 ;    OG1-    CB-    CA-     N
     1      5      6      8      9   180.00   1.96648   1 ;    OG1-    CB-    CA-     C
     1      5      6      9      9     0.00   0.00000   0 ;    OG1-    CB-    CA-    HA
     1      5      6      9      9     0.00   1.04600   1 ;    OG1-    CB-    CA-    HA
     1      5      7     11      9     0.00   0.37656   3 ;    OG1-    CB-   CG2-  HG21
     1      5      7     12      9     0.00   0.37656   3 ;    OG1-    CB-   CG2-  HG22
     1      5      7     13      9     0.00   0.37656   3 ;    OG1-    CB-   CG2-  HG23
     2      8      6      4      9   180.00   0.00000   2 ;      O-     C-    CA-     N
     2      8      6      5      9   180.00   0.00000   2 ;      O-     C-    CA-    CB
     2      8      6      9      9   180.00   0.00000   2 ;      O-     C-    CA-    HA
     3      8      2     17      9     0.00   7.94960   1 ;    OXT-     C-     O-     H
     3      8      2     17      9   180.00   9.62320   2 ;    OXT-     C-     O-     H
     3      8      6      4      9   180.00   0.00000   2 ;    OXT-     C-    CA-     N
     3      8      6      5      9     0.00   2.84512   1 ;    OXT-     C-    CA-    CB
     3      8      6      5      9   180.00   0.83680   2 ;    OXT-     C-    CA-    CB
     3      8      6      5      9   180.00   1.84096   3 ;    OXT-     C-    CA-    CB
     3      8      6      9      9     0.00   3.34720   1 ;    OXT-     C-    CA-    HA
     3      8      6      9      9   180.00   0.33472   3 ;    OXT-     C-    CA-    HA
     4      6      5      7      9     0.00   2.17568   3 ;      N-    CA-    CB-   CG2
     4      6      5     10      9     0.00   0.65084   3 ;      N-    CA-    CB-    HB
     5      6      4     14      9   180.00   0.12552   3 ;     CB-    CA-     N-    H1
     5      6      4     15      9   180.00   0.12552   3 ;     CB-    CA-     N-    H2
     6      5      7     11      9     0.00   0.54392   3 ;     CA-    CB-   CG2-  HG21
     6      5      7     12      9     0.00   0.54392   3 ;     CA-    CB-   CG2-  HG22
     6      5      7     13      9     0.00   0.54392   3 ;     CA-    CB-   CG2-  HG23
     6      8      2     17      9   180.00   7.53120   2 ;     CA-     C-     O-     H
     7      5      6      8      9     0.00   0.00000   0 ;    CG2-    CB-    CA-     C
     7      5      6      8      9     0.00   0.16736   2 ;    CG2-    CB-    CA-     C
     7      5      6      8      9   180.00   1.92464   1 ;    CG2-    CB-    CA-     C
     7      5      6      9      9     0.00   0.65084   3 ;    CG2-    CB-    CA-    HA
     8      6      4     14      9     0.00   1.25520   3 ;      C-    CA-     N-    H1
     8      6      4     15      9     0.00   1.25520   3 ;      C-    CA-     N-    H2
     8      6      5     10      9     0.00   0.65084   3 ;      C-    CA-    CB-    HB
     9      6      4     14      9     0.00   1.25520   3 ;     HA-    CA-     N-    H1
     9      6      4     15      9     0.00   1.25520   3 ;     HA-    CA-     N-    H2
     9      6      5     10      9     0.00   0.65084   3 ;     HA-    CA-    CB-    HB
    10      5      7     11      9     0.00   0.65084   3 ;     HB-    CB-   CG2-  HG21
    10      5      7     12      9     0.00   0.65084   3 ;     HB-    CB-   CG2-  HG22
    10      5      7     13      9     0.00   0.65084   3 ;     HB-    CB-   CG2-  HG23
    16      1      5      6      9     0.00   0.25104   3 ;    HG1-   OG1-    CB-    CA
    16      1      5      7      9     0.00   0.25104   3 ;    HG1-   OG1-    CB-   CG2
    16      1      5     10      9     0.00   0.51463   3 ;    HG1-   OG1-    CB-    HB

[ dihedrals ] ; impropers
; treated as propers in GROMACS to use correct AMBER analytical function
;    i      j      k      l   func   phase     kd      pn
     6      3      8      2      4   180.00   4.60240   2 ;     CA-   OXT-     C-     O
