6288
    17
  -1.7110000  -1.1850000   0.3580000   0.9760000  -1.6810000   0.1310000
   2.0210000   0.1500000  -0.7010000   0.4050000   1.8670000   0.5740000
  -1.3540000   0.1880000   0.2040000   0.0660000   0.4490000   0.7290000
  -1.5260000   0.5510000  -1.2650000   1.1220000  -0.3400000  -0.0300000
   0.1450000   0.1700000   1.7860000  -2.0740000   0.7710000   0.7920000
  -1.3270000   1.6100000  -1.4580000  -2.5520000   0.3380000  -1.5860000
  -0.8760000  -0.0530000  -1.9080000   1.3080000   2.0510000   1.0120000
  -0.2750000   2.4360000   1.0780000  -1.6070000  -1.4090000   1.2980000
   1.6640000  -2.1840000  -0.3540000
