; threonine_GMX_OPLS.top created by acpype (v: 2023.10.27) on Mon Feb  9 17:59:57 2026

; Include forcefield parameters
#include "ffoplsaa.itp"

; Include threonine_GMX.itp topology
#include "threonine_GMX.itp"

; Ligand position restraints
#ifdef POSRES_LIG
#include "posre_threonine.itp"
#endif

[ system ]
 threonine

[ molecules ]
; Compound        nmols
 threonine        1     
