; threonine_GMX_OPLS.itp created by acpype (v: 2023.10.27) on Mon Feb  9 17:59:57 2026

; For OPLS atomtypes manual fine tuning
; AC_at:OPLS_at:OPLScode: Possible_Alternatives (see ffoplsaa.atp and ffoplsaanb.itp)
; oh:OH:opls_154: ['167']
; o:O:opls_236: ['272']
; n8:x:opls_x: []
; c3:CT:opls_135: ['136', '137', '149', '157', '158', '206', '209', '210', '223B', '224B', '245', '246', '274', '283', '284', '285', '292', '292B', '293B', '296', '307', '308', '505']
; c:C:opls_235: ['271']
; h1:HC:opls_140: []
; hc:HC:opls_140: []
; hn:H:opls_240: ['241', '290', '301', '304', '310', '504', '513']
; ho:HO:opls_155: ['168']

[ moleculetype ]
;name            nrexcl
 threonine        3

[ atoms ]
;   nr  type  resi  res  atom  cgnr     charge      mass       ; qtot   bond_type
     1 opls_154     1   THR   OG1    1    -0.598800     15.99940 ; qtot -0.599  OH  
     2 opls_154     1   THR     O    2    -0.609100     15.99940 ; qtot -1.208  OH  
     3 opls_236     1   THR   OXT    3    -0.550000     15.99940 ; qtot -1.758  O   
     4 opls_x     1   THR     N    4    -0.891801      0.00000 ; qtot -2.650  x   
     5 opls_135     1   THR    CB    5     0.155100     12.01100 ; qtot -2.495  CT  
     6 opls_135     1   THR    CA    6     0.097500     12.01100 ; qtot -2.397  CT  
     7 opls_135     1   THR   CG2    7    -0.105100     12.01100 ; qtot -2.502  CT  
     8 opls_235     1   THR     C    8     0.594100     12.01100 ; qtot -1.908  C   
     9 opls_140     1   THR    HA    9     0.087700      1.00800 ; qtot -1.820  HC  
    10 opls_140     1   THR    HB   10     0.056700      1.00800 ; qtot -1.764  HC  
    11 opls_140     1   THR  HG21   11     0.054367      1.00800 ; qtot -1.709  HC  
    12 opls_140     1   THR  HG22   12     0.054367      1.00800 ; qtot -1.655  HC  
    13 opls_140     1   THR  HG23   13     0.054367      1.00800 ; qtot -1.601  HC  
    14 opls_240     1   THR    H1   14     0.368800      1.00800 ; qtot -1.232  H   
    15 opls_240     1   THR    H2   15     0.368800      1.00800 ; qtot -0.863  H   
    16 opls_155     1   THR   HG1   16     0.414000      1.00800 ; qtot -0.449  HO  
    17 opls_155     1   THR     H   17     0.449000      1.00800 ; qtot  0.000  HO  

[ bonds ]
;   ai     aj funct   r             k
     1      5   1 ;    1.4242e-01    2.3861e+05 ;    OG1 - CB         OH - CT    
     1     16   1 ;    9.7250e-02    4.4811e+05 ;    OG1 - HG1        OH - HO    
     2      8   1 ;    1.3556e-01    3.0064e+05 ;      O - C          OH - C     
     2     17   1 ;    9.7250e-02    4.4811e+05 ;      O - H          OH - HO    
     3      8   1 ;    1.2190e-01    4.9421e+05 ;    OXT - C           O - C     
     4      6   1 ;    1.4651e-01    2.1239e+05 ;      N - CA          x - CT    
     4     14   1 ;    1.0192e-01    3.8550e+05 ;      N - H1          x - H     
     4     15   1 ;    1.0192e-01    3.8550e+05 ;      N - H2          x - H     
     5      6   1 ;    1.5354e-01    1.9154e+05 ;     CB - CA         CT - CT    
     5      7   1 ;    1.5354e-01    1.9154e+05 ;     CB - CG2        CT - CT    
     5     10   1 ;    1.0969e-01    2.8804e+05 ;     CB - HB         CT - HC    
     6      8   1 ;    1.5270e-01    1.9652e+05 ;     CA - C          CT - C     
     6      9   1 ;    1.0969e-01    2.8804e+05 ;     CA - HA         CT - HC    
     7     11   1 ;    1.0962e-01    2.8891e+05 ;    CG2 - HG21       CT - HC    
     7     12   1 ;    1.0962e-01    2.8891e+05 ;    CG2 - HG22       CT - HC    
     7     13   1 ;    1.0962e-01    2.8891e+05 ;    CG2 - HG23       CT - HC    

[ pairs ]
;   ai     aj    funct
     1      4      1 ;    OG1 - N     
     1      8      1 ;    OG1 - C     
     1      9      1 ;    OG1 - HA    
     1     11      1 ;    OG1 - HG21  
     1     12      1 ;    OG1 - HG22  
     1     13      1 ;    OG1 - HG23  
     2      4      1 ;      O - N     
     2      5      1 ;      O - CB    
     2      9      1 ;      O - HA    
     3      4      1 ;    OXT - N     
     3      5      1 ;    OXT - CB    
     3      9      1 ;    OXT - HA    
     3     17      1 ;    OXT - H     
     4      7      1 ;      N - CG2   
     4     10      1 ;      N - HB    
     5     14      1 ;     CB - H1    
     5     15      1 ;     CB - H2    
     6     11      1 ;     CA - HG21  
     6     12      1 ;     CA - HG22  
     6     13      1 ;     CA - HG23  
     6     17      1 ;     CA - H     
     7      8      1 ;    CG2 - C     
     7      9      1 ;    CG2 - HA    
     8     10      1 ;      C - HB    
     8     14      1 ;      C - H1    
     8     15      1 ;      C - H2    
     9     10      1 ;     HA - HB    
     9     14      1 ;     HA - H1    
     9     15      1 ;     HA - H2    
    10     11      1 ;     HB - HG21  
    10     12      1 ;     HB - HG22  
    10     13      1 ;     HB - HG23  
    16      6      1 ;    HG1 - CA    
    16      7      1 ;    HG1 - CG2   
    16     10      1 ;    HG1 - HB    

[ angles ]
;   ai     aj     ak    funct   theta         cth
     1      5      6      1 ;    1.0966e+02    6.4258e+02 ;    OG1 - CB   - CA       OH -   CT - CT  
     1      5      7      1 ;    1.0966e+02    6.4258e+02 ;    OG1 - CB   - CG2      OH -   CT - CT  
     1      5     10      1 ;    1.1038e+02    4.7103e+02 ;    OG1 - CB   - HB       OH -   CT - HC  
     2      8      3      1 ;    1.2209e+02    8.5379e+02 ;      O - C    - OXT      OH -    C - O   
     2      8      6      1 ;    1.1274e+02    6.4785e+02 ;      O - C    - CA       OH -    C - CT  
     3      8      6      1 ;    1.2290e+02    6.3973e+02 ;    OXT - C    - CA        O -    C - CT  
     4      6      5      1 ;    1.1091e+02    5.4794e+02 ;      N - CA   - CB        x -   CT - CT  
     4      6      8      1 ;    1.1096e+02    5.4944e+02 ;      N - CA   - C         x -   CT - C   
     4      6      9      1 ;    1.0812e+02    4.0342e+02 ;      N - CA   - HA        x -   CT - HC  
     5      1     16      1 ;    1.0739e+02    5.4501e+02 ;     CB - OG1  - HG1      CT -   OH - HO  
     5      6      8      1 ;    1.1143e+02    5.0509e+02 ;     CB - CA   - C        CT -   CT - C   
     5      6      9      1 ;    1.0959e+02    3.6217e+02 ;     CB - CA   - HA       CT -   CT - HC  
     5      7     11      1 ;    1.0968e+02    3.6208e+02 ;     CB - CG2  - HG21     CT -   CT - HC  
     5      7     12      1 ;    1.0968e+02    3.6208e+02 ;     CB - CG2  - HG22     CT -   CT - HC  
     5      7     13      1 ;    1.0968e+02    3.6208e+02 ;     CB - CG2  - HG23     CT -   CT - HC  
     6      4     14      1 ;    1.0961e+02    4.7003e+02 ;     CA - N    - H1       CT -    x - H   
     6      4     15      1 ;    1.0961e+02    4.7003e+02 ;     CA - N    - H2       CT -    x - H   
     6      5      7      1 ;    1.1263e+02    5.0099e+02 ;     CA - CB   - CG2      CT -   CT - CT  
     6      5     10      1 ;    1.0959e+02    3.6217e+02 ;     CA - CB   - HB       CT -   CT - HC  
     7      5     10      1 ;    1.0959e+02    3.6217e+02 ;    CG2 - CB   - HB       CT -   CT - HC  
     8      2     17      1 ;    1.0654e+02    5.7287e+02 ;      C - O    - H         C -   OH - HO  
     8      6      9      1 ;    1.0837e+02    3.6602e+02 ;      C - CA   - HA        C -   CT - HC  
    11      7     12      1 ;    1.0773e+02    2.9957e+02 ;   HG21 - CG2  - HG22     HC -   CT - HC  
    11      7     13      1 ;    1.0773e+02    2.9957e+02 ;   HG21 - CG2  - HG23     HC -   CT - HC  
    12      7     13      1 ;    1.0773e+02    2.9957e+02 ;   HG22 - CG2  - HG23     HC -   CT - HC  
    14      4     15      1 ;    1.0638e+02    4.0074e+02 ;     H1 - N    - H2        H -    x - H   

[ dihedrals ] ; propers
; for gromacs 4.5 or higher, using funct 9
;    i      j      k      l   func   phase     kd      pn
     1      5      6      4      9 ;     0.00   0.65084   3 ;    OG1-    CB-    CA-     N
     1      5      6      8      9 ;   180.00   1.96648   1 ;    OG1-    CB-    CA-     C
     1      5      6      9      9 ;     0.00   0.00000   0 ;    OG1-    CB-    CA-    HA
     1      5      6      9      9 ;     0.00   1.04600   1 ;    OG1-    CB-    CA-    HA
     1      5      7     11      9 ;     0.00   0.37656   3 ;    OG1-    CB-   CG2-  HG21
     1      5      7     12      9 ;     0.00   0.37656   3 ;    OG1-    CB-   CG2-  HG22
     1      5      7     13      9 ;     0.00   0.37656   3 ;    OG1-    CB-   CG2-  HG23
     2      8      6      4      9 ;   180.00   0.00000   2 ;      O-     C-    CA-     N
     2      8      6      5      9 ;   180.00   0.00000   2 ;      O-     C-    CA-    CB
     2      8      6      9      9 ;   180.00   0.00000   2 ;      O-     C-    CA-    HA
     3      8      2     17      9 ;     0.00   7.94960   1 ;    OXT-     C-     O-     H
     3      8      2     17      9 ;   180.00   9.62320   2 ;    OXT-     C-     O-     H
     3      8      6      4      9 ;   180.00   0.00000   2 ;    OXT-     C-    CA-     N
     3      8      6      5      9 ;     0.00   2.84512   1 ;    OXT-     C-    CA-    CB
     3      8      6      5      9 ;   180.00   0.83680   2 ;    OXT-     C-    CA-    CB
     3      8      6      5      9 ;   180.00   1.84096   3 ;    OXT-     C-    CA-    CB
     3      8      6      9      9 ;     0.00   3.34720   1 ;    OXT-     C-    CA-    HA
     3      8      6      9      9 ;   180.00   0.33472   3 ;    OXT-     C-    CA-    HA
     4      6      5      7      9 ;     0.00   2.17568   3 ;      N-    CA-    CB-   CG2
     4      6      5     10      9 ;     0.00   0.65084   3 ;      N-    CA-    CB-    HB
     5      6      4     14      9 ;   180.00   0.12552   3 ;     CB-    CA-     N-    H1
     5      6      4     15      9 ;   180.00   0.12552   3 ;     CB-    CA-     N-    H2
     6      5      7     11      9 ;     0.00   0.54392   3 ;     CA-    CB-   CG2-  HG21
     6      5      7     12      9 ;     0.00   0.54392   3 ;     CA-    CB-   CG2-  HG22
     6      5      7     13      9 ;     0.00   0.54392   3 ;     CA-    CB-   CG2-  HG23
     6      8      2     17      9 ;   180.00   7.53120   2 ;     CA-     C-     O-     H
     7      5      6      8      9 ;     0.00   0.00000   0 ;    CG2-    CB-    CA-     C
     7      5      6      8      9 ;     0.00   0.16736   2 ;    CG2-    CB-    CA-     C
     7      5      6      8      9 ;   180.00   1.92464   1 ;    CG2-    CB-    CA-     C
     7      5      6      9      9 ;     0.00   0.65084   3 ;    CG2-    CB-    CA-    HA
     8      6      4     14      9 ;     0.00   1.25520   3 ;      C-    CA-     N-    H1
     8      6      4     15      9 ;     0.00   1.25520   3 ;      C-    CA-     N-    H2
     8      6      5     10      9 ;     0.00   0.65084   3 ;      C-    CA-    CB-    HB
     9      6      4     14      9 ;     0.00   1.25520   3 ;     HA-    CA-     N-    H1
     9      6      4     15      9 ;     0.00   1.25520   3 ;     HA-    CA-     N-    H2
     9      6      5     10      9 ;     0.00   0.65084   3 ;     HA-    CA-    CB-    HB
    10      5      7     11      9 ;     0.00   0.65084   3 ;     HB-    CB-   CG2-  HG21
    10      5      7     12      9 ;     0.00   0.65084   3 ;     HB-    CB-   CG2-  HG22
    10      5      7     13      9 ;     0.00   0.65084   3 ;     HB-    CB-   CG2-  HG23
    16      1      5      6      9 ;     0.00   0.25104   3 ;    HG1-   OG1-    CB-    CA
    16      1      5      7      9 ;     0.00   0.25104   3 ;    HG1-   OG1-    CB-   CG2
    16      1      5     10      9 ;     0.00   0.51463   3 ;    HG1-   OG1-    CB-    HB

[ dihedrals ] ; impropers
; treated as propers in GROMACS to use correct AMBER analytical function
;    i      j      k      l   func   phase     kd      pn
     6      3      8      2      4 ;   180.00   4.60240   2 ;     CA-   OXT-     C-     O
