threonine_GMX.gro created by acpype (v: 2023.10.27) on Mon Feb  9 17:59:57 2026
 17
    1  THR  OG1    1  -0.171  -0.119   0.036
    1  THR    O    2   0.098  -0.168   0.013
    1  THR  OXT    3   0.202   0.015  -0.070
    1  THR    N    4   0.041   0.187   0.057
    1  THR   CB    5  -0.135   0.019   0.020
    1  THR   CA    6   0.007   0.045   0.073
    1  THR  CG2    7  -0.153   0.055  -0.127
    1  THR    C    8   0.112  -0.034  -0.003
    1  THR   HA    9   0.014   0.017   0.179
    1  THR   HB   10  -0.207   0.077   0.079
    1  THR HG21   11  -0.133   0.161  -0.146
    1  THR HG22   12  -0.255   0.034  -0.159
    1  THR HG23   13  -0.088  -0.005  -0.191
    1  THR   H1   14   0.131   0.205   0.101
    1  THR   H2   15  -0.028   0.244   0.108
    1  THR  HG1   16  -0.161  -0.141   0.130
    1  THR    H   17   0.166  -0.218  -0.035
    9.14600     9.24000     7.38800
