; ciprofloxacin_GMX.itp created by acpype (v: 2023.10.27) on Mon Feb  9 17:38:27 2026

[ atomtypes ]
;name   bond_type     mass     charge   ptype   sigma         epsilon       Amb
 f        f           0.00000  0.00000   A     3.03422e-01   3.48109e-01 ; 1.70  0.0832
 o        o           0.00000  0.00000   A     3.04812e-01   6.12119e-01 ; 1.71  0.1463
 oh       oh          0.00000  0.00000   A     3.24287e-01   3.89112e-01 ; 1.82  0.0930
 na       na          0.00000  0.00000   A     3.20581e-01   8.54373e-01 ; 1.80  0.2042
 nh       nh          0.00000  0.00000   A     3.18995e-01   8.99560e-01 ; 1.79  0.2150
 n7       n7          0.00000  0.00000   A     3.50765e-01   2.18405e-01 ; 1.97  0.0522
 cx       cx          0.00000  0.00000   A     3.39771e-01   4.51035e-01 ; 1.91  0.1078
 ca       ca          0.00000  0.00000   A     3.31521e-01   4.13379e-01 ; 1.86  0.0988
 cc       cc          0.00000  0.00000   A     3.31521e-01   4.13379e-01 ; 1.86  0.0988
 c6       c6          0.00000  0.00000   A     3.39771e-01   4.51035e-01 ; 1.91  0.1078
 cd       cd          0.00000  0.00000   A     3.31521e-01   4.13379e-01 ; 1.86  0.0988
 c        c           0.00000  0.00000   A     3.31521e-01   4.13379e-01 ; 1.86  0.0988
 h1       h1          0.00000  0.00000   A     2.42200e-01   8.70272e-02 ; 1.36  0.0208
 hc       hc          0.00000  0.00000   A     2.60018e-01   8.70272e-02 ; 1.46  0.0208
 h4       h4          0.00000  0.00000   A     2.53639e-01   6.73624e-02 ; 1.42  0.0161
 ha       ha          0.00000  0.00000   A     2.62548e-01   6.73624e-02 ; 1.47  0.0161
 hn       hn          0.00000  0.00000   A     1.10650e-01   4.18400e-02 ; 0.62  0.0100
 ho       ho          0.00000  0.00000   A     5.37925e-02   1.96648e-02 ; 0.30  0.0047

[ moleculetype ]
;name            nrexcl
 ciprofloxacin    3

[ atoms ]
;   nr  type  resi  res  atom  cgnr     charge      mass       ; qtot   bond_type
     1    f     1   UNL     F    1    -0.132900     19.00000 ; qtot -0.133
     2    o     1   UNL     O    2    -0.529100     16.00000 ; qtot -0.662
     3   oh     1   UNL    O1    3    -0.560100     16.00000 ; qtot -1.222
     4    o     1   UNL    O2    4    -0.598000     16.00000 ; qtot -1.820
     5   na     1   UNL     N    5    -0.483800     14.01000 ; qtot -2.304
     6   nh     1   UNL    N1    6    -0.638000     14.01000 ; qtot -2.942
     7   n7     1   UNL    N2    7    -0.822200     14.01000 ; qtot -3.764
     8   cx     1   UNL     C    8     0.132500     12.01000 ; qtot -3.632
     9   cx     1   UNL    C1    9    -0.124900     12.01000 ; qtot -3.757
    10   cx     1   UNL    C2   10    -0.124900     12.01000 ; qtot -3.881
    11   ca     1   UNL    C3   11     0.184600     12.01000 ; qtot -3.697
    12   cc     1   UNL    C4   12     0.190000     12.01000 ; qtot -3.507
    13   ca     1   UNL    C5   13    -0.193600     12.01000 ; qtot -3.700
    14   ca     1   UNL    C6   14    -0.218000     12.01000 ; qtot -3.918
    15   ca     1   UNL    C7   15     0.162600     12.01000 ; qtot -3.756
    16   c6     1   UNL    C8   16     0.185800     12.01000 ; qtot -3.570
    17   c6     1   UNL    C9   17     0.185800     12.01000 ; qtot -3.384
    18   cd     1   UNL   C10   18    -0.337400     12.01000 ; qtot -3.722
    19    c     1   UNL   C11   19     0.603900     12.01000 ; qtot -3.118
    20   c6     1   UNL   C12   20     0.159300     12.01000 ; qtot -2.958
    21   c6     1   UNL   C13   21     0.159300     12.01000 ; qtot -2.799
    22   ca     1   UNL   C14   22    -0.073000     12.01000 ; qtot -2.872
    23   ca     1   UNL   C15   23     0.071900     12.01000 ; qtot -2.800
    24    c     1   UNL   C16   24     0.670300     12.01000 ; qtot -2.130
    25   h1     1   UNL     H   25     0.100700      1.00800 ; qtot -2.029
    26   hc     1   UNL    H1   26     0.087950      1.00800 ; qtot -1.941
    27   hc     1   UNL    H2   27     0.087950      1.00800 ; qtot -1.853
    28   hc     1   UNL    H3   28     0.087950      1.00800 ; qtot -1.765
    29   hc     1   UNL    H4   29     0.087950      1.00800 ; qtot -1.677
    30   h4     1   UNL    H5   30     0.184000      1.00800 ; qtot -1.493
    31   ha     1   UNL    H6   31     0.148000      1.00800 ; qtot -1.345
    32   h1     1   UNL    H7   32     0.048450      1.00800 ; qtot -1.297
    33   h1     1   UNL    H8   33     0.048450      1.00800 ; qtot -1.249
    34   h1     1   UNL    H9   34     0.048450      1.00800 ; qtot -1.200
    35   h1     1   UNL   H10   35     0.048450      1.00800 ; qtot -1.152
    36   h1     1   UNL   H11   36     0.040700      1.00800 ; qtot -1.111
    37   h1     1   UNL   H12   37     0.040700      1.00800 ; qtot -1.070
    38   h1     1   UNL   H13   38     0.040700      1.00800 ; qtot -1.030
    39   h1     1   UNL   H14   39     0.040700      1.00800 ; qtot -0.989
    40   ha     1   UNL   H15   40     0.181000      1.00800 ; qtot -0.808
    41   hn     1   UNL   H16   41     0.368800      1.00800 ; qtot -0.439
    42   ho     1   UNL   H17   42     0.439000      1.00800 ; qtot -0.000

[ bonds ]
;   ai     aj funct   r             k
     1     23   1    1.3502e-01    2.8070e+05 ;      F - C15   
     2     19   1    1.2190e-01    4.9421e+05 ;      O - C11   
     3     24   1    1.3556e-01    3.0064e+05 ;     O1 - C16   
     3     42   1    9.7250e-02    4.4811e+05 ;     O1 - H17   
     4     24   1    1.2190e-01    4.9421e+05 ;     O2 - C16   
     5      8   1    1.4614e-01    2.1492e+05 ;      N - C     
     5     11   1    1.3858e-01    2.7557e+05 ;      N - C3    
     5     12   1    1.3803e-01    2.8075e+05 ;      N - C4    
     6     15   1    1.4030e-01    2.6011e+05 ;     N1 - C7    
     6     16   1    1.4662e-01    2.1164e+05 ;     N1 - C8    
     6     17   1    1.4662e-01    2.1164e+05 ;     N1 - C9    
     7     20   1    1.4653e-01    2.1225e+05 ;     N2 - C12   
     7     21   1    1.4653e-01    2.1225e+05 ;     N2 - C13   
     7     41   1    1.0195e-01    3.8497e+05 ;     N2 - H16   
     8      9   1    1.5082e-01    2.0825e+05 ;      C - C1    
     8     10   1    1.5082e-01    2.0825e+05 ;      C - C2    
     8     25   1    1.0888e-01    2.9820e+05 ;      C - H     
     9     10   1    1.5082e-01    2.0825e+05 ;     C1 - C2    
     9     26   1    1.0865e-01    3.0117e+05 ;     C1 - H1    
     9     27   1    1.0865e-01    3.0117e+05 ;     C1 - H2    
    10     28   1    1.0865e-01    3.0117e+05 ;     C2 - H3    
    10     29   1    1.0865e-01    3.0117e+05 ;     C2 - H4    
    11     13   1    1.3986e-01    2.9644e+05 ;     C3 - C5    
    11     14   1    1.3986e-01    2.9644e+05 ;     C3 - C6    
    12     18   1    1.3730e-01    3.2321e+05 ;     C4 - C10   
    12     30   1    1.0809e-01    3.0854e+05 ;     C4 - H5    
    13     19   1    1.4907e-01    2.1994e+05 ;     C5 - C11   
    13     22   1    1.3986e-01    2.9644e+05 ;     C5 - C14   
    14     15   1    1.3986e-01    2.9644e+05 ;     C6 - C7    
    14     31   1    1.0860e-01    3.0183e+05 ;     C6 - H6    
    15     23   1    1.3986e-01    2.9644e+05 ;     C7 - C15   
    16     20   1    1.5384e-01    1.8979e+05 ;     C8 - C12   
    16     32   1    1.0984e-01    2.8620e+05 ;     C8 - H7    
    16     33   1    1.0984e-01    2.8620e+05 ;     C8 - H8    
    17     21   1    1.5384e-01    1.8979e+05 ;     C9 - C13   
    17     34   1    1.0984e-01    2.8620e+05 ;     C9 - H9    
    17     35   1    1.0984e-01    2.8620e+05 ;     C9 - H10   
    18     19   1    1.4728e-01    2.3273e+05 ;    C10 - C11   
    18     24   1    1.4728e-01    2.3273e+05 ;    C10 - C16   
    20     36   1    1.0984e-01    2.8620e+05 ;    C12 - H11   
    20     37   1    1.0984e-01    2.8620e+05 ;    C12 - H12   
    21     38   1    1.0984e-01    2.8620e+05 ;    C13 - H13   
    21     39   1    1.0984e-01    2.8620e+05 ;    C13 - H14   
    22     23   1    1.3986e-01    2.9644e+05 ;    C14 - C15   
    22     40   1    1.0860e-01    3.0183e+05 ;    C14 - H15   

[ pairs ]
;   ai     aj    funct
     1      6      1 ;      F - N1    
     1     13      1 ;      F - C5    
     1     14      1 ;      F - C6    
     1     40      1 ;      F - H15   
     2     11      1 ;      O - C3    
     2     12      1 ;      O - C4    
     2     22      1 ;      O - C14   
     2     24      1 ;      O - C16   
     3     12      1 ;     O1 - C4    
     3     19      1 ;     O1 - C11   
     4     12      1 ;     O2 - C4    
     4     19      1 ;     O2 - C11   
     4     42      1 ;     O2 - H17   
     5     15      1 ;      N - C7    
     5     19      1 ;      N - C11   
     5     22      1 ;      N - C14   
     5     24      1 ;      N - C16   
     5     26      1 ;      N - H1    
     5     27      1 ;      N - H2    
     5     28      1 ;      N - H3    
     5     29      1 ;      N - H4    
     5     31      1 ;      N - H6    
     6      7      1 ;     N1 - N2    
     6     11      1 ;     N1 - C3    
     6     22      1 ;     N1 - C14   
     6     31      1 ;     N1 - H6    
     6     36      1 ;     N1 - H11   
     6     37      1 ;     N1 - H12   
     6     38      1 ;     N1 - H13   
     6     39      1 ;     N1 - H14   
     7     32      1 ;     N2 - H7    
     7     33      1 ;     N2 - H8    
     7     34      1 ;     N2 - H9    
     7     35      1 ;     N2 - H10   
     8     13      1 ;      C - C5    
     8     14      1 ;      C - C6    
     8     18      1 ;      C - C10   
     8     30      1 ;      C - H5    
     9     11      1 ;     C1 - C3    
     9     12      1 ;     C1 - C4    
    10     11      1 ;     C2 - C3    
    10     12      1 ;     C2 - C4    
    11     18      1 ;     C3 - C10   
    11     23      1 ;     C3 - C15   
    11     25      1 ;     C3 - H     
    11     30      1 ;     C3 - H5    
    11     40      1 ;     C3 - H15   
    12     13      1 ;     C4 - C5    
    12     14      1 ;     C4 - C6    
    12     25      1 ;     C4 - H     
    13     15      1 ;     C5 - C7    
    13     24      1 ;     C5 - C16   
    13     31      1 ;     C5 - H6    
    14     16      1 ;     C6 - C8    
    14     17      1 ;     C6 - C9    
    14     19      1 ;     C6 - C11   
    14     22      1 ;     C6 - C14   
    15     20      1 ;     C7 - C12   
    15     21      1 ;     C7 - C13   
    15     32      1 ;     C7 - H7    
    15     33      1 ;     C7 - H8    
    15     34      1 ;     C7 - H9    
    15     35      1 ;     C7 - H10   
    15     40      1 ;     C7 - H15   
    16     21      1 ;     C8 - C13   
    16     23      1 ;     C8 - C15   
    16     34      1 ;     C8 - H9    
    16     35      1 ;     C8 - H10   
    16     41      1 ;     C8 - H16   
    17     20      1 ;     C9 - C12   
    17     23      1 ;     C9 - C15   
    17     32      1 ;     C9 - H7    
    17     33      1 ;     C9 - H8    
    17     41      1 ;     C9 - H16   
    18     22      1 ;    C10 - C14   
    18     42      1 ;    C10 - H17   
    19     23      1 ;    C11 - C15   
    19     30      1 ;    C11 - H5    
    19     40      1 ;    C11 - H15   
    20     38      1 ;    C12 - H13   
    20     39      1 ;    C12 - H14   
    21     36      1 ;    C13 - H11   
    21     37      1 ;    C13 - H12   
    23     31      1 ;    C15 - H6    
    24     30      1 ;    C16 - H5    
    25     26      1 ;      H - H1    
    25     27      1 ;      H - H2    
    25     28      1 ;      H - H3    
    25     29      1 ;      H - H4    
    26     28      1 ;     H1 - H3    
    26     29      1 ;     H1 - H4    
    27     28      1 ;     H2 - H3    
    27     29      1 ;     H2 - H4    
    32     36      1 ;     H7 - H11   
    32     37      1 ;     H7 - H12   
    33     36      1 ;     H8 - H11   
    33     37      1 ;     H8 - H12   
    34     38      1 ;     H9 - H13   
    34     39      1 ;     H9 - H14   
    35     38      1 ;    H10 - H13   
    35     39      1 ;    H10 - H14   
    36     41      1 ;    H11 - H16   
    37     41      1 ;    H12 - H16   
    38     41      1 ;    H13 - H16   
    39     41      1 ;    H14 - H16   

[ angles ]
;   ai     aj     ak    funct   theta         cth
     1     23     15      1    1.1896e+02    6.7404e+02 ;      F - C15    - C7    
     1     23     22      1    1.1896e+02    6.7404e+02 ;      F - C15    - C14   
     2     19     13      1    1.2260e+02    6.5237e+02 ;      O - C11    - C5    
     2     19     18      1    1.2371e+02    6.5530e+02 ;      O - C11    - C10   
     3     24      4      1    1.2209e+02    8.5379e+02 ;     O1 - C16    - O2    
     3     24     18      1    1.1350e+02    6.6049e+02 ;     O1 - C16    - C10   
     4     24     18      1    1.2371e+02    6.5530e+02 ;     O2 - C16    - C10   
     5      8      9      1    1.2607e+02    5.1957e+02 ;      N - C      - C1    
     5      8     10      1    1.2607e+02    5.1957e+02 ;      N - C      - C2    
     5      8     25      1    1.0827e+02    4.0443e+02 ;      N - C      - H     
     5     11     13      1    1.2031e+02    5.6752e+02 ;      N - C3     - C5    
     5     11     14      1    1.2031e+02    5.6752e+02 ;      N - C3     - C6    
     5     12     18      1    1.0675e+02    6.0927e+02 ;      N - C4     - C10   
     5     12     30      1    1.2101e+02    4.0158e+02 ;      N - C4     - H5    
     6     15     14      1    1.2113e+02    5.6216e+02 ;     N1 - C7     - C6    
     6     15     23      1    1.2113e+02    5.6216e+02 ;     N1 - C7     - C15   
     6     16     20      1    1.1028e+02    5.4869e+02 ;     N1 - C8     - C12   
     6     16     32      1    1.0932e+02    4.0083e+02 ;     N1 - C8     - H7    
     6     16     33      1    1.0932e+02    4.0083e+02 ;     N1 - C8     - H8    
     6     17     21      1    1.1028e+02    5.4869e+02 ;     N1 - C9     - C13   
     6     17     34      1    1.0932e+02    4.0083e+02 ;     N1 - C9     - H9    
     6     17     35      1    1.0932e+02    4.0083e+02 ;     N1 - C9     - H10   
     7     20     16      1    1.1083e+02    5.4752e+02 ;     N2 - C12    - C8    
     7     20     36      1    1.0853e+02    4.0250e+02 ;     N2 - C12    - H11   
     7     20     37      1    1.0853e+02    4.0250e+02 ;     N2 - C12    - H12   
     7     21     17      1    1.1083e+02    5.4752e+02 ;     N2 - C13    - C9    
     7     21     38      1    1.0853e+02    4.0250e+02 ;     N2 - C13    - H13   
     7     21     39      1    1.0853e+02    4.0250e+02 ;     N2 - C13    - H14   
     8      5     11      1    1.2474e+02    6.3371e+02 ;      C - N      - C3    
     8      5     12      1    1.2186e+02    6.4224e+02 ;      C - N      - C4    
     8      9     10      1    6.0000e+01    6.9881e+02 ;      C - C1     - C2    
     8      9     26      1    1.1769e+02    3.5556e+02 ;      C - C1     - H1    
     8      9     27      1    1.1769e+02    3.5556e+02 ;      C - C1     - H2    
     8     10      9      1    6.0000e+01    6.9881e+02 ;      C - C2     - C1    
     8     10     28      1    1.1769e+02    3.5556e+02 ;      C - C2     - H3    
     8     10     29      1    1.1769e+02    3.5556e+02 ;      C - C2     - H4    
     9      8     10      1    6.0000e+01    6.9881e+02 ;     C1 - C      - C2    
     9      8     25      1    1.1869e+02    3.5397e+02 ;     C1 - C      - H     
     9     10     28      1    1.1769e+02    3.5556e+02 ;     C1 - C2     - H3    
     9     10     29      1    1.1769e+02    3.5556e+02 ;     C1 - C2     - H4    
    10      8     25      1    1.1869e+02    3.5397e+02 ;     C2 - C      - H     
    10      9     26      1    1.1769e+02    3.5556e+02 ;     C2 - C1     - H1    
    10      9     27      1    1.1769e+02    3.5556e+02 ;     C2 - C1     - H2    
    11      5     12      1    1.1732e+02    6.7354e+02 ;     C3 - N      - C4    
    11     13     19      1    1.2033e+02    5.1413e+02 ;     C3 - C5     - C11   
    11     13     22      1    1.2002e+02    5.3279e+02 ;     C3 - C5     - C14   
    11     14     15      1    1.2002e+02    5.3279e+02 ;     C3 - C6     - C7    
    11     14     31      1    1.1988e+02    3.7572e+02 ;     C3 - C6     - H6    
    12     18     19      1    1.2132e+02    5.1965e+02 ;     C4 - C10    - C11   
    12     18     24      1    1.2132e+02    5.1965e+02 ;     C4 - C10    - C16   
    13     11     14      1    1.2002e+02    5.3279e+02 ;     C5 - C3     - C6    
    13     19     18      1    1.1749e+02    5.0827e+02 ;     C5 - C11    - C10   
    13     22     23      1    1.2002e+02    5.3279e+02 ;     C5 - C14    - C15   
    13     22     40      1    1.1988e+02    3.7572e+02 ;     C5 - C14    - H15   
    14     15     23      1    1.2002e+02    5.3279e+02 ;     C6 - C7     - C15   
    15      6     16      1    1.1823e+02    6.4618e+02 ;     C7 - N1     - C8    
    15      6     17      1    1.1823e+02    6.4618e+02 ;     C7 - N1     - C9    
    15     14     31      1    1.1988e+02    3.7572e+02 ;     C7 - C6     - H6    
    15     23     22      1    1.2002e+02    5.3279e+02 ;     C7 - C15    - C14   
    16      6     17      1    1.1233e+02    6.4927e+02 ;     C8 - N1     - C9    
    16     20     36      1    1.0918e+02    3.6217e+02 ;     C8 - C12    - H11   
    16     20     37      1    1.0918e+02    3.6217e+02 ;     C8 - C12    - H12   
    17     21     38      1    1.0918e+02    3.6217e+02 ;     C9 - C13    - H13   
    17     21     39      1    1.0918e+02    3.6217e+02 ;     C9 - C13    - H14   
    18     12     30      1    1.2911e+02    3.6777e+02 ;    C10 - C4     - H5    
    19     13     22      1    1.2033e+02    5.1413e+02 ;    C11 - C5     - C14   
    19     18     24      1    1.2156e+02    5.0275e+02 ;    C11 - C10    - C16   
    20      7     21      1    1.1208e+02    6.5036e+02 ;    C12 - N2     - C13   
    20      7     41      1    1.0926e+02    4.7070e+02 ;    C12 - N2     - H16   
    20     16     32      1    1.0918e+02    3.6217e+02 ;    C12 - C8     - H7    
    20     16     33      1    1.0918e+02    3.6217e+02 ;    C12 - C8     - H8    
    21      7     41      1    1.0926e+02    4.7070e+02 ;    C13 - N2     - H16   
    21     17     34      1    1.0918e+02    3.6217e+02 ;    C13 - C9     - H9    
    21     17     35      1    1.0918e+02    3.6217e+02 ;    C13 - C9     - H10   
    23     22     40      1    1.1988e+02    3.7572e+02 ;    C15 - C14    - H15   
    24      3     42      1    1.0654e+02    5.7287e+02 ;    C16 - O1     - H17   
    26      9     27      1    1.1443e+02    2.9330e+02 ;     H1 - C1     - H2    
    28     10     29      1    1.1443e+02    2.9330e+02 ;     H3 - C2     - H4    
    32     16     33      1    1.0750e+02    2.9932e+02 ;     H7 - C8     - H8    
    34     17     35      1    1.0750e+02    2.9932e+02 ;     H9 - C9     - H10   
    36     20     37      1    1.0750e+02    2.9932e+02 ;    H11 - C12    - H12   
    38     21     39      1    1.0750e+02    2.9932e+02 ;    H13 - C13    - H14   

[ dihedrals ] ; propers
; for gromacs 4.5 or higher, using funct 9
;    i      j      k      l   func   phase     kd      pn
     1     23     15      6      9   180.00  15.16700   2 ;      F-   C15-    C7-    N1
     1     23     15     14      9   180.00  15.16700   2 ;      F-   C15-    C7-    C6
     1     23     22     13      9   180.00  15.16700   2 ;      F-   C15-   C14-    C5
     1     23     22     40      9   180.00  15.16700   2 ;      F-   C15-   C14-   H15
     2     19     13     11      9   180.00   2.42672   2 ;      O-   C11-    C5-    C3
     2     19     13     22      9   180.00   2.42672   2 ;      O-   C11-    C5-   C14
     2     19     18     12      9   180.00  12.02900   2 ;      O-   C11-   C10-    C4
     2     19     18     24      9   180.00  12.02900   2 ;      O-   C11-   C10-   C16
     3     24     18     12      9   180.00  12.02900   2 ;     O1-   C16-   C10-    C4
     3     24     18     19      9   180.00  12.02900   2 ;     O1-   C16-   C10-   C11
     4     24      3     42      9     0.00   7.94960   1 ;     O2-   C16-    O1-   H17
     4     24      3     42      9   180.00   9.62320   2 ;     O2-   C16-    O1-   H17
     4     24     18     12      9   180.00  12.02900   2 ;     O2-   C16-   C10-    C4
     4     24     18     19      9   180.00  12.02900   2 ;     O2-   C16-   C10-   C11
     5      8      9     10      9     0.00   0.65084   3 ;      N-     C-    C1-    C2
     5      8      9     26      9     0.00   0.65084   3 ;      N-     C-    C1-    H1
     5      8      9     27      9     0.00   0.65084   3 ;      N-     C-    C1-    H2
     5      8     10      9      9     0.00   0.65084   3 ;      N-     C-    C2-    C1
     5      8     10     28      9     0.00   0.65084   3 ;      N-     C-    C2-    H3
     5      8     10     29      9     0.00   0.65084   3 ;      N-     C-    C2-    H4
     5     11     13     19      9   180.00  15.16700   2 ;      N-    C3-    C5-   C11
     5     11     13     22      9   180.00  15.16700   2 ;      N-    C3-    C5-   C14
     5     11     14     15      9   180.00  15.16700   2 ;      N-    C3-    C6-    C7
     5     11     14     31      9   180.00  15.16700   2 ;      N-    C3-    C6-    H6
     5     12     18     19      9   180.00  16.73600   2 ;      N-    C4-   C10-   C11
     5     12     18     24      9   180.00  16.73600   2 ;      N-    C4-   C10-   C16
     6     15     14     11      9   180.00  15.16700   2 ;     N1-    C7-    C6-    C3
     6     15     14     31      9   180.00  15.16700   2 ;     N1-    C7-    C6-    H6
     6     15     23     22      9   180.00  15.16700   2 ;     N1-    C7-   C15-   C14
     6     16     20      7      9     0.00   0.65084   3 ;     N1-    C8-   C12-    N2
     6     16     20     36      9     0.00   0.65084   3 ;     N1-    C8-   C12-   H11
     6     16     20     37      9     0.00   0.65084   3 ;     N1-    C8-   C12-   H12
     6     17     21      7      9     0.00   0.65084   3 ;     N1-    C9-   C13-    N2
     6     17     21     38      9     0.00   0.65084   3 ;     N1-    C9-   C13-   H13
     6     17     21     39      9     0.00   0.65084   3 ;     N1-    C9-   C13-   H14
     7     20     16     32      9     0.00   0.65084   3 ;     N2-   C12-    C8-    H7
     7     20     16     33      9     0.00   0.65084   3 ;     N2-   C12-    C8-    H8
     7     21     17     34      9     0.00   0.65084   3 ;     N2-   C13-    C9-    H9
     7     21     17     35      9     0.00   0.65084   3 ;     N2-   C13-    C9-   H10
     8      5     11     13      9   180.00   1.25520   2 ;      C-     N-    C3-    C5
     8      5     11     14      9   180.00   1.25520   2 ;      C-     N-    C3-    C6
     8      5     12     18      9   180.00   7.11280   2 ;      C-     N-    C4-   C10
     8      5     12     30      9   180.00   7.11280   2 ;      C-     N-    C4-    H5
     8      9     10     28      9     0.00   0.65084   3 ;      C-    C1-    C2-    H3
     8      9     10     29      9     0.00   0.65084   3 ;      C-    C1-    C2-    H4
     8     10      9     26      9     0.00   0.65084   3 ;      C-    C2-    C1-    H1
     8     10      9     27      9     0.00   0.65084   3 ;      C-    C2-    C1-    H2
     9      8      5     11      9     0.00   0.00000   0 ;     C1-     C-     N-    C3
     9      8      5     12      9     0.00   0.00000   0 ;     C1-     C-     N-    C4
     9      8     10     28      9     0.00   0.65084   3 ;     C1-     C-    C2-    H3
     9      8     10     29      9     0.00   0.65084   3 ;     C1-     C-    C2-    H4
     9     10      8     25      9     0.00   0.65084   3 ;     C1-    C2-     C-     H
    10      8      5     11      9     0.00   0.00000   0 ;     C2-     C-     N-    C3
    10      8      5     12      9     0.00   0.00000   0 ;     C2-     C-     N-    C4
    10      8      9     26      9     0.00   0.65084   3 ;     C2-     C-    C1-    H1
    10      8      9     27      9     0.00   0.65084   3 ;     C2-     C-    C1-    H2
    10      9      8     25      9     0.00   0.65084   3 ;     C2-    C1-     C-     H
    11      5      8     25      9     0.00   0.00000   0 ;     C3-     N-     C-     H
    11      5     12     18      9   180.00   7.11280   2 ;     C3-     N-    C4-   C10
    11      5     12     30      9   180.00   7.11280   2 ;     C3-     N-    C4-    H5
    11     13     19     18      9   180.00   4.18400   2 ;     C3-    C5-   C11-   C10
    11     13     22     23      9   180.00  15.16700   2 ;     C3-    C5-   C14-   C15
    11     13     22     40      9   180.00  15.16700   2 ;     C3-    C5-   C14-   H15
    11     14     15     23      9   180.00  15.16700   2 ;     C3-    C6-    C7-   C15
    12      5      8     25      9     0.00   0.00000   0 ;     C4-     N-     C-     H
    12      5     11     13      9   180.00   2.56479   2 ;     C4-     N-    C3-    C5
    12      5     11     14      9   180.00   2.56479   2 ;     C4-     N-    C3-    C6
    12     18     19     13      9   180.00  12.02900   2 ;     C4-   C10-   C11-    C5
    13     11     14     15      9   180.00  15.16700   2 ;     C5-    C3-    C6-    C7
    13     11     14     31      9   180.00  15.16700   2 ;     C5-    C3-    C6-    H6
    13     19     18     24      9   180.00  12.02900   2 ;     C5-   C11-   C10-   C16
    13     22     23     15      9   180.00  15.16700   2 ;     C5-   C14-   C15-    C7
    14     11     13     19      9   180.00  15.16700   2 ;     C6-    C3-    C5-   C11
    14     11     13     22      9   180.00  15.16700   2 ;     C6-    C3-    C5-   C14
    14     15      6     16      9   180.00   3.15055   2 ;     C6-    C7-    N1-    C8
    14     15      6     17      9   180.00   3.15055   2 ;     C6-    C7-    N1-    C9
    14     15     23     22      9   180.00  15.16700   2 ;     C6-    C7-   C15-   C14
    15      6     16     20      9     0.00   0.00000   0 ;     C7-    N1-    C8-   C12
    15      6     16     32      9     0.00   1.38909   2 ;     C7-    N1-    C8-    H7
    15      6     16     33      9     0.00   1.38909   2 ;     C7-    N1-    C8-    H8
    15      6     17     21      9     0.00   0.00000   0 ;     C7-    N1-    C9-   C13
    15      6     17     34      9     0.00   1.38909   2 ;     C7-    N1-    C9-    H9
    15      6     17     35      9     0.00   1.38909   2 ;     C7-    N1-    C9-   H10
    15     23     22     40      9   180.00  15.16700   2 ;     C7-   C15-   C14-   H15
    16      6     15     23      9   180.00   3.15055   2 ;     C8-    N1-    C7-   C15
    16      6     17     21      9     0.00   0.00000   0 ;     C8-    N1-    C9-   C13
    16      6     17     34      9     0.00   0.00000   0 ;     C8-    N1-    C9-    H9
    16      6     17     35      9     0.00   0.00000   0 ;     C8-    N1-    C9-   H10
    16     20      7     21      9     0.00   0.58576   3 ;     C8-   C12-    N2-   C13
    16     20      7     41      9     0.00   0.90793   3 ;     C8-   C12-    N2-   H16
    17      6     15     23      9   180.00   3.15055   2 ;     C9-    N1-    C7-   C15
    17      6     16     20      9     0.00   0.00000   0 ;     C9-    N1-    C8-   C12
    17      6     16     32      9     0.00   0.00000   0 ;     C9-    N1-    C8-    H7
    17      6     16     33      9     0.00   0.00000   0 ;     C9-    N1-    C8-    H8
    17     21      7     20      9     0.00   0.58576   3 ;     C9-   C13-    N2-   C12
    17     21      7     41      9     0.00   0.90793   3 ;     C9-   C13-    N2-   H16
    18     19     13     22      9   180.00   4.18400   2 ;    C10-   C11-    C5-   C14
    18     24      3     42      9   180.00   9.62320   2 ;    C10-   C16-    O1-   H17
    19     13     22     23      9   180.00  15.16700   2 ;    C11-    C5-   C14-   C15
    19     13     22     40      9   180.00  15.16700   2 ;    C11-    C5-   C14-   H15
    19     18     12     30      9   180.00  16.73600   2 ;    C11-   C10-    C4-    H5
    20      7     21     38      9     0.00   0.89956   3 ;    C12-    N2-   C13-   H13
    20      7     21     39      9     0.00   0.89956   3 ;    C12-    N2-   C13-   H14
    21      7     20     36      9     0.00   0.89956   3 ;    C13-    N2-   C12-   H11
    21      7     20     37      9     0.00   0.89956   3 ;    C13-    N2-   C12-   H12
    23     15     14     31      9   180.00  15.16700   2 ;    C15-    C7-    C6-    H6
    24     18     12     30      9   180.00  16.73600   2 ;    C16-   C10-    C4-    H5
    25      8      9     26      9     0.00   0.65084   3 ;      H-     C-    C1-    H1
    25      8      9     27      9     0.00   0.65084   3 ;      H-     C-    C1-    H2
    25      8     10     28      9     0.00   0.65084   3 ;      H-     C-    C2-    H3
    25      8     10     29      9     0.00   0.65084   3 ;      H-     C-    C2-    H4
    26      9     10     28      9     0.00   0.65084   3 ;     H1-    C1-    C2-    H3
    26      9     10     29      9     0.00   0.65084   3 ;     H1-    C1-    C2-    H4
    27      9     10     28      9     0.00   0.65084   3 ;     H2-    C1-    C2-    H3
    27      9     10     29      9     0.00   0.65084   3 ;     H2-    C1-    C2-    H4
    32     16     20     36      9     0.00   0.65084   3 ;     H7-    C8-   C12-   H11
    32     16     20     37      9     0.00   0.65084   3 ;     H7-    C8-   C12-   H12
    33     16     20     36      9     0.00   0.65084   3 ;     H8-    C8-   C12-   H11
    33     16     20     37      9     0.00   0.65084   3 ;     H8-    C8-   C12-   H12
    34     17     21     38      9     0.00   0.65084   3 ;     H9-    C9-   C13-   H13
    34     17     21     39      9     0.00   0.65084   3 ;     H9-    C9-   C13-   H14
    35     17     21     38      9     0.00   0.65084   3 ;    H10-    C9-   C13-   H13
    35     17     21     39      9     0.00   0.65084   3 ;    H10-    C9-   C13-   H14
    36     20      7     41      9     0.00   1.25520   3 ;    H11-   C12-    N2-   H16
    37     20      7     41      9     0.00   1.25520   3 ;    H12-   C12-    N2-   H16
    38     21      7     41      9     0.00   1.25520   3 ;    H13-   C13-    N2-   H16
    39     21      7     41      9     0.00   1.25520   3 ;    H14-   C13-    N2-   H16

[ dihedrals ] ; impropers
; treated as propers in GROMACS to use correct AMBER analytical function
;    i      j      k      l   func   phase     kd      pn
     1     23     22     15      4   180.00   4.60240   2 ;      F-   C15-   C14-    C7
    11     12      5      8      4   180.00   4.60240   2 ;     C3-    C4-     N-     C
    11     15     14     31      4   180.00   4.60240   2 ;     C3-    C7-    C6-    H6
    13     14     11      5      4   180.00   4.60240   2 ;     C5-    C6-    C3-     N
    13     18     19      2      4   180.00  43.93200   2 ;     C5-   C10-   C11-     O
    13     23     22     40      4   180.00   4.60240   2 ;     C5-   C15-   C14-   H15
    14     23     15      6      4   180.00   4.60240   2 ;     C6-   C15-    C7-    N1
    16     17      6     15      4   180.00   4.60240   2 ;     C8-    C9-    N1-    C7
    18      4     24      3      4   180.00   4.60240   2 ;    C10-    O2-   C16-    O1
    18     30     12      5      4   180.00   4.60240   2 ;    C10-    H5-    C4-     N
    19     11     13     22      4   180.00   4.60240   2 ;    C11-    C3-    C5-   C14
    19     24     18     12      4   180.00   4.60240   2 ;    C11-   C16-   C10-    C4
