ciprofloxacin_GMX.gro created by acpype (v: 2023.10.27) on Mon Feb  9 17:38:27 2026
 42
    1  UNL    F    1  -0.222   0.278   0.036
    1  UNL    O    2   0.281   0.252   0.023
    1  UNL   O1    3   0.516   0.146   0.068
    1  UNL   O2    4   0.560  -0.029  -0.073
    1  UNL    N    5   0.153  -0.131  -0.029
    1  UNL   N1    6  -0.313   0.019   0.001
    1  UNL   N2    7  -0.588  -0.052  -0.025
    1  UNL    C    8   0.115  -0.273  -0.049
    1  UNL   C1    9   0.169  -0.380   0.040
    1  UNL   C2   10   0.024  -0.342   0.048
    1  UNL   C3   11   0.055  -0.029  -0.013
    1  UNL   C4   12   0.287  -0.098  -0.027
    1  UNL   C5   13   0.097   0.105   0.006
    1  UNL   C6   14  -0.083  -0.055  -0.014
    1  UNL   C7   15  -0.176   0.048   0.003
    1  UNL   C8   16  -0.396   0.083  -0.102
    1  UNL   C9   17  -0.360  -0.112   0.049
    1  UNL  C10   18   0.337   0.025  -0.010
    1  UNL  C11   19   0.242   0.137   0.008
    1  UNL  C12   20  -0.543   0.083  -0.059
    1  UNL  C13   21  -0.508  -0.105   0.086
    1  UNL  C14   22   0.003   0.208   0.022
    1  UNL  C15   23  -0.133   0.179   0.021
    1  UNL  C16   24   0.482   0.042  -0.011
    1  UNL    H   25   0.102  -0.297  -0.154
    1  UNL   H1   26   0.232  -0.352   0.124
    1  UNL   H2   27   0.194  -0.475  -0.005
    1  UNL   H3   28  -0.048  -0.412   0.009
    1  UNL   H4   29  -0.007  -0.291   0.139
    1  UNL   H5   30   0.352  -0.184  -0.041
    1  UNL   H6   31  -0.119  -0.155  -0.034
    1  UNL   H7   32  -0.384   0.028  -0.196
    1  UNL   H8   33  -0.366   0.186  -0.121
    1  UNL   H9   34  -0.304  -0.143   0.138
    1  UNL  H10   35  -0.345  -0.188  -0.029
    1  UNL  H11   36  -0.558   0.150   0.026
    1  UNL  H12   37  -0.604   0.121  -0.142
    1  UNL  H13   38  -0.544  -0.206   0.110
    1  UNL  H14   39  -0.522  -0.043   0.175
    1  UNL  H15   40   0.035   0.311   0.036
    1  UNL  H16   41  -0.686  -0.048   0.004
    1  UNL  H17   42   0.613   0.160   0.070
   25.98600    15.71800     7.42600
