; ciprofloxacin_GMX.top created by acpype (v: 2023.10.27) on Mon Feb  9 17:38:27 2026

[ defaults ]
; nbfunc        comb-rule       gen-pairs       fudgeLJ fudgeQQ
1               2               yes             0.5     0.8333333333

; Include ciprofloxacin_GMX.itp topology
#include "ciprofloxacin_GMX.itp"

; Ligand position restraints
#ifdef POSRES_LIG
#include "posre_ciprofloxacin.itp"
#endif

[ system ]
 ciprofloxacin

[ molecules ]
; Compound        nmols
 ciprofloxacin    1     
