2764
    42
  -2.2160000   2.7830000   0.3610000   2.8090000   2.5240000   0.2330000
   5.1620000   1.4600000   0.6810000   5.5980000  -0.2900000  -0.7260000
   1.5280000  -1.3110000  -0.2910000  -3.1270000   0.1880000   0.0110000
  -5.8810000  -0.5180000  -0.2460000   1.1460000  -2.7270000  -0.4860000
   1.6920000  -3.7950000   0.4010000   0.2420000  -3.4160000   0.4810000
   0.5510000  -0.2890000  -0.1260000   2.8700000  -0.9820000  -0.2690000
   0.9660000   1.0480000   0.0570000  -0.8290000  -0.5520000  -0.1380000
  -1.7590000   0.4790000   0.0260000  -3.9590000   0.8290000  -1.0160000
  -3.5990000  -1.1170000   0.4880000   3.3690000   0.2490000  -0.1020000
   2.4160000   1.3740000   0.0770000  -5.4280000   0.8280000  -0.5930000
  -5.0810000  -1.0500000   0.8560000   0.0340000   2.0800000   0.2210000
  -1.3290000   1.7900000   0.2050000   4.8230000   0.4150000  -0.1050000
   1.0250000  -2.9710000  -1.5370000   2.3240000  -3.5200000   1.2370000
   1.9400000  -4.7490000  -0.0490000  -0.4830000  -4.1160000   0.0850000
  -0.0720000  -2.9130000   1.3880000   3.5220000  -1.8390000  -0.4090000
  -1.1880000  -1.5550000  -0.3360000  -3.8410000   0.2840000  -1.9620000
  -3.6590000   1.8650000  -1.2070000  -3.0400000  -1.4310000   1.3780000
  -3.4510000  -1.8750000  -0.2920000  -5.5770000   1.5040000   0.2580000
  -6.0400000   1.2090000  -1.4170000  -5.4360000  -2.0560000   1.1040000
  -5.2200000  -0.4300000   1.7510000   0.3490000   3.1100000   0.3620000
  -6.8600000  -0.4800000   0.0380000   6.1330000   1.6030000   0.7050000
