%VERSION  VERSION_STAMP = V0001.000  DATE = 02/09/26  17:39:01                  
%FLAG TITLE                                                                     
%FORMAT(20a4)                                                                   
2764                                                                            
%FLAG POINTERS                                                                  
%FORMAT(10I8)                                                                   
      42      14      18      27      42      40      76      63       0       0
     235       1      27      40      63      22      36      20      18       0
       0       0       0       0       0       0       0       0      42       0
       0
%FLAG ATOM_NAME                                                                 
%FORMAT(20a4)                                                                   
F   O   O1  O2  N   N1  N2  C   C1  C2  C3  C4  C5  C6  C7  C8  C9  C10 C11 C12 
C13 C14 C15 C16 H   H1  H2  H3  H4  H5  H6  H7  H8  H9  H10 H11 H12 H13 H14 H15 
H16 H17 
%FLAG CHARGE                                                                    
%FORMAT(5E16.8)                                                                 
 -2.42174367E+00 -9.64141893E+00 -1.02063102E+01 -1.08969354E+01 -8.81594874E+00
 -1.16258274E+01 -1.49641528E+01  2.41445475E+00 -2.27596527E+00 -2.27596527E+00
  3.36383658E+00  3.46223700E+00 -3.52783728E+00 -3.97246140E+00  2.96294598E+00
  3.38570334E+00  3.38570334E+00 -6.14820402E+00  1.10044470E+01  2.90281239E+00
  2.90281239E+00 -1.33022790E+00  1.31018337E+00  1.22144077E+01  1.83498561E+00
  1.60265129E+00  1.60265129E+00  1.60265129E+00  1.60265129E+00  3.35290320E+00
  2.69690040E+00  8.82870435E-01  8.82870435E-01  8.82870435E-01  8.82870435E-01
  7.41647610E-01  7.41647610E-01  7.41647610E-01  7.41647610E-01  3.29823630E+00
  6.72038424E+00  7.99958970E+00
%FLAG ATOMIC_NUMBER                                                             
%FORMAT(10I8)                                                                   
       9       8       8       8       7       7       7       6       6       6
       6       6       6       6       6       6       6       6       6       6
       6       6       6       6       1       1       1       1       1       1
       1       1       1       1       1       1       1       1       1       1
       1       1
%FLAG MASS                                                                      
%FORMAT(5E16.8)                                                                 
  1.90000000E+01  1.60000000E+01  1.60000000E+01  1.60000000E+01  1.40100000E+01
  1.40100000E+01  1.40100000E+01  1.20100000E+01  1.20100000E+01  1.20100000E+01
  1.20100000E+01  1.20100000E+01  1.20100000E+01  1.20100000E+01  1.20100000E+01
  1.20100000E+01  1.20100000E+01  1.20100000E+01  1.20100000E+01  1.20100000E+01
  1.20100000E+01  1.20100000E+01  1.20100000E+01  1.20100000E+01  1.00800000E+00
  1.00800000E+00  1.00800000E+00  1.00800000E+00  1.00800000E+00  1.00800000E+00
  1.00800000E+00  1.00800000E+00  1.00800000E+00  1.00800000E+00  1.00800000E+00
  1.00800000E+00  1.00800000E+00  1.00800000E+00  1.00800000E+00  1.00800000E+00
  1.00800000E+00  1.00800000E+00
%FLAG ATOM_TYPE_INDEX                                                           
%FORMAT(10I8)                                                                   
       1       2       3       2       4       5       6       7       7       7
       8       8       8       8       8       7       7       8       8       7
       7       8       8       8       9      10      10      10      10      11
      12       9       9       9       9       9       9       9       9      12
      13      14
%FLAG NUMBER_EXCLUDED_ATOMS                                                     
%FORMAT(10I8)                                                                   
       7       7       6       5      19      19      13      13       8       7
      12       7       9       7      12      11      10       5       5       8
       7       2       2       2       4       3       2       1       1       1
       1       3       2       3       2       2       1       2       1       1
       1       1
%FLAG NONBONDED_PARM_INDEX                                                      
%FORMAT(10I8)                                                                   
       1       2       4       7      11      16      22      29      37      46
      56      67      79      92       2       3       5       8      12      17
      23      30      38      47      57      68      80      93       4       5
       6       9      13      18      24      31      39      48      58      69
      81      94       7       8       9      10      14      19      25      32
      40      49      59      70      82      95      11      12      13      14
      15      20      26      33      41      50      60      71      83      96
      16      17      18      19      20      21      27      34      42      51
      61      72      84      97      22      23      24      25      26      27
      28      35      43      52      62      73      85      98      29      30
      31      32      33      34      35      36      44      53      63      74
      86      99      37      38      39      40      41      42      43      44
      45      54      64      75      87     100      46      47      48      49
      50      51      52      53      54      55      65      76      88     101
      56      57      58      59      60      61      62      63      64      65
      66      77      89     102      67      68      69      70      71      72
      73      74      75      76      77      78      90     103      79      80
      81      82      83      84      85      86      87      88      89      90
      91     104      92      93      94      95      96      97      98      99
     100     101     102     103     104     105
%FLAG RESIDUE_LABEL                                                             
%FORMAT(20a4)                                                                   
UNL 
%FLAG RESIDUE_POINTER                                                           
%FORMAT(10I8)                                                                   
       1
%FLAG BOND_FORCE_CONSTANT                                                       
%FORMAT(5E16.8)                                                                 
  3.35440000E+02  5.90600000E+02  3.59270000E+02  5.35510000E+02  2.56830000E+02
  3.29320000E+02  3.35500000E+02  3.10840000E+02  2.52920000E+02  2.53650000E+02
  4.60050000E+02  2.48860000E+02  3.56360000E+02  3.59910000E+02  3.54250000E+02
  3.86240000E+02  3.68720000E+02  2.62840000E+02  3.60690000E+02  2.26810000E+02
  3.42020000E+02  2.78120000E+02
%FLAG BOND_EQUIL_VALUE                                                          
%FORMAT(5E16.8)                                                                 
  1.35020000E+00  1.21900000E+00  1.35560000E+00  9.72500000E-01  1.46140000E+00
  1.38580000E+00  1.38030000E+00  1.40300000E+00  1.46620000E+00  1.46530000E+00
  1.01950000E+00  1.50820000E+00  1.08880000E+00  1.08650000E+00  1.39860000E+00
  1.37300000E+00  1.08090000E+00  1.49070000E+00  1.08600000E+00  1.53840000E+00
  1.09840000E+00  1.47280000E+00
%FLAG ANGLE_FORCE_CONSTANT                                                      
%FORMAT(5E16.8)                                                                 
  8.05500000E+01  7.79600000E+01  7.83100000E+01  1.02030000E+02  7.89300000E+01
  6.20900000E+01  4.83300000E+01  6.78200000E+01  7.28100000E+01  4.79900000E+01
  6.71800000E+01  6.55700000E+01  4.79000000E+01  6.54300000E+01  4.81000000E+01
  7.57300000E+01  7.67500000E+01  8.35100000E+01  4.24900000E+01  4.23000000E+01
  8.04900000E+01  6.14400000E+01  6.36700000E+01  4.49000000E+01  6.21000000E+01
  6.07400000E+01  7.72200000E+01  7.75900000E+01  4.32800000E+01  4.39500000E+01
  6.00800000E+01  7.77200000E+01  5.62500000E+01  6.84600000E+01  3.50500000E+01
  3.57700000E+01
%FLAG ANGLE_EQUIL_VALUE                                                         
%FORMAT(5E16.8)                                                                 
  2.07624457E+00  2.13977458E+00  2.15914774E+00  2.13087340E+00  1.98094955E+00
  2.20033753E+00  1.88966879E+00  2.09980652E+00  1.86313978E+00  2.11202383E+00
  2.11411823E+00  1.92474992E+00  1.90799476E+00  1.93434924E+00  1.89420665E+00
  2.17712464E+00  2.12685914E+00  1.04719800E+00  2.05407888E+00  2.07153218E+00
  2.04762116E+00  2.10015559E+00  2.09474507E+00  2.09230160E+00  2.11743436E+00
  2.05058822E+00  2.06350366E+00  1.96052919E+00  1.90555129E+00  2.25339556E+00
  2.12162315E+00  1.95616586E+00  1.90694756E+00  1.85947458E+00  1.99718112E+00
  1.87622975E+00
%FLAG DIHEDRAL_FORCE_CONSTANT                                                   
%FORMAT(5E16.8)                                                                 
  3.62500000E+00  5.80000000E-01  2.87500000E+00  1.90000000E+00  2.30000000E+00
  1.55555556E-01  4.00000000E+00  3.00000000E-01  1.70000000E+00  0.00000000E+00
  1.00000000E+00  6.13000000E-01  7.53000000E-01  3.32000000E-01  1.40000000E-01
  2.17000000E-01  2.15000000E-01  3.00000000E-01  1.10000000E+00  1.05000000E+01
%FLAG DIHEDRAL_PERIODICITY                                                      
%FORMAT(5E16.8)                                                                 
  2.00000000E+00  2.00000000E+00  2.00000000E+00  1.00000000E+00  2.00000000E+00
  3.00000000E+00  2.00000000E+00  2.00000000E+00  2.00000000E+00  2.00000000E+00
  2.00000000E+00  2.00000000E+00  2.00000000E+00  2.00000000E+00  3.00000000E+00
  3.00000000E+00  3.00000000E+00  3.00000000E+00  2.00000000E+00  2.00000000E+00
%FLAG DIHEDRAL_PHASE                                                            
%FORMAT(5E16.8)                                                                 
  3.14159400E+00  3.14159400E+00  3.14159400E+00  0.00000000E+00  3.14159400E+00
  0.00000000E+00  3.14159400E+00  3.14159400E+00  3.14159400E+00  0.00000000E+00
  3.14159400E+00  3.14159400E+00  3.14159400E+00  0.00000000E+00  0.00000000E+00
  0.00000000E+00  0.00000000E+00  0.00000000E+00  3.14159400E+00  3.14159400E+00
%FLAG SCEE_SCALE_FACTOR                                                         
%FORMAT(5E16.8)                                                                 
  1.20000000E+00  1.20000000E+00  1.20000000E+00  1.20000000E+00  1.20000000E+00
  1.20000000E+00  1.20000000E+00  1.20000000E+00  1.20000000E+00  1.20000000E+00
  1.20000000E+00  1.20000000E+00  1.20000000E+00  1.20000000E+00  1.20000000E+00
  1.20000000E+00  1.20000000E+00  1.20000000E+00  0.00000000E+00  0.00000000E+00
%FLAG SCNB_SCALE_FACTOR                                                         
%FORMAT(5E16.8)                                                                 
  2.00000000E+00  2.00000000E+00  2.00000000E+00  2.00000000E+00  2.00000000E+00
  2.00000000E+00  2.00000000E+00  2.00000000E+00  2.00000000E+00  2.00000000E+00
  2.00000000E+00  2.00000000E+00  2.00000000E+00  2.00000000E+00  2.00000000E+00
  2.00000000E+00  2.00000000E+00  2.00000000E+00  0.00000000E+00  0.00000000E+00
%FLAG SOLTY                                                                     
%FORMAT(5E16.8)                                                                 
  0.00000000E+00  0.00000000E+00  0.00000000E+00  0.00000000E+00  0.00000000E+00
  0.00000000E+00  0.00000000E+00  0.00000000E+00  0.00000000E+00  0.00000000E+00
  0.00000000E+00  0.00000000E+00  0.00000000E+00  0.00000000E+00  0.00000000E+00
  0.00000000E+00  0.00000000E+00  0.00000000E+00
%FLAG LENNARD_JONES_ACOEF                                                       
%FORMAT(5E16.8)                                                                 
  2.02652992E+05  2.76207447E+05  3.76435470E+05  3.21445185E+05  4.37717034E+05
  5.03152404E+05  4.43641379E+05  6.04208667E+05  6.96017793E+05  9.62429652E+05
  4.41532129E+05  6.01376873E+05  6.93394194E+05  9.58637891E+05  9.54790629E+05
  3.95384195E+05  5.37823556E+05  6.09286822E+05  8.45117747E+05  8.42914931E+05
  7.24302894E+05  4.63627012E+05  6.30925504E+05  7.18991463E+05  9.96191545E+05
  9.93125065E+05  8.61147463E+05  1.02073671E+06  3.80155513E+05  5.17507491E+05
  5.92438683E+05  8.20152428E+05  8.17329084E+05  7.13691175E+05  8.43969952E+05
  6.96551276E+05  2.82810778E+04  3.86646725E+04  4.69084694E+04  6.42436358E+04
  6.37258620E+04  6.08009173E+04  6.97998263E+04  5.63013422E+04  3.39005767E+03
  4.15877422E+04  5.68021765E+04  6.80216136E+04  9.33839501E+04  9.27277603E+04
  8.67370500E+04  1.00235148E+05  8.12662403E+04  5.22955465E+03  7.94617769E+03
  3.19160477E+04  4.36069364E+04  5.24591488E+04  7.19580450E+04  7.14263282E+04
  6.72778264E+04  7.75673747E+04  6.27751680E+04  3.94664935E+03  6.02863188E+03
  4.56536476E+03  3.86097375E+04  5.27277400E+04  6.30298721E+04  8.65595848E+04
  8.59636060E+04  8.01918051E+04  9.27554496E+04  7.52549148E+04  4.88692384E+03
  7.41026906E+03  5.62610481E+03  6.90855956E+03  7.15600927E+02  9.87857350E+02
  1.36475542E+03  1.82491629E+03  1.79157166E+03  2.07791361E+03  2.23577481E+03
  1.71458823E+03  5.24570081E+01  9.47421632E+01  6.76796831E+01  9.04434904E+01
  1.34728399E-01  8.33610614E+01  1.15813907E+02  1.74176419E+02  2.29317644E+02
  2.23617883E+02  2.93996564E+02  3.03553352E+02  2.25372434E+02  4.36660257E+00
  8.80612241E+00  6.05535196E+00  8.53132435E+00  2.61760843E-03  1.10360882E-05
%FLAG LENNARD_JONES_BCOEF                                                       
%FORMAT(5E16.8)                                                                 
  2.59697739E+02  3.49131956E+02  4.69350655E+02  3.36306318E+02  4.51916854E+02
  4.32634597E+02  4.80939874E+02  6.46321327E+02  6.19405188E+02  8.86629877E+02
  4.86017154E+02  6.53166727E+02  6.26253907E+02  8.96356641E+02  9.06156687E+02
  3.22840570E+02  4.33589357E+02  4.12077831E+02  5.90772358E+02  5.97653008E+02
  3.88888730E+02  4.19082844E+02  5.62969425E+02  5.36620538E+02  7.68900328E+02
  7.77671659E+02  5.08324538E+02  6.63431737E+02  3.71304925E+02  4.98871431E+02
  4.76608379E+02  6.82622272E+02  6.90283231E+02  4.52784989E+02  5.90251928E+02
  5.24668528E+02  6.86000827E+01  9.23664132E+01  9.08431526E+01  1.29412081E+02
  1.30560951E+02  8.95196800E+01  1.14981426E+02  1.01040256E+02  1.67944276E+01
  8.31877412E+01  1.11953944E+02  1.09393126E+02  1.56025608E+02  1.57492664E+02
  1.06921681E+02  1.37787728E+02  1.21392023E+02  2.08590256E+01  2.57122925E+01
  6.83552458E+01  9.20079458E+01  9.01089277E+01  1.28466555E+02  1.29650812E+02
  8.83263058E+01  1.13692208E+02  1.00073628E+02  1.69967767E+01  2.10068861E+01
  1.71467049E+01  7.51823196E+01  1.01173582E+02  9.87712192E+01  1.40899023E+02
  1.42233990E+02  9.64315361E+01  1.24325688E+02  1.09570372E+02  1.89134207E+01
  2.32899892E+01  1.90347353E+01  2.10929191E+01  9.08649254E+00  1.22938581E+01
  1.29026271E+01  1.81620725E+01  1.82287422E+01  1.37803855E+01  1.71355763E+01
  1.46824710E+01  1.73959275E+00  2.33785449E+00  1.85338491E+00  2.14252117E+00
  7.34107347E-02  2.56783379E+00  3.48534600E+00  3.81654050E+00  5.33073545E+00
  5.33233396E+00  4.29183694E+00  5.22789272E+00  4.40751799E+00  4.15568027E-01
  5.90150328E-01  4.59018960E-01  5.44840215E-01  8.47240681E-03  4.55498033E-04
%FLAG BONDS_INC_HYDROGEN                                                        
%FORMAT(10I8)                                                                   
       6     123       4      18     120      11      21      72      13      24
      75      14      24      78      14      27      81      14      27      84
      14      33      87      17      39      90      19      45      93      21
      45      96      21      48      99      21      48     102      21      57
     105      21      57     108      21      60     111      21      60     114
      21      63     117      19
%FLAG BONDS_WITHOUT_HYDROGEN                                                    
%FORMAT(10I8)                                                                   
       0      66       1       3      54       2       6      69       3       9
      69       2      12      21       5      12      30       6      12      33
       7      15      42       8      15      45       9      15      48       9
      18      57      10      18      60      10      21      24      12      21
      27      12      24      27      12      30      36      15      30      39
      15      33      51      16      36      54      18      36      63      15
      39      42      15      42      66      15      45      57      20      48
      60      20      51      54      22      51      69      22      63      66
      15
%FLAG ANGLES_INC_HYDROGEN                                                       
%FORMAT(10I8)                                                                   
      12      21      72       7      12      33      87      10      15      45
      93      13      15      45      96      13      15      48      99      13
      15      48     102      13      18      57     105      15      18      57
     108      15      18      60     111      15      18      60     114      15
      21      24      75      19      21      24      78      19      21      27
      81      19      21      27      84      19      24      21      72      20
      24      27      81      19      24      27      84      19      27      21
      72      20      27      24      75      19      27      24      78      19
      30      39      90      24      36      63     117      24      42      39
      90      24      45      57     105      29      45      57     108      29
      48      60     111      29      48      60     114      29      51      33
      87      30      57      18     120      33      57      45      93      29
      57      45      96      29      60      18     120      33      60      48
      99      29      60      48     102      29      66      63     117      24
      69       6     123      34      75      24      78      35      81      27
      84      35      93      45      96      36      99      48     102      36
     105      57     108      36     111      60     114      36
%FLAG ANGLES_WITHOUT_HYDROGEN                                                   
%FORMAT(10I8)                                                                   
       0      66      42       1       0      66      63       1       3      54
      36       2       3      54      51       3       6      69       9       4
       6      69      51       5       9      69      51       3      12      21
      24       6      12      21      27       6      12      30      36       8
      12      30      39       8      12      33      51       9      15      42
      39      11      15      42      66      11      15      45      57      12
      15      48      60      12      18      57      45      14      18      60
      48      14      21      12      30      16      21      12      33      17
      21      24      27      18      21      27      24      18      24      21
      27      18      30      12      33      21      30      36      54      22
      30      36      63      23      30      39      42      23      33      51
      54      25      33      51      69      25      36      30      39      23
      36      54      51      26      36      63      66      23      39      42
      66      23      42      15      45      27      42      15      48      27
      42      66      63      23      45      15      48      28      54      36
      63      22      54      51      69      31      57      18      60      32
%FLAG DIHEDRALS_INC_HYDROGEN                                                    
%FORMAT(10I8)                                                                   
       0      66      63     117       1       9      69       6     123       4
       9      69      -6     123       5      12      21      24      75       6
      12      21      24      78       6      12      21      27      81       6
      12      21      27      84       6      12      30      39      90       1
      15      42      39      90       1      15      45      57     105       6
      15      45      57     108       6      15      48      60     111       6
      15      48      60     114       6      18      57      45      93       6
      18      57      45      96       6      18      60      48      99       6
      18      60      48     102       6      21      12      33      87       9
      21      24     -27      81       6      21      24     -27      84       6
      21      27     -24      75       6      21      27     -24      78       6
      24      21     -27      81       6      24      21     -27      84       6
      24      27     -21      72       6      27      21     -24      75       6
      27      21     -24      78       6      27      24     -21      72       6
      30      12      21      72      10      30      12      33      87       9
      30      36      63     117       1      33      12      21      72      10
      36      30      39      90       1      42      15      45      93      14
      42      15      45      96      14      42      15      48      99      14
      42      15      48     102      14      42      66      63     117       1
      45      15      48      99      10      45      15      48     102      10
      45      57      18     120      16      48      15      45      93      10
      48      15      45      96      10      48      60      18     120      16
      51      69       6     123       5      54      36      63     117       1
      54      51      33      87       7      57      18      60     111      17
      57      18      60     114      17      60      18      57     105      17
      60      18      57     108      17      66      42      39      90       1
      69      51      33      87       7      72      21      24      75       6
      72      21      24      78       6      72      21      27      81       6
      72      21      27      84       6      75      24      27      81       6
      75      24      27      84       6      78      24      27      81       6
      78      24      27      84       6      93      45      57     105       6
      93      45      57     108       6      96      45      57     105       6
      96      45      57     108       6      99      48      60     111       6
      99      48      60     114       6     102      48      60     111       6
     102      48      60     114       6     105      57      18     120      18
     108      57      18     120      18     111      60      18     120      18
     114      60      18     120      18      51      87     -33     -12      19
      30      42     -39     -90      19      36      66     -63    -117      19
%FLAG DIHEDRALS_WITHOUT_HYDROGEN                                                
%FORMAT(10I8)                                                                   
       0      66      42      15       1       0      66      42      39       1
       0      66      63      36       1       3      54      36      30       2
       3      54      36      63       2       3      54      51      33       3
       3      54      51      69       3       6      69      51      33       3
       6      69      51      54       3       9      69      51      33       3
       9      69      51      54       3      12      21     -24      27       6
      12      21     -27      24       6      12      30      36      54       1
      12      30      36      63       1      12      30      39      42       1
      12      33     -51      54       7      12      33      51      69       7
      15      42      39      30       1      15      42      66      63       1
      15      45      57      18       6      15      48     -60      18       6
      21      12      30      36       8      21      12      30      39       8
      21      12      33      51       9      24      21      12      30      10
      24      21      12      33      10      27      21      12      30      10
      27      21      12      33      10      30      12      33      51       9
      30      36     -54      51      11      30      36      63      66       1
      30      39     -42      66       1      33      12      30      36      12
      33      12      30      39      12      33      51     -54      36       3
      36      30      39      42       1      36      54      51      69       3
      36      63     -66      42       1      39      30      36      54       1
      39      30      36      63       1      39      42      15      45      13
      39      42      15      48      13      39      42     -66      63       1
      42      15      45      57      10      42      15      48      60      10
      45      15      42      66      13      45      15      48      60      10
      45      57     -18      60      15      48      15      42      66      13
      48      15      45      57      10      48      60     -18      57      15
      51      54      36      63      11      54      36      63      66       1
      30      33     -12     -21      19      45      48     -15     -42      19
      36      39     -30     -12      19      54      30     -36     -63      19
      39      66     -42     -15      19      54      69     -51     -33      19
      36      51     -54      -3      20       0      66     -63     -42      19
      51       9     -69      -6      19
%FLAG EXCLUDED_ATOMS_LIST                                                       
%FORMAT(10I8)                                                                   
       6      13      14      15      22      23      40      11      12      13
      18      19      22      24       4      12      18      19      24      42
      12      18      19      24      42       8       9      10      11      12
      13      14      15      18      19      22      24      25      26      27
      28      29      30      31       7      11      14      15      16      17
      20      21      22      23      31      32      33      34      35      36
      37      38      39      16      17      20      21      32      33      34
      35      36      37      38      39      41       9      10      11      12
      13      14      18      25      26      27      28      29      30      10
      11      12      25      26      27      28      29      11      12      25
      26      27      28      29      12      13      14      15      18      19
      22      23      25      30      31      40      13      14      18      19
      24      25      30      14      15      18      19      22      23      24
      31      40      15      16      17      19      22      23      31      16
      17      20      21      22      23      31      32      33      34      35
      40      17      20      21      23      32      33      34      35      36
      37      41      20      21      23      32      33      34      35      38
      39      41      19      22      24      30      42      22      23      24
      30      40      21      32      33      36      37      38      39      41
      34      35      36      37      38      39      41      23      40      31
      40      30      42      26      27      28      29      27      28      29
      28      29      29       0       0       0      33      36      37      36
      37      35      38      39      38      39      37      41      41      39
      41      41       0       0       0
%FLAG HBOND_ACOEF                                                               
%FORMAT(5E16.8)                                                                 

%FLAG HBOND_BCOEF                                                               
%FORMAT(5E16.8)                                                                 

%FLAG HBCUT                                                                     
%FORMAT(5E16.8)                                                                 

%FLAG AMBER_ATOM_TYPE                                                           
%FORMAT(20a4)                                                                   
f   o   oh  o   na  nh  n7  cx  cx  cx  ca  cc  ca  ca  ca  c6  c6  cd  c   c6  
c6  ca  ca  c   h1  hc  hc  hc  hc  h4  ha  h1  h1  h1  h1  h1  h1  h1  h1  ha  
hn  ho  
%FLAG TREE_CHAIN_CLASSIFICATION                                                 
%FORMAT(20a4)                                                                   
BLA BLA BLA BLA BLA BLA BLA BLA BLA BLA BLA BLA BLA BLA BLA BLA BLA BLA BLA BLA 
BLA BLA BLA BLA BLA BLA BLA BLA BLA BLA BLA BLA BLA BLA BLA BLA BLA BLA BLA BLA 
BLA BLA 
%FLAG JOIN_ARRAY                                                                
%FORMAT(10I8)                                                                   
       0       0       0       0       0       0       0       0       0       0
       0       0       0       0       0       0       0       0       0       0
       0       0       0       0       0       0       0       0       0       0
       0       0       0       0       0       0       0       0       0       0
       0       0
%FLAG IROTAT                                                                    
%FORMAT(10I8)                                                                   
       0       0       0       0       0       0       0       0       0       0
       0       0       0       0       0       0       0       0       0       0
       0       0       0       0       0       0       0       0       0       0
       0       0       0       0       0       0       0       0       0       0
       0       0
%FLAG RADIUS_SET                                                                
%FORMAT(1a80)                                                                   
modified Bondi radii (mbondi)                                                   
%FLAG RADII                                                                     
%FORMAT(5E16.8)                                                                 
  1.50000000E+00  1.50000000E+00  1.50000000E+00  1.50000000E+00  1.55000000E+00
  1.55000000E+00  1.55000000E+00  1.70000000E+00  1.70000000E+00  1.70000000E+00
  1.70000000E+00  1.70000000E+00  1.70000000E+00  1.70000000E+00  1.70000000E+00
  1.50000000E+00  1.50000000E+00  1.70000000E+00  1.70000000E+00  1.50000000E+00
  1.50000000E+00  1.70000000E+00  1.70000000E+00  1.70000000E+00  1.30000000E+00
  1.30000000E+00  1.30000000E+00  1.30000000E+00  1.30000000E+00  1.30000000E+00
  1.30000000E+00  1.30000000E+00  1.30000000E+00  1.30000000E+00  1.30000000E+00
  1.30000000E+00  1.30000000E+00  1.30000000E+00  1.30000000E+00  1.30000000E+00
  1.30000000E+00  8.00000000E-01
%FLAG SCREEN                                                                    
%FORMAT(5E16.8)                                                                 
  8.80000000E-01  8.50000000E-01  8.50000000E-01  8.50000000E-01  7.90000000E-01
  7.90000000E-01  7.90000000E-01  7.20000000E-01  7.20000000E-01  7.20000000E-01
  7.20000000E-01  7.20000000E-01  7.20000000E-01  7.20000000E-01  7.20000000E-01
  8.00000000E-01  8.00000000E-01  7.20000000E-01  7.20000000E-01  8.00000000E-01
  8.00000000E-01  7.20000000E-01  7.20000000E-01  7.20000000E-01  8.50000000E-01
  8.50000000E-01  8.50000000E-01  8.50000000E-01  8.50000000E-01  8.50000000E-01
  8.50000000E-01  8.50000000E-01  8.50000000E-01  8.50000000E-01  8.50000000E-01
  8.50000000E-01  8.50000000E-01  8.50000000E-01  8.50000000E-01  8.50000000E-01
  8.50000000E-01  8.50000000E-01
%FLAG IPOL                                                                      
%FORMAT(1I8)                                                                    
       0
