5754
    56
   3.1140000  -0.2860000  -1.9420000  -0.2290000   2.1440000   1.2400000
   4.3270000   1.6730000   0.0600000   6.7990000   0.5840000  -0.4650000
  -6.4230000  -0.0340000  -1.3440000   1.8920000   0.1630000   0.1440000
   0.9980000  -1.0770000  -0.0740000  -0.4050000  -0.9390000   0.5380000
  -1.1200000   0.2890000  -0.1140000   3.2010000  -0.3460000  -0.5210000
   1.2020000   1.3570000  -0.5470000  -2.6190000   0.4570000   0.3690000
  -0.2480000   1.5820000  -0.0650000   1.8850000  -2.2360000   0.3710000
   3.3030000  -1.8230000  -0.0780000  -1.2200000  -2.2200000   0.3000000
   2.1570000   0.4720000   1.6430000  -3.3460000  -0.8880000   0.2340000
  -2.6440000  -2.0890000   0.8180000  -3.3000000   1.5230000  -0.5370000
  -2.7470000   0.8980000   1.8450000   4.4120000   0.4680000  -0.1740000
  -4.8190000   1.5080000  -0.4590000  -4.5570000  -1.0370000  -0.3280000
  -5.3420000   0.1330000  -0.7840000   5.7300000  -0.2760000  -0.1310000
   0.8470000  -1.2120000  -1.1580000  -0.3280000  -0.7920000   1.6190000
  -1.1830000   0.0410000  -1.1880000   1.1650000   1.1930000  -1.6310000
   1.7890000   2.2690000  -0.3870000  -0.6970000   2.3360000  -0.7210000
   1.5870000  -3.1830000  -0.0890000   1.8510000  -2.3710000   1.4580000
   3.9800000  -1.9800000   0.7680000   3.6330000  -2.4730000  -0.8970000
  -0.7410000  -3.0680000   0.8030000  -1.2410000  -2.4590000  -0.7720000
   2.5930000   1.4670000   1.7780000   1.2470000   0.4540000   2.2480000
   2.8420000  -0.2460000   2.1070000  -2.6310000  -2.0000000   1.9110000
  -3.1860000  -3.0160000   0.5930000  -3.0150000   1.3500000  -1.5850000
  -2.9470000   2.5300000  -0.2830000  -2.0850000   0.3300000   2.5060000
  -2.5200000   1.9600000   1.9760000  -3.7680000   0.7560000   2.2200000
   3.8730000  -0.7650000  -2.3170000  -5.2240000   2.2160000  -1.1900000
  -5.1790000   1.7970000   0.5330000   0.2820000   2.9700000   1.2000000
  -5.0340000  -2.0070000  -0.4140000   5.7360000  -1.0840000  -0.8660000
   5.8940000  -0.6860000   0.8700000   6.8620000   1.2580000   0.2340000
