; cortisol_GMX.itp created by acpype (v: 2023.10.27) on Mon Feb  9 17:39:01 2026

[ atomtypes ]
;name   bond_type     mass     charge   ptype   sigma         epsilon       Amb
 oh       oh          0.00000  0.00000   A     3.24287e-01   3.89112e-01 ; 1.82  0.0930
 o        o           0.00000  0.00000   A     3.04812e-01   6.12119e-01 ; 1.71  0.1463
 c5       c5          0.00000  0.00000   A     3.39771e-01   4.51035e-01 ; 1.91  0.1078
 c6       c6          0.00000  0.00000   A     3.39771e-01   4.51035e-01 ; 1.91  0.1078
 c3       c3          0.00000  0.00000   A     3.39771e-01   4.51035e-01 ; 1.91  0.1078
 c2       c2          0.00000  0.00000   A     3.31521e-01   4.13379e-01 ; 1.86  0.0988
 c        c           0.00000  0.00000   A     3.31521e-01   4.13379e-01 ; 1.86  0.0988
 ce       ce          0.00000  0.00000   A     3.31521e-01   4.13379e-01 ; 1.86  0.0988
 hc       hc          0.00000  0.00000   A     2.60018e-01   8.70272e-02 ; 1.46  0.0208
 h1       h1          0.00000  0.00000   A     2.42200e-01   8.70272e-02 ; 1.36  0.0208
 ho       ho          0.00000  0.00000   A     5.37925e-02   1.96648e-02 ; 0.30  0.0047
 ha       ha          0.00000  0.00000   A     2.62548e-01   6.73624e-02 ; 1.47  0.0161

[ moleculetype ]
;name            nrexcl
 cortisol         3

[ atoms ]
;   nr  type  resi  res  atom  cgnr     charge      mass       ; qtot   bond_type
     1   oh     1   UNL     O    1    -0.572800     16.00000 ; qtot -0.573
     2   oh     1   UNL    O1    2    -0.609801     16.00000 ; qtot -1.183
     3    o     1   UNL    O2    3    -0.508100     16.00000 ; qtot -1.691
     4   oh     1   UNL    O3    4    -0.585800     16.00000 ; qtot -2.277
     5    o     1   UNL    O4    5    -0.537100     16.00000 ; qtot -2.814
     6   c5     1   UNL     C    6    -0.017000     12.01000 ; qtot -2.831
     7   c5     1   UNL    C1    7    -0.068700     12.01000 ; qtot -2.899
     8   c6     1   UNL    C2    8    -0.046700     12.01000 ; qtot -2.946
     9   c6     1   UNL    C3    9    -0.040700     12.01000 ; qtot -2.987
    10   c5     1   UNL    C4   10     0.062800     12.01000 ; qtot -2.924
    11   c6     1   UNL    C5   11    -0.102400     12.01000 ; qtot -3.026
    12   c6     1   UNL    C6   12    -0.006800     12.01000 ; qtot -3.033
    13   c6     1   UNL    C7   13     0.150100     12.01000 ; qtot -2.883
    14   c5     1   UNL    C8   14    -0.068400     12.01000 ; qtot -2.951
    15   c5     1   UNL    C9   15    -0.105400     12.01000 ; qtot -3.057
    16   c6     1   UNL   C10   16    -0.072400     12.01000 ; qtot -3.129
    17   c3     1   UNL   C11   17    -0.108100     12.01000 ; qtot -3.237
    18   c2     1   UNL   C12   18    -0.030400     12.01000 ; qtot -3.268
    19   c6     1   UNL   C13   19    -0.054200     12.01000 ; qtot -3.322
    20   c6     1   UNL   C14   20    -0.071400     12.01000 ; qtot -3.393
    21   c3     1   UNL   C15   21    -0.079100     12.01000 ; qtot -3.472
    22    c     1   UNL   C16   22     0.516100     12.01000 ; qtot -2.956
    23   c6     1   UNL   C17   23    -0.181400     12.01000 ; qtot -3.138
    24   ce     1   UNL   C18   24    -0.266200     12.01000 ; qtot -3.404
    25    c     1   UNL   C19   25     0.570300     12.01000 ; qtot -2.834
    26   c3     1   UNL   C20   26     0.030400     12.01000 ; qtot -2.803
    27   hc     1   UNL     H   27     0.064700      1.00800 ; qtot -2.739
    28   hc     1   UNL    H1   28     0.067700      1.00800 ; qtot -2.671
    29   hc     1   UNL    H2   29     0.053700      1.00800 ; qtot -2.617
    30   hc     1   UNL    H3   30     0.068200      1.00800 ; qtot -2.549
    31   hc     1   UNL    H4   31     0.068200      1.00800 ; qtot -2.481
    32   h1     1   UNL    H5   32     0.034700      1.00800 ; qtot -2.446
    33   hc     1   UNL    H6   33     0.049700      1.00800 ; qtot -2.396
    34   hc     1   UNL    H7   34     0.049700      1.00800 ; qtot -2.347
    35   hc     1   UNL    H8   35     0.050700      1.00800 ; qtot -2.296
    36   hc     1   UNL    H9   36     0.050700      1.00800 ; qtot -2.245
    37   hc     1   UNL   H10   37     0.046200      1.00800 ; qtot -2.199
    38   hc     1   UNL   H11   38     0.046200      1.00800 ; qtot -2.153
    39   hc     1   UNL   H12   39     0.049367      1.00800 ; qtot -2.103
    40   hc     1   UNL   H13   40     0.049367      1.00800 ; qtot -2.054
    41   hc     1   UNL   H14   41     0.049367      1.00800 ; qtot -2.005
    42   hc     1   UNL   H15   42     0.056700      1.00800 ; qtot -1.948
    43   hc     1   UNL   H16   43     0.056700      1.00800 ; qtot -1.891
    44   hc     1   UNL   H17   44     0.051200      1.00800 ; qtot -1.840
    45   hc     1   UNL   H18   45     0.051200      1.00800 ; qtot -1.789
    46   hc     1   UNL   H19   46     0.044700      1.00800 ; qtot -1.744
    47   hc     1   UNL   H20   47     0.044700      1.00800 ; qtot -1.700
    48   hc     1   UNL   H21   48     0.044700      1.00800 ; qtot -1.655
    49   ho     1   UNL   H22   49     0.404000      1.00800 ; qtot -1.251
    50   hc     1   UNL   H23   50     0.071700      1.00800 ; qtot -1.179
    51   hc     1   UNL   H24   51     0.071700      1.00800 ; qtot -1.107
    52   ho     1   UNL   H25   52     0.404000      1.00800 ; qtot -0.703
    53   ha     1   UNL   H26   53     0.147000      1.00800 ; qtot -0.556
    54   h1     1   UNL   H27   54     0.067200      1.00800 ; qtot -0.489
    55   h1     1   UNL   H28   55     0.067200      1.00800 ; qtot -0.422
    56   ho     1   UNL   H29   56     0.422000      1.00800 ; qtot -0.000

[ bonds ]
;   ai     aj funct   r             k
     1     10   1    1.4194e-01    2.4241e+05 ;      O - C4    
     1     49   1    9.7250e-02    4.4811e+05 ;      O - H22   
     2     13   1    1.4241e-01    2.3870e+05 ;     O1 - C7    
     2     52   1    9.7250e-02    4.4811e+05 ;     O1 - H25   
     3     22   1    1.2190e-01    4.9421e+05 ;     O2 - C16   
     4     26   1    1.4242e-01    2.3861e+05 ;     O3 - C20   
     4     56   1    9.7250e-02    4.4811e+05 ;     O3 - H29   
     5     25   1    1.2190e-01    4.9421e+05 ;     O4 - C19   
     6      7   1    1.5483e-01    1.8418e+05 ;      C - C1    
     6     10   1    1.5483e-01    1.8418e+05 ;      C - C4    
     6     11   1    1.5389e-01    1.8951e+05 ;      C - C5    
     6     17   1    1.5372e-01    1.9049e+05 ;      C - C11   
     7      8   1    1.5389e-01    1.8951e+05 ;     C1 - C2    
     7     14   1    1.5483e-01    1.8418e+05 ;     C1 - C8    
     7     27   1    1.0954e-01    2.8989e+05 ;     C1 - H     
     8      9   1    1.5384e-01    1.8979e+05 ;     C2 - C3    
     8     16   1    1.5384e-01    1.8979e+05 ;     C2 - C10   
     8     28   1    1.0979e-01    2.8681e+05 ;     C2 - H1    
     9     12   1    1.5384e-01    1.8979e+05 ;     C3 - C6    
     9     13   1    1.5384e-01    1.8979e+05 ;     C3 - C7    
     9     29   1    1.0979e-01    2.8681e+05 ;     C3 - H2    
    10     15   1    1.5483e-01    1.8418e+05 ;     C4 - C9    
    10     22   1    1.5346e-01    1.9200e+05 ;     C4 - C16   
    11     13   1    1.5384e-01    1.8979e+05 ;     C5 - C7    
    11     30   1    1.0979e-01    2.8681e+05 ;     C5 - H3    
    11     31   1    1.0979e-01    2.8681e+05 ;     C5 - H4    
    12     18   1    1.5133e-01    2.0498e+05 ;     C6 - C12   
    12     20   1    1.5384e-01    1.8979e+05 ;     C6 - C14   
    12     21   1    1.5428e-01    1.8728e+05 ;     C6 - C15   
    13     32   1    1.0984e-01    2.8620e+05 ;     C7 - H5    
    14     15   1    1.5483e-01    1.8418e+05 ;     C8 - C9    
    14     33   1    1.0954e-01    2.8989e+05 ;     C8 - H6    
    14     34   1    1.0954e-01    2.8989e+05 ;     C8 - H7    
    15     35   1    1.0954e-01    2.8989e+05 ;     C9 - H8    
    15     36   1    1.0954e-01    2.8989e+05 ;     C9 - H9    
    16     19   1    1.5384e-01    1.8979e+05 ;    C10 - C13   
    16     37   1    1.0979e-01    2.8681e+05 ;    C10 - H10   
    16     38   1    1.0979e-01    2.8681e+05 ;    C10 - H11   
    17     39   1    1.0962e-01    2.8891e+05 ;    C11 - H12   
    17     40   1    1.0962e-01    2.8891e+05 ;    C11 - H13   
    17     41   1    1.0962e-01    2.8891e+05 ;    C11 - H14   
    18     19   1    1.5133e-01    2.0498e+05 ;    C12 - C13   
    18     24   1    1.3457e-01    3.5505e+05 ;    C12 - C18   
    19     42   1    1.0979e-01    2.8681e+05 ;    C13 - H15   
    19     43   1    1.0979e-01    2.8681e+05 ;    C13 - H16   
    20     23   1    1.5384e-01    1.8979e+05 ;    C14 - C17   
    20     44   1    1.0979e-01    2.8681e+05 ;    C14 - H17   
    20     45   1    1.0979e-01    2.8681e+05 ;    C14 - H18   
    21     46   1    1.0962e-01    2.8891e+05 ;    C15 - H19   
    21     47   1    1.0962e-01    2.8891e+05 ;    C15 - H20   
    21     48   1    1.0962e-01    2.8891e+05 ;    C15 - H21   
    22     26   1    1.5270e-01    1.9652e+05 ;    C16 - C20   
    23     25   1    1.5287e-01    1.9550e+05 ;    C17 - C19   
    23     50   1    1.0979e-01    2.8681e+05 ;    C17 - H23   
    23     51   1    1.0979e-01    2.8681e+05 ;    C17 - H24   
    24     25   1    1.4848e-01    2.2406e+05 ;    C18 - C19   
    24     53   1    1.0880e-01    2.9923e+05 ;    C18 - H26   
    26     54   1    1.0969e-01    2.8804e+05 ;    C20 - H27   
    26     55   1    1.0969e-01    2.8804e+05 ;    C20 - H28   

[ pairs ]
;   ai     aj    funct
     1      3      1 ;      O - O2    
     1      7      1 ;      O - C1    
     1     11      1 ;      O - C5    
     1     14      1 ;      O - C8    
     1     17      1 ;      O - C11   
     1     26      1 ;      O - C20   
     1     35      1 ;      O - H8    
     1     36      1 ;      O - H9    
     2      6      1 ;     O1 - C     
     2      8      1 ;     O1 - C2    
     2     12      1 ;     O1 - C6    
     2     29      1 ;     O1 - H2    
     2     30      1 ;     O1 - H3    
     2     31      1 ;     O1 - H4    
     3      4      1 ;     O2 - O3    
     3      6      1 ;     O2 - C     
     3     15      1 ;     O2 - C9    
     3     54      1 ;     O2 - H27   
     3     55      1 ;     O2 - H28   
     4     10      1 ;     O3 - C4    
     5     18      1 ;     O4 - C12   
     5     20      1 ;     O4 - C14   
     5     50      1 ;     O4 - H23   
     5     51      1 ;     O4 - H24   
     5     53      1 ;     O4 - H26   
     6      9      1 ;      C - C3    
     6     16      1 ;      C - C10   
     6     26      1 ;      C - C20   
     6     28      1 ;      C - H1    
     6     32      1 ;      C - H5    
     6     33      1 ;      C - H6    
     6     34      1 ;      C - H7    
     6     35      1 ;      C - H8    
     6     36      1 ;      C - H9    
     7     12      1 ;     C1 - C6    
     7     13      1 ;     C1 - C7    
     7     19      1 ;     C1 - C13   
     7     22      1 ;     C1 - C16   
     7     29      1 ;     C1 - H2    
     7     30      1 ;     C1 - H3    
     7     31      1 ;     C1 - H4    
     7     35      1 ;     C1 - H8    
     7     36      1 ;     C1 - H9    
     7     37      1 ;     C1 - H10   
     7     38      1 ;     C1 - H11   
     7     39      1 ;     C1 - H12   
     7     40      1 ;     C1 - H13   
     7     41      1 ;     C1 - H14   
     8     10      1 ;     C2 - C4    
     8     11      1 ;     C2 - C5    
     8     15      1 ;     C2 - C9    
     8     17      1 ;     C2 - C11   
     8     18      1 ;     C2 - C12   
     8     20      1 ;     C2 - C14   
     8     21      1 ;     C2 - C15   
     8     32      1 ;     C2 - H5    
     8     33      1 ;     C2 - H6    
     8     34      1 ;     C2 - H7    
     8     42      1 ;     C2 - H15   
     8     43      1 ;     C2 - H16   
     9     14      1 ;     C3 - C8    
     9     19      1 ;     C3 - C13   
     9     23      1 ;     C3 - C17   
     9     24      1 ;     C3 - C18   
     9     27      1 ;     C3 - H     
     9     30      1 ;     C3 - H3    
     9     31      1 ;     C3 - H4    
     9     37      1 ;     C3 - H10   
     9     38      1 ;     C3 - H11   
     9     44      1 ;     C3 - H17   
     9     45      1 ;     C3 - H18   
     9     46      1 ;     C3 - H19   
     9     47      1 ;     C3 - H20   
     9     48      1 ;     C3 - H21   
     9     52      1 ;     C3 - H25   
    10     13      1 ;     C4 - C7    
    10     27      1 ;     C4 - H     
    10     30      1 ;     C4 - H3    
    10     31      1 ;     C4 - H4    
    10     33      1 ;     C4 - H6    
    10     34      1 ;     C4 - H7    
    10     39      1 ;     C4 - H12   
    10     40      1 ;     C4 - H13   
    10     41      1 ;     C4 - H14   
    10     54      1 ;     C4 - H27   
    10     55      1 ;     C4 - H28   
    11     12      1 ;     C5 - C6    
    11     14      1 ;     C5 - C8    
    11     15      1 ;     C5 - C9    
    11     22      1 ;     C5 - C16   
    11     27      1 ;     C5 - H     
    11     29      1 ;     C5 - H2    
    11     39      1 ;     C5 - H12   
    11     40      1 ;     C5 - H13   
    11     41      1 ;     C5 - H14   
    11     52      1 ;     C5 - H25   
    12     16      1 ;     C6 - C10   
    12     25      1 ;     C6 - C19   
    12     28      1 ;     C6 - H1    
    12     32      1 ;     C6 - H5    
    12     42      1 ;     C6 - H15   
    12     43      1 ;     C6 - H16   
    12     50      1 ;     C6 - H23   
    12     51      1 ;     C6 - H24   
    12     53      1 ;     C6 - H26   
    13     16      1 ;     C7 - C10   
    13     17      1 ;     C7 - C11   
    13     18      1 ;     C7 - C12   
    13     20      1 ;     C7 - C14   
    13     21      1 ;     C7 - C15   
    13     28      1 ;     C7 - H1    
    14     16      1 ;     C8 - C10   
    14     17      1 ;     C8 - C11   
    14     22      1 ;     C8 - C16   
    14     28      1 ;     C8 - H1    
    15     17      1 ;     C9 - C11   
    15     26      1 ;     C9 - C20   
    15     27      1 ;     C9 - H     
    16     24      1 ;    C10 - C18   
    16     27      1 ;    C10 - H     
    16     29      1 ;    C10 - H2    
    17     22      1 ;    C11 - C16   
    17     27      1 ;    C11 - H     
    17     30      1 ;    C11 - H3    
    17     31      1 ;    C11 - H4    
    18     23      1 ;    C12 - C17   
    18     29      1 ;    C12 - H2    
    18     37      1 ;    C12 - H10   
    18     38      1 ;    C12 - H11   
    18     44      1 ;    C12 - H17   
    18     45      1 ;    C12 - H18   
    18     46      1 ;    C12 - H19   
    18     47      1 ;    C12 - H20   
    18     48      1 ;    C12 - H21   
    19     20      1 ;    C13 - C14   
    19     21      1 ;    C13 - C15   
    19     25      1 ;    C13 - C19   
    19     28      1 ;    C13 - H1    
    19     53      1 ;    C13 - H26   
    20     24      1 ;    C14 - C18   
    20     29      1 ;    C14 - H2    
    20     46      1 ;    C14 - H19   
    20     47      1 ;    C14 - H20   
    20     48      1 ;    C14 - H21   
    21     23      1 ;    C15 - C17   
    21     24      1 ;    C15 - C18   
    21     29      1 ;    C15 - H2    
    21     44      1 ;    C15 - H17   
    21     45      1 ;    C15 - H18   
    22     35      1 ;    C16 - H8    
    22     36      1 ;    C16 - H9    
    22     56      1 ;    C16 - H29   
    23     53      1 ;    C17 - H26   
    24     42      1 ;    C18 - H15   
    24     43      1 ;    C18 - H16   
    24     50      1 ;    C18 - H23   
    24     51      1 ;    C18 - H24   
    25     44      1 ;    C19 - H17   
    25     45      1 ;    C19 - H18   
    27     28      1 ;      H - H1    
    27     33      1 ;      H - H6    
    27     34      1 ;      H - H7    
    28     29      1 ;     H1 - H2    
    28     37      1 ;     H1 - H10   
    28     38      1 ;     H1 - H11   
    29     32      1 ;     H2 - H5    
    30     32      1 ;     H3 - H5    
    31     32      1 ;     H4 - H5    
    32     52      1 ;     H5 - H25   
    33     35      1 ;     H6 - H8    
    33     36      1 ;     H6 - H9    
    34     35      1 ;     H7 - H8    
    34     36      1 ;     H7 - H9    
    37     42      1 ;    H10 - H15   
    37     43      1 ;    H10 - H16   
    38     42      1 ;    H11 - H15   
    38     43      1 ;    H11 - H16   
    44     50      1 ;    H17 - H23   
    44     51      1 ;    H17 - H24   
    45     50      1 ;    H18 - H23   
    45     51      1 ;    H18 - H24   
    49      6      1 ;    H22 - C     
    49     15      1 ;    H22 - C9    
    49     22      1 ;    H22 - C16   
    54     56      1 ;    H27 - H29   
    55     56      1 ;    H28 - H29   

[ angles ]
;   ai     aj     ak    funct   theta         cth
     1     10      6      1    1.1162e+02    6.3455e+02 ;      O - C4     - C     
     1     10     15      1    1.1162e+02    6.3455e+02 ;      O - C4     - C9    
     1     10     22      1    1.0803e+02    6.4844e+02 ;      O - C4     - C16   
     2     13      9      1    1.1005e+02    6.4065e+02 ;     O1 - C7     - C3    
     2     13     11      1    1.1005e+02    6.4065e+02 ;     O1 - C7     - C5    
     2     13     32      1    1.0996e+02    4.7187e+02 ;     O1 - C7     - H5    
     3     22     10      1    1.2567e+02    6.3019e+02 ;     O2 - C16    - C4    
     3     22     26      1    1.2290e+02    6.3973e+02 ;     O2 - C16    - C20   
     4     26     22      1    1.0946e+02    6.4526e+02 ;     O3 - C20    - C16   
     4     26     54      1    1.1038e+02    4.7103e+02 ;     O3 - C20    - H27   
     4     26     55      1    1.1038e+02    4.7103e+02 ;     O3 - C20    - H28   
     5     25     23      1    1.2234e+02    6.4065e+02 ;     O4 - C19    - C17   
     5     25     24      1    1.2324e+02    6.5262e+02 ;     O4 - C19    - C18   
     6      7      8      1    1.1375e+02    4.9589e+02 ;      C - C1     - C2    
     6      7     14      1    1.0383e+02    5.1748e+02 ;      C - C1     - C8    
     6      7     27      1    1.1117e+02    3.5690e+02 ;      C - C1     - H     
     6     10     15      1    1.0383e+02    5.1748e+02 ;      C - C4     - C9    
     6     10     22      1    1.0786e+02    5.0995e+02 ;      C - C4     - C16   
     6     11     13      1    1.1104e+02    5.0350e+02 ;      C - C5     - C7    
     6     11     30      1    1.0934e+02    3.6183e+02 ;      C - C5     - H3    
     6     11     31      1    1.0934e+02    3.6183e+02 ;      C - C5     - H4    
     6     17     39      1    1.1053e+02    3.6033e+02 ;      C - C11    - H12   
     6     17     40      1    1.1053e+02    3.6033e+02 ;      C - C11    - H13   
     6     17     41      1    1.1053e+02    3.6033e+02 ;      C - C11    - H14   
     7      6     10      1    1.0383e+02    5.1748e+02 ;     C1 - C      - C4    
     7      6     11      1    1.1375e+02    4.9589e+02 ;     C1 - C      - C5    
     7      6     17      1    1.1360e+02    4.9647e+02 ;     C1 - C      - C11   
     7      8      9      1    1.1104e+02    5.0350e+02 ;     C1 - C2     - C3    
     7      8     16      1    1.1104e+02    5.0350e+02 ;     C1 - C2     - C10   
     7      8     28      1    1.0934e+02    3.6183e+02 ;     C1 - C2     - H1    
     7     14     15      1    1.0383e+02    5.1748e+02 ;     C1 - C8     - C9    
     7     14     33      1    1.1117e+02    3.5690e+02 ;     C1 - C8     - H6    
     7     14     34      1    1.1117e+02    3.5690e+02 ;     C1 - C8     - H7    
     8      7     14      1    1.1375e+02    4.9589e+02 ;     C2 - C1     - C8    
     8      7     27      1    1.0642e+02    3.6685e+02 ;     C2 - C1     - H     
     8      9     12      1    1.1106e+02    5.0359e+02 ;     C2 - C3     - C6    
     8      9     13      1    1.1106e+02    5.0359e+02 ;     C2 - C3     - C7    
     8      9     29      1    1.0945e+02    3.6175e+02 ;     C2 - C3     - H2    
     8     16     19      1    1.1106e+02    5.0359e+02 ;     C2 - C10    - C13   
     8     16     37      1    1.0945e+02    3.6175e+02 ;     C2 - C10    - H10   
     8     16     38      1    1.0945e+02    3.6175e+02 ;     C2 - C10    - H11   
     9      8     16      1    1.1106e+02    5.0359e+02 ;     C3 - C2     - C10   
     9      8     28      1    1.0945e+02    3.6175e+02 ;     C3 - C2     - H1    
     9     12     18      1    1.1141e+02    5.0685e+02 ;     C3 - C6     - C12   
     9     12     20      1    1.1106e+02    5.0359e+02 ;     C3 - C6     - C14   
     9     12     21      1    1.1143e+02    5.0200e+02 ;     C3 - C6     - C15   
     9     13     11      1    1.1106e+02    5.0359e+02 ;     C3 - C7     - C5    
     9     13     32      1    1.0918e+02    3.6217e+02 ;     C3 - C7     - H5    
    10      1     49      1    1.0717e+02    5.4727e+02 ;     C4 - O      - H22   
    10      6     11      1    1.1375e+02    4.9589e+02 ;     C4 - C      - C5    
    10      6     17      1    1.1360e+02    4.9647e+02 ;     C4 - C      - C11   
    10     15     14      1    1.0383e+02    5.1748e+02 ;     C4 - C9     - C8    
    10     15     35      1    1.1117e+02    3.5690e+02 ;     C4 - C9     - H8    
    10     15     36      1    1.1117e+02    3.5690e+02 ;     C4 - C9     - H9    
    10     22     26      1    1.1800e+02    4.9095e+02 ;     C4 - C16    - C20   
    11      6     17      1    1.1056e+02    5.0484e+02 ;     C5 - C      - C11   
    11     13     32      1    1.0918e+02    3.6217e+02 ;     C5 - C7     - H5    
    12      9     13      1    1.1106e+02    5.0359e+02 ;     C6 - C3     - C7    
    12      9     29      1    1.0945e+02    3.6175e+02 ;     C6 - C3     - H2    
    12     18     19      1    1.1596e+02    5.0099e+02 ;     C6 - C12    - C13   
    12     18     24      1    1.2265e+02    5.1212e+02 ;     C6 - C12    - C18   
    12     20     23      1    1.1106e+02    5.0359e+02 ;     C6 - C14    - C17   
    12     20     44      1    1.0945e+02    3.6175e+02 ;     C6 - C14    - H17   
    12     20     45      1    1.0945e+02    3.6175e+02 ;     C6 - C14    - H18   
    12     21     46      1    1.1063e+02    3.5890e+02 ;     C6 - C15    - H19   
    12     21     47      1    1.1063e+02    3.5890e+02 ;     C6 - C15    - H20   
    12     21     48      1    1.1063e+02    3.5890e+02 ;     C6 - C15    - H21   
    13      2     52      1    1.0707e+02    5.4584e+02 ;     C7 - O1     - H25   
    13      9     29      1    1.0945e+02    3.6175e+02 ;     C7 - C3     - H2    
    13     11     30      1    1.0945e+02    3.6175e+02 ;     C7 - C5     - H3    
    13     11     31      1    1.0945e+02    3.6175e+02 ;     C7 - C5     - H4    
    14      7     27      1    1.1117e+02    3.5690e+02 ;     C8 - C1     - H     
    14     15     35      1    1.1117e+02    3.5690e+02 ;     C8 - C9     - H8    
    14     15     36      1    1.1117e+02    3.5690e+02 ;     C8 - C9     - H9    
    15     10     22      1    1.0786e+02    5.0995e+02 ;     C9 - C4     - C16   
    15     14     33      1    1.1117e+02    3.5690e+02 ;     C9 - C8     - H6    
    15     14     34      1    1.1117e+02    3.5690e+02 ;     C9 - C8     - H7    
    16      8     28      1    1.0945e+02    3.6175e+02 ;    C10 - C2     - H1    
    16     19     18      1    1.1141e+02    5.0685e+02 ;    C10 - C13    - C12   
    16     19     42      1    1.0945e+02    3.6175e+02 ;    C10 - C13    - H15   
    16     19     43      1    1.0945e+02    3.6175e+02 ;    C10 - C13    - H16   
    18     12     20      1    1.1141e+02    5.0685e+02 ;    C12 - C6     - C14   
    18     12     21      1    1.0977e+02    5.0986e+02 ;    C12 - C6     - C15   
    18     19     42      1    1.0931e+02    3.6736e+02 ;    C12 - C13    - H15   
    18     19     43      1    1.0931e+02    3.6736e+02 ;    C12 - C13    - H16   
    18     24     25      1    1.2200e+02    5.1974e+02 ;    C12 - C18    - C19   
    18     24     53      1    1.2000e+02    3.8694e+02 ;    C12 - C18    - H26   
    19     16     37      1    1.0945e+02    3.6175e+02 ;    C13 - C10    - H10   
    19     16     38      1    1.0945e+02    3.6175e+02 ;    C13 - C10    - H11   
    19     18     24      1    1.2265e+02    5.1212e+02 ;    C13 - C12    - C18   
    20     12     21      1    1.1143e+02    5.0200e+02 ;    C14 - C6     - C15   
    20     23     25      1    1.1143e+02    5.0434e+02 ;    C14 - C17    - C19   
    20     23     50      1    1.0945e+02    3.6175e+02 ;    C14 - C17    - H23   
    20     23     51      1    1.0945e+02    3.6175e+02 ;    C14 - C17    - H24   
    22     26     54      1    1.0837e+02    3.6602e+02 ;    C16 - C20    - H27   
    22     26     55      1    1.0837e+02    3.6602e+02 ;    C16 - C20    - H28   
    23     20     44      1    1.0945e+02    3.6175e+02 ;    C17 - C14    - H17   
    23     20     45      1    1.0945e+02    3.6175e+02 ;    C17 - C14    - H18   
    23     25     24      1    1.1615e+02    5.0258e+02 ;    C17 - C19    - C18   
    25     23     50      1    1.0767e+02    3.6685e+02 ;    C19 - C17    - H23   
    25     23     51      1    1.0767e+02    3.6685e+02 ;    C19 - C17    - H24   
    25     24     53      1    1.1641e+02    3.6242e+02 ;    C19 - C18    - H26   
    26      4     56      1    1.0739e+02    5.4501e+02 ;    C20 - O3     - H29   
    30     11     31      1    1.0662e+02    3.0066e+02 ;     H3 - C5     - H4    
    33     14     34      1    1.0722e+02    3.0049e+02 ;     H6 - C8     - H7    
    35     15     36      1    1.0722e+02    3.0049e+02 ;     H8 - C9     - H9    
    37     16     38      1    1.0662e+02    3.0066e+02 ;    H10 - C10    - H11   
    39     17     40      1    1.0773e+02    2.9957e+02 ;    H12 - C11    - H13   
    39     17     41      1    1.0773e+02    2.9957e+02 ;    H12 - C11    - H14   
    40     17     41      1    1.0773e+02    2.9957e+02 ;    H13 - C11    - H14   
    42     19     43      1    1.0662e+02    3.0066e+02 ;    H15 - C13    - H16   
    44     20     45      1    1.0662e+02    3.0066e+02 ;    H17 - C14    - H18   
    46     21     47      1    1.0773e+02    2.9957e+02 ;    H19 - C15    - H20   
    46     21     48      1    1.0773e+02    2.9957e+02 ;    H19 - C15    - H21   
    47     21     48      1    1.0773e+02    2.9957e+02 ;    H20 - C15    - H21   
    50     23     51      1    1.0662e+02    3.0066e+02 ;    H23 - C17    - H24   
    54     26     55      1    1.0855e+02    2.9824e+02 ;    H27 - C20    - H28   

[ dihedrals ] ; propers
; for gromacs 4.5 or higher, using funct 9
;    i      j      k      l   func   phase     kd      pn
     1     10      6      7      9     0.00   0.75312   3 ;      O-    C4-     C-    C1
     1     10      6     11      9     0.00   0.75312   3 ;      O-    C4-     C-    C5
     1     10      6     17      9     0.00   0.75312   3 ;      O-    C4-     C-   C11
     1     10     15     14      9     0.00   0.75312   3 ;      O-    C4-    C9-    C8
     1     10     15     35      9     0.00   0.37656   3 ;      O-    C4-    C9-    H8
     1     10     15     36      9     0.00   0.37656   3 ;      O-    C4-    C9-    H9
     1     10     22      3      9   180.00   0.00000   2 ;      O-    C4-   C16-    O2
     1     10     22     26      9   180.00   0.00000   2 ;      O-    C4-   C16-   C20
     2     13      9      8      9     0.00   0.75312   3 ;     O1-    C7-    C3-    C2
     2     13      9     12      9     0.00   0.75312   3 ;     O1-    C7-    C3-    C6
     2     13      9     29      9     0.00   0.37656   3 ;     O1-    C7-    C3-    H2
     2     13     11      6      9     0.00   0.75312   3 ;     O1-    C7-    C5-     C
     2     13     11     30      9     0.00   0.37656   3 ;     O1-    C7-    C5-    H3
     2     13     11     31      9     0.00   0.37656   3 ;     O1-    C7-    C5-    H4
     3     22     10      6      9     0.00   2.84512   1 ;     O2-   C16-    C4-     C
     3     22     10      6      9   180.00   0.83680   2 ;     O2-   C16-    C4-     C
     3     22     10      6      9   180.00   1.84096   3 ;     O2-   C16-    C4-     C
     3     22     10     15      9     0.00   2.84512   1 ;     O2-   C16-    C4-    C9
     3     22     10     15      9   180.00   0.83680   2 ;     O2-   C16-    C4-    C9
     3     22     10     15      9   180.00   1.84096   3 ;     O2-   C16-    C4-    C9
     3     22     26      4      9   180.00   0.00000   2 ;     O2-   C16-   C20-    O3
     3     22     26     54      9     0.00   3.34720   1 ;     O2-   C16-   C20-   H27
     3     22     26     54      9   180.00   0.33472   3 ;     O2-   C16-   C20-   H27
     3     22     26     55      9     0.00   3.34720   1 ;     O2-   C16-   C20-   H28
     3     22     26     55      9   180.00   0.33472   3 ;     O2-   C16-   C20-   H28
     4     26     22     10      9   180.00   0.00000   2 ;     O3-   C20-   C16-    C4
     5     25     23     20      9     0.00   0.46024   2 ;     O4-   C19-   C17-   C14
     5     25     23     20      9     0.00  49.12016   1 ;     O4-   C19-   C17-   C14
     5     25     23     20      9   180.00   0.33472   3 ;     O4-   C19-   C17-   C14
     5     25     23     50      9     0.00  16.86152   1 ;     O4-   C19-   C17-   H23
     5     25     23     50      9   180.00  15.31344   2 ;     O4-   C19-   C17-   H23
     5     25     23     51      9     0.00  16.86152   1 ;     O4-   C19-   C17-   H24
     5     25     23     51      9   180.00  15.31344   2 ;     O4-   C19-   C17-   H24
     5     25     24     18      9   180.00   9.10020   2 ;     O4-   C19-   C18-   C12
     5     25     24     53      9   180.00   9.10020   2 ;     O4-   C19-   C18-   H26
     6      7      8      9      9     0.00   2.17568   3 ;      C-    C1-    C2-    C3
     6      7      8     16      9     0.00   2.17568   3 ;      C-    C1-    C2-   C10
     6      7      8     28      9     0.00   0.54392   3 ;      C-    C1-    C2-    H1
     6      7     14     15      9     0.00   2.17568   3 ;      C-    C1-    C8-    C9
     6      7     14     33      9     0.00   0.54392   3 ;      C-    C1-    C8-    H6
     6      7     14     34      9     0.00   0.54392   3 ;      C-    C1-    C8-    H7
     6     10     15     14      9     0.00   2.17568   3 ;      C-    C4-    C9-    C8
     6     10     15     35      9     0.00   0.54392   3 ;      C-    C4-    C9-    H8
     6     10     15     36      9     0.00   0.54392   3 ;      C-    C4-    C9-    H9
     6     10     22     26      9   180.00   1.09621   2 ;      C-    C4-   C16-   C20
     6     11     13      9      9     0.00   2.17568   3 ;      C-    C5-    C7-    C3
     6     11     13     32      9     0.00   0.65084   3 ;      C-    C5-    C7-    H5
     7      6     10     15      9     0.00   2.17568   3 ;     C1-     C-    C4-    C9
     7      6     10     22      9     0.00   0.00000   0 ;     C1-     C-    C4-   C16
     7      6     10     22      9     0.00   0.16736   2 ;     C1-     C-    C4-   C16
     7      6     10     22      9   180.00   1.92464   1 ;     C1-     C-    C4-   C16
     7      6     11     13      9     0.00   2.17568   3 ;     C1-     C-    C5-    C7
     7      6     11     30      9     0.00   0.54392   3 ;     C1-     C-    C5-    H3
     7      6     11     31      9     0.00   0.54392   3 ;     C1-     C-    C5-    H4
     7      6     17     39      9     0.00   0.54392   3 ;     C1-     C-   C11-   H12
     7      6     17     40      9     0.00   0.54392   3 ;     C1-     C-   C11-   H13
     7      6     17     41      9     0.00   0.54392   3 ;     C1-     C-   C11-   H14
     7      8      9     12      9     0.00   2.17568   3 ;     C1-    C2-    C3-    C6
     7      8      9     13      9     0.00   2.17568   3 ;     C1-    C2-    C3-    C7
     7      8      9     29      9     0.00   0.54392   3 ;     C1-    C2-    C3-    H2
     7      8     16     19      9     0.00   2.17568   3 ;     C1-    C2-   C10-   C13
     7      8     16     37      9     0.00   0.54392   3 ;     C1-    C2-   C10-   H10
     7      8     16     38      9     0.00   0.54392   3 ;     C1-    C2-   C10-   H11
     7     14     15     10      9     0.00   2.17568   3 ;     C1-    C8-    C9-    C4
     7     14     15     35      9     0.00   0.54392   3 ;     C1-    C8-    C9-    H8
     7     14     15     36      9     0.00   0.54392   3 ;     C1-    C8-    C9-    H9
     8      7      6     10      9     0.00   2.17568   3 ;     C2-    C1-     C-    C4
     8      7      6     11      9     0.00   2.17568   3 ;     C2-    C1-     C-    C5
     8      7      6     17      9     0.00   2.17568   3 ;     C2-    C1-     C-   C11
     8      7     14     15      9     0.00   2.17568   3 ;     C2-    C1-    C8-    C9
     8      7     14     33      9     0.00   0.54392   3 ;     C2-    C1-    C8-    H6
     8      7     14     34      9     0.00   0.54392   3 ;     C2-    C1-    C8-    H7
     8      9     12     18      9     0.00   0.65084   3 ;     C2-    C3-    C6-   C12
     8      9     12     20      9     0.00   2.17568   3 ;     C2-    C3-    C6-   C14
     8      9     12     21      9     0.00   2.17568   3 ;     C2-    C3-    C6-   C15
     8      9     13     11      9     0.00   2.17568   3 ;     C2-    C3-    C7-    C5
     8      9     13     32      9     0.00   0.65084   3 ;     C2-    C3-    C7-    H5
     8     16     19     18      9     0.00   0.65084   3 ;     C2-   C10-   C13-   C12
     8     16     19     42      9     0.00   0.54392   3 ;     C2-   C10-   C13-   H15
     8     16     19     43      9     0.00   0.54392   3 ;     C2-   C10-   C13-   H16
     9      8      7     14      9     0.00   2.17568   3 ;     C3-    C2-    C1-    C8
     9      8      7     27      9     0.00   0.54392   3 ;     C3-    C2-    C1-     H
     9      8     16     19      9     0.00   2.17568   3 ;     C3-    C2-   C10-   C13
     9      8     16     37      9     0.00   0.54392   3 ;     C3-    C2-   C10-   H10
     9      8     16     38      9     0.00   0.54392   3 ;     C3-    C2-   C10-   H11
     9     12     18     19      9     0.00   0.00000   0 ;     C3-    C6-   C12-   C13
     9     12     18     24      9     0.00   0.00000   0 ;     C3-    C6-   C12-   C18
     9     12     20     23      9     0.00   2.17568   3 ;     C3-    C6-   C14-   C17
     9     12     20     44      9     0.00   0.54392   3 ;     C3-    C6-   C14-   H17
     9     12     20     45      9     0.00   0.54392   3 ;     C3-    C6-   C14-   H18
     9     12     21     46      9     0.00   0.54392   3 ;     C3-    C6-   C15-   H19
     9     12     21     47      9     0.00   0.54392   3 ;     C3-    C6-   C15-   H20
     9     12     21     48      9     0.00   0.54392   3 ;     C3-    C6-   C15-   H21
     9     13      2     52      9     0.00   0.25104   3 ;     C3-    C7-    O1-   H25
     9     13     11     30      9     0.00   0.54392   3 ;     C3-    C7-    C5-    H3
     9     13     11     31      9     0.00   0.54392   3 ;     C3-    C7-    C5-    H4
    10      6      7     14      9     0.00   2.17568   3 ;     C4-     C-    C1-    C8
    10      6      7     27      9     0.00   0.54392   3 ;     C4-     C-    C1-     H
    10      6     11     13      9     0.00   2.17568   3 ;     C4-     C-    C5-    C7
    10      6     11     30      9     0.00   0.54392   3 ;     C4-     C-    C5-    H3
    10      6     11     31      9     0.00   0.54392   3 ;     C4-     C-    C5-    H4
    10      6     17     39      9     0.00   0.54392   3 ;     C4-     C-   C11-   H12
    10      6     17     40      9     0.00   0.54392   3 ;     C4-     C-   C11-   H13
    10      6     17     41      9     0.00   0.54392   3 ;     C4-     C-   C11-   H14
    10     15     14     33      9     0.00   0.54392   3 ;     C4-    C9-    C8-    H6
    10     15     14     34      9     0.00   0.54392   3 ;     C4-    C9-    C8-    H7
    10     22     26     54      9   180.00   0.00000   2 ;     C4-   C16-   C20-   H27
    10     22     26     55      9   180.00   0.00000   2 ;     C4-   C16-   C20-   H28
    11      6      7     14      9     0.00   2.17568   3 ;     C5-     C-    C1-    C8
    11      6      7     27      9     0.00   0.54392   3 ;     C5-     C-    C1-     H
    11      6     10     15      9     0.00   2.17568   3 ;     C5-     C-    C4-    C9
    11      6     10     22      9     0.00   0.00000   0 ;     C5-     C-    C4-   C16
    11      6     10     22      9     0.00   0.16736   2 ;     C5-     C-    C4-   C16
    11      6     10     22      9   180.00   1.92464   1 ;     C5-     C-    C4-   C16
    11      6     17     39      9     0.00   0.54392   3 ;     C5-     C-   C11-   H12
    11      6     17     40      9     0.00   0.54392   3 ;     C5-     C-   C11-   H13
    11      6     17     41      9     0.00   0.54392   3 ;     C5-     C-   C11-   H14
    11     13      2     52      9     0.00   0.25104   3 ;     C5-    C7-    O1-   H25
    11     13      9     12      9     0.00   2.17568   3 ;     C5-    C7-    C3-    C6
    11     13      9     29      9     0.00   0.54392   3 ;     C5-    C7-    C3-    H2
    12      9      8     16      9     0.00   2.17568   3 ;     C6-    C3-    C2-   C10
    12      9      8     28      9     0.00   0.54392   3 ;     C6-    C3-    C2-    H1
    12      9     13     32      9     0.00   0.65084   3 ;     C6-    C3-    C7-    H5
    12     18     19     16      9     0.00   0.00000   0 ;     C6-   C12-   C13-   C10
    12     18     19     42      9     0.00   0.62760   3 ;     C6-   C12-   C13-   H15
    12     18     19     43      9     0.00   0.62760   3 ;     C6-   C12-   C13-   H16
    12     18     24     25      9   180.00  27.82360   2 ;     C6-   C12-   C18-   C19
    12     18     24     53      9   180.00  27.82360   2 ;     C6-   C12-   C18-   H26
    12     20     23     25      9     0.00   0.00000   0 ;     C6-   C14-   C17-   C19
    12     20     23     25      9     0.00   0.16736   2 ;     C6-   C14-   C17-   C19
    12     20     23     25      9   180.00   1.92464   1 ;     C6-   C14-   C17-   C19
    12     20     23     50      9     0.00   0.54392   3 ;     C6-   C14-   C17-   H23
    12     20     23     51      9     0.00   0.54392   3 ;     C6-   C14-   C17-   H24
    13      9      8     16      9     0.00   2.17568   3 ;     C7-    C3-    C2-   C10
    13      9      8     28      9     0.00   0.54392   3 ;     C7-    C3-    C2-    H1
    13      9     12     18      9     0.00   0.65084   3 ;     C7-    C3-    C6-   C12
    13      9     12     20      9     0.00   2.17568   3 ;     C7-    C3-    C6-   C14
    13      9     12     21      9     0.00   2.17568   3 ;     C7-    C3-    C6-   C15
    13     11      6     17      9     0.00   2.17568   3 ;     C7-    C5-     C-   C11
    14      7      6     17      9     0.00   2.17568   3 ;     C8-    C1-     C-   C11
    14      7      8     16      9     0.00   2.17568   3 ;     C8-    C1-    C2-   C10
    14      7      8     28      9     0.00   0.54392   3 ;     C8-    C1-    C2-    H1
    14     15     10     22      9     0.00   0.00000   0 ;     C8-    C9-    C4-   C16
    14     15     10     22      9     0.00   0.16736   2 ;     C8-    C9-    C4-   C16
    14     15     10     22      9   180.00   1.92464   1 ;     C8-    C9-    C4-   C16
    15     10      6     17      9     0.00   2.17568   3 ;     C9-    C4-     C-   C11
    15     10     22     26      9   180.00   1.09621   2 ;     C9-    C4-   C16-   C20
    15     14      7     27      9     0.00   0.54392   3 ;     C9-    C8-    C1-     H
    16      8      7     27      9     0.00   0.54392   3 ;    C10-    C2-    C1-     H
    16      8      9     29      9     0.00   0.54392   3 ;    C10-    C2-    C3-    H2
    16     19     18     24      9     0.00   0.00000   0 ;    C10-   C13-   C12-   C18
    17      6      7     27      9     0.00   0.54392   3 ;    C11-     C-    C1-     H
    17      6     10     22      9     0.00   0.00000   0 ;    C11-     C-    C4-   C16
    17      6     10     22      9     0.00   0.16736   2 ;    C11-     C-    C4-   C16
    17      6     10     22      9   180.00   1.92464   1 ;    C11-     C-    C4-   C16
    17      6     11     30      9     0.00   0.54392   3 ;    C11-     C-    C5-    H3
    17      6     11     31      9     0.00   0.54392   3 ;    C11-     C-    C5-    H4
    18     12      9     29      9     0.00   0.65084   3 ;    C12-    C6-    C3-    H2
    18     12     20     23      9     0.00   0.65084   3 ;    C12-    C6-   C14-   C17
    18     12     20     44      9     0.00   0.65084   3 ;    C12-    C6-   C14-   H17
    18     12     20     45      9     0.00   0.65084   3 ;    C12-    C6-   C14-   H18
    18     12     21     46      9     0.00   0.65084   3 ;    C12-    C6-   C15-   H19
    18     12     21     47      9     0.00   0.65084   3 ;    C12-    C6-   C15-   H20
    18     12     21     48      9     0.00   0.65084   3 ;    C12-    C6-   C15-   H21
    18     19     16     37      9     0.00   0.65084   3 ;    C12-   C13-   C10-   H10
    18     19     16     38      9     0.00   0.65084   3 ;    C12-   C13-   C10-   H11
    18     24     25     23      9     0.00  12.13360   2 ;    C12-   C18-   C19-   C17
    19     16      8     28      9     0.00   0.54392   3 ;    C13-   C10-    C2-    H1
    19     18     12     20      9     0.00   0.00000   0 ;    C13-   C12-    C6-   C14
    19     18     12     21      9     0.00   0.00000   0 ;    C13-   C12-    C6-   C15
    19     18     24     25      9   180.00  27.82360   2 ;    C13-   C12-   C18-   C19
    19     18     24     53      9   180.00  27.82360   2 ;    C13-   C12-   C18-   H26
    20     12      9     29      9     0.00   0.54392   3 ;    C14-    C6-    C3-    H2
    20     12     18     24      9     0.00   0.00000   0 ;    C14-    C6-   C12-   C18
    20     12     21     46      9     0.00   0.54392   3 ;    C14-    C6-   C15-   H19
    20     12     21     47      9     0.00   0.54392   3 ;    C14-    C6-   C15-   H20
    20     12     21     48      9     0.00   0.54392   3 ;    C14-    C6-   C15-   H21
    20     23     25     24      9   180.00   0.00000   2 ;    C14-   C17-   C19-   C18
    21     12      9     29      9     0.00   0.54392   3 ;    C15-    C6-    C3-    H2
    21     12     18     24      9     0.00   0.00000   0 ;    C15-    C6-   C12-   C18
    21     12     20     23      9     0.00   2.17568   3 ;    C15-    C6-   C14-   C17
    21     12     20     44      9     0.00   0.54392   3 ;    C15-    C6-   C14-   H17
    21     12     20     45      9     0.00   0.54392   3 ;    C15-    C6-   C14-   H18
    22     10     15     35      9     0.00   0.65084   3 ;    C16-    C4-    C9-    H8
    22     10     15     36      9     0.00   0.65084   3 ;    C16-    C4-    C9-    H9
    22     26      4     56      9     0.00   0.69733   3 ;    C16-   C20-    O3-   H29
    23     25     24     53      9   180.00   9.10020   2 ;    C17-   C19-   C18-   H26
    24     18     19     42      9     0.00   0.00000   0 ;    C18-   C12-   C13-   H15
    24     18     19     43      9     0.00   0.00000   0 ;    C18-   C12-   C13-   H16
    24     25     23     50      9   180.00   0.00000   2 ;    C18-   C19-   C17-   H23
    24     25     23     51      9   180.00   0.00000   2 ;    C18-   C19-   C17-   H24
    25     23     20     44      9     0.00   0.65084   3 ;    C19-   C17-   C14-   H17
    25     23     20     45      9     0.00   0.65084   3 ;    C19-   C17-   C14-   H18
    27      7      8     28      9     0.00   0.50208   3 ;      H-    C1-    C2-    H1
    27      7     14     33      9     0.00   0.50208   3 ;      H-    C1-    C8-    H6
    27      7     14     34      9     0.00   0.50208   3 ;      H-    C1-    C8-    H7
    28      8      9     29      9     0.00   0.50208   3 ;     H1-    C2-    C3-    H2
    28      8     16     37      9     0.00   0.50208   3 ;     H1-    C2-   C10-   H10
    28      8     16     38      9     0.00   0.50208   3 ;     H1-    C2-   C10-   H11
    29      9     13     32      9     0.00   0.65084   3 ;     H2-    C3-    C7-    H5
    30     11     13     32      9     0.00   0.65084   3 ;     H3-    C5-    C7-    H5
    31     11     13     32      9     0.00   0.65084   3 ;     H4-    C5-    C7-    H5
    32     13      2     52      9     0.00   0.51463   3 ;     H5-    C7-    O1-   H25
    33     14     15     35      9     0.00   0.50208   3 ;     H6-    C8-    C9-    H8
    33     14     15     36      9     0.00   0.50208   3 ;     H6-    C8-    C9-    H9
    34     14     15     35      9     0.00   0.50208   3 ;     H7-    C8-    C9-    H8
    34     14     15     36      9     0.00   0.50208   3 ;     H7-    C8-    C9-    H9
    37     16     19     42      9     0.00   0.50208   3 ;    H10-   C10-   C13-   H15
    37     16     19     43      9     0.00   0.50208   3 ;    H10-   C10-   C13-   H16
    38     16     19     42      9     0.00   0.50208   3 ;    H11-   C10-   C13-   H15
    38     16     19     43      9     0.00   0.50208   3 ;    H11-   C10-   C13-   H16
    44     20     23     50      9     0.00   0.50208   3 ;    H17-   C14-   C17-   H23
    44     20     23     51      9     0.00   0.50208   3 ;    H17-   C14-   C17-   H24
    45     20     23     50      9     0.00   0.50208   3 ;    H18-   C14-   C17-   H23
    45     20     23     51      9     0.00   0.50208   3 ;    H18-   C14-   C17-   H24
    49      1     10      6      9     0.00   0.25104   3 ;    H22-     O-    C4-     C
    49      1     10     15      9     0.00   0.25104   3 ;    H22-     O-    C4-    C9
    49      1     10     22      9     0.00   0.69733   3 ;    H22-     O-    C4-   C16
    54     26      4     56      9     0.00   0.51463   3 ;    H27-   C20-    O3-   H29
    55     26      4     56      9     0.00   0.51463   3 ;    H28-   C20-    O3-   H29

[ dihedrals ] ; impropers
; treated as propers in GROMACS to use correct AMBER analytical function
;    i      j      k      l   func   phase     kd      pn
    12     19     18     24      4   180.00   4.60240   2 ;     C6-   C13-   C12-   C18
    23     24     25      5      4   180.00  43.93200   2 ;    C17-   C18-   C19-    O4
    25     18     24     53      4   180.00   4.60240   2 ;    C19-   C12-   C18-   H26
    26     10     22      3      4   180.00  43.93200   2 ;    C20-    C4-   C16-    O2
