; cortisol_GMX_OPLS.itp created by acpype (v: 2023.10.27) on Mon Feb  9 17:39:01 2026

; For OPLS atomtypes manual fine tuning
; AC_at:OPLS_at:OPLScode: Possible_Alternatives (see ffoplsaa.atp and ffoplsaanb.itp)
; oh:OH:opls_154: ['167']
; o:O:opls_236: ['272']
; c5:x:opls_x: []
; c6:x:opls_x: []
; c3:CT:opls_135: ['136', '137', '149', '157', '158', '206', '209', '210', '223B', '224B', '245', '246', '274', '283', '284', '285', '292', '292B', '293B', '296', '307', '308', '505']
; c2:CR:opls_509: ['510']
; c:C:opls_235: ['271']
; ce:x:opls_x: []
; hc:HC:opls_140: []
; h1:HC:opls_140: []
; ho:HO:opls_155: ['168']
; ha:HA:opls_146: []

[ moleculetype ]
;name            nrexcl
 cortisol         3

[ atoms ]
;   nr  type  resi  res  atom  cgnr     charge      mass       ; qtot   bond_type
     1 opls_154     1   UNL     O    1    -0.572800     15.99940 ; qtot -0.573  OH  
     2 opls_154     1   UNL    O1    2    -0.609801     15.99940 ; qtot -1.183  OH  
     3 opls_236     1   UNL    O2    3    -0.508100     15.99940 ; qtot -1.691  O   
     4 opls_154     1   UNL    O3    4    -0.585800     15.99940 ; qtot -2.277  OH  
     5 opls_236     1   UNL    O4    5    -0.537100     15.99940 ; qtot -2.814  O   
     6 opls_x     1   UNL     C    6    -0.017000      0.00000 ; qtot -2.831  x   
     7 opls_x     1   UNL    C1    7    -0.068700      0.00000 ; qtot -2.899  x   
     8 opls_x     1   UNL    C2    8    -0.046700      0.00000 ; qtot -2.946  x   
     9 opls_x     1   UNL    C3    9    -0.040700      0.00000 ; qtot -2.987  x   
    10 opls_x     1   UNL    C4   10     0.062800      0.00000 ; qtot -2.924  x   
    11 opls_x     1   UNL    C5   11    -0.102400      0.00000 ; qtot -3.026  x   
    12 opls_x     1   UNL    C6   12    -0.006800      0.00000 ; qtot -3.033  x   
    13 opls_x     1   UNL    C7   13     0.150100      0.00000 ; qtot -2.883  x   
    14 opls_x     1   UNL    C8   14    -0.068400      0.00000 ; qtot -2.951  x   
    15 opls_x     1   UNL    C9   15    -0.105400      0.00000 ; qtot -3.057  x   
    16 opls_x     1   UNL   C10   16    -0.072400      0.00000 ; qtot -3.129  x   
    17 opls_135     1   UNL   C11   17    -0.108100     12.01100 ; qtot -3.237  CT  
    18 opls_509     1   UNL   C12   18    -0.030400     12.01100 ; qtot -3.268  CR  
    19 opls_x     1   UNL   C13   19    -0.054200      0.00000 ; qtot -3.322  x   
    20 opls_x     1   UNL   C14   20    -0.071400      0.00000 ; qtot -3.393  x   
    21 opls_135     1   UNL   C15   21    -0.079100     12.01100 ; qtot -3.472  CT  
    22 opls_235     1   UNL   C16   22     0.516100     12.01100 ; qtot -2.956  C   
    23 opls_x     1   UNL   C17   23    -0.181400      0.00000 ; qtot -3.138  x   
    24 opls_x     1   UNL   C18   24    -0.266200      0.00000 ; qtot -3.404  x   
    25 opls_235     1   UNL   C19   25     0.570300     12.01100 ; qtot -2.834  C   
    26 opls_135     1   UNL   C20   26     0.030400     12.01100 ; qtot -2.803  CT  
    27 opls_140     1   UNL     H   27     0.064700      1.00800 ; qtot -2.739  HC  
    28 opls_140     1   UNL    H1   28     0.067700      1.00800 ; qtot -2.671  HC  
    29 opls_140     1   UNL    H2   29     0.053700      1.00800 ; qtot -2.617  HC  
    30 opls_140     1   UNL    H3   30     0.068200      1.00800 ; qtot -2.549  HC  
    31 opls_140     1   UNL    H4   31     0.068200      1.00800 ; qtot -2.481  HC  
    32 opls_140     1   UNL    H5   32     0.034700      1.00800 ; qtot -2.446  HC  
    33 opls_140     1   UNL    H6   33     0.049700      1.00800 ; qtot -2.396  HC  
    34 opls_140     1   UNL    H7   34     0.049700      1.00800 ; qtot -2.347  HC  
    35 opls_140     1   UNL    H8   35     0.050700      1.00800 ; qtot -2.296  HC  
    36 opls_140     1   UNL    H9   36     0.050700      1.00800 ; qtot -2.245  HC  
    37 opls_140     1   UNL   H10   37     0.046200      1.00800 ; qtot -2.199  HC  
    38 opls_140     1   UNL   H11   38     0.046200      1.00800 ; qtot -2.153  HC  
    39 opls_140     1   UNL   H12   39     0.049367      1.00800 ; qtot -2.103  HC  
    40 opls_140     1   UNL   H13   40     0.049367      1.00800 ; qtot -2.054  HC  
    41 opls_140     1   UNL   H14   41     0.049367      1.00800 ; qtot -2.005  HC  
    42 opls_140     1   UNL   H15   42     0.056700      1.00800 ; qtot -1.948  HC  
    43 opls_140     1   UNL   H16   43     0.056700      1.00800 ; qtot -1.891  HC  
    44 opls_140     1   UNL   H17   44     0.051200      1.00800 ; qtot -1.840  HC  
    45 opls_140     1   UNL   H18   45     0.051200      1.00800 ; qtot -1.789  HC  
    46 opls_140     1   UNL   H19   46     0.044700      1.00800 ; qtot -1.744  HC  
    47 opls_140     1   UNL   H20   47     0.044700      1.00800 ; qtot -1.700  HC  
    48 opls_140     1   UNL   H21   48     0.044700      1.00800 ; qtot -1.655  HC  
    49 opls_155     1   UNL   H22   49     0.404000      1.00800 ; qtot -1.251  HO  
    50 opls_140     1   UNL   H23   50     0.071700      1.00800 ; qtot -1.179  HC  
    51 opls_140     1   UNL   H24   51     0.071700      1.00800 ; qtot -1.107  HC  
    52 opls_155     1   UNL   H25   52     0.404000      1.00800 ; qtot -0.703  HO  
    53 opls_146     1   UNL   H26   53     0.147000      1.00800 ; qtot -0.556  HA  
    54 opls_140     1   UNL   H27   54     0.067200      1.00800 ; qtot -0.489  HC  
    55 opls_140     1   UNL   H28   55     0.067200      1.00800 ; qtot -0.422  HC  
    56 opls_155     1   UNL   H29   56     0.422000      1.00800 ; qtot -0.000  HO  

[ bonds ]
;   ai     aj funct   r             k
     1     10   1 ;    1.4194e-01    2.4241e+05 ;      O - C4         OH - x     
     1     49   1 ;    9.7250e-02    4.4811e+05 ;      O - H22        OH - HO    
     2     13   1 ;    1.4241e-01    2.3870e+05 ;     O1 - C7         OH - x     
     2     52   1 ;    9.7250e-02    4.4811e+05 ;     O1 - H25        OH - HO    
     3     22   1 ;    1.2190e-01    4.9421e+05 ;     O2 - C16         O - C     
     4     26   1 ;    1.4242e-01    2.3861e+05 ;     O3 - C20        OH - CT    
     4     56   1 ;    9.7250e-02    4.4811e+05 ;     O3 - H29        OH - HO    
     5     25   1 ;    1.2190e-01    4.9421e+05 ;     O4 - C19         O - C     
     6      7   1 ;    1.5483e-01    1.8418e+05 ;      C - C1          x - x     
     6     10   1 ;    1.5483e-01    1.8418e+05 ;      C - C4          x - x     
     6     11   1 ;    1.5389e-01    1.8951e+05 ;      C - C5          x - x     
     6     17   1 ;    1.5372e-01    1.9049e+05 ;      C - C11         x - CT    
     7      8   1 ;    1.5389e-01    1.8951e+05 ;     C1 - C2          x - x     
     7     14   1 ;    1.5483e-01    1.8418e+05 ;     C1 - C8          x - x     
     7     27   1 ;    1.0954e-01    2.8989e+05 ;     C1 - H           x - HC    
     8      9   1 ;    1.5384e-01    1.8979e+05 ;     C2 - C3          x - x     
     8     16   1 ;    1.5384e-01    1.8979e+05 ;     C2 - C10         x - x     
     8     28   1 ;    1.0979e-01    2.8681e+05 ;     C2 - H1          x - HC    
     9     12   1 ;    1.5384e-01    1.8979e+05 ;     C3 - C6          x - x     
     9     13   1 ;    1.5384e-01    1.8979e+05 ;     C3 - C7          x - x     
     9     29   1 ;    1.0979e-01    2.8681e+05 ;     C3 - H2          x - HC    
    10     15   1 ;    1.5483e-01    1.8418e+05 ;     C4 - C9          x - x     
    10     22   1 ;    1.5346e-01    1.9200e+05 ;     C4 - C16         x - C     
    11     13   1 ;    1.5384e-01    1.8979e+05 ;     C5 - C7          x - x     
    11     30   1 ;    1.0979e-01    2.8681e+05 ;     C5 - H3          x - HC    
    11     31   1 ;    1.0979e-01    2.8681e+05 ;     C5 - H4          x - HC    
    12     18   1 ;    1.5133e-01    2.0498e+05 ;     C6 - C12         x - CR    
    12     20   1 ;    1.5384e-01    1.8979e+05 ;     C6 - C14         x - x     
    12     21   1 ;    1.5428e-01    1.8728e+05 ;     C6 - C15         x - CT    
    13     32   1 ;    1.0984e-01    2.8620e+05 ;     C7 - H5          x - HC    
    14     15   1 ;    1.5483e-01    1.8418e+05 ;     C8 - C9          x - x     
    14     33   1 ;    1.0954e-01    2.8989e+05 ;     C8 - H6          x - HC    
    14     34   1 ;    1.0954e-01    2.8989e+05 ;     C8 - H7          x - HC    
    15     35   1 ;    1.0954e-01    2.8989e+05 ;     C9 - H8          x - HC    
    15     36   1 ;    1.0954e-01    2.8989e+05 ;     C9 - H9          x - HC    
    16     19   1 ;    1.5384e-01    1.8979e+05 ;    C10 - C13         x - x     
    16     37   1 ;    1.0979e-01    2.8681e+05 ;    C10 - H10         x - HC    
    16     38   1 ;    1.0979e-01    2.8681e+05 ;    C10 - H11         x - HC    
    17     39   1 ;    1.0962e-01    2.8891e+05 ;    C11 - H12        CT - HC    
    17     40   1 ;    1.0962e-01    2.8891e+05 ;    C11 - H13        CT - HC    
    17     41   1 ;    1.0962e-01    2.8891e+05 ;    C11 - H14        CT - HC    
    18     19   1 ;    1.5133e-01    2.0498e+05 ;    C12 - C13        CR - x     
    18     24   1 ;    1.3457e-01    3.5505e+05 ;    C12 - C18        CR - x     
    19     42   1 ;    1.0979e-01    2.8681e+05 ;    C13 - H15         x - HC    
    19     43   1 ;    1.0979e-01    2.8681e+05 ;    C13 - H16         x - HC    
    20     23   1 ;    1.5384e-01    1.8979e+05 ;    C14 - C17         x - x     
    20     44   1 ;    1.0979e-01    2.8681e+05 ;    C14 - H17         x - HC    
    20     45   1 ;    1.0979e-01    2.8681e+05 ;    C14 - H18         x - HC    
    21     46   1 ;    1.0962e-01    2.8891e+05 ;    C15 - H19        CT - HC    
    21     47   1 ;    1.0962e-01    2.8891e+05 ;    C15 - H20        CT - HC    
    21     48   1 ;    1.0962e-01    2.8891e+05 ;    C15 - H21        CT - HC    
    22     26   1 ;    1.5270e-01    1.9652e+05 ;    C16 - C20         C - CT    
    23     25   1 ;    1.5287e-01    1.9550e+05 ;    C17 - C19         x - C     
    23     50   1 ;    1.0979e-01    2.8681e+05 ;    C17 - H23         x - HC    
    23     51   1 ;    1.0979e-01    2.8681e+05 ;    C17 - H24         x - HC    
    24     25   1 ;    1.4848e-01    2.2406e+05 ;    C18 - C19         x - C     
    24     53   1 ;    1.0880e-01    2.9923e+05 ;    C18 - H26         x - HA    
    26     54   1 ;    1.0969e-01    2.8804e+05 ;    C20 - H27        CT - HC    
    26     55   1 ;    1.0969e-01    2.8804e+05 ;    C20 - H28        CT - HC    

[ pairs ]
;   ai     aj    funct
     1      3      1 ;      O - O2    
     1      7      1 ;      O - C1    
     1     11      1 ;      O - C5    
     1     14      1 ;      O - C8    
     1     17      1 ;      O - C11   
     1     26      1 ;      O - C20   
     1     35      1 ;      O - H8    
     1     36      1 ;      O - H9    
     2      6      1 ;     O1 - C     
     2      8      1 ;     O1 - C2    
     2     12      1 ;     O1 - C6    
     2     29      1 ;     O1 - H2    
     2     30      1 ;     O1 - H3    
     2     31      1 ;     O1 - H4    
     3      4      1 ;     O2 - O3    
     3      6      1 ;     O2 - C     
     3     15      1 ;     O2 - C9    
     3     54      1 ;     O2 - H27   
     3     55      1 ;     O2 - H28   
     4     10      1 ;     O3 - C4    
     5     18      1 ;     O4 - C12   
     5     20      1 ;     O4 - C14   
     5     50      1 ;     O4 - H23   
     5     51      1 ;     O4 - H24   
     5     53      1 ;     O4 - H26   
     6      9      1 ;      C - C3    
     6     16      1 ;      C - C10   
     6     26      1 ;      C - C20   
     6     28      1 ;      C - H1    
     6     32      1 ;      C - H5    
     6     33      1 ;      C - H6    
     6     34      1 ;      C - H7    
     6     35      1 ;      C - H8    
     6     36      1 ;      C - H9    
     7     12      1 ;     C1 - C6    
     7     13      1 ;     C1 - C7    
     7     19      1 ;     C1 - C13   
     7     22      1 ;     C1 - C16   
     7     29      1 ;     C1 - H2    
     7     30      1 ;     C1 - H3    
     7     31      1 ;     C1 - H4    
     7     35      1 ;     C1 - H8    
     7     36      1 ;     C1 - H9    
     7     37      1 ;     C1 - H10   
     7     38      1 ;     C1 - H11   
     7     39      1 ;     C1 - H12   
     7     40      1 ;     C1 - H13   
     7     41      1 ;     C1 - H14   
     8     10      1 ;     C2 - C4    
     8     11      1 ;     C2 - C5    
     8     15      1 ;     C2 - C9    
     8     17      1 ;     C2 - C11   
     8     18      1 ;     C2 - C12   
     8     20      1 ;     C2 - C14   
     8     21      1 ;     C2 - C15   
     8     32      1 ;     C2 - H5    
     8     33      1 ;     C2 - H6    
     8     34      1 ;     C2 - H7    
     8     42      1 ;     C2 - H15   
     8     43      1 ;     C2 - H16   
     9     14      1 ;     C3 - C8    
     9     19      1 ;     C3 - C13   
     9     23      1 ;     C3 - C17   
     9     24      1 ;     C3 - C18   
     9     27      1 ;     C3 - H     
     9     30      1 ;     C3 - H3    
     9     31      1 ;     C3 - H4    
     9     37      1 ;     C3 - H10   
     9     38      1 ;     C3 - H11   
     9     44      1 ;     C3 - H17   
     9     45      1 ;     C3 - H18   
     9     46      1 ;     C3 - H19   
     9     47      1 ;     C3 - H20   
     9     48      1 ;     C3 - H21   
     9     52      1 ;     C3 - H25   
    10     13      1 ;     C4 - C7    
    10     27      1 ;     C4 - H     
    10     30      1 ;     C4 - H3    
    10     31      1 ;     C4 - H4    
    10     33      1 ;     C4 - H6    
    10     34      1 ;     C4 - H7    
    10     39      1 ;     C4 - H12   
    10     40      1 ;     C4 - H13   
    10     41      1 ;     C4 - H14   
    10     54      1 ;     C4 - H27   
    10     55      1 ;     C4 - H28   
    11     12      1 ;     C5 - C6    
    11     14      1 ;     C5 - C8    
    11     15      1 ;     C5 - C9    
    11     22      1 ;     C5 - C16   
    11     27      1 ;     C5 - H     
    11     29      1 ;     C5 - H2    
    11     39      1 ;     C5 - H12   
    11     40      1 ;     C5 - H13   
    11     41      1 ;     C5 - H14   
    11     52      1 ;     C5 - H25   
    12     16      1 ;     C6 - C10   
    12     25      1 ;     C6 - C19   
    12     28      1 ;     C6 - H1    
    12     32      1 ;     C6 - H5    
    12     42      1 ;     C6 - H15   
    12     43      1 ;     C6 - H16   
    12     50      1 ;     C6 - H23   
    12     51      1 ;     C6 - H24   
    12     53      1 ;     C6 - H26   
    13     16      1 ;     C7 - C10   
    13     17      1 ;     C7 - C11   
    13     18      1 ;     C7 - C12   
    13     20      1 ;     C7 - C14   
    13     21      1 ;     C7 - C15   
    13     28      1 ;     C7 - H1    
    14     16      1 ;     C8 - C10   
    14     17      1 ;     C8 - C11   
    14     22      1 ;     C8 - C16   
    14     28      1 ;     C8 - H1    
    15     17      1 ;     C9 - C11   
    15     26      1 ;     C9 - C20   
    15     27      1 ;     C9 - H     
    16     24      1 ;    C10 - C18   
    16     27      1 ;    C10 - H     
    16     29      1 ;    C10 - H2    
    17     22      1 ;    C11 - C16   
    17     27      1 ;    C11 - H     
    17     30      1 ;    C11 - H3    
    17     31      1 ;    C11 - H4    
    18     23      1 ;    C12 - C17   
    18     29      1 ;    C12 - H2    
    18     37      1 ;    C12 - H10   
    18     38      1 ;    C12 - H11   
    18     44      1 ;    C12 - H17   
    18     45      1 ;    C12 - H18   
    18     46      1 ;    C12 - H19   
    18     47      1 ;    C12 - H20   
    18     48      1 ;    C12 - H21   
    19     20      1 ;    C13 - C14   
    19     21      1 ;    C13 - C15   
    19     25      1 ;    C13 - C19   
    19     28      1 ;    C13 - H1    
    19     53      1 ;    C13 - H26   
    20     24      1 ;    C14 - C18   
    20     29      1 ;    C14 - H2    
    20     46      1 ;    C14 - H19   
    20     47      1 ;    C14 - H20   
    20     48      1 ;    C14 - H21   
    21     23      1 ;    C15 - C17   
    21     24      1 ;    C15 - C18   
    21     29      1 ;    C15 - H2    
    21     44      1 ;    C15 - H17   
    21     45      1 ;    C15 - H18   
    22     35      1 ;    C16 - H8    
    22     36      1 ;    C16 - H9    
    22     56      1 ;    C16 - H29   
    23     53      1 ;    C17 - H26   
    24     42      1 ;    C18 - H15   
    24     43      1 ;    C18 - H16   
    24     50      1 ;    C18 - H23   
    24     51      1 ;    C18 - H24   
    25     44      1 ;    C19 - H17   
    25     45      1 ;    C19 - H18   
    27     28      1 ;      H - H1    
    27     33      1 ;      H - H6    
    27     34      1 ;      H - H7    
    28     29      1 ;     H1 - H2    
    28     37      1 ;     H1 - H10   
    28     38      1 ;     H1 - H11   
    29     32      1 ;     H2 - H5    
    30     32      1 ;     H3 - H5    
    31     32      1 ;     H4 - H5    
    32     52      1 ;     H5 - H25   
    33     35      1 ;     H6 - H8    
    33     36      1 ;     H6 - H9    
    34     35      1 ;     H7 - H8    
    34     36      1 ;     H7 - H9    
    37     42      1 ;    H10 - H15   
    37     43      1 ;    H10 - H16   
    38     42      1 ;    H11 - H15   
    38     43      1 ;    H11 - H16   
    44     50      1 ;    H17 - H23   
    44     51      1 ;    H17 - H24   
    45     50      1 ;    H18 - H23   
    45     51      1 ;    H18 - H24   
    49      6      1 ;    H22 - C     
    49     15      1 ;    H22 - C9    
    49     22      1 ;    H22 - C16   
    54     56      1 ;    H27 - H29   
    55     56      1 ;    H28 - H29   

[ angles ]
;   ai     aj     ak    funct   theta         cth
     1     10      6      1 ;    1.1162e+02    6.3455e+02 ;      O - C4   - C        OH -    x - x   
     1     10     15      1 ;    1.1162e+02    6.3455e+02 ;      O - C4   - C9       OH -    x - x   
     1     10     22      1 ;    1.0803e+02    6.4844e+02 ;      O - C4   - C16      OH -    x - C   
     2     13      9      1 ;    1.1005e+02    6.4065e+02 ;     O1 - C7   - C3       OH -    x - x   
     2     13     11      1 ;    1.1005e+02    6.4065e+02 ;     O1 - C7   - C5       OH -    x - x   
     2     13     32      1 ;    1.0996e+02    4.7187e+02 ;     O1 - C7   - H5       OH -    x - HC  
     3     22     10      1 ;    1.2567e+02    6.3019e+02 ;     O2 - C16  - C4        O -    C - x   
     3     22     26      1 ;    1.2290e+02    6.3973e+02 ;     O2 - C16  - C20       O -    C - CT  
     4     26     22      1 ;    1.0946e+02    6.4526e+02 ;     O3 - C20  - C16      OH -   CT - C   
     4     26     54      1 ;    1.1038e+02    4.7103e+02 ;     O3 - C20  - H27      OH -   CT - HC  
     4     26     55      1 ;    1.1038e+02    4.7103e+02 ;     O3 - C20  - H28      OH -   CT - HC  
     5     25     23      1 ;    1.2234e+02    6.4065e+02 ;     O4 - C19  - C17       O -    C - x   
     5     25     24      1 ;    1.2324e+02    6.5262e+02 ;     O4 - C19  - C18       O -    C - x   
     6      7      8      1 ;    1.1375e+02    4.9589e+02 ;      C - C1   - C2        x -    x - x   
     6      7     14      1 ;    1.0383e+02    5.1748e+02 ;      C - C1   - C8        x -    x - x   
     6      7     27      1 ;    1.1117e+02    3.5690e+02 ;      C - C1   - H         x -    x - HC  
     6     10     15      1 ;    1.0383e+02    5.1748e+02 ;      C - C4   - C9        x -    x - x   
     6     10     22      1 ;    1.0786e+02    5.0995e+02 ;      C - C4   - C16       x -    x - C   
     6     11     13      1 ;    1.1104e+02    5.0350e+02 ;      C - C5   - C7        x -    x - x   
     6     11     30      1 ;    1.0934e+02    3.6183e+02 ;      C - C5   - H3        x -    x - HC  
     6     11     31      1 ;    1.0934e+02    3.6183e+02 ;      C - C5   - H4        x -    x - HC  
     6     17     39      1 ;    1.1053e+02    3.6033e+02 ;      C - C11  - H12       x -   CT - HC  
     6     17     40      1 ;    1.1053e+02    3.6033e+02 ;      C - C11  - H13       x -   CT - HC  
     6     17     41      1 ;    1.1053e+02    3.6033e+02 ;      C - C11  - H14       x -   CT - HC  
     7      6     10      1 ;    1.0383e+02    5.1748e+02 ;     C1 - C    - C4        x -    x - x   
     7      6     11      1 ;    1.1375e+02    4.9589e+02 ;     C1 - C    - C5        x -    x - x   
     7      6     17      1 ;    1.1360e+02    4.9647e+02 ;     C1 - C    - C11       x -    x - CT  
     7      8      9      1 ;    1.1104e+02    5.0350e+02 ;     C1 - C2   - C3        x -    x - x   
     7      8     16      1 ;    1.1104e+02    5.0350e+02 ;     C1 - C2   - C10       x -    x - x   
     7      8     28      1 ;    1.0934e+02    3.6183e+02 ;     C1 - C2   - H1        x -    x - HC  
     7     14     15      1 ;    1.0383e+02    5.1748e+02 ;     C1 - C8   - C9        x -    x - x   
     7     14     33      1 ;    1.1117e+02    3.5690e+02 ;     C1 - C8   - H6        x -    x - HC  
     7     14     34      1 ;    1.1117e+02    3.5690e+02 ;     C1 - C8   - H7        x -    x - HC  
     8      7     14      1 ;    1.1375e+02    4.9589e+02 ;     C2 - C1   - C8        x -    x - x   
     8      7     27      1 ;    1.0642e+02    3.6685e+02 ;     C2 - C1   - H         x -    x - HC  
     8      9     12      1 ;    1.1106e+02    5.0359e+02 ;     C2 - C3   - C6        x -    x - x   
     8      9     13      1 ;    1.1106e+02    5.0359e+02 ;     C2 - C3   - C7        x -    x - x   
     8      9     29      1 ;    1.0945e+02    3.6175e+02 ;     C2 - C3   - H2        x -    x - HC  
     8     16     19      1 ;    1.1106e+02    5.0359e+02 ;     C2 - C10  - C13       x -    x - x   
     8     16     37      1 ;    1.0945e+02    3.6175e+02 ;     C2 - C10  - H10       x -    x - HC  
     8     16     38      1 ;    1.0945e+02    3.6175e+02 ;     C2 - C10  - H11       x -    x - HC  
     9      8     16      1 ;    1.1106e+02    5.0359e+02 ;     C3 - C2   - C10       x -    x - x   
     9      8     28      1 ;    1.0945e+02    3.6175e+02 ;     C3 - C2   - H1        x -    x - HC  
     9     12     18      1 ;    1.1141e+02    5.0685e+02 ;     C3 - C6   - C12       x -    x - CR  
     9     12     20      1 ;    1.1106e+02    5.0359e+02 ;     C3 - C6   - C14       x -    x - x   
     9     12     21      1 ;    1.1143e+02    5.0200e+02 ;     C3 - C6   - C15       x -    x - CT  
     9     13     11      1 ;    1.1106e+02    5.0359e+02 ;     C3 - C7   - C5        x -    x - x   
     9     13     32      1 ;    1.0918e+02    3.6217e+02 ;     C3 - C7   - H5        x -    x - HC  
    10      1     49      1 ;    1.0717e+02    5.4727e+02 ;     C4 - O    - H22       x -   OH - HO  
    10      6     11      1 ;    1.1375e+02    4.9589e+02 ;     C4 - C    - C5        x -    x - x   
    10      6     17      1 ;    1.1360e+02    4.9647e+02 ;     C4 - C    - C11       x -    x - CT  
    10     15     14      1 ;    1.0383e+02    5.1748e+02 ;     C4 - C9   - C8        x -    x - x   
    10     15     35      1 ;    1.1117e+02    3.5690e+02 ;     C4 - C9   - H8        x -    x - HC  
    10     15     36      1 ;    1.1117e+02    3.5690e+02 ;     C4 - C9   - H9        x -    x - HC  
    10     22     26      1 ;    1.1800e+02    4.9095e+02 ;     C4 - C16  - C20       x -    C - CT  
    11      6     17      1 ;    1.1056e+02    5.0484e+02 ;     C5 - C    - C11       x -    x - CT  
    11     13     32      1 ;    1.0918e+02    3.6217e+02 ;     C5 - C7   - H5        x -    x - HC  
    12      9     13      1 ;    1.1106e+02    5.0359e+02 ;     C6 - C3   - C7        x -    x - x   
    12      9     29      1 ;    1.0945e+02    3.6175e+02 ;     C6 - C3   - H2        x -    x - HC  
    12     18     19      1 ;    1.1596e+02    5.0099e+02 ;     C6 - C12  - C13       x -   CR - x   
    12     18     24      1 ;    1.2265e+02    5.1212e+02 ;     C6 - C12  - C18       x -   CR - x   
    12     20     23      1 ;    1.1106e+02    5.0359e+02 ;     C6 - C14  - C17       x -    x - x   
    12     20     44      1 ;    1.0945e+02    3.6175e+02 ;     C6 - C14  - H17       x -    x - HC  
    12     20     45      1 ;    1.0945e+02    3.6175e+02 ;     C6 - C14  - H18       x -    x - HC  
    12     21     46      1 ;    1.1063e+02    3.5890e+02 ;     C6 - C15  - H19       x -   CT - HC  
    12     21     47      1 ;    1.1063e+02    3.5890e+02 ;     C6 - C15  - H20       x -   CT - HC  
    12     21     48      1 ;    1.1063e+02    3.5890e+02 ;     C6 - C15  - H21       x -   CT - HC  
    13      2     52      1 ;    1.0707e+02    5.4584e+02 ;     C7 - O1   - H25       x -   OH - HO  
    13      9     29      1 ;    1.0945e+02    3.6175e+02 ;     C7 - C3   - H2        x -    x - HC  
    13     11     30      1 ;    1.0945e+02    3.6175e+02 ;     C7 - C5   - H3        x -    x - HC  
    13     11     31      1 ;    1.0945e+02    3.6175e+02 ;     C7 - C5   - H4        x -    x - HC  
    14      7     27      1 ;    1.1117e+02    3.5690e+02 ;     C8 - C1   - H         x -    x - HC  
    14     15     35      1 ;    1.1117e+02    3.5690e+02 ;     C8 - C9   - H8        x -    x - HC  
    14     15     36      1 ;    1.1117e+02    3.5690e+02 ;     C8 - C9   - H9        x -    x - HC  
    15     10     22      1 ;    1.0786e+02    5.0995e+02 ;     C9 - C4   - C16       x -    x - C   
    15     14     33      1 ;    1.1117e+02    3.5690e+02 ;     C9 - C8   - H6        x -    x - HC  
    15     14     34      1 ;    1.1117e+02    3.5690e+02 ;     C9 - C8   - H7        x -    x - HC  
    16      8     28      1 ;    1.0945e+02    3.6175e+02 ;    C10 - C2   - H1        x -    x - HC  
    16     19     18      1 ;    1.1141e+02    5.0685e+02 ;    C10 - C13  - C12       x -    x - CR  
    16     19     42      1 ;    1.0945e+02    3.6175e+02 ;    C10 - C13  - H15       x -    x - HC  
    16     19     43      1 ;    1.0945e+02    3.6175e+02 ;    C10 - C13  - H16       x -    x - HC  
    18     12     20      1 ;    1.1141e+02    5.0685e+02 ;    C12 - C6   - C14      CR -    x - x   
    18     12     21      1 ;    1.0977e+02    5.0986e+02 ;    C12 - C6   - C15      CR -    x - CT  
    18     19     42      1 ;    1.0931e+02    3.6736e+02 ;    C12 - C13  - H15      CR -    x - HC  
    18     19     43      1 ;    1.0931e+02    3.6736e+02 ;    C12 - C13  - H16      CR -    x - HC  
    18     24     25      1 ;    1.2200e+02    5.1974e+02 ;    C12 - C18  - C19      CR -    x - C   
    18     24     53      1 ;    1.2000e+02    3.8694e+02 ;    C12 - C18  - H26      CR -    x - HA  
    19     16     37      1 ;    1.0945e+02    3.6175e+02 ;    C13 - C10  - H10       x -    x - HC  
    19     16     38      1 ;    1.0945e+02    3.6175e+02 ;    C13 - C10  - H11       x -    x - HC  
    19     18     24      1 ;    1.2265e+02    5.1212e+02 ;    C13 - C12  - C18       x -   CR - x   
    20     12     21      1 ;    1.1143e+02    5.0200e+02 ;    C14 - C6   - C15       x -    x - CT  
    20     23     25      1 ;    1.1143e+02    5.0434e+02 ;    C14 - C17  - C19       x -    x - C   
    20     23     50      1 ;    1.0945e+02    3.6175e+02 ;    C14 - C17  - H23       x -    x - HC  
    20     23     51      1 ;    1.0945e+02    3.6175e+02 ;    C14 - C17  - H24       x -    x - HC  
    22     26     54      1 ;    1.0837e+02    3.6602e+02 ;    C16 - C20  - H27       C -   CT - HC  
    22     26     55      1 ;    1.0837e+02    3.6602e+02 ;    C16 - C20  - H28       C -   CT - HC  
    23     20     44      1 ;    1.0945e+02    3.6175e+02 ;    C17 - C14  - H17       x -    x - HC  
    23     20     45      1 ;    1.0945e+02    3.6175e+02 ;    C17 - C14  - H18       x -    x - HC  
    23     25     24      1 ;    1.1615e+02    5.0258e+02 ;    C17 - C19  - C18       x -    C - x   
    25     23     50      1 ;    1.0767e+02    3.6685e+02 ;    C19 - C17  - H23       C -    x - HC  
    25     23     51      1 ;    1.0767e+02    3.6685e+02 ;    C19 - C17  - H24       C -    x - HC  
    25     24     53      1 ;    1.1641e+02    3.6242e+02 ;    C19 - C18  - H26       C -    x - HA  
    26      4     56      1 ;    1.0739e+02    5.4501e+02 ;    C20 - O3   - H29      CT -   OH - HO  
    30     11     31      1 ;    1.0662e+02    3.0066e+02 ;     H3 - C5   - H4       HC -    x - HC  
    33     14     34      1 ;    1.0722e+02    3.0049e+02 ;     H6 - C8   - H7       HC -    x - HC  
    35     15     36      1 ;    1.0722e+02    3.0049e+02 ;     H8 - C9   - H9       HC -    x - HC  
    37     16     38      1 ;    1.0662e+02    3.0066e+02 ;    H10 - C10  - H11      HC -    x - HC  
    39     17     40      1 ;    1.0773e+02    2.9957e+02 ;    H12 - C11  - H13      HC -   CT - HC  
    39     17     41      1 ;    1.0773e+02    2.9957e+02 ;    H12 - C11  - H14      HC -   CT - HC  
    40     17     41      1 ;    1.0773e+02    2.9957e+02 ;    H13 - C11  - H14      HC -   CT - HC  
    42     19     43      1 ;    1.0662e+02    3.0066e+02 ;    H15 - C13  - H16      HC -    x - HC  
    44     20     45      1 ;    1.0662e+02    3.0066e+02 ;    H17 - C14  - H18      HC -    x - HC  
    46     21     47      1 ;    1.0773e+02    2.9957e+02 ;    H19 - C15  - H20      HC -   CT - HC  
    46     21     48      1 ;    1.0773e+02    2.9957e+02 ;    H19 - C15  - H21      HC -   CT - HC  
    47     21     48      1 ;    1.0773e+02    2.9957e+02 ;    H20 - C15  - H21      HC -   CT - HC  
    50     23     51      1 ;    1.0662e+02    3.0066e+02 ;    H23 - C17  - H24      HC -    x - HC  
    54     26     55      1 ;    1.0855e+02    2.9824e+02 ;    H27 - C20  - H28      HC -   CT - HC  

[ dihedrals ] ; propers
; for gromacs 4.5 or higher, using funct 9
;    i      j      k      l   func   phase     kd      pn
     1     10      6      7      9 ;     0.00   0.75312   3 ;      O-    C4-     C-    C1
     1     10      6     11      9 ;     0.00   0.75312   3 ;      O-    C4-     C-    C5
     1     10      6     17      9 ;     0.00   0.75312   3 ;      O-    C4-     C-   C11
     1     10     15     14      9 ;     0.00   0.75312   3 ;      O-    C4-    C9-    C8
     1     10     15     35      9 ;     0.00   0.37656   3 ;      O-    C4-    C9-    H8
     1     10     15     36      9 ;     0.00   0.37656   3 ;      O-    C4-    C9-    H9
     1     10     22      3      9 ;   180.00   0.00000   2 ;      O-    C4-   C16-    O2
     1     10     22     26      9 ;   180.00   0.00000   2 ;      O-    C4-   C16-   C20
     2     13      9      8      9 ;     0.00   0.75312   3 ;     O1-    C7-    C3-    C2
     2     13      9     12      9 ;     0.00   0.75312   3 ;     O1-    C7-    C3-    C6
     2     13      9     29      9 ;     0.00   0.37656   3 ;     O1-    C7-    C3-    H2
     2     13     11      6      9 ;     0.00   0.75312   3 ;     O1-    C7-    C5-     C
     2     13     11     30      9 ;     0.00   0.37656   3 ;     O1-    C7-    C5-    H3
     2     13     11     31      9 ;     0.00   0.37656   3 ;     O1-    C7-    C5-    H4
     3     22     10      6      9 ;     0.00   2.84512   1 ;     O2-   C16-    C4-     C
     3     22     10      6      9 ;   180.00   0.83680   2 ;     O2-   C16-    C4-     C
     3     22     10      6      9 ;   180.00   1.84096   3 ;     O2-   C16-    C4-     C
     3     22     10     15      9 ;     0.00   2.84512   1 ;     O2-   C16-    C4-    C9
     3     22     10     15      9 ;   180.00   0.83680   2 ;     O2-   C16-    C4-    C9
     3     22     10     15      9 ;   180.00   1.84096   3 ;     O2-   C16-    C4-    C9
     3     22     26      4      9 ;   180.00   0.00000   2 ;     O2-   C16-   C20-    O3
     3     22     26     54      9 ;     0.00   3.34720   1 ;     O2-   C16-   C20-   H27
     3     22     26     54      9 ;   180.00   0.33472   3 ;     O2-   C16-   C20-   H27
     3     22     26     55      9 ;     0.00   3.34720   1 ;     O2-   C16-   C20-   H28
     3     22     26     55      9 ;   180.00   0.33472   3 ;     O2-   C16-   C20-   H28
     4     26     22     10      9 ;   180.00   0.00000   2 ;     O3-   C20-   C16-    C4
     5     25     23     20      9 ;     0.00   0.46024   2 ;     O4-   C19-   C17-   C14
     5     25     23     20      9 ;     0.00  49.12016   1 ;     O4-   C19-   C17-   C14
     5     25     23     20      9 ;   180.00   0.33472   3 ;     O4-   C19-   C17-   C14
     5     25     23     50      9 ;     0.00  16.86152   1 ;     O4-   C19-   C17-   H23
     5     25     23     50      9 ;   180.00  15.31344   2 ;     O4-   C19-   C17-   H23
     5     25     23     51      9 ;     0.00  16.86152   1 ;     O4-   C19-   C17-   H24
     5     25     23     51      9 ;   180.00  15.31344   2 ;     O4-   C19-   C17-   H24
     5     25     24     18      9 ;   180.00   9.10020   2 ;     O4-   C19-   C18-   C12
     5     25     24     53      9 ;   180.00   9.10020   2 ;     O4-   C19-   C18-   H26
     6      7      8      9      9 ;     0.00   2.17568   3 ;      C-    C1-    C2-    C3
     6      7      8     16      9 ;     0.00   2.17568   3 ;      C-    C1-    C2-   C10
     6      7      8     28      9 ;     0.00   0.54392   3 ;      C-    C1-    C2-    H1
     6      7     14     15      9 ;     0.00   2.17568   3 ;      C-    C1-    C8-    C9
     6      7     14     33      9 ;     0.00   0.54392   3 ;      C-    C1-    C8-    H6
     6      7     14     34      9 ;     0.00   0.54392   3 ;      C-    C1-    C8-    H7
     6     10     15     14      9 ;     0.00   2.17568   3 ;      C-    C4-    C9-    C8
     6     10     15     35      9 ;     0.00   0.54392   3 ;      C-    C4-    C9-    H8
     6     10     15     36      9 ;     0.00   0.54392   3 ;      C-    C4-    C9-    H9
     6     10     22     26      9 ;   180.00   1.09621   2 ;      C-    C4-   C16-   C20
     6     11     13      9      9 ;     0.00   2.17568   3 ;      C-    C5-    C7-    C3
     6     11     13     32      9 ;     0.00   0.65084   3 ;      C-    C5-    C7-    H5
     7      6     10     15      9 ;     0.00   2.17568   3 ;     C1-     C-    C4-    C9
     7      6     10     22      9 ;     0.00   0.00000   0 ;     C1-     C-    C4-   C16
     7      6     10     22      9 ;     0.00   0.16736   2 ;     C1-     C-    C4-   C16
     7      6     10     22      9 ;   180.00   1.92464   1 ;     C1-     C-    C4-   C16
     7      6     11     13      9 ;     0.00   2.17568   3 ;     C1-     C-    C5-    C7
     7      6     11     30      9 ;     0.00   0.54392   3 ;     C1-     C-    C5-    H3
     7      6     11     31      9 ;     0.00   0.54392   3 ;     C1-     C-    C5-    H4
     7      6     17     39      9 ;     0.00   0.54392   3 ;     C1-     C-   C11-   H12
     7      6     17     40      9 ;     0.00   0.54392   3 ;     C1-     C-   C11-   H13
     7      6     17     41      9 ;     0.00   0.54392   3 ;     C1-     C-   C11-   H14
     7      8      9     12      9 ;     0.00   2.17568   3 ;     C1-    C2-    C3-    C6
     7      8      9     13      9 ;     0.00   2.17568   3 ;     C1-    C2-    C3-    C7
     7      8      9     29      9 ;     0.00   0.54392   3 ;     C1-    C2-    C3-    H2
     7      8     16     19      9 ;     0.00   2.17568   3 ;     C1-    C2-   C10-   C13
     7      8     16     37      9 ;     0.00   0.54392   3 ;     C1-    C2-   C10-   H10
     7      8     16     38      9 ;     0.00   0.54392   3 ;     C1-    C2-   C10-   H11
     7     14     15     10      9 ;     0.00   2.17568   3 ;     C1-    C8-    C9-    C4
     7     14     15     35      9 ;     0.00   0.54392   3 ;     C1-    C8-    C9-    H8
     7     14     15     36      9 ;     0.00   0.54392   3 ;     C1-    C8-    C9-    H9
     8      7      6     10      9 ;     0.00   2.17568   3 ;     C2-    C1-     C-    C4
     8      7      6     11      9 ;     0.00   2.17568   3 ;     C2-    C1-     C-    C5
     8      7      6     17      9 ;     0.00   2.17568   3 ;     C2-    C1-     C-   C11
     8      7     14     15      9 ;     0.00   2.17568   3 ;     C2-    C1-    C8-    C9
     8      7     14     33      9 ;     0.00   0.54392   3 ;     C2-    C1-    C8-    H6
     8      7     14     34      9 ;     0.00   0.54392   3 ;     C2-    C1-    C8-    H7
     8      9     12     18      9 ;     0.00   0.65084   3 ;     C2-    C3-    C6-   C12
     8      9     12     20      9 ;     0.00   2.17568   3 ;     C2-    C3-    C6-   C14
     8      9     12     21      9 ;     0.00   2.17568   3 ;     C2-    C3-    C6-   C15
     8      9     13     11      9 ;     0.00   2.17568   3 ;     C2-    C3-    C7-    C5
     8      9     13     32      9 ;     0.00   0.65084   3 ;     C2-    C3-    C7-    H5
     8     16     19     18      9 ;     0.00   0.65084   3 ;     C2-   C10-   C13-   C12
     8     16     19     42      9 ;     0.00   0.54392   3 ;     C2-   C10-   C13-   H15
     8     16     19     43      9 ;     0.00   0.54392   3 ;     C2-   C10-   C13-   H16
     9      8      7     14      9 ;     0.00   2.17568   3 ;     C3-    C2-    C1-    C8
     9      8      7     27      9 ;     0.00   0.54392   3 ;     C3-    C2-    C1-     H
     9      8     16     19      9 ;     0.00   2.17568   3 ;     C3-    C2-   C10-   C13
     9      8     16     37      9 ;     0.00   0.54392   3 ;     C3-    C2-   C10-   H10
     9      8     16     38      9 ;     0.00   0.54392   3 ;     C3-    C2-   C10-   H11
     9     12     18     19      9 ;     0.00   0.00000   0 ;     C3-    C6-   C12-   C13
     9     12     18     24      9 ;     0.00   0.00000   0 ;     C3-    C6-   C12-   C18
     9     12     20     23      9 ;     0.00   2.17568   3 ;     C3-    C6-   C14-   C17
     9     12     20     44      9 ;     0.00   0.54392   3 ;     C3-    C6-   C14-   H17
     9     12     20     45      9 ;     0.00   0.54392   3 ;     C3-    C6-   C14-   H18
     9     12     21     46      9 ;     0.00   0.54392   3 ;     C3-    C6-   C15-   H19
     9     12     21     47      9 ;     0.00   0.54392   3 ;     C3-    C6-   C15-   H20
     9     12     21     48      9 ;     0.00   0.54392   3 ;     C3-    C6-   C15-   H21
     9     13      2     52      9 ;     0.00   0.25104   3 ;     C3-    C7-    O1-   H25
     9     13     11     30      9 ;     0.00   0.54392   3 ;     C3-    C7-    C5-    H3
     9     13     11     31      9 ;     0.00   0.54392   3 ;     C3-    C7-    C5-    H4
    10      6      7     14      9 ;     0.00   2.17568   3 ;     C4-     C-    C1-    C8
    10      6      7     27      9 ;     0.00   0.54392   3 ;     C4-     C-    C1-     H
    10      6     11     13      9 ;     0.00   2.17568   3 ;     C4-     C-    C5-    C7
    10      6     11     30      9 ;     0.00   0.54392   3 ;     C4-     C-    C5-    H3
    10      6     11     31      9 ;     0.00   0.54392   3 ;     C4-     C-    C5-    H4
    10      6     17     39      9 ;     0.00   0.54392   3 ;     C4-     C-   C11-   H12
    10      6     17     40      9 ;     0.00   0.54392   3 ;     C4-     C-   C11-   H13
    10      6     17     41      9 ;     0.00   0.54392   3 ;     C4-     C-   C11-   H14
    10     15     14     33      9 ;     0.00   0.54392   3 ;     C4-    C9-    C8-    H6
    10     15     14     34      9 ;     0.00   0.54392   3 ;     C4-    C9-    C8-    H7
    10     22     26     54      9 ;   180.00   0.00000   2 ;     C4-   C16-   C20-   H27
    10     22     26     55      9 ;   180.00   0.00000   2 ;     C4-   C16-   C20-   H28
    11      6      7     14      9 ;     0.00   2.17568   3 ;     C5-     C-    C1-    C8
    11      6      7     27      9 ;     0.00   0.54392   3 ;     C5-     C-    C1-     H
    11      6     10     15      9 ;     0.00   2.17568   3 ;     C5-     C-    C4-    C9
    11      6     10     22      9 ;     0.00   0.00000   0 ;     C5-     C-    C4-   C16
    11      6     10     22      9 ;     0.00   0.16736   2 ;     C5-     C-    C4-   C16
    11      6     10     22      9 ;   180.00   1.92464   1 ;     C5-     C-    C4-   C16
    11      6     17     39      9 ;     0.00   0.54392   3 ;     C5-     C-   C11-   H12
    11      6     17     40      9 ;     0.00   0.54392   3 ;     C5-     C-   C11-   H13
    11      6     17     41      9 ;     0.00   0.54392   3 ;     C5-     C-   C11-   H14
    11     13      2     52      9 ;     0.00   0.25104   3 ;     C5-    C7-    O1-   H25
    11     13      9     12      9 ;     0.00   2.17568   3 ;     C5-    C7-    C3-    C6
    11     13      9     29      9 ;     0.00   0.54392   3 ;     C5-    C7-    C3-    H2
    12      9      8     16      9 ;     0.00   2.17568   3 ;     C6-    C3-    C2-   C10
    12      9      8     28      9 ;     0.00   0.54392   3 ;     C6-    C3-    C2-    H1
    12      9     13     32      9 ;     0.00   0.65084   3 ;     C6-    C3-    C7-    H5
    12     18     19     16      9 ;     0.00   0.00000   0 ;     C6-   C12-   C13-   C10
    12     18     19     42      9 ;     0.00   0.62760   3 ;     C6-   C12-   C13-   H15
    12     18     19     43      9 ;     0.00   0.62760   3 ;     C6-   C12-   C13-   H16
    12     18     24     25      9 ;   180.00  27.82360   2 ;     C6-   C12-   C18-   C19
    12     18     24     53      9 ;   180.00  27.82360   2 ;     C6-   C12-   C18-   H26
    12     20     23     25      9 ;     0.00   0.00000   0 ;     C6-   C14-   C17-   C19
    12     20     23     25      9 ;     0.00   0.16736   2 ;     C6-   C14-   C17-   C19
    12     20     23     25      9 ;   180.00   1.92464   1 ;     C6-   C14-   C17-   C19
    12     20     23     50      9 ;     0.00   0.54392   3 ;     C6-   C14-   C17-   H23
    12     20     23     51      9 ;     0.00   0.54392   3 ;     C6-   C14-   C17-   H24
    13      9      8     16      9 ;     0.00   2.17568   3 ;     C7-    C3-    C2-   C10
    13      9      8     28      9 ;     0.00   0.54392   3 ;     C7-    C3-    C2-    H1
    13      9     12     18      9 ;     0.00   0.65084   3 ;     C7-    C3-    C6-   C12
    13      9     12     20      9 ;     0.00   2.17568   3 ;     C7-    C3-    C6-   C14
    13      9     12     21      9 ;     0.00   2.17568   3 ;     C7-    C3-    C6-   C15
    13     11      6     17      9 ;     0.00   2.17568   3 ;     C7-    C5-     C-   C11
    14      7      6     17      9 ;     0.00   2.17568   3 ;     C8-    C1-     C-   C11
    14      7      8     16      9 ;     0.00   2.17568   3 ;     C8-    C1-    C2-   C10
    14      7      8     28      9 ;     0.00   0.54392   3 ;     C8-    C1-    C2-    H1
    14     15     10     22      9 ;     0.00   0.00000   0 ;     C8-    C9-    C4-   C16
    14     15     10     22      9 ;     0.00   0.16736   2 ;     C8-    C9-    C4-   C16
    14     15     10     22      9 ;   180.00   1.92464   1 ;     C8-    C9-    C4-   C16
    15     10      6     17      9 ;     0.00   2.17568   3 ;     C9-    C4-     C-   C11
    15     10     22     26      9 ;   180.00   1.09621   2 ;     C9-    C4-   C16-   C20
    15     14      7     27      9 ;     0.00   0.54392   3 ;     C9-    C8-    C1-     H
    16      8      7     27      9 ;     0.00   0.54392   3 ;    C10-    C2-    C1-     H
    16      8      9     29      9 ;     0.00   0.54392   3 ;    C10-    C2-    C3-    H2
    16     19     18     24      9 ;     0.00   0.00000   0 ;    C10-   C13-   C12-   C18
    17      6      7     27      9 ;     0.00   0.54392   3 ;    C11-     C-    C1-     H
    17      6     10     22      9 ;     0.00   0.00000   0 ;    C11-     C-    C4-   C16
    17      6     10     22      9 ;     0.00   0.16736   2 ;    C11-     C-    C4-   C16
    17      6     10     22      9 ;   180.00   1.92464   1 ;    C11-     C-    C4-   C16
    17      6     11     30      9 ;     0.00   0.54392   3 ;    C11-     C-    C5-    H3
    17      6     11     31      9 ;     0.00   0.54392   3 ;    C11-     C-    C5-    H4
    18     12      9     29      9 ;     0.00   0.65084   3 ;    C12-    C6-    C3-    H2
    18     12     20     23      9 ;     0.00   0.65084   3 ;    C12-    C6-   C14-   C17
    18     12     20     44      9 ;     0.00   0.65084   3 ;    C12-    C6-   C14-   H17
    18     12     20     45      9 ;     0.00   0.65084   3 ;    C12-    C6-   C14-   H18
    18     12     21     46      9 ;     0.00   0.65084   3 ;    C12-    C6-   C15-   H19
    18     12     21     47      9 ;     0.00   0.65084   3 ;    C12-    C6-   C15-   H20
    18     12     21     48      9 ;     0.00   0.65084   3 ;    C12-    C6-   C15-   H21
    18     19     16     37      9 ;     0.00   0.65084   3 ;    C12-   C13-   C10-   H10
    18     19     16     38      9 ;     0.00   0.65084   3 ;    C12-   C13-   C10-   H11
    18     24     25     23      9 ;     0.00  12.13360   2 ;    C12-   C18-   C19-   C17
    19     16      8     28      9 ;     0.00   0.54392   3 ;    C13-   C10-    C2-    H1
    19     18     12     20      9 ;     0.00   0.00000   0 ;    C13-   C12-    C6-   C14
    19     18     12     21      9 ;     0.00   0.00000   0 ;    C13-   C12-    C6-   C15
    19     18     24     25      9 ;   180.00  27.82360   2 ;    C13-   C12-   C18-   C19
    19     18     24     53      9 ;   180.00  27.82360   2 ;    C13-   C12-   C18-   H26
    20     12      9     29      9 ;     0.00   0.54392   3 ;    C14-    C6-    C3-    H2
    20     12     18     24      9 ;     0.00   0.00000   0 ;    C14-    C6-   C12-   C18
    20     12     21     46      9 ;     0.00   0.54392   3 ;    C14-    C6-   C15-   H19
    20     12     21     47      9 ;     0.00   0.54392   3 ;    C14-    C6-   C15-   H20
    20     12     21     48      9 ;     0.00   0.54392   3 ;    C14-    C6-   C15-   H21
    20     23     25     24      9 ;   180.00   0.00000   2 ;    C14-   C17-   C19-   C18
    21     12      9     29      9 ;     0.00   0.54392   3 ;    C15-    C6-    C3-    H2
    21     12     18     24      9 ;     0.00   0.00000   0 ;    C15-    C6-   C12-   C18
    21     12     20     23      9 ;     0.00   2.17568   3 ;    C15-    C6-   C14-   C17
    21     12     20     44      9 ;     0.00   0.54392   3 ;    C15-    C6-   C14-   H17
    21     12     20     45      9 ;     0.00   0.54392   3 ;    C15-    C6-   C14-   H18
    22     10     15     35      9 ;     0.00   0.65084   3 ;    C16-    C4-    C9-    H8
    22     10     15     36      9 ;     0.00   0.65084   3 ;    C16-    C4-    C9-    H9
    22     26      4     56      9 ;     0.00   0.69733   3 ;    C16-   C20-    O3-   H29
    23     25     24     53      9 ;   180.00   9.10020   2 ;    C17-   C19-   C18-   H26
    24     18     19     42      9 ;     0.00   0.00000   0 ;    C18-   C12-   C13-   H15
    24     18     19     43      9 ;     0.00   0.00000   0 ;    C18-   C12-   C13-   H16
    24     25     23     50      9 ;   180.00   0.00000   2 ;    C18-   C19-   C17-   H23
    24     25     23     51      9 ;   180.00   0.00000   2 ;    C18-   C19-   C17-   H24
    25     23     20     44      9 ;     0.00   0.65084   3 ;    C19-   C17-   C14-   H17
    25     23     20     45      9 ;     0.00   0.65084   3 ;    C19-   C17-   C14-   H18
    27      7      8     28      9 ;     0.00   0.50208   3 ;      H-    C1-    C2-    H1
    27      7     14     33      9 ;     0.00   0.50208   3 ;      H-    C1-    C8-    H6
    27      7     14     34      9 ;     0.00   0.50208   3 ;      H-    C1-    C8-    H7
    28      8      9     29      9 ;     0.00   0.50208   3 ;     H1-    C2-    C3-    H2
    28      8     16     37      9 ;     0.00   0.50208   3 ;     H1-    C2-   C10-   H10
    28      8     16     38      9 ;     0.00   0.50208   3 ;     H1-    C2-   C10-   H11
    29      9     13     32      9 ;     0.00   0.65084   3 ;     H2-    C3-    C7-    H5
    30     11     13     32      9 ;     0.00   0.65084   3 ;     H3-    C5-    C7-    H5
    31     11     13     32      9 ;     0.00   0.65084   3 ;     H4-    C5-    C7-    H5
    32     13      2     52      9 ;     0.00   0.51463   3 ;     H5-    C7-    O1-   H25
    33     14     15     35      9 ;     0.00   0.50208   3 ;     H6-    C8-    C9-    H8
    33     14     15     36      9 ;     0.00   0.50208   3 ;     H6-    C8-    C9-    H9
    34     14     15     35      9 ;     0.00   0.50208   3 ;     H7-    C8-    C9-    H8
    34     14     15     36      9 ;     0.00   0.50208   3 ;     H7-    C8-    C9-    H9
    37     16     19     42      9 ;     0.00   0.50208   3 ;    H10-   C10-   C13-   H15
    37     16     19     43      9 ;     0.00   0.50208   3 ;    H10-   C10-   C13-   H16
    38     16     19     42      9 ;     0.00   0.50208   3 ;    H11-   C10-   C13-   H15
    38     16     19     43      9 ;     0.00   0.50208   3 ;    H11-   C10-   C13-   H16
    44     20     23     50      9 ;     0.00   0.50208   3 ;    H17-   C14-   C17-   H23
    44     20     23     51      9 ;     0.00   0.50208   3 ;    H17-   C14-   C17-   H24
    45     20     23     50      9 ;     0.00   0.50208   3 ;    H18-   C14-   C17-   H23
    45     20     23     51      9 ;     0.00   0.50208   3 ;    H18-   C14-   C17-   H24
    49      1     10      6      9 ;     0.00   0.25104   3 ;    H22-     O-    C4-     C
    49      1     10     15      9 ;     0.00   0.25104   3 ;    H22-     O-    C4-    C9
    49      1     10     22      9 ;     0.00   0.69733   3 ;    H22-     O-    C4-   C16
    54     26      4     56      9 ;     0.00   0.51463   3 ;    H27-   C20-    O3-   H29
    55     26      4     56      9 ;     0.00   0.51463   3 ;    H28-   C20-    O3-   H29

[ dihedrals ] ; impropers
; treated as propers in GROMACS to use correct AMBER analytical function
;    i      j      k      l   func   phase     kd      pn
    12     19     18     24      4 ;   180.00   4.60240   2 ;     C6-   C13-   C12-   C18
    23     24     25      5      4 ;   180.00  43.93200   2 ;    C17-   C18-   C19-    O4
    25     18     24     53      4 ;   180.00   4.60240   2 ;    C19-   C12-   C18-   H26
    26     10     22      3      4 ;   180.00  43.93200   2 ;    C20-    C4-   C16-    O2
