; cortisol_GMX_OPLS.top created by acpype (v: 2023.10.27) on Mon Feb  9 17:39:01 2026

; Include forcefield parameters
#include "ffoplsaa.itp"

; Include cortisol_GMX.itp topology
#include "cortisol_GMX.itp"

; Ligand position restraints
#ifdef POSRES_LIG
#include "posre_cortisol.itp"
#endif

[ system ]
 cortisol

[ molecules ]
; Compound        nmols
 cortisol         1     
