cortisol_GMX.gro created by acpype (v: 2023.10.27) on Mon Feb  9 17:39:01 2026
 56
    1  UNL    O    1   0.311  -0.029  -0.194
    1  UNL   O1    2  -0.023   0.214   0.124
    1  UNL   O2    3   0.433   0.167   0.006
    1  UNL   O3    4   0.680   0.058  -0.047
    1  UNL   O4    5  -0.642  -0.003  -0.134
    1  UNL    C    6   0.189   0.016   0.014
    1  UNL   C1    7   0.100  -0.108  -0.007
    1  UNL   C2    8  -0.041  -0.094   0.054
    1  UNL   C3    9  -0.112   0.029  -0.011
    1  UNL   C4   10   0.320  -0.035  -0.052
    1  UNL   C5   11   0.120   0.136  -0.055
    1  UNL   C6   12  -0.262   0.046   0.037
    1  UNL   C7   13  -0.025   0.158  -0.007
    1  UNL   C8   14   0.189  -0.224   0.037
    1  UNL   C9   15   0.330  -0.182  -0.008
    1  UNL  C10   16  -0.122  -0.222   0.030
    1  UNL  C11   17   0.216   0.047   0.164
    1  UNL  C12   18  -0.335  -0.089   0.023
    1  UNL  C13   19  -0.264  -0.209   0.082
    1  UNL  C14   20  -0.330   0.152  -0.054
    1  UNL  C15   21  -0.275   0.090   0.184
    1  UNL  C16   22   0.441   0.047  -0.017
    1  UNL  C17   23  -0.482   0.151  -0.046
    1  UNL  C18   24  -0.456  -0.104  -0.033
    1  UNL  C19   25  -0.534   0.013  -0.078
    1  UNL  C20   26   0.573  -0.028  -0.013
    1  UNL    H   27   0.085  -0.121  -0.116
    1  UNL   H1   28  -0.033  -0.079   0.162
    1  UNL   H2   29  -0.118   0.004  -0.119
    1  UNL   H3   30   0.117   0.119  -0.163
    1  UNL   H4   31   0.179   0.227  -0.039
    1  UNL   H5   32  -0.070   0.234  -0.072
    1  UNL   H6   33   0.159  -0.318  -0.009
    1  UNL   H7   34   0.185  -0.237   0.146
    1  UNL   H8   35   0.398  -0.198   0.077
    1  UNL   H9   36   0.363  -0.247  -0.090
    1  UNL  H10   37  -0.074  -0.307   0.080
    1  UNL  H11   38  -0.124  -0.246  -0.077
    1  UNL  H12   39   0.259   0.147   0.178
    1  UNL  H13   40   0.125   0.045   0.225
    1  UNL  H14   41   0.284  -0.025   0.211
    1  UNL  H15   42  -0.263  -0.200   0.191
    1  UNL  H16   43  -0.319  -0.302   0.059
    1  UNL  H17   44  -0.302   0.135  -0.159
    1  UNL  H18   45  -0.295   0.253  -0.028
    1  UNL  H19   46  -0.209   0.033   0.251
    1  UNL  H20   47  -0.252   0.196   0.198
    1  UNL  H21   48  -0.377   0.076   0.222
    1  UNL  H22   49   0.387  -0.077  -0.232
    1  UNL  H23   50  -0.522   0.222  -0.119
    1  UNL  H24   51  -0.518   0.180   0.053
    1  UNL  H25   52   0.028   0.297   0.120
    1  UNL  H26   53  -0.503  -0.201  -0.041
    1  UNL  H27   54   0.574  -0.108  -0.087
    1  UNL  H28   55   0.589  -0.069   0.087
    1  UNL  H29   56   0.686   0.126   0.023
   26.57000    12.30600     9.64600
