%VERSION  VERSION_STAMP = V0001.000  DATE = 02/09/26  17:39:31                  
%FLAG TITLE                                                                     
%FORMAT(20a4)                                                                   
5754                                                                            
%FLAG POINTERS                                                                  
%FORMAT(10I8)                                                                   
      56       8      30      29      69      48     132      92       0       0
     371       1      29      48      92      22      45      30      12       0
       0       0       0       0       0       0       0       0      56       0
       0
%FLAG ATOM_NAME                                                                 
%FORMAT(20a4)                                                                   
O   O1  O2  O3  O4  C   C1  C2  C3  C4  C5  C6  C7  C8  C9  C10 C11 C12 C13 C14 
C15 C16 C17 C18 C19 C20 H   H1  H2  H3  H4  H5  H6  H7  H8  H9  H10 H11 H12 H13 
H14 H15 H16 H17 H18 H19 H20 H21 H22 H23 H24 H25 H26 H27 H28 H29 
%FLAG CHARGE                                                                    
%FORMAT(5E16.8)                                                                 
 -1.04377334E+01 -1.10390693E+01 -9.25875063E+00 -1.06746233E+01 -9.78719733E+00
 -3.09779100E-01 -1.25187201E+00 -8.50981410E-01 -7.41647610E-01  1.14436044E+00
 -1.86596352E+00 -1.23911640E-01  2.73516723E+00 -1.24640532E+00 -1.92063042E+00
 -1.31929452E+00 -1.96983063E+00 -5.53957920E-01 -9.87648660E-01 -1.30107222E+00
 -1.44138393E+00  9.40452903E+00 -3.30552522E+00 -4.85077626E+00  1.03921777E+01
  5.53957920E-01  1.17898281E+00  1.23364971E+00  9.78537510E-01  1.24276086E+00
  1.24276086E+00  6.32313810E-01  9.05648310E-01  9.05648310E-01  9.23870610E-01
  9.23870610E-01  8.41870260E-01  8.41870260E-01  8.99580284E-01  8.99580284E-01
  8.99580284E-01  1.03320441E+00  1.03320441E+00  9.32981760E-01  9.32981760E-01
  8.14536810E-01  8.14536810E-01  8.14536810E-01  7.36180920E+00  1.30653891E+00
  1.30653891E+00  7.36180920E+00  2.67867810E+00  1.22453856E+00  1.22453856E+00
  7.68981060E+00
%FLAG ATOMIC_NUMBER                                                             
%FORMAT(10I8)                                                                   
       8       8       8       8       8       6       6       6       6       6
       6       6       6       6       6       6       6       6       6       6
       6       6       6       6       6       6       1       1       1       1
       1       1       1       1       1       1       1       1       1       1
       1       1       1       1       1       1       1       1       1       1
       1       1       1       1       1       1
%FLAG MASS                                                                      
%FORMAT(5E16.8)                                                                 
  1.60000000E+01  1.60000000E+01  1.60000000E+01  1.60000000E+01  1.60000000E+01
  1.20100000E+01  1.20100000E+01  1.20100000E+01  1.20100000E+01  1.20100000E+01
  1.20100000E+01  1.20100000E+01  1.20100000E+01  1.20100000E+01  1.20100000E+01
  1.20100000E+01  1.20100000E+01  1.20100000E+01  1.20100000E+01  1.20100000E+01
  1.20100000E+01  1.20100000E+01  1.20100000E+01  1.20100000E+01  1.20100000E+01
  1.20100000E+01  1.00800000E+00  1.00800000E+00  1.00800000E+00  1.00800000E+00
  1.00800000E+00  1.00800000E+00  1.00800000E+00  1.00800000E+00  1.00800000E+00
  1.00800000E+00  1.00800000E+00  1.00800000E+00  1.00800000E+00  1.00800000E+00
  1.00800000E+00  1.00800000E+00  1.00800000E+00  1.00800000E+00  1.00800000E+00
  1.00800000E+00  1.00800000E+00  1.00800000E+00  1.00800000E+00  1.00800000E+00
  1.00800000E+00  1.00800000E+00  1.00800000E+00  1.00800000E+00  1.00800000E+00
  1.00800000E+00
%FLAG ATOM_TYPE_INDEX                                                           
%FORMAT(10I8)                                                                   
       1       1       2       1       2       3       3       3       3       3
       3       3       3       3       3       3       3       4       3       3
       3       4       3       4       4       3       5       5       5       5
       5       6       5       5       5       5       5       5       5       5
       5       5       5       5       5       5       5       5       7       5
       5       7       8       6       6       7
%FLAG NUMBER_EXCLUDED_ATOMS                                                     
%FORMAT(10I8)                                                                   
      13      11       8       6       8      25      26      23      25      20
      15      22      11      10       9      10       7      17      10      12
       8       7       7       6       5       3       3       3       1       2
       1       1       3       2       1       1       3       2       2       1
       1       1       1       3       2       2       1       1       1       1
       1       1       1       2       1       1
%FLAG NONBONDED_PARM_INDEX                                                      
%FORMAT(10I8)                                                                   
       1       2       4       7      11      16      22      29       2       3
       5       8      12      17      23      30       4       5       6       9
      13      18      24      31       7       8       9      10      14      19
      25      32      11      12      13      14      15      20      26      33
      16      17      18      19      20      21      27      34      22      23
      24      25      26      27      28      35      29      30      31      32
      33      34      35      36
%FLAG RESIDUE_LABEL                                                             
%FORMAT(20a4)                                                                   
UNL 
%FLAG RESIDUE_POINTER                                                           
%FORMAT(10I8)                                                                   
       1
%FLAG BOND_FORCE_CONSTANT                                                       
%FORMAT(5E16.8)                                                                 
  2.89690000E+02  5.35510000E+02  2.85250000E+02  5.90600000E+02  2.85150000E+02
  2.20100000E+02  2.26470000E+02  2.27640000E+02  3.46430000E+02  2.26810000E+02
  3.42750000E+02  2.29450000E+02  2.44960000E+02  2.23800000E+02  3.42020000E+02
  3.45250000E+02  4.24300000E+02  2.34850000E+02  2.33630000E+02  2.67760000E+02
  3.57590000E+02  3.44220000E+02
%FLAG BOND_EQUIL_VALUE                                                          
%FORMAT(5E16.8)                                                                 
  1.41940000E+00  9.72500000E-01  1.42410000E+00  1.21900000E+00  1.42420000E+00
  1.54830000E+00  1.53890000E+00  1.53720000E+00  1.09540000E+00  1.53840000E+00
  1.09790000E+00  1.53460000E+00  1.51330000E+00  1.54280000E+00  1.09840000E+00
  1.09620000E+00  1.34570000E+00  1.52700000E+00  1.52870000E+00  1.48480000E+00
  1.08800000E+00  1.09690000E+00
%FLAG ANGLE_FORCE_CONSTANT                                                      
%FORMAT(5E16.8)                                                                 
  7.58300000E+01  7.74900000E+01  7.65600000E+01  5.63900000E+01  7.53100000E+01
  7.64500000E+01  7.71100000E+01  5.62900000E+01  7.65600000E+01  7.79900000E+01
  5.92600000E+01  6.18400000E+01  4.26500000E+01  6.09400000E+01  6.01700000E+01
  4.32400000E+01  4.30600000E+01  5.93300000E+01  4.38400000E+01  6.01800000E+01
  4.32300000E+01  6.05700000E+01  5.99900000E+01  4.32800000E+01  6.54000000E+01
  5.86700000E+01  6.03300000E+01  5.98700000E+01  6.12000000E+01  4.28900000E+01
  6.52300000E+01  6.09300000E+01  4.39000000E+01  6.21100000E+01  4.62400000E+01
  6.02700000E+01  4.37400000E+01  6.00600000E+01  4.38400000E+01  4.33100000E+01
  6.51300000E+01  3.59300000E+01  3.59100000E+01  3.58000000E+01  3.56400000E+01
%FLAG ANGLE_EQUIL_VALUE                                                         
%FORMAT(5E16.8)                                                                 
  1.94813735E+00  1.88548000E+00  1.92073567E+00  1.91916487E+00  2.19335621E+00
  2.14501057E+00  1.91043822E+00  1.92649525E+00  2.13523672E+00  2.15094469E+00
  1.98531288E+00  1.81217614E+00  1.94028336E+00  1.88251294E+00  1.93801443E+00
  1.90834382E+00  1.92911325E+00  1.98269488E+00  1.85738019E+00  1.93836350E+00
  1.91026369E+00  1.94447215E+00  1.94482122E+00  1.90555129E+00  1.87047016E+00
  2.05948940E+00  1.92963685E+00  2.02388467E+00  2.14064725E+00  1.93085858E+00
  1.86872483E+00  1.91584874E+00  1.90782022E+00  2.12930260E+00  2.09439600E+00
  1.94482122E+00  1.89141412E+00  2.02720080E+00  1.87919681E+00  2.03173865E+00
  1.87430989E+00  1.86087085E+00  1.87134283E+00  1.88024401E+00  1.89455572E+00
%FLAG DIHEDRAL_FORCE_CONSTANT                                                   
%FORMAT(5E16.8)                                                                 
  1.80000000E-01  9.00000000E-02  0.00000000E+00  6.80000000E-01  2.00000000E-01
  4.40000000E-01  8.00000000E-01  8.00000000E-02  1.17400000E+01  1.10000000E-01
  4.03000000E+00  3.66000000E+00  2.17500000E+00  5.20000000E-01  1.30000000E-01
  6.00000000E-02  2.62000000E-01  1.55555556E-01  4.60000000E-01  4.00000000E-02
  0.00000000E+00  0.00000000E+00  1.50000000E-01  6.65000000E+00  2.90000000E+00
  1.66666667E-01  1.20000000E-01  1.23000000E-01  1.10000000E+00  1.05000000E+01
%FLAG DIHEDRAL_PERIODICITY                                                      
%FORMAT(5E16.8)                                                                 
  3.00000000E+00  3.00000000E+00  2.00000000E+00  1.00000000E+00  2.00000000E+00
  3.00000000E+00  1.00000000E+00  3.00000000E+00  1.00000000E+00  2.00000000E+00
  1.00000000E+00  2.00000000E+00  2.00000000E+00  3.00000000E+00  3.00000000E+00
  3.00000000E+00  2.00000000E+00  3.00000000E+00  1.00000000E+00  2.00000000E+00
  3.00000000E+00  2.00000000E+00  3.00000000E+00  2.00000000E+00  2.00000000E+00
  3.00000000E+00  3.00000000E+00  3.00000000E+00  2.00000000E+00  2.00000000E+00
%FLAG DIHEDRAL_PHASE                                                            
%FORMAT(5E16.8)                                                                 
  0.00000000E+00  0.00000000E+00  3.14159400E+00  0.00000000E+00  3.14159400E+00
  3.14159400E+00  0.00000000E+00  3.14159400E+00  0.00000000E+00  0.00000000E+00
  0.00000000E+00  3.14159400E+00  3.14159400E+00  0.00000000E+00  0.00000000E+00
  0.00000000E+00  3.14159400E+00  0.00000000E+00  3.14159400E+00  0.00000000E+00
  0.00000000E+00  0.00000000E+00  0.00000000E+00  3.14159400E+00  0.00000000E+00
  0.00000000E+00  0.00000000E+00  0.00000000E+00  3.14159400E+00  3.14159400E+00
%FLAG SCEE_SCALE_FACTOR                                                         
%FORMAT(5E16.8)                                                                 
  1.20000000E+00  1.20000000E+00  1.20000000E+00  1.20000000E+00  1.20000000E+00
  1.20000000E+00  1.20000000E+00  1.20000000E+00  1.20000000E+00  1.20000000E+00
  1.20000000E+00  1.20000000E+00  1.20000000E+00  1.20000000E+00  1.20000000E+00
  1.20000000E+00  1.20000000E+00  1.20000000E+00  1.20000000E+00  1.20000000E+00
  1.20000000E+00  1.20000000E+00  1.20000000E+00  1.20000000E+00  1.20000000E+00
  1.20000000E+00  1.20000000E+00  1.20000000E+00  0.00000000E+00  0.00000000E+00
%FLAG SCNB_SCALE_FACTOR                                                         
%FORMAT(5E16.8)                                                                 
  2.00000000E+00  2.00000000E+00  2.00000000E+00  2.00000000E+00  2.00000000E+00
  2.00000000E+00  2.00000000E+00  2.00000000E+00  2.00000000E+00  2.00000000E+00
  2.00000000E+00  2.00000000E+00  2.00000000E+00  2.00000000E+00  2.00000000E+00
  2.00000000E+00  2.00000000E+00  2.00000000E+00  2.00000000E+00  2.00000000E+00
  2.00000000E+00  2.00000000E+00  2.00000000E+00  2.00000000E+00  2.00000000E+00
  2.00000000E+00  2.00000000E+00  2.00000000E+00  0.00000000E+00  0.00000000E+00
%FLAG SOLTY                                                                     
%FORMAT(5E16.8)                                                                 
  0.00000000E+00  0.00000000E+00  0.00000000E+00  0.00000000E+00  0.00000000E+00
  0.00000000E+00  0.00000000E+00  0.00000000E+00  0.00000000E+00  0.00000000E+00
  0.00000000E+00  0.00000000E+00
%FLAG LENNARD_JONES_ACOEF                                                       
%FORMAT(5E16.8)                                                                 
  5.03152404E+05  4.37717034E+05  3.76435470E+05  7.18991463E+05  6.30925504E+05
  1.02073671E+06  5.92438683E+05  5.17507491E+05  8.43969952E+05  6.96551276E+05
  6.80216136E+04  5.68021765E+04  1.00235148E+05  8.12662403E+04  7.94617769E+03
  4.69084694E+04  3.86646725E+04  6.97998263E+04  5.63013422E+04  5.22955465E+03
  3.39005767E+03  1.74176419E+02  1.15813907E+02  3.03553352E+02  2.25372434E+02
  8.80612241E+00  4.36660257E+00  1.10360882E-05  6.30298721E+04  5.27277400E+04
  9.27554496E+04  7.52549148E+04  7.41026906E+03  4.88692384E+03  8.53132435E+00
  6.90855956E+03
%FLAG LENNARD_JONES_BCOEF                                                       
%FORMAT(5E16.8)                                                                 
  4.32634597E+02  4.51916854E+02  4.69350655E+02  5.36620538E+02  5.62969425E+02
  6.63431737E+02  4.76608379E+02  4.98871431E+02  5.90251928E+02  5.24668528E+02
  1.09393126E+02  1.11953944E+02  1.37787728E+02  1.21392023E+02  2.57122925E+01
  9.08431526E+01  9.23664132E+01  1.14981426E+02  1.01040256E+02  2.08590256E+01
  1.67944276E+01  3.81654050E+00  3.48534600E+00  5.22789272E+00  4.40751799E+00
  5.90150328E-01  4.15568027E-01  4.55498033E-04  9.87712192E+01  1.01173582E+02
  1.24325688E+02  1.09570372E+02  2.32899892E+01  1.89134207E+01  5.44840215E-01
  2.10929191E+01
%FLAG BONDS_INC_HYDROGEN                                                        
%FORMAT(10I8)                                                                   
       0     144       2       3     153       2       9     165       2      18
      78       9      21      81      11      24      84      11      30      87
      11      30      90      11      36      93      15      39      96       9
      39      99       9      42     102       9      42     105       9      45
     108      11      45     111      11      48     114      16      48     117
      16      48     120      16      54     123      11      54     126      11
      57     129      11      57     132      11      60     135      16      60
     138      16      60     141      16      66     147      11      66     150
      11      69     156      21      75     159      22      75     162      22
%FLAG BONDS_WITHOUT_HYDROGEN                                                    
%FORMAT(10I8)                                                                   
       0      27       1       3      36       3       6      63       4       9
      75       5      12      72       4      15      18       6      15      27
       6      15      30       7      15      48       8      18      21       7
      18      39       6      21      24      10      21      45      10      24
      33      10      24      36      10      27      42       6      27      63
      12      30      36      10      33      51      13      33      57      10
      33      60      14      39      42       6      45      54      10      51
      54      13      51      69      17      57      66      10      63      75
      18      66      72      19      69      72      20
%FLAG ANGLES_INC_HYDROGEN                                                       
%FORMAT(10I8)                                                                   
       3      36      93       4       9      75     159       8       9      75
     162       8      15      18      78      13      15      30      87      16
      15      30      90      16      15      48     114      17      15      48
     117      17      15      48     120      17      18      21      81      16
      18      39      96      13      18      39      99      13      21      18
      78      19      21      24      84      21      21      45     108      21
      21      45     111      21      24      21      81      21      24      36
      93      24      27       0     144      25      27      42     102      13
      27      42     105      13      30      36      93      24      33      24
      84      21      33      57     129      21      33      57     132      21
      33      60     135      30      33      60     138      30      33      60
     141      30      36       3     153      31      36      24      84      21
      36      30      87      21      36      30      90      21      39      18
      78      13      39      42     102      13      39      42     105      13
      42      39      96      13      42      39      99      13      45      21
      81      21      45      54     123      21      45      54     126      21
      51      54     123      33      51      54     126      33      51      69
     156      35      54      45     108      21      54      45     111      21
      57      66     147      21      57      66     150      21      63      75
     159      37      63      75     162      37      66      57     129      21
      66      57     132      21      72      66     147      39      72      66
     150      39      72      69     156      40      75       9     165      41
      87      30      90      42      96      39      99      43     102      42
     105      43     108      45     111      42     114      48     117      44
     114      48     120      44     117      48     120      44     123      54
     126      42     129      57     132      42     135      60     138      44
     135      60     141      44     138      60     141      44     147      66
     150      42     159      75     162      45
%FLAG ANGLES_WITHOUT_HYDROGEN                                                   
%FORMAT(10I8)                                                                   
       0      27      15       1       0      27      42       1       0      27
      63       2       3      36      24       3       3      36      30       3
       6      63      27       5       6      63      75       6       9      75
      63       7      12      72      66       9      12      72      69      10
      15      18      21      11      15      18      39      12      15      27
      42      12      15      27      63      14      15      30      36      15
      18      15      27      12      18      15      30      11      18      15
      48      18      18      21      24      15      18      21      45      15
      18      39      42      12      21      18      39      11      21      24
      33      20      21      24      36      20      21      45      54      20
      24      21      45      20      24      33      51      22      24      33
      57      20      24      33      60      23      24      36      30      20
      27      15      30      11      27      15      48      18      27      42
      39      12      27      63      75      26      30      15      48      27
      33      24      36      20      33      51      54      28      33      51
      69      29      33      57      66      20      42      27      63      14
      45      54      51      22      51      33      57      22      51      33
      60      32      51      69      72      34      54      51      69      29
      57      33      60      23      57      66      72      36      66      72
      69      38
%FLAG DIHEDRALS_INC_HYDROGEN                                                    
%FORMAT(10I8)                                                                   
       0      27      42     102       2       0      27      42     105       2
       3      36      24      84       2       3      36      30      87       2
       3      36      30      90       2       6      63      75     159       7
       6      63     -75     159       8       6      63      75     162       7
       6      63     -75     162       8      12      72      66     147      11
      12      72     -66     147      12      12      72      66     150      11
      12      72     -66     150      12      12      72      69     156      13
      15      18      21      81      15      15      18      39      96      15
      15      18      39      99      15     144       0      27      15      16
      15      27      42     102      15      15      27      42     105      15
      15      30      36      93      18      18      15      30      87      15
      18      15      30      90      15      18      15      48     114      15
      18      15      48     117      15      18      15      48     120      15
      18      21      24      84      15      18      21      45     108      15
      18      21      45     111      15      18      39      42     102      15
      18      39      42     105      15      21      18      39      96      15
      21      18      39      99      15      21      24      36      93      18
      21      45      54     123      15      21      45      54     126      15
      24      21      18      78      15      24      21      45     108      15
      24      21      45     111      15      24      33      57     129      15
      24      33      57     132      15      24      33      60     135      15
      24      33      60     138      15      24      33      60     141      15
      24      36       3     153      16      24      36      30      87      15
      24      36      30      90      15      27      15      18      78      15
      27      15      30      87      15      27      15      30      90      15
      27      15      48     114      15      27      15      48     117      15
      27      15      48     120      15      27      42      39      96      15
      27      42      39      99      15      27      63      75     159       3
      27      63      75     162       3      30      15      18      78      15
      30      15      48     114      15      30      15      48     117      15
      30      15      48     120      15      30      36       3     153      16
      30      36      24      84      15      33      24      21      81      15
      33      24      36      93      18      33      51      54     123      23
      33      51      54     126      23      33      51      69     156      24
      33      57      66     147      15      33      57      66     150      15
      36      24      21      81      15      39      18      21      81      15
     144       0      27      42      16      42      39      18      78      15
      45      21      18      78      15      45      21      24      84      15
      48      15      18      78      15      48      15      30      87      15
      48      15      30      90      15      51      33      24      84      18
      51      33      57     129      18      51      33      57     132      18
      51      33      60     135      18      51      33      60     138      18
      51      33      60     141      18      51      54      45     108      18
      51      54      45     111      18      54      45      21      81      15
      54      51      69     156      24      57      33      24      84      15
      57      33      60     135      15      57      33      60     138      15
      57      33      60     141      15      60      33      24      84      15
      60      33      57     129      15      60      33      57     132      15
     144       0      27      63      26      63      27      42     102      18
      63      27      42     105      18      63      75       9     165      26
      66      72      69     156      13      69      51      54     123      22
      69      51      54     126      22      69      72      66     147       3
      69      72      66     150       3      72      66      57     129      18
      72      66      57     132      18      78      18      21      81      27
      78      18      39      96      27      78      18      39      99      27
      81      21      24      84      27      81      21      45     108      27
      81      21      45     111      27      84      24      36      93      18
      87      30      36      93      18      90      30      36      93      18
      93      36       3     153      28      96      39      42     102      27
      96      39      42     105      27      99      39      42     102      27
      99      39      42     105      27     108      45      54     123      27
     108      45      54     126      27     111      45      54     123      27
     111      45      54     126      27     129      57      66     147      27
     129      57      66     150      27     132      57      66     147      27
     132      57      66     150      27     159      75       9     165      28
     162      75       9     165      28      72      51     -69    -156      29
%FLAG DIHEDRALS_WITHOUT_HYDROGEN                                                
%FORMAT(10I8)                                                                   
       0      27      15      18       1       0      27      15      30       1
       0      27      15      48       1       0      27      42      39       1
       0      27      63       6       3       0      27      63      75       3
       3      36      24      21       1       3      36      24      33       1
       3      36      30      15       1       6      63      27      15       4
       6      63     -27      15       5       6      63     -27      15       6
       6      63      27      42       4       6      63     -27      42       5
       6      63     -27      42       6       6      63      75       9       3
       9      75      63      27       3      12      72      66      57       9
      12      72     -66      57      10      12      72     -66      57       8
      12      72      69      51      13      15      18      21      24      14
      15      18      21      45      14      15      18     -39      42      14
      15      27     -42      39      14      15      27      63      75      17
      15      30     -36      24      14      18      15     -27      42      14
      18      15      27      63      19      18      15     -27      63      20
      18      15     -27      63      21      18      15      30      36      14
      18      21      24      33      14      18      21     -24      36      14
      18      21      45      54      14      18      39     -42      27      14
      21      18      15      27      14      21      18      15      30      14
      21      18      15      48      14      21      18      39      42      14
      21      24      33      51      18      21      24      33      57      14
      21      24      33      60      14      21      24     -36      30      14
      21      45     -54      51      18      24      21      18      39      14
      24      21      45      54      14      24      33     -51      54      22
      24      33      51      69      22      24      33      57      66      14
      27      15     -18      39      14      27      15      30      36      14
      30      15      18      39      14      30      15      27      42      14
      30      15      27      63      19      30      15     -27      63      20
      30      15     -27      63      21      30      36      24      33      14
      33      24      21      45      14      33      51     -54      45      22
      33      51      69      72      24      33      57     -66      72      19
      33      57     -66      72      20      33      57     -66      72      21
      36      24      21      45      14      36      24      33      51      18
      36      24      33      57      14      36      24      33      60      14
      36      30      15      48      14      39      18      15      48      14
      39      18      21      45      14      39      42      27      63      19
      39      42     -27      63      20      39      42     -27      63      21
      42      27      15      48      14      42      27      63      75      17
      45      54      51      69      22      48      15      27      63      19
      48      15     -27      63      20      48      15     -27      63      21
      51      33      57      66      18      51      69     -72      66      25
      54      51      33      57      22      54      51      33      60      22
      54      51      69      72      24      57      33      51      69      22
      57      66     -72      69       3      60      33      51      69      22
      60      33      57      66      14      33      54     -51     -69      29
      75      27     -63      -6      30      66      69     -72     -12      30
%FLAG EXCLUDED_ATOMS_LIST                                                       
%FORMAT(10I8)                                                                   
       3       6       7      10      11      14      15      17      22      26
      35      36      49       6       8       9      11      12      13      29
      30      31      32      52       4       6      10      15      22      26
      54      55      10      22      26      54      55      56      18      20
      23      24      25      50      51      53       7       8       9      10
      11      13      14      15      16      17      22      26      27      28
      30      31      32      33      34      35      36      39      40      41
      49       8       9      10      11      12      13      14      15      16
      17      19      22      27      28      29      30      31      33      34
      35      36      37      38      39      40      41       9      10      11
      12      13      14      15      16      17      18      19      20      21
      27      28      29      32      33      34      37      38      42      43
      11      12      13      14      16      18      19      20      21      23
      24      27      28      29      30      31      32      37      38      44
      45      46      47      48      52      11      13      14      15      17
      22      26      27      30      31      33      34      35      36      39
      40      41      49      54      55      12      13      14      15      17
      22      27      29      30      31      32      39      40      41      52
      13      16      18      19      20      21      23      24      25      28
      29      32      42      43      44      45      46      47      48      50
      51      53      16      17      18      20      21      28      29      30
      31      32      52      15      16      17      22      27      28      33
      34      35      36      17      22      26      27      33      34      35
      36      49      18      19      24      27      28      29      37      38
      42      43      22      27      30      31      39      40      41      19
      20      21      23      24      25      29      37      38      42      43
      44      45      46      47      48      53      20      21      24      25
      28      37      38      42      43      53      21      23      24      25
      29      44      45      46      47      48      50      51      23      24
      29      44      45      46      47      48      26      35      36      49
      54      55      56      24      25      44      45      50      51      53
      25      42      43      50      51      53      44      45      50      51
      53      54      55      56      28      33      34      29      37      38
      32      31      32      32      52      34      35      36      35      36
      36       0      38      42      43      42      43      40      41      41
       0      43       0      45      50      51      50      51      47      48
      48       0       0      51       0       0       0      55      56      56
       0
%FLAG HBOND_ACOEF                                                               
%FORMAT(5E16.8)                                                                 

%FLAG HBOND_BCOEF                                                               
%FORMAT(5E16.8)                                                                 

%FLAG HBCUT                                                                     
%FORMAT(5E16.8)                                                                 

%FLAG AMBER_ATOM_TYPE                                                           
%FORMAT(20a4)                                                                   
oh  oh  o   oh  o   c5  c5  c6  c6  c5  c6  c6  c6  c5  c5  c6  c3  c2  c6  c6  
c3  c   c6  ce  c   c3  hc  hc  hc  hc  hc  h1  hc  hc  hc  hc  hc  hc  hc  hc  
hc  hc  hc  hc  hc  hc  hc  hc  ho  hc  hc  ho  ha  h1  h1  ho  
%FLAG TREE_CHAIN_CLASSIFICATION                                                 
%FORMAT(20a4)                                                                   
BLA BLA BLA BLA BLA BLA BLA BLA BLA BLA BLA BLA BLA BLA BLA BLA BLA BLA BLA BLA 
BLA BLA BLA BLA BLA BLA BLA BLA BLA BLA BLA BLA BLA BLA BLA BLA BLA BLA BLA BLA 
BLA BLA BLA BLA BLA BLA BLA BLA BLA BLA BLA BLA BLA BLA BLA BLA 
%FLAG JOIN_ARRAY                                                                
%FORMAT(10I8)                                                                   
       0       0       0       0       0       0       0       0       0       0
       0       0       0       0       0       0       0       0       0       0
       0       0       0       0       0       0       0       0       0       0
       0       0       0       0       0       0       0       0       0       0
       0       0       0       0       0       0       0       0       0       0
       0       0       0       0       0       0
%FLAG IROTAT                                                                    
%FORMAT(10I8)                                                                   
       0       0       0       0       0       0       0       0       0       0
       0       0       0       0       0       0       0       0       0       0
       0       0       0       0       0       0       0       0       0       0
       0       0       0       0       0       0       0       0       0       0
       0       0       0       0       0       0       0       0       0       0
       0       0       0       0       0       0
%FLAG RADIUS_SET                                                                
%FORMAT(1a80)                                                                   
modified Bondi radii (mbondi)                                                   
%FLAG RADII                                                                     
%FORMAT(5E16.8)                                                                 
  1.50000000E+00  1.50000000E+00  1.50000000E+00  1.50000000E+00  1.50000000E+00
  1.70000000E+00  1.70000000E+00  1.50000000E+00  1.50000000E+00  1.70000000E+00
  1.50000000E+00  1.50000000E+00  1.50000000E+00  1.70000000E+00  1.70000000E+00
  1.50000000E+00  1.70000000E+00  1.70000000E+00  1.50000000E+00  1.50000000E+00
  1.70000000E+00  1.70000000E+00  1.50000000E+00  1.70000000E+00  1.70000000E+00
  1.70000000E+00  1.30000000E+00  1.30000000E+00  1.30000000E+00  1.30000000E+00
  1.30000000E+00  1.30000000E+00  1.30000000E+00  1.30000000E+00  1.30000000E+00
  1.30000000E+00  1.30000000E+00  1.30000000E+00  1.30000000E+00  1.30000000E+00
  1.30000000E+00  1.30000000E+00  1.30000000E+00  1.30000000E+00  1.30000000E+00
  1.30000000E+00  1.30000000E+00  1.30000000E+00  8.00000000E-01  1.30000000E+00
  1.30000000E+00  8.00000000E-01  1.30000000E+00  1.30000000E+00  1.30000000E+00
  8.00000000E-01
%FLAG SCREEN                                                                    
%FORMAT(5E16.8)                                                                 
  8.50000000E-01  8.50000000E-01  8.50000000E-01  8.50000000E-01  8.50000000E-01
  7.20000000E-01  7.20000000E-01  8.00000000E-01  8.00000000E-01  7.20000000E-01
  8.00000000E-01  8.00000000E-01  8.00000000E-01  7.20000000E-01  7.20000000E-01
  8.00000000E-01  7.20000000E-01  7.20000000E-01  8.00000000E-01  8.00000000E-01
  7.20000000E-01  7.20000000E-01  8.00000000E-01  7.20000000E-01  7.20000000E-01
  7.20000000E-01  8.50000000E-01  8.50000000E-01  8.50000000E-01  8.50000000E-01
  8.50000000E-01  8.50000000E-01  8.50000000E-01  8.50000000E-01  8.50000000E-01
  8.50000000E-01  8.50000000E-01  8.50000000E-01  8.50000000E-01  8.50000000E-01
  8.50000000E-01  8.50000000E-01  8.50000000E-01  8.50000000E-01  8.50000000E-01
  8.50000000E-01  8.50000000E-01  8.50000000E-01  8.50000000E-01  8.50000000E-01
  8.50000000E-01  8.50000000E-01  8.50000000E-01  8.50000000E-01  8.50000000E-01
  8.50000000E-01
%FLAG IPOL                                                                      
%FORMAT(1I8)                                                                    
       0
