; cytidine_GMX.top created by acpype (v: 2023.10.27) on Mon Feb  9 17:39:33 2026

[ defaults ]
; nbfunc        comb-rule       gen-pairs       fudgeLJ fudgeQQ
1               2               yes             0.5     0.8333333333

; Include cytidine_GMX.itp topology
#include "cytidine_GMX.itp"

; Ligand position restraints
#ifdef POSRES_LIG
#include "posre_cytidine.itp"
#endif

[ system ]
 cytidine

[ molecules ]
; Compound        nmols
 cytidine         1     
