; cytidine_GMX.itp created by acpype (v: 2023.10.27) on Mon Feb  9 17:39:33 2026

[ atomtypes ]
;name   bond_type     mass     charge   ptype   sigma         epsilon       Amb
 os       os          0.00000  0.00000   A     3.15610e-01   3.03758e-01 ; 1.77  0.0726
 oh       oh          0.00000  0.00000   A     3.24287e-01   3.89112e-01 ; 1.82  0.0930
 o        o           0.00000  0.00000   A     3.04812e-01   6.12119e-01 ; 1.71  0.1463
 n        n           0.00000  0.00000   A     3.18086e-01   6.84502e-01 ; 1.79  0.1636
 nc       nc          0.00000  0.00000   A     3.38417e-01   3.93714e-01 ; 1.90  0.0941
 nv       nv          0.00000  0.00000   A     3.36813e-01   4.68608e-01 ; 1.89  0.1120
 c5       c5          0.00000  0.00000   A     3.39771e-01   4.51035e-01 ; 1.91  0.1078
 c3       c3          0.00000  0.00000   A     3.39771e-01   4.51035e-01 ; 1.91  0.1078
 cc       cc          0.00000  0.00000   A     3.31521e-01   4.13379e-01 ; 1.86  0.0988
 c        c           0.00000  0.00000   A     3.31521e-01   4.13379e-01 ; 1.86  0.0988
 cd       cd          0.00000  0.00000   A     3.31521e-01   4.13379e-01 ; 1.86  0.0988
 h1       h1          0.00000  0.00000   A     2.42200e-01   8.70272e-02 ; 1.36  0.0208
 h2       h2          0.00000  0.00000   A     2.24382e-01   8.70272e-02 ; 1.26  0.0208
 ho       ho          0.00000  0.00000   A     5.37925e-02   1.96648e-02 ; 0.30  0.0047
 h4       h4          0.00000  0.00000   A     2.53639e-01   6.73624e-02 ; 1.42  0.0161
 ha       ha          0.00000  0.00000   A     2.62548e-01   6.73624e-02 ; 1.47  0.0161
 hn       hn          0.00000  0.00000   A     1.10650e-01   4.18400e-02 ; 0.62  0.0100

[ moleculetype ]
;name            nrexcl
 cytidine         3

[ atoms ]
;   nr  type  resi  res  atom  cgnr     charge      mass       ; qtot   bond_type
     1   os     1    C1   O4*    1    -0.394600     16.00000 ; qtot -0.395
     2   oh     1    C1   O2*    2    -0.597800     16.00000 ; qtot -0.992
     3   oh     1    C1   O3*    3    -0.575800     16.00000 ; qtot -1.568
     4   oh     1    C1   O5*    4    -0.592800     16.00000 ; qtot -2.161
     5    o     1    C1    O2    5    -0.659500     16.00000 ; qtot -2.820
     6    n     1    C1    N1    6    -0.405000     14.01000 ; qtot -3.225
     7   nc     1    C1    N3    7    -0.726100     14.01000 ; qtot -3.952
     8   nv     1    C1    N4    8    -0.916800     14.01000 ; qtot -4.868
     9   c5     1    C1   C2*    9     0.093100     12.01000 ; qtot -4.775
    10   c5     1    C1   C3*   10     0.128100     12.01000 ; qtot -4.647
    11   c5     1    C1   C1*   11     0.257500     12.01000 ; qtot -4.390
    12   c5     1    C1   C4*   12     0.092100     12.01000 ; qtot -4.298
    13   c3     1    C1   C5*   13     0.106400     12.01000 ; qtot -4.191
    14   cc     1    C1    C6   14     0.076600     12.01000 ; qtot -4.115
    15    c     1    C1    C2   15     0.840900     12.01000 ; qtot -3.274
    16   cd     1    C1    C5   16    -0.440600     12.01000 ; qtot -3.714
    17   cd     1    C1    C4   17     0.758500     12.01000 ; qtot -2.956
    18   h1     1    C1   H2*   18     0.077700      1.00800 ; qtot -2.878
    19   h1     1    C1   H3*   19     0.088700      1.00800 ; qtot -2.789
    20   h2     1    C1   H1*   20     0.106700      1.00800 ; qtot -2.683
    21   h1     1    C1   H4*   21     0.106700      1.00800 ; qtot -2.576
    22   h1     1    C1  H5*1   22     0.034700      1.00800 ; qtot -2.541
    23   h1     1    C1  H5*2   23     0.034700      1.00800 ; qtot -2.507
    24   ho     1    C1    H7   24     0.449000      1.00800 ; qtot -2.058
    25   ho     1    C1    H8   25     0.427000      1.00800 ; qtot -1.631
    26   h4     1    C1    H6   26     0.195000      1.00800 ; qtot -1.436
    27   ho     1    C1   H5*   27     0.404000      1.00800 ; qtot -1.032
    28   ha     1    C1    H5   28     0.155000      1.00800 ; qtot -0.877
    29   hn     1    C1   H41   29     0.438300      1.00800 ; qtot -0.438
    30   hn     1    C1   H42   30     0.438300      1.00800 ; qtot 0.000

[ bonds ]
;   ai     aj funct   r             k
     1     11   1    1.4346e-01    2.3063e+05 ;    O4* - C1*   
     1     12   1    1.4346e-01    2.3063e+05 ;    O4* - C4*   
     2      9   1    1.4194e-01    2.4241e+05 ;    O2* - C2*   
     2     24   1    9.7250e-02    4.4811e+05 ;    O2* - H7    
     3     10   1    1.4194e-01    2.4241e+05 ;    O3* - C3*   
     3     25   1    9.7250e-02    4.4811e+05 ;    O3* - H8    
     4     13   1    1.4242e-01    2.3861e+05 ;    O5* - C5*   
     4     27   1    9.7250e-02    4.4811e+05 ;    O5* - H5*   
     5     15   1    1.2190e-01    4.9421e+05 ;     O2 - C2    
     6     11   1    1.4685e-01    2.1010e+05 ;     N1 - C1*   
     6     14   1    1.3837e-01    2.7753e+05 ;     N1 - C6    
     6     15   1    1.3967e-01    2.6565e+05 ;     N1 - C2    
     7     15   1    1.3744e-01    2.8644e+05 ;     N3 - C2    
     7     17   1    1.3171e-01    3.4961e+05 ;     N3 - C4    
     8     17   1    1.3704e-01    2.9037e+05 ;     N4 - C4    
     8     29   1    1.0114e-01    3.9961e+05 ;     N4 - H41   
     8     30   1    1.0114e-01    3.9961e+05 ;     N4 - H42   
     9     10   1    1.5483e-01    1.8418e+05 ;    C2* - C3*   
     9     11   1    1.5483e-01    1.8418e+05 ;    C2* - C1*   
     9     18   1    1.0972e-01    2.8768e+05 ;    C2* - H2*   
    10     12   1    1.5483e-01    1.8418e+05 ;    C3* - C4*   
    10     19   1    1.0972e-01    2.8768e+05 ;    C3* - H3*   
    11     20   1    1.0955e-01    2.8977e+05 ;    C1* - H1*   
    12     13   1    1.5372e-01    1.9049e+05 ;    C4* - C5*   
    12     21   1    1.0972e-01    2.8768e+05 ;    C4* - H4*   
    13     22   1    1.0969e-01    2.8804e+05 ;    C5* - H5*1  
    13     23   1    1.0969e-01    2.8804e+05 ;    C5* - H5*2  
    14     16   1    1.3730e-01    3.2321e+05 ;     C6 - C5    
    14     26   1    1.0809e-01    3.0854e+05 ;     C6 - H6    
    16     17   1    1.4279e-01    2.6902e+05 ;     C5 - C4    
    16     28   1    1.0835e-01    3.0510e+05 ;     C5 - H5    

[ pairs ]
;   ai     aj    funct
     1      2      1 ;    O4* - O2*   
     1      3      1 ;    O4* - O3*   
     1      4      1 ;    O4* - O5*   
     1     14      1 ;    O4* - C6    
     1     15      1 ;    O4* - C2    
     1     18      1 ;    O4* - H2*   
     1     19      1 ;    O4* - H3*   
     1     22      1 ;    O4* - H5*1  
     1     23      1 ;    O4* - H5*2  
     2      3      1 ;    O2* - O3*   
     2      6      1 ;    O2* - N1    
     2     12      1 ;    O2* - C4*   
     2     19      1 ;    O2* - H3*   
     2     20      1 ;    O2* - H1*   
     3     11      1 ;    O3* - C1*   
     3     13      1 ;    O3* - C5*   
     3     18      1 ;    O3* - H2*   
     3     21      1 ;    O3* - H4*   
     4     10      1 ;    O5* - C3*   
     4     21      1 ;    O5* - H4*   
     5     11      1 ;     O2 - C1*   
     5     14      1 ;     O2 - C6    
     5     17      1 ;     O2 - C4    
     6     10      1 ;     N1 - C3*   
     6     17      1 ;     N1 - C4    
     6     18      1 ;     N1 - H2*   
     6     28      1 ;     N1 - H5    
     7     11      1 ;     N3 - C1*   
     7     14      1 ;     N3 - C6    
     7     28      1 ;     N3 - H5    
     7     29      1 ;     N3 - H41   
     7     30      1 ;     N3 - H42   
     8     14      1 ;     N4 - C6    
     8     15      1 ;     N4 - C2    
     8     28      1 ;     N4 - H5    
     9     13      1 ;    C2* - C5*   
     9     14      1 ;    C2* - C6    
     9     15      1 ;    C2* - C2    
     9     21      1 ;    C2* - H4*   
     9     25      1 ;    C2* - H8    
    10     20      1 ;    C3* - H1*   
    10     22      1 ;    C3* - H5*1  
    10     23      1 ;    C3* - H5*2  
    10     24      1 ;    C3* - H7    
    11     13      1 ;    C1* - C5*   
    11     16      1 ;    C1* - C5    
    11     19      1 ;    C1* - H3*   
    11     21      1 ;    C1* - H4*   
    11     24      1 ;    C1* - H7    
    11     26      1 ;    C1* - H6    
    12      6      1 ;    C4* - N1    
    12     18      1 ;    C4* - H2*   
    12     20      1 ;    C4* - H1*   
    12     25      1 ;    C4* - H8    
    12     27      1 ;    C4* - H5*   
    13     19      1 ;    C5* - H3*   
    14     20      1 ;     C6 - H1*   
    15     16      1 ;     C2 - C5    
    15     20      1 ;     C2 - H1*   
    15     26      1 ;     C2 - H6    
    16     29      1 ;     C5 - H41   
    16     30      1 ;     C5 - H42   
    17     26      1 ;     C4 - H6    
    18     19      1 ;    H2* - H3*   
    18     20      1 ;    H2* - H1*   
    18     24      1 ;    H2* - H7    
    19     21      1 ;    H3* - H4*   
    19     25      1 ;    H3* - H8    
    21     22      1 ;    H4* - H5*1  
    21     23      1 ;    H4* - H5*2  
    22     27      1 ;   H5*1 - H5*   
    23     27      1 ;   H5*2 - H5*   
    26     28      1 ;     H6 - H5    

[ angles ]
;   ai     aj     ak    funct   theta         cth
     1     11      6      1    1.0919e+02    6.9864e+02 ;    O4* - C1*    - N1    
     1     11      9      1    1.0614e+02    6.4793e+02 ;    O4* - C1*    - C2*   
     1     11     20      1    1.0947e+02    4.7028e+02 ;    O4* - C1*    - H1*   
     1     12     10      1    1.0614e+02    6.4793e+02 ;    O4* - C4*    - C3*   
     1     12     13      1    1.0897e+02    6.4224e+02 ;    O4* - C4*    - C5*   
     1     12     21      1    1.0846e+02    4.7229e+02 ;    O4* - C4*    - H4*   
     2      9     10      1    1.1162e+02    6.3455e+02 ;    O2* - C2*    - C3*   
     2      9     11      1    1.1162e+02    6.3455e+02 ;    O2* - C2*    - C1*   
     2      9     18      1    1.1027e+02    4.7254e+02 ;    O2* - C2*    - H2*   
     3     10      9      1    1.1162e+02    6.3455e+02 ;    O3* - C3*    - C2*   
     3     10     12      1    1.1162e+02    6.3455e+02 ;    O3* - C3*    - C4*   
     3     10     19      1    1.1027e+02    4.7254e+02 ;    O3* - C3*    - H3*   
     4     13     12      1    1.0985e+02    6.4157e+02 ;    O5* - C5*    - C4*   
     4     13     22      1    1.1038e+02    4.7103e+02 ;    O5* - C5*    - H5*1  
     4     13     23      1    1.1038e+02    4.7103e+02 ;    O5* - C5*    - H5*2  
     5     15      6      1    1.2257e+02    7.2534e+02 ;     O2 - C2     - N1    
     5     15      7      1    1.2401e+02    7.2877e+02 ;     O2 - C2     - N3    
     6     11      9      1    1.0366e+02    5.6350e+02 ;     N1 - C1*    - C2*   
     6     11     20      1    1.0590e+02    4.0685e+02 ;     N1 - C1*    - H1*   
     6     14     16      1    1.2220e+02    5.6877e+02 ;     N1 - C6     - C5    
     6     14     26      1    1.1502e+02    4.1112e+02 ;     N1 - C6     - H6    
     6     15      7      1    1.1725e+02    6.1312e+02 ;     N1 - C2     - N3    
     7     17      8      1    1.1987e+02    6.2484e+02 ;     N3 - C4     - N4    
     7     17     16      1    1.2070e+02    5.7287e+02 ;     N3 - C4     - C5    
     8     17     16      1    1.1976e+02    5.6551e+02 ;     N4 - C4     - C5    
     9      2     24      1    1.0717e+02    5.4727e+02 ;    C2* - O2*    - H7    
     9     10     12      1    1.0383e+02    5.1748e+02 ;    C2* - C3*    - C4*   
     9     10     19      1    1.1117e+02    3.5690e+02 ;    C2* - C3*    - H3*   
     9     11     20      1    1.1053e+02    3.5798e+02 ;    C2* - C1*    - H1*   
    10      3     25      1    1.0717e+02    5.4727e+02 ;    C3* - O3*    - H8    
    10      9     11      1    1.0383e+02    5.1748e+02 ;    C3* - C2*    - C1*   
    10      9     18      1    1.1117e+02    3.5690e+02 ;    C3* - C2*    - H2*   
    10     12     13      1    1.1360e+02    4.9647e+02 ;    C3* - C4*    - C5*   
    10     12     21      1    1.1117e+02    3.5690e+02 ;    C3* - C4*    - H4*   
    11      1     12      1    1.0926e+02    7.4986e+02 ;    C1* - O4*    - C4*   
    11      6     14      1    1.1989e+02    6.4501e+02 ;    C1* - N1     - C6    
    11      6     15      1    1.1850e+02    6.4618e+02 ;    C1* - N1     - C2    
    11      9     18      1    1.1117e+02    3.5690e+02 ;    C1* - C2*    - H2*   
    12     10     19      1    1.1117e+02    3.5690e+02 ;    C4* - C3*    - H3*   
    12     13     22      1    1.0938e+02    3.6217e+02 ;    C4* - C5*    - H5*1  
    12     13     23      1    1.0938e+02    3.6217e+02 ;    C4* - C5*    - H5*2  
    13      4     27      1    1.0739e+02    5.4501e+02 ;    C5* - O5*    - H5*   
    13     12     21      1    1.0924e+02    3.6242e+02 ;    C5* - C4*    - H4*   
    14      6     15      1    1.2161e+02    6.5806e+02 ;     C6 - N1     - C2    
    14     16     17      1    1.1621e+02    5.4032e+02 ;     C6 - C5     - C4    
    14     16     28      1    1.2170e+02    3.7865e+02 ;     C6 - C5     - H5    
    15      7     17      1    1.2034e+02    6.8283e+02 ;     C2 - N3     - C4    
    16     14     26      1    1.2911e+02    3.6777e+02 ;     C5 - C6     - H6    
    17      8     29      1    1.1672e+02    4.8417e+02 ;     C4 - N4     - H41   
    17      8     30      1    1.1672e+02    4.8417e+02 ;     C4 - N4     - H42   
    17     16     28      1    1.2185e+02    3.6652e+02 ;     C4 - C5     - H5    
    22     13     23      1    1.0855e+02    2.9824e+02 ;   H5*1 - C5*    - H5*2  
    29      8     30      1    1.1528e+02    3.8794e+02 ;    H41 - N4     - H42   

[ dihedrals ] ; propers
; for gromacs 4.5 or higher, using funct 9
;    i      j      k      l   func   phase     kd      pn
     1     11      6     14      9     0.00   1.79912   3 ;    O4*-   C1*-    N1-    C6
     1     11      6     14      9     0.00   4.81160   2 ;    O4*-   C1*-    N1-    C6
     1     11      6     14      9     0.00  10.41816   1 ;    O4*-   C1*-    N1-    C6
     1     11      6     15      9     0.00   0.00000   0 ;    O4*-   C1*-    N1-    C2
     1     11      9      2      9     0.00   2.46856   1 ;    O4*-   C1*-   C2*-   O2*
     1     11      9      2      9     0.00   3.30536   3 ;    O4*-   C1*-   C2*-   O2*
     1     11      9      2      9     0.00   5.27184   2 ;    O4*-   C1*-   C2*-   O2*
     1     11      9     10      9     0.00   0.65084   3 ;    O4*-   C1*-   C2*-   C3*
     1     11      9     18      9     0.00   0.00000   0 ;    O4*-   C1*-   C2*-   H2*
     1     11      9     18      9     0.00   1.04600   1 ;    O4*-   C1*-   C2*-   H2*
     1     12     10      3      9     0.00   2.46856   1 ;    O4*-   C4*-   C3*-   O3*
     1     12     10      3      9     0.00   3.30536   3 ;    O4*-   C4*-   C3*-   O3*
     1     12     10      3      9     0.00   5.27184   2 ;    O4*-   C4*-   C3*-   O3*
     1     12     10      9      9     0.00   0.65084   3 ;    O4*-   C4*-   C3*-   C2*
     1     12     10     19      9     0.00   0.00000   0 ;    O4*-   C4*-   C3*-   H3*
     1     12     10     19      9     0.00   1.04600   1 ;    O4*-   C4*-   C3*-   H3*
     1     12     13      4      9     0.00   2.46856   1 ;    O4*-   C4*-   C5*-   O5*
     1     12     13      4      9     0.00   3.30536   3 ;    O4*-   C4*-   C5*-   O5*
     1     12     13      4      9     0.00   5.27184   2 ;    O4*-   C4*-   C5*-   O5*
     1     12     13     22      9     0.00   0.00000   0 ;    O4*-   C4*-   C5*-  H5*1
     1     12     13     22      9     0.00   1.04600   1 ;    O4*-   C4*-   C5*-  H5*1
     1     12     13     23      9     0.00   0.00000   0 ;    O4*-   C4*-   C5*-  H5*2
     1     12     13     23      9     0.00   1.04600   1 ;    O4*-   C4*-   C5*-  H5*2
     2      9     10      3      9     0.00   4.18400   1 ;    O2*-   C2*-   C3*-   O3*
     2      9     10      3      9     0.00   6.02496   3 ;    O2*-   C2*-   C3*-   O3*
     2      9     10     12      9     0.00   0.75312   3 ;    O2*-   C2*-   C3*-   C4*
     2      9     10     19      9     0.00   0.00000   0 ;    O2*-   C2*-   C3*-   H3*
     2      9     10     19      9     0.00   1.04600   1 ;    O2*-   C2*-   C3*-   H3*
     2      9     11      6      9     0.00   0.42258   3 ;    O2*-   C2*-   C1*-    N1
     2      9     11     20      9     0.00   0.65084   3 ;    O2*-   C2*-   C1*-   H1*
     3     10      9     11      9     0.00   0.75312   3 ;    O3*-   C3*-   C2*-   C1*
     3     10      9     18      9     0.00   0.00000   0 ;    O3*-   C3*-   C2*-   H2*
     3     10      9     18      9     0.00   1.04600   1 ;    O3*-   C3*-   C2*-   H2*
     3     10     12     13      9     0.00   0.75312   3 ;    O3*-   C3*-   C4*-   C5*
     3     10     12     21      9     0.00   0.00000   0 ;    O3*-   C3*-   C4*-   H4*
     3     10     12     21      9     0.00   1.04600   1 ;    O3*-   C3*-   C4*-   H4*
     4     13     12     10      9     0.00   0.75312   3 ;    O5*-   C5*-   C4*-   C3*
     4     13     12     21      9     0.00   0.00000   0 ;    O5*-   C5*-   C4*-   H4*
     4     13     12     21      9     0.00   1.04600   1 ;    O5*-   C5*-   C4*-   H4*
     5     15      6     11      9   180.00  10.46000   2 ;     O2-    C2-    N1-   C1*
     5     15      6     14      9   180.00  10.46000   2 ;     O2-    C2-    N1-    C6
     5     15      7     17      9   180.00  16.73600   2 ;     O2-    C2-    N3-    C4
     6     11      9     10      9     0.00   0.41840   3 ;     N1-   C1*-   C2*-   C3*
     6     11      9     18      9     0.00   0.65084   3 ;     N1-   C1*-   C2*-   H2*
     6     14     16     17      9   180.00  16.73600   2 ;     N1-    C6-    C5-    C4
     6     14     16     28      9   180.00  16.73600   2 ;     N1-    C6-    C5-    H5
     6     15      7     17      9   180.00  16.73600   2 ;     N1-    C2-    N3-    C4
     7     15      6     11      9   180.00  10.46000   2 ;     N3-    C2-    N1-   C1*
     7     15      6     14      9   180.00  10.46000   2 ;     N3-    C2-    N1-    C6
     7     17      8     29      9   180.00   4.39320   2 ;     N3-    C4-    N4-   H41
     7     17      8     30      9   180.00   4.39320   2 ;     N3-    C4-    N4-   H42
     7     17     16     14      9   180.00  16.73600   2 ;     N3-    C4-    C5-    C6
     7     17     16     28      9   180.00  16.73600   2 ;     N3-    C4-    C5-    H5
     8     17      7     15      9   180.00  19.87400   2 ;     N4-    C4-    N3-    C2
     8     17     16     14      9   180.00  16.73600   2 ;     N4-    C4-    C5-    C6
     8     17     16     28      9   180.00  16.73600   2 ;     N4-    C4-    C5-    H5
     9     10      3     25      9     0.00   0.25104   3 ;    C2*-   C3*-   O3*-    H8
     9     10     12     13      9     0.00   2.17568   3 ;    C2*-   C3*-   C4*-   C5*
     9     10     12     21      9     0.00   0.65084   3 ;    C2*-   C3*-   C4*-   H4*
     9     11      6     14      9     0.00   0.00000   0 ;    C2*-   C1*-    N1-    C6
     9     11      6     15      9     0.00   9.45584   1 ;    C2*-   C1*-    N1-    C2
     9     11      6     15      9   180.00   0.12552   3 ;    C2*-   C1*-    N1-    C2
     9     11      6     15      9   180.00   2.71960   4 ;    C2*-   C1*-    N1-    C2
    10      9      2     24      9     0.00   0.25104   3 ;    C3*-   C2*-   O2*-    H7
    10      9     11     20      9     0.00   0.65084   3 ;    C3*-   C2*-   C1*-   H1*
    10     12     13     22      9     0.00   0.65084   3 ;    C3*-   C4*-   C5*-  H5*1
    10     12     13     23      9     0.00   0.65084   3 ;    C3*-   C4*-   C5*-  H5*2
    11      1     12     10      9     0.00   0.33472   2 ;    C1*-   O4*-   C4*-   C3*
    11      1     12     10      9     0.00   3.13800   3 ;    C1*-   O4*-   C4*-   C3*
    11      1     12     10      9   180.00   3.68192   1 ;    C1*-   O4*-   C4*-   C3*
    11      1     12     13      9     0.00   0.33472   2 ;    C1*-   O4*-   C4*-   C5*
    11      1     12     13      9     0.00   3.13800   3 ;    C1*-   O4*-   C4*-   C5*
    11      1     12     13      9   180.00   3.68192   1 ;    C1*-   O4*-   C4*-   C5*
    11      1     12     21      9     0.00   1.41001   3 ;    C1*-   O4*-   C4*-   H4*
    11      6     14     16      9   180.00   6.90360   2 ;    C1*-    N1-    C6-    C5
    11      6     14     26      9   180.00   6.90360   2 ;    C1*-    N1-    C6-    H6
    11      9      2     24      9     0.00   0.25104   3 ;    C1*-   C2*-   O2*-    H7
    11      9     10     12      9     0.00   2.17568   3 ;    C1*-   C2*-   C3*-   C4*
    11      9     10     19      9     0.00   0.65084   3 ;    C1*-   C2*-   C3*-   H3*
    12      1     11      6      9     0.00   1.60387   3 ;    C4*-   O4*-   C1*-    N1
    12      1     11      9      9     0.00   0.33472   2 ;    C4*-   O4*-   C1*-   C2*
    12      1     11      9      9     0.00   3.13800   3 ;    C4*-   O4*-   C1*-   C2*
    12      1     11      9      9   180.00   3.68192   1 ;    C4*-   O4*-   C1*-   C2*
    12      1     11     20      9     0.00   1.60387   3 ;    C4*-   O4*-   C1*-   H1*
    12     10      3     25      9     0.00   0.25104   3 ;    C4*-   C3*-   O3*-    H8
    12     10      9     18      9     0.00   0.65084   3 ;    C4*-   C3*-   C2*-   H2*
    12     13      4     27      9     0.00   0.25104   3 ;    C4*-   C5*-   O5*-   H5*
    13     12     10     19      9     0.00   0.65084   3 ;    C5*-   C4*-   C3*-   H3*
    14      6     11     20      9     0.00   0.00000   0 ;     C6-    N1-   C1*-   H1*
    15      6     11     20      9     0.00   0.00000   0 ;     C2-    N1-   C1*-   H1*
    15      6     14     16      9   180.00   6.90360   2 ;     C2-    N1-    C6-    C5
    15      6     14     26      9   180.00   6.90360   2 ;     C2-    N1-    C6-    H6
    15      7     17     16      9   180.00  19.87400   2 ;     C2-    N3-    C4-    C5
    16     17      8     29      9   180.00   4.39320   2 ;     C5-    C4-    N4-   H41
    16     17      8     30      9   180.00   4.39320   2 ;     C5-    C4-    N4-   H42
    17     16     14     26      9   180.00  16.73600   2 ;     C4-    C5-    C6-    H6
    18      9      2     24      9     0.00   0.51463   3 ;    H2*-   C2*-   O2*-    H7
    18      9     10     19      9     0.00   0.65084   3 ;    H2*-   C2*-   C3*-   H3*
    18      9     11     20      9     0.00   0.65084   3 ;    H2*-   C2*-   C1*-   H1*
    19     10      3     25      9     0.00   0.51463   3 ;    H3*-   C3*-   O3*-    H8
    19     10     12     21      9     0.00   0.65084   3 ;    H3*-   C3*-   C4*-   H4*
    21     12     13     22      9     0.00   0.65084   3 ;    H4*-   C4*-   C5*-  H5*1
    21     12     13     23      9     0.00   0.65084   3 ;    H4*-   C4*-   C5*-  H5*2
    22     13      4     27      9     0.00   0.51463   3 ;   H5*1-   C5*-   O5*-   H5*
    23     13      4     27      9     0.00   0.51463   3 ;   H5*2-   C5*-   O5*-   H5*
    26     14     16     28      9   180.00  16.73600   2 ;     H6-    C6-    C5-    H5

[ dihedrals ] ; impropers
; treated as propers in GROMACS to use correct AMBER analytical function
;    i      j      k      l   func   phase     kd      pn
     6      7     15      5      4   180.00  43.93200   2 ;     N1-    N3-    C2-    O2
    14     17     16     28      4   180.00   4.60240   2 ;     C6-    C4-    C5-    H5
    15     11      6     14      4   180.00   4.60240   2 ;     C2-   C1*-    N1-    C6
    16      7     17      8      4   180.00   4.60240   2 ;     C5-    N3-    C4-    N4
    16     26     14      6      4   180.00   4.60240   2 ;     C5-    H6-    C6-    N1
    17     29      8     30      4   180.00   4.60240   2 ;     C4-   H41-    N4-   H42
