cytidine_GMX.gro created by acpype (v: 2023.10.27) on Mon Feb  9 17:39:33 2026
 30
    1   C1  O4*    1  -0.137  -0.054   0.102
    1   C1  O2*    2  -0.123   0.236  -0.109
    1   C1  O3*    3  -0.340   0.157   0.036
    1   C1  O5*    4  -0.234  -0.306   0.028
    1   C1   O2    5   0.158   0.230   0.070
    1   C1   N1    6   0.071   0.020   0.026
    1   C1   N3    7   0.308   0.069   0.015
    1   C1   N4    8   0.461  -0.097  -0.041
    1   C1  C2*    9  -0.136   0.098  -0.080
    1   C1  C3*   10  -0.280   0.059  -0.049
    1   C1  C1*   11  -0.065   0.059   0.049
    1   C1  C4*   12  -0.262  -0.069   0.031
    1   C1  C5*   13  -0.252  -0.193  -0.056
    1   C1   C6   14   0.099  -0.111  -0.010
    1   C1   C2   15   0.178   0.113   0.039
    1   C1   C5   16   0.222  -0.155  -0.033
    1   C1   C4   17   0.332  -0.055  -0.018
    1   C1  H2*   18  -0.100   0.041  -0.166
    1   C1  H3*   19  -0.342   0.049  -0.138
    1   C1  H1*   20  -0.068   0.140   0.123
    1   C1  H4*   21  -0.340  -0.082   0.106
    1   C1 H5*1   22  -0.169  -0.189  -0.127
    1   C1 H5*2   23  -0.344  -0.207  -0.113
    1   C1   H7   24  -0.028   0.255  -0.119
    1   C1   H8   25  -0.292   0.159   0.120
    1   C1   H6   26   0.017  -0.180  -0.019
    1   C1  H5*   27  -0.229  -0.384  -0.030
    1   C1   H5   28   0.244  -0.257  -0.060
    1   C1  H41   29   0.483  -0.193  -0.067
    1   C1  H42   30   0.539  -0.033  -0.032
   17.65600    12.77800     5.76600
