; cytidine_GMX_OPLS.itp created by acpype (v: 2023.10.27) on Mon Feb  9 17:39:33 2026

; For OPLS atomtypes manual fine tuning
; AC_at:OPLS_at:OPLScode: Possible_Alternatives (see ffoplsaa.atp and ffoplsaanb.itp)
; os:x:opls_x: []
; oh:OH:opls_154: ['167']
; o:O:opls_236: ['272']
; n:N:opls_237: ['238', '239']
; nc:NB:opls_511: []
; nv:x:opls_x: []
; c5:x:opls_x: []
; c3:CT:opls_135: ['136', '137', '149', '157', '158', '206', '209', '210', '223B', '224B', '245', '246', '274', '283', '284', '285', '292', '292B', '293B', '296', '307', '308', '505']
; cc:C*:opls_500: ['506', '507', '508', '514']
; c:C:opls_235: ['271']
; cd:C*:opls_500: ['506', '507', '508', '514']
; h1:HC:opls_140: []
; h2:x:opls_x: []
; ho:HO:opls_155: ['168']
; h4:HA:opls_146: []
; ha:HA:opls_146: []
; hn:H:opls_240: ['241', '290', '301', '304', '310', '504', '513']

[ moleculetype ]
;name            nrexcl
 cytidine         3

[ atoms ]
;   nr  type  resi  res  atom  cgnr     charge      mass       ; qtot   bond_type
     1 opls_x     1    C1   O4*    1    -0.394600      0.00000 ; qtot -0.395  x   
     2 opls_154     1    C1   O2*    2    -0.597800     15.99940 ; qtot -0.992  OH  
     3 opls_154     1    C1   O3*    3    -0.575800     15.99940 ; qtot -1.568  OH  
     4 opls_154     1    C1   O5*    4    -0.592800     15.99940 ; qtot -2.161  OH  
     5 opls_236     1    C1    O2    5    -0.659500     15.99940 ; qtot -2.820  O   
     6 opls_237     1    C1    N1    6    -0.405000     14.00670 ; qtot -3.225  N   
     7 opls_511     1    C1    N3    7    -0.726100     14.00670 ; qtot -3.952  NB  
     8 opls_x     1    C1    N4    8    -0.916800      0.00000 ; qtot -4.868  x   
     9 opls_x     1    C1   C2*    9     0.093100      0.00000 ; qtot -4.775  x   
    10 opls_x     1    C1   C3*   10     0.128100      0.00000 ; qtot -4.647  x   
    11 opls_x     1    C1   C1*   11     0.257500      0.00000 ; qtot -4.390  x   
    12 opls_x     1    C1   C4*   12     0.092100      0.00000 ; qtot -4.298  x   
    13 opls_135     1    C1   C5*   13     0.106400     12.01100 ; qtot -4.191  CT  
    14 opls_500     1    C1    C6   14     0.076600     12.01100 ; qtot -4.115  C*  
    15 opls_235     1    C1    C2   15     0.840900     12.01100 ; qtot -3.274  C   
    16 opls_500     1    C1    C5   16    -0.440600     12.01100 ; qtot -3.714  C*  
    17 opls_500     1    C1    C4   17     0.758500     12.01100 ; qtot -2.956  C*  
    18 opls_140     1    C1   H2*   18     0.077700      1.00800 ; qtot -2.878  HC  
    19 opls_140     1    C1   H3*   19     0.088700      1.00800 ; qtot -2.789  HC  
    20 opls_x     1    C1   H1*   20     0.106700      0.00000 ; qtot -2.683  x   
    21 opls_140     1    C1   H4*   21     0.106700      1.00800 ; qtot -2.576  HC  
    22 opls_140     1    C1  H5*1   22     0.034700      1.00800 ; qtot -2.541  HC  
    23 opls_140     1    C1  H5*2   23     0.034700      1.00800 ; qtot -2.507  HC  
    24 opls_155     1    C1    H7   24     0.449000      1.00800 ; qtot -2.058  HO  
    25 opls_155     1    C1    H8   25     0.427000      1.00800 ; qtot -1.631  HO  
    26 opls_146     1    C1    H6   26     0.195000      1.00800 ; qtot -1.436  HA  
    27 opls_155     1    C1   H5*   27     0.404000      1.00800 ; qtot -1.032  HO  
    28 opls_146     1    C1    H5   28     0.155000      1.00800 ; qtot -0.877  HA  
    29 opls_240     1    C1   H41   29     0.438300      1.00800 ; qtot -0.438  H   
    30 opls_240     1    C1   H42   30     0.438300      1.00800 ; qtot  0.000  H   

[ bonds ]
;   ai     aj funct   r             k
     1     11   1 ;    1.4346e-01    2.3063e+05 ;    O4* - C1*         x - x     
     1     12   1 ;    1.4346e-01    2.3063e+05 ;    O4* - C4*         x - x     
     2      9   1 ;    1.4194e-01    2.4241e+05 ;    O2* - C2*        OH - x     
     2     24   1 ;    9.7250e-02    4.4811e+05 ;    O2* - H7         OH - HO    
     3     10   1 ;    1.4194e-01    2.4241e+05 ;    O3* - C3*        OH - x     
     3     25   1 ;    9.7250e-02    4.4811e+05 ;    O3* - H8         OH - HO    
     4     13   1 ;    1.4242e-01    2.3861e+05 ;    O5* - C5*        OH - CT    
     4     27   1 ;    9.7250e-02    4.4811e+05 ;    O5* - H5*        OH - HO    
     5     15   1 ;    1.2190e-01    4.9421e+05 ;     O2 - C2          O - C     
     6     11   1 ;    1.4685e-01    2.1010e+05 ;     N1 - C1*         N - x     
     6     14   1 ;    1.3837e-01    2.7753e+05 ;     N1 - C6          N - C*    
     6     15   1 ;    1.3967e-01    2.6565e+05 ;     N1 - C2          N - C     
     7     15   1 ;    1.3744e-01    2.8644e+05 ;     N3 - C2         NB - C     
     7     17   1 ;    1.3171e-01    3.4961e+05 ;     N3 - C4         NB - C*    
     8     17   1 ;    1.3704e-01    2.9037e+05 ;     N4 - C4          x - C*    
     8     29   1 ;    1.0114e-01    3.9961e+05 ;     N4 - H41         x - H     
     8     30   1 ;    1.0114e-01    3.9961e+05 ;     N4 - H42         x - H     
     9     10   1 ;    1.5483e-01    1.8418e+05 ;    C2* - C3*         x - x     
     9     11   1 ;    1.5483e-01    1.8418e+05 ;    C2* - C1*         x - x     
     9     18   1 ;    1.0972e-01    2.8768e+05 ;    C2* - H2*         x - HC    
    10     12   1 ;    1.5483e-01    1.8418e+05 ;    C3* - C4*         x - x     
    10     19   1 ;    1.0972e-01    2.8768e+05 ;    C3* - H3*         x - HC    
    11     20   1 ;    1.0955e-01    2.8977e+05 ;    C1* - H1*         x - x     
    12     13   1 ;    1.5372e-01    1.9049e+05 ;    C4* - C5*         x - CT    
    12     21   1 ;    1.0972e-01    2.8768e+05 ;    C4* - H4*         x - HC    
    13     22   1 ;    1.0969e-01    2.8804e+05 ;    C5* - H5*1       CT - HC    
    13     23   1 ;    1.0969e-01    2.8804e+05 ;    C5* - H5*2       CT - HC    
    14     16   1 ;    1.3730e-01    3.2321e+05 ;     C6 - C5         C* - C*    
    14     26   1 ;    1.0809e-01    3.0854e+05 ;     C6 - H6         C* - HA    
    16     17   1 ;    1.4279e-01    2.6902e+05 ;     C5 - C4         C* - C*    
    16     28   1 ;    1.0835e-01    3.0510e+05 ;     C5 - H5         C* - HA    

[ pairs ]
;   ai     aj    funct
     1      2      1 ;    O4* - O2*   
     1      3      1 ;    O4* - O3*   
     1      4      1 ;    O4* - O5*   
     1     14      1 ;    O4* - C6    
     1     15      1 ;    O4* - C2    
     1     18      1 ;    O4* - H2*   
     1     19      1 ;    O4* - H3*   
     1     22      1 ;    O4* - H5*1  
     1     23      1 ;    O4* - H5*2  
     2      3      1 ;    O2* - O3*   
     2      6      1 ;    O2* - N1    
     2     12      1 ;    O2* - C4*   
     2     19      1 ;    O2* - H3*   
     2     20      1 ;    O2* - H1*   
     3     11      1 ;    O3* - C1*   
     3     13      1 ;    O3* - C5*   
     3     18      1 ;    O3* - H2*   
     3     21      1 ;    O3* - H4*   
     4     10      1 ;    O5* - C3*   
     4     21      1 ;    O5* - H4*   
     5     11      1 ;     O2 - C1*   
     5     14      1 ;     O2 - C6    
     5     17      1 ;     O2 - C4    
     6     10      1 ;     N1 - C3*   
     6     17      1 ;     N1 - C4    
     6     18      1 ;     N1 - H2*   
     6     28      1 ;     N1 - H5    
     7     11      1 ;     N3 - C1*   
     7     14      1 ;     N3 - C6    
     7     28      1 ;     N3 - H5    
     7     29      1 ;     N3 - H41   
     7     30      1 ;     N3 - H42   
     8     14      1 ;     N4 - C6    
     8     15      1 ;     N4 - C2    
     8     28      1 ;     N4 - H5    
     9     13      1 ;    C2* - C5*   
     9     14      1 ;    C2* - C6    
     9     15      1 ;    C2* - C2    
     9     21      1 ;    C2* - H4*   
     9     25      1 ;    C2* - H8    
    10     20      1 ;    C3* - H1*   
    10     22      1 ;    C3* - H5*1  
    10     23      1 ;    C3* - H5*2  
    10     24      1 ;    C3* - H7    
    11     13      1 ;    C1* - C5*   
    11     16      1 ;    C1* - C5    
    11     19      1 ;    C1* - H3*   
    11     21      1 ;    C1* - H4*   
    11     24      1 ;    C1* - H7    
    11     26      1 ;    C1* - H6    
    12      6      1 ;    C4* - N1    
    12     18      1 ;    C4* - H2*   
    12     20      1 ;    C4* - H1*   
    12     25      1 ;    C4* - H8    
    12     27      1 ;    C4* - H5*   
    13     19      1 ;    C5* - H3*   
    14     20      1 ;     C6 - H1*   
    15     16      1 ;     C2 - C5    
    15     20      1 ;     C2 - H1*   
    15     26      1 ;     C2 - H6    
    16     29      1 ;     C5 - H41   
    16     30      1 ;     C5 - H42   
    17     26      1 ;     C4 - H6    
    18     19      1 ;    H2* - H3*   
    18     20      1 ;    H2* - H1*   
    18     24      1 ;    H2* - H7    
    19     21      1 ;    H3* - H4*   
    19     25      1 ;    H3* - H8    
    21     22      1 ;    H4* - H5*1  
    21     23      1 ;    H4* - H5*2  
    22     27      1 ;   H5*1 - H5*   
    23     27      1 ;   H5*2 - H5*   
    26     28      1 ;     H6 - H5    

[ angles ]
;   ai     aj     ak    funct   theta         cth
     1     11      6      1 ;    1.0919e+02    6.9864e+02 ;    O4* - C1*  - N1        x -    x - N   
     1     11      9      1 ;    1.0614e+02    6.4793e+02 ;    O4* - C1*  - C2*       x -    x - x   
     1     11     20      1 ;    1.0947e+02    4.7028e+02 ;    O4* - C1*  - H1*       x -    x - x   
     1     12     10      1 ;    1.0614e+02    6.4793e+02 ;    O4* - C4*  - C3*       x -    x - x   
     1     12     13      1 ;    1.0897e+02    6.4224e+02 ;    O4* - C4*  - C5*       x -    x - CT  
     1     12     21      1 ;    1.0846e+02    4.7229e+02 ;    O4* - C4*  - H4*       x -    x - HC  
     2      9     10      1 ;    1.1162e+02    6.3455e+02 ;    O2* - C2*  - C3*      OH -    x - x   
     2      9     11      1 ;    1.1162e+02    6.3455e+02 ;    O2* - C2*  - C1*      OH -    x - x   
     2      9     18      1 ;    1.1027e+02    4.7254e+02 ;    O2* - C2*  - H2*      OH -    x - HC  
     3     10      9      1 ;    1.1162e+02    6.3455e+02 ;    O3* - C3*  - C2*      OH -    x - x   
     3     10     12      1 ;    1.1162e+02    6.3455e+02 ;    O3* - C3*  - C4*      OH -    x - x   
     3     10     19      1 ;    1.1027e+02    4.7254e+02 ;    O3* - C3*  - H3*      OH -    x - HC  
     4     13     12      1 ;    1.0985e+02    6.4157e+02 ;    O5* - C5*  - C4*      OH -   CT - x   
     4     13     22      1 ;    1.1038e+02    4.7103e+02 ;    O5* - C5*  - H5*1     OH -   CT - HC  
     4     13     23      1 ;    1.1038e+02    4.7103e+02 ;    O5* - C5*  - H5*2     OH -   CT - HC  
     5     15      6      1 ;    1.2257e+02    7.2534e+02 ;     O2 - C2   - N1        O -    C - N   
     5     15      7      1 ;    1.2401e+02    7.2877e+02 ;     O2 - C2   - N3        O -    C - NB  
     6     11      9      1 ;    1.0366e+02    5.6350e+02 ;     N1 - C1*  - C2*       N -    x - x   
     6     11     20      1 ;    1.0590e+02    4.0685e+02 ;     N1 - C1*  - H1*       N -    x - x   
     6     14     16      1 ;    1.2220e+02    5.6877e+02 ;     N1 - C6   - C5        N -   C* - C*  
     6     14     26      1 ;    1.1502e+02    4.1112e+02 ;     N1 - C6   - H6        N -   C* - HA  
     6     15      7      1 ;    1.1725e+02    6.1312e+02 ;     N1 - C2   - N3        N -    C - NB  
     7     17      8      1 ;    1.1987e+02    6.2484e+02 ;     N3 - C4   - N4       NB -   C* - x   
     7     17     16      1 ;    1.2070e+02    5.7287e+02 ;     N3 - C4   - C5       NB -   C* - C*  
     8     17     16      1 ;    1.1976e+02    5.6551e+02 ;     N4 - C4   - C5        x -   C* - C*  
     9      2     24      1 ;    1.0717e+02    5.4727e+02 ;    C2* - O2*  - H7        x -   OH - HO  
     9     10     12      1 ;    1.0383e+02    5.1748e+02 ;    C2* - C3*  - C4*       x -    x - x   
     9     10     19      1 ;    1.1117e+02    3.5690e+02 ;    C2* - C3*  - H3*       x -    x - HC  
     9     11     20      1 ;    1.1053e+02    3.5798e+02 ;    C2* - C1*  - H1*       x -    x - x   
    10      3     25      1 ;    1.0717e+02    5.4727e+02 ;    C3* - O3*  - H8        x -   OH - HO  
    10      9     11      1 ;    1.0383e+02    5.1748e+02 ;    C3* - C2*  - C1*       x -    x - x   
    10      9     18      1 ;    1.1117e+02    3.5690e+02 ;    C3* - C2*  - H2*       x -    x - HC  
    10     12     13      1 ;    1.1360e+02    4.9647e+02 ;    C3* - C4*  - C5*       x -    x - CT  
    10     12     21      1 ;    1.1117e+02    3.5690e+02 ;    C3* - C4*  - H4*       x -    x - HC  
    11      1     12      1 ;    1.0926e+02    7.4986e+02 ;    C1* - O4*  - C4*       x -    x - x   
    11      6     14      1 ;    1.1989e+02    6.4501e+02 ;    C1* - N1   - C6        x -    N - C*  
    11      6     15      1 ;    1.1850e+02    6.4618e+02 ;    C1* - N1   - C2        x -    N - C   
    11      9     18      1 ;    1.1117e+02    3.5690e+02 ;    C1* - C2*  - H2*       x -    x - HC  
    12     10     19      1 ;    1.1117e+02    3.5690e+02 ;    C4* - C3*  - H3*       x -    x - HC  
    12     13     22      1 ;    1.0938e+02    3.6217e+02 ;    C4* - C5*  - H5*1      x -   CT - HC  
    12     13     23      1 ;    1.0938e+02    3.6217e+02 ;    C4* - C5*  - H5*2      x -   CT - HC  
    13      4     27      1 ;    1.0739e+02    5.4501e+02 ;    C5* - O5*  - H5*      CT -   OH - HO  
    13     12     21      1 ;    1.0924e+02    3.6242e+02 ;    C5* - C4*  - H4*      CT -    x - HC  
    14      6     15      1 ;    1.2161e+02    6.5806e+02 ;     C6 - N1   - C2       C* -    N - C   
    14     16     17      1 ;    1.1621e+02    5.4032e+02 ;     C6 - C5   - C4       C* -   C* - C*  
    14     16     28      1 ;    1.2170e+02    3.7865e+02 ;     C6 - C5   - H5       C* -   C* - HA  
    15      7     17      1 ;    1.2034e+02    6.8283e+02 ;     C2 - N3   - C4        C -   NB - C*  
    16     14     26      1 ;    1.2911e+02    3.6777e+02 ;     C5 - C6   - H6       C* -   C* - HA  
    17      8     29      1 ;    1.1672e+02    4.8417e+02 ;     C4 - N4   - H41      C* -    x - H   
    17      8     30      1 ;    1.1672e+02    4.8417e+02 ;     C4 - N4   - H42      C* -    x - H   
    17     16     28      1 ;    1.2185e+02    3.6652e+02 ;     C4 - C5   - H5       C* -   C* - HA  
    22     13     23      1 ;    1.0855e+02    2.9824e+02 ;   H5*1 - C5*  - H5*2     HC -   CT - HC  
    29      8     30      1 ;    1.1528e+02    3.8794e+02 ;    H41 - N4   - H42       H -    x - H   

[ dihedrals ] ; propers
; for gromacs 4.5 or higher, using funct 9
;    i      j      k      l   func   phase     kd      pn
     1     11      6     14      9 ;     0.00   1.79912   3 ;    O4*-   C1*-    N1-    C6
     1     11      6     14      9 ;     0.00   4.81160   2 ;    O4*-   C1*-    N1-    C6
     1     11      6     14      9 ;     0.00  10.41816   1 ;    O4*-   C1*-    N1-    C6
     1     11      6     15      9 ;     0.00   0.00000   0 ;    O4*-   C1*-    N1-    C2
     1     11      9      2      9 ;     0.00   2.46856   1 ;    O4*-   C1*-   C2*-   O2*
     1     11      9      2      9 ;     0.00   3.30536   3 ;    O4*-   C1*-   C2*-   O2*
     1     11      9      2      9 ;     0.00   5.27184   2 ;    O4*-   C1*-   C2*-   O2*
     1     11      9     10      9 ;     0.00   0.65084   3 ;    O4*-   C1*-   C2*-   C3*
     1     11      9     18      9 ;     0.00   0.00000   0 ;    O4*-   C1*-   C2*-   H2*
     1     11      9     18      9 ;     0.00   1.04600   1 ;    O4*-   C1*-   C2*-   H2*
     1     12     10      3      9 ;     0.00   2.46856   1 ;    O4*-   C4*-   C3*-   O3*
     1     12     10      3      9 ;     0.00   3.30536   3 ;    O4*-   C4*-   C3*-   O3*
     1     12     10      3      9 ;     0.00   5.27184   2 ;    O4*-   C4*-   C3*-   O3*
     1     12     10      9      9 ;     0.00   0.65084   3 ;    O4*-   C4*-   C3*-   C2*
     1     12     10     19      9 ;     0.00   0.00000   0 ;    O4*-   C4*-   C3*-   H3*
     1     12     10     19      9 ;     0.00   1.04600   1 ;    O4*-   C4*-   C3*-   H3*
     1     12     13      4      9 ;     0.00   2.46856   1 ;    O4*-   C4*-   C5*-   O5*
     1     12     13      4      9 ;     0.00   3.30536   3 ;    O4*-   C4*-   C5*-   O5*
     1     12     13      4      9 ;     0.00   5.27184   2 ;    O4*-   C4*-   C5*-   O5*
     1     12     13     22      9 ;     0.00   0.00000   0 ;    O4*-   C4*-   C5*-  H5*1
     1     12     13     22      9 ;     0.00   1.04600   1 ;    O4*-   C4*-   C5*-  H5*1
     1     12     13     23      9 ;     0.00   0.00000   0 ;    O4*-   C4*-   C5*-  H5*2
     1     12     13     23      9 ;     0.00   1.04600   1 ;    O4*-   C4*-   C5*-  H5*2
     2      9     10      3      9 ;     0.00   4.18400   1 ;    O2*-   C2*-   C3*-   O3*
     2      9     10      3      9 ;     0.00   6.02496   3 ;    O2*-   C2*-   C3*-   O3*
     2      9     10     12      9 ;     0.00   0.75312   3 ;    O2*-   C2*-   C3*-   C4*
     2      9     10     19      9 ;     0.00   0.00000   0 ;    O2*-   C2*-   C3*-   H3*
     2      9     10     19      9 ;     0.00   1.04600   1 ;    O2*-   C2*-   C3*-   H3*
     2      9     11      6      9 ;     0.00   0.42258   3 ;    O2*-   C2*-   C1*-    N1
     2      9     11     20      9 ;     0.00   0.65084   3 ;    O2*-   C2*-   C1*-   H1*
     3     10      9     11      9 ;     0.00   0.75312   3 ;    O3*-   C3*-   C2*-   C1*
     3     10      9     18      9 ;     0.00   0.00000   0 ;    O3*-   C3*-   C2*-   H2*
     3     10      9     18      9 ;     0.00   1.04600   1 ;    O3*-   C3*-   C2*-   H2*
     3     10     12     13      9 ;     0.00   0.75312   3 ;    O3*-   C3*-   C4*-   C5*
     3     10     12     21      9 ;     0.00   0.00000   0 ;    O3*-   C3*-   C4*-   H4*
     3     10     12     21      9 ;     0.00   1.04600   1 ;    O3*-   C3*-   C4*-   H4*
     4     13     12     10      9 ;     0.00   0.75312   3 ;    O5*-   C5*-   C4*-   C3*
     4     13     12     21      9 ;     0.00   0.00000   0 ;    O5*-   C5*-   C4*-   H4*
     4     13     12     21      9 ;     0.00   1.04600   1 ;    O5*-   C5*-   C4*-   H4*
     5     15      6     11      9 ;   180.00  10.46000   2 ;     O2-    C2-    N1-   C1*
     5     15      6     14      9 ;   180.00  10.46000   2 ;     O2-    C2-    N1-    C6
     5     15      7     17      9 ;   180.00  16.73600   2 ;     O2-    C2-    N3-    C4
     6     11      9     10      9 ;     0.00   0.41840   3 ;     N1-   C1*-   C2*-   C3*
     6     11      9     18      9 ;     0.00   0.65084   3 ;     N1-   C1*-   C2*-   H2*
     6     14     16     17      9 ;   180.00  16.73600   2 ;     N1-    C6-    C5-    C4
     6     14     16     28      9 ;   180.00  16.73600   2 ;     N1-    C6-    C5-    H5
     6     15      7     17      9 ;   180.00  16.73600   2 ;     N1-    C2-    N3-    C4
     7     15      6     11      9 ;   180.00  10.46000   2 ;     N3-    C2-    N1-   C1*
     7     15      6     14      9 ;   180.00  10.46000   2 ;     N3-    C2-    N1-    C6
     7     17      8     29      9 ;   180.00   4.39320   2 ;     N3-    C4-    N4-   H41
     7     17      8     30      9 ;   180.00   4.39320   2 ;     N3-    C4-    N4-   H42
     7     17     16     14      9 ;   180.00  16.73600   2 ;     N3-    C4-    C5-    C6
     7     17     16     28      9 ;   180.00  16.73600   2 ;     N3-    C4-    C5-    H5
     8     17      7     15      9 ;   180.00  19.87400   2 ;     N4-    C4-    N3-    C2
     8     17     16     14      9 ;   180.00  16.73600   2 ;     N4-    C4-    C5-    C6
     8     17     16     28      9 ;   180.00  16.73600   2 ;     N4-    C4-    C5-    H5
     9     10      3     25      9 ;     0.00   0.25104   3 ;    C2*-   C3*-   O3*-    H8
     9     10     12     13      9 ;     0.00   2.17568   3 ;    C2*-   C3*-   C4*-   C5*
     9     10     12     21      9 ;     0.00   0.65084   3 ;    C2*-   C3*-   C4*-   H4*
     9     11      6     14      9 ;     0.00   0.00000   0 ;    C2*-   C1*-    N1-    C6
     9     11      6     15      9 ;     0.00   9.45584   1 ;    C2*-   C1*-    N1-    C2
     9     11      6     15      9 ;   180.00   0.12552   3 ;    C2*-   C1*-    N1-    C2
     9     11      6     15      9 ;   180.00   2.71960   4 ;    C2*-   C1*-    N1-    C2
    10      9      2     24      9 ;     0.00   0.25104   3 ;    C3*-   C2*-   O2*-    H7
    10      9     11     20      9 ;     0.00   0.65084   3 ;    C3*-   C2*-   C1*-   H1*
    10     12     13     22      9 ;     0.00   0.65084   3 ;    C3*-   C4*-   C5*-  H5*1
    10     12     13     23      9 ;     0.00   0.65084   3 ;    C3*-   C4*-   C5*-  H5*2
    11      1     12     10      9 ;     0.00   0.33472   2 ;    C1*-   O4*-   C4*-   C3*
    11      1     12     10      9 ;     0.00   3.13800   3 ;    C1*-   O4*-   C4*-   C3*
    11      1     12     10      9 ;   180.00   3.68192   1 ;    C1*-   O4*-   C4*-   C3*
    11      1     12     13      9 ;     0.00   0.33472   2 ;    C1*-   O4*-   C4*-   C5*
    11      1     12     13      9 ;     0.00   3.13800   3 ;    C1*-   O4*-   C4*-   C5*
    11      1     12     13      9 ;   180.00   3.68192   1 ;    C1*-   O4*-   C4*-   C5*
    11      1     12     21      9 ;     0.00   1.41001   3 ;    C1*-   O4*-   C4*-   H4*
    11      6     14     16      9 ;   180.00   6.90360   2 ;    C1*-    N1-    C6-    C5
    11      6     14     26      9 ;   180.00   6.90360   2 ;    C1*-    N1-    C6-    H6
    11      9      2     24      9 ;     0.00   0.25104   3 ;    C1*-   C2*-   O2*-    H7
    11      9     10     12      9 ;     0.00   2.17568   3 ;    C1*-   C2*-   C3*-   C4*
    11      9     10     19      9 ;     0.00   0.65084   3 ;    C1*-   C2*-   C3*-   H3*
    12      1     11      6      9 ;     0.00   1.60387   3 ;    C4*-   O4*-   C1*-    N1
    12      1     11      9      9 ;     0.00   0.33472   2 ;    C4*-   O4*-   C1*-   C2*
    12      1     11      9      9 ;     0.00   3.13800   3 ;    C4*-   O4*-   C1*-   C2*
    12      1     11      9      9 ;   180.00   3.68192   1 ;    C4*-   O4*-   C1*-   C2*
    12      1     11     20      9 ;     0.00   1.60387   3 ;    C4*-   O4*-   C1*-   H1*
    12     10      3     25      9 ;     0.00   0.25104   3 ;    C4*-   C3*-   O3*-    H8
    12     10      9     18      9 ;     0.00   0.65084   3 ;    C4*-   C3*-   C2*-   H2*
    12     13      4     27      9 ;     0.00   0.25104   3 ;    C4*-   C5*-   O5*-   H5*
    13     12     10     19      9 ;     0.00   0.65084   3 ;    C5*-   C4*-   C3*-   H3*
    14      6     11     20      9 ;     0.00   0.00000   0 ;     C6-    N1-   C1*-   H1*
    15      6     11     20      9 ;     0.00   0.00000   0 ;     C2-    N1-   C1*-   H1*
    15      6     14     16      9 ;   180.00   6.90360   2 ;     C2-    N1-    C6-    C5
    15      6     14     26      9 ;   180.00   6.90360   2 ;     C2-    N1-    C6-    H6
    15      7     17     16      9 ;   180.00  19.87400   2 ;     C2-    N3-    C4-    C5
    16     17      8     29      9 ;   180.00   4.39320   2 ;     C5-    C4-    N4-   H41
    16     17      8     30      9 ;   180.00   4.39320   2 ;     C5-    C4-    N4-   H42
    17     16     14     26      9 ;   180.00  16.73600   2 ;     C4-    C5-    C6-    H6
    18      9      2     24      9 ;     0.00   0.51463   3 ;    H2*-   C2*-   O2*-    H7
    18      9     10     19      9 ;     0.00   0.65084   3 ;    H2*-   C2*-   C3*-   H3*
    18      9     11     20      9 ;     0.00   0.65084   3 ;    H2*-   C2*-   C1*-   H1*
    19     10      3     25      9 ;     0.00   0.51463   3 ;    H3*-   C3*-   O3*-    H8
    19     10     12     21      9 ;     0.00   0.65084   3 ;    H3*-   C3*-   C4*-   H4*
    21     12     13     22      9 ;     0.00   0.65084   3 ;    H4*-   C4*-   C5*-  H5*1
    21     12     13     23      9 ;     0.00   0.65084   3 ;    H4*-   C4*-   C5*-  H5*2
    22     13      4     27      9 ;     0.00   0.51463   3 ;   H5*1-   C5*-   O5*-   H5*
    23     13      4     27      9 ;     0.00   0.51463   3 ;   H5*2-   C5*-   O5*-   H5*
    26     14     16     28      9 ;   180.00  16.73600   2 ;     H6-    C6-    C5-    H5

[ dihedrals ] ; impropers
; treated as propers in GROMACS to use correct AMBER analytical function
;    i      j      k      l   func   phase     kd      pn
     6      7     15      5      4 ;   180.00  43.93200   2 ;     N1-    N3-    C2-    O2
    14     17     16     28      4 ;   180.00   4.60240   2 ;     C6-    C4-    C5-    H5
    15     11      6     14      4 ;   180.00   4.60240   2 ;     C2-   C1*-    N1-    C6
    16      7     17      8      4 ;   180.00   4.60240   2 ;     C5-    N3-    C4-    N4
    16     26     14      6      4 ;   180.00   4.60240   2 ;     C5-    H6-    C6-    N1
    17     29      8     30      4 ;   180.00   4.60240   2 ;     C4-   H41-    N4-   H42
