6175
    30
  -1.3680000  -0.5370000   1.0210000  -1.2310000   2.3580000  -1.0900000
  -3.4010000   1.5650000   0.3590000  -2.3410000  -3.0610000   0.2770000
   1.5750000   2.2990000   0.7020000   0.7130000   0.2040000   0.2590000
   3.0760000   0.6860000   0.1550000   4.6080000  -0.9700000  -0.4070000
  -1.3630000   0.9820000  -0.7970000  -2.7950000   0.5940000  -0.4940000
  -0.6510000   0.5870000   0.4850000  -2.6150000  -0.6880000   0.3080000
  -2.5160000  -1.9330000  -0.5630000   0.9870000  -1.1070000  -0.0970000
   1.7840000   1.1260000   0.3880000   2.2220000  -1.5490000  -0.3270000
   3.3170000  -0.5540000  -0.1800000  -0.9990000   0.4080000  -1.6580000
  -3.4240000   0.4930000  -1.3820000  -0.6780000   1.3950000   1.2250000
  -3.3970000  -0.8210000   1.0640000  -1.6850000  -1.8920000  -1.2710000
  -3.4420000  -2.0710000  -1.1300000  -0.2820000   2.5460000  -1.1850000
  -2.9170000   1.5930000   1.2010000   0.1690000  -1.8040000  -0.1910000
  -2.2930000  -3.8430000  -0.2990000   2.4440000  -2.5710000  -0.6040000
   4.8270000  -1.9260000  -0.6690000   5.3860000  -0.3250000  -0.3190000
