%VERSION  VERSION_STAMP = V0001.000  DATE = 02/09/26  17:39:42                  
%FLAG TITLE                                                                     
%FORMAT(20a4)                                                                   
6175                                                                            
%FLAG POINTERS                                                                  
%FORMAT(10I8)                                                                   
      30      14      13      18      27      26      57      55       0       0
     163       1      18      26      55      21      39      33      17       0
       0       0       0       0       0       0       0       0      30       0
       0
%FLAG ATOM_NAME                                                                 
%FORMAT(20a4)                                                                   
O4* O2* O3* O5* O2  N1  N3  N4  C2* C3* C1* C4* C5* C6  C2  C5  C4  H2* H3* H1* 
H4* H5*1H5*2H7  H8  H6  H5* H5  H41 H42 
%FLAG CHARGE                                                                    
%FORMAT(5E16.8)                                                                 
 -7.19051958E+00 -1.08932909E+01 -1.04924003E+01 -1.08021794E+01 -1.20176068E+01
 -7.38003150E+00 -1.32312120E+01 -1.67244269E+01  1.69649613E+00  2.33427663E+00
  4.69224225E+00  1.67827383E+00  1.93885272E+00  1.39582818E+00  1.53231321E+01
 -8.02874538E+00  1.38216145E+01  1.41587271E+00  1.61631801E+00  1.94431941E+00
  1.94431941E+00  6.32313810E-01  6.32313810E-01  8.18181270E+00  7.78092210E+00
  3.55334850E+00  7.36180920E+00  2.82445650E+00  7.98683409E+00  7.98683409E+00
%FLAG ATOMIC_NUMBER                                                             
%FORMAT(10I8)                                                                   
       8       8       8       8       8       7       7       7       6       6
       6       6       6       6       6       6       6       1       1       1
       1       1       1       1       1       1       1       1       1       1
%FLAG MASS                                                                      
%FORMAT(5E16.8)                                                                 
  1.60000000E+01  1.60000000E+01  1.60000000E+01  1.60000000E+01  1.60000000E+01
  1.40100000E+01  1.40100000E+01  1.40100000E+01  1.20100000E+01  1.20100000E+01
  1.20100000E+01  1.20100000E+01  1.20100000E+01  1.20100000E+01  1.20100000E+01
  1.20100000E+01  1.20100000E+01  1.00800000E+00  1.00800000E+00  1.00800000E+00
  1.00800000E+00  1.00800000E+00  1.00800000E+00  1.00800000E+00  1.00800000E+00
  1.00800000E+00  1.00800000E+00  1.00800000E+00  1.00800000E+00  1.00800000E+00
%FLAG ATOM_TYPE_INDEX                                                           
%FORMAT(10I8)                                                                   
       1       2       2       2       3       4       5       6       7       7
       7       7       7       8       8       8       8       9       9      10
       9       9       9      11      11      12      11      13      14      14
%FLAG NUMBER_EXCLUDED_ATOMS                                                     
%FORMAT(10I8)                                                                   
      17      10       9       7       6      13       9       7      12      11
      11       9       5       6       4       5       4       3       2       1
       2       2       1       1       1       1       1       1       1       1
%FLAG NONBONDED_PARM_INDEX                                                      
%FORMAT(10I8)                                                                   
       1       2       4       7      11      16      22      29      37      46
      56      67      79      92       2       3       5       8      12      17
      23      30      38      47      57      68      80      93       4       5
       6       9      13      18      24      31      39      48      58      69
      81      94       7       8       9      10      14      19      25      32
      40      49      59      70      82      95      11      12      13      14
      15      20      26      33      41      50      60      71      83      96
      16      17      18      19      20      21      27      34      42      51
      61      72      84      97      22      23      24      25      26      27
      28      35      43      52      62      73      85      98      29      30
      31      32      33      34      35      36      44      53      63      74
      86      99      37      38      39      40      41      42      43      44
      45      54      64      75      87     100      46      47      48      49
      50      51      52      53      54      55      65      76      88     101
      56      57      58      59      60      61      62      63      64      65
      66      77      89     102      67      68      69      70      71      72
      73      74      75      76      77      78      90     103      79      80
      81      82      83      84      85      86      87      88      89      90
      91     104      92      93      94      95      96      97      98      99
     100     101     102     103     104     105
%FLAG RESIDUE_LABEL                                                             
%FORMAT(20a4)                                                                   
C1  
%FLAG RESIDUE_POINTER                                                           
%FORMAT(10I8)                                                                   
       1
%FLAG BOND_FORCE_CONSTANT                                                       
%FORMAT(5E16.8)                                                                 
  2.75610000E+02  2.89690000E+02  5.35510000E+02  2.85150000E+02  5.90600000E+02
  2.51070000E+02  3.31660000E+02  3.17460000E+02  3.42300000E+02  4.17790000E+02
  3.47000000E+02  4.77540000E+02  2.20100000E+02  3.43780000E+02  3.46280000E+02
  2.27640000E+02  3.44220000E+02  3.86240000E+02  3.68720000E+02  3.21490000E+02
  3.64600000E+02
%FLAG BOND_EQUIL_VALUE                                                          
%FORMAT(5E16.8)                                                                 
  1.43460000E+00  1.41940000E+00  9.72500000E-01  1.42420000E+00  1.21900000E+00
  1.46850000E+00  1.38370000E+00  1.39670000E+00  1.37440000E+00  1.31710000E+00
  1.37040000E+00  1.01140000E+00  1.54830000E+00  1.09720000E+00  1.09550000E+00
  1.53720000E+00  1.09690000E+00  1.37300000E+00  1.08090000E+00  1.42790000E+00
  1.08350000E+00
%FLAG ANGLE_FORCE_CONSTANT                                                      
%FORMAT(5E16.8)                                                                 
  8.34900000E+01  7.74300000E+01  5.62000000E+01  7.67500000E+01  5.64400000E+01
  7.58300000E+01  5.64700000E+01  7.66700000E+01  5.62900000E+01  8.66800000E+01
  8.70900000E+01  6.73400000E+01  4.86200000E+01  6.79700000E+01  4.91300000E+01
  7.32700000E+01  7.46700000E+01  6.84600000E+01  6.75800000E+01  6.54000000E+01
  6.18400000E+01  4.26500000E+01  4.27800000E+01  5.93300000E+01  8.96100000E+01
  7.70800000E+01  7.72200000E+01  4.32800000E+01  6.51300000E+01  4.33100000E+01
  7.86400000E+01  6.45700000E+01  4.52500000E+01  8.16000000E+01  4.39500000E+01
  5.78600000E+01  4.38000000E+01  3.56400000E+01  4.63600000E+01
%FLAG ANGLE_EQUIL_VALUE                                                         
%FORMAT(5E16.8)                                                                 
  1.90572583E+00  1.85249326E+00  1.91061275E+00  1.90188610E+00  1.89298492E+00
  1.94813735E+00  1.92457539E+00  1.91724501E+00  1.92649525E+00  2.13925098E+00
  2.16438373E+00  1.80920908E+00  1.84830447E+00  2.13279326E+00  2.00747857E+00
  2.04639943E+00  2.09212707E+00  2.10661331E+00  2.09020721E+00  1.87047016E+00
  1.81217614E+00  1.94028336E+00  1.92911325E+00  1.98269488E+00  1.90694756E+00
  2.09247614E+00  2.06821605E+00  1.90904195E+00  1.87430989E+00  1.90659849E+00
  2.12249581E+00  2.02824799E+00  2.12406661E+00  2.10033012E+00  2.25339556E+00
  2.03714918E+00  2.12668460E+00  1.89455572E+00  2.01201642E+00
%FLAG DIHEDRAL_FORCE_CONSTANT                                                   
%FORMAT(5E16.8)                                                                 
  2.49000000E+00  1.15000000E+00  4.30000000E-01  0.00000000E+00  5.90000000E-01
  1.26000000E+00  7.90000000E-01  1.55555556E-01  2.50000000E-01  0.00000000E+00
  1.00000000E+00  1.44000000E+00  1.80000000E-01  1.01000000E-01  2.50000000E+00
  4.00000000E+00  3.83333333E-01  1.00000000E-01  1.05000000E+00  4.75000000E+00
  6.00000000E-02  5.20000000E-01  8.80000000E-01  8.00000000E-02  7.50000000E-01
  2.26000000E+00  3.00000000E-02  6.50000000E-01  3.37000000E-01  1.65000000E+00
  1.23000000E-01  1.10000000E+00  1.05000000E+01
%FLAG DIHEDRAL_PERIODICITY                                                      
%FORMAT(5E16.8)                                                                 
  1.00000000E+00  2.00000000E+00  3.00000000E+00  2.00000000E+00  1.00000000E+00
  2.00000000E+00  3.00000000E+00  3.00000000E+00  1.00000000E+00  3.00000000E+00
  1.00000000E+00  3.00000000E+00  3.00000000E+00  3.00000000E+00  2.00000000E+00
  2.00000000E+00  3.00000000E+00  3.00000000E+00  2.00000000E+00  2.00000000E+00
  3.00000000E+00  3.00000000E+00  1.00000000E+00  2.00000000E+00  3.00000000E+00
  1.00000000E+00  3.00000000E+00  4.00000000E+00  3.00000000E+00  2.00000000E+00
  3.00000000E+00  2.00000000E+00  2.00000000E+00
%FLAG DIHEDRAL_PHASE                                                            
%FORMAT(5E16.8)                                                                 
  0.00000000E+00  0.00000000E+00  0.00000000E+00  0.00000000E+00  0.00000000E+00
  0.00000000E+00  0.00000000E+00  0.00000000E+00  0.00000000E+00  0.00000000E+00
  0.00000000E+00  0.00000000E+00  0.00000000E+00  0.00000000E+00  3.14159400E+00
  3.14159400E+00  0.00000000E+00  0.00000000E+00  3.14159400E+00  3.14159400E+00
  0.00000000E+00  0.00000000E+00  3.14159400E+00  0.00000000E+00  0.00000000E+00
  0.00000000E+00  3.14159400E+00  3.14159400E+00  0.00000000E+00  3.14159400E+00
  0.00000000E+00  3.14159400E+00  3.14159400E+00
%FLAG SCEE_SCALE_FACTOR                                                         
%FORMAT(5E16.8)                                                                 
  1.20000000E+00  1.20000000E+00  1.20000000E+00  1.20000000E+00  1.20000000E+00
  1.20000000E+00  1.20000000E+00  1.20000000E+00  1.20000000E+00  1.20000000E+00
  1.20000000E+00  1.20000000E+00  1.20000000E+00  1.20000000E+00  1.20000000E+00
  1.20000000E+00  1.20000000E+00  1.20000000E+00  1.20000000E+00  1.20000000E+00
  1.20000000E+00  1.20000000E+00  1.20000000E+00  1.20000000E+00  1.20000000E+00
  1.20000000E+00  1.20000000E+00  1.20000000E+00  1.20000000E+00  1.20000000E+00
  1.20000000E+00  0.00000000E+00  0.00000000E+00
%FLAG SCNB_SCALE_FACTOR                                                         
%FORMAT(5E16.8)                                                                 
  2.00000000E+00  2.00000000E+00  2.00000000E+00  2.00000000E+00  2.00000000E+00
  2.00000000E+00  2.00000000E+00  2.00000000E+00  2.00000000E+00  2.00000000E+00
  2.00000000E+00  2.00000000E+00  2.00000000E+00  2.00000000E+00  2.00000000E+00
  2.00000000E+00  2.00000000E+00  2.00000000E+00  2.00000000E+00  2.00000000E+00
  2.00000000E+00  2.00000000E+00  2.00000000E+00  2.00000000E+00  2.00000000E+00
  2.00000000E+00  2.00000000E+00  2.00000000E+00  2.00000000E+00  2.00000000E+00
  2.00000000E+00  0.00000000E+00  0.00000000E+00
%FLAG SOLTY                                                                     
%FORMAT(5E16.8)                                                                 
  0.00000000E+00  0.00000000E+00  0.00000000E+00  0.00000000E+00  0.00000000E+00
  0.00000000E+00  0.00000000E+00  0.00000000E+00  0.00000000E+00  0.00000000E+00
  0.00000000E+00  0.00000000E+00  0.00000000E+00  0.00000000E+00  0.00000000E+00
  0.00000000E+00  0.00000000E+00
%FLAG LENNARD_JONES_ACOEF                                                       
%FORMAT(5E16.8)                                                                 
  2.83662575E+05  3.78207390E+05  5.03152404E+05  3.27367585E+05  4.37717034E+05
  3.76435470E+05  4.46307018E+05  5.94682930E+05  5.15491878E+05  7.02078680E+05
  4.94433451E+05  6.55497149E+05  5.74782316E+05  7.76656876E+05  8.49322032E+05
  5.23754919E+05  6.94638423E+05  6.08567325E+05  8.22806637E+05  9.00584118E+05
  9.54875571E+05  5.42502534E+05  7.18991463E+05  6.30925504E+05  8.52084164E+05
  9.31115275E+05  9.87370297E+05  1.02073671E+06  4.46121722E+05  5.92438683E+05
  5.17507491E+05  7.01106848E+05  7.69642101E+05  8.15855629E+05  8.43969952E+05
  6.96551276E+05  3.44374471E+04  4.69084694E+04  3.86646725E+04  5.45183252E+04
  6.34160397E+04  6.69267216E+04  6.97998263E+04  5.63013422E+04  3.39005767E+03
  2.33261683E+04  3.19666529E+04  2.59855087E+04  3.69926172E+04  4.36276732E+04
  4.59944574E+04  4.80619274E+04  3.85565555E+04  2.16218723E+03  1.35510742E+03
  1.16469347E+02  1.74176419E+02  1.15813907E+02  1.89434762E+02  2.72118326E+02
  2.82631147E+02  3.03553352E+02  2.25372434E+02  4.36660257E+00  2.07292270E+00
  1.10360882E-05  3.86549715E+04  5.24591488E+04  4.36069364E+04  6.11299385E+04
  7.05112106E+04  7.44624759E+04  7.75673747E+04  6.27751680E+04  3.94664935E+03
  2.54392426E+03  6.05535196E+00  4.56536476E+03  4.65732396E+04  6.30298721E+04
  5.27277400E+04  7.35931098E+04  8.43518904E+04  8.91217989E+04  9.27554496E+04
  7.52549148E+04  4.88692384E+03  3.17496391E+03  8.53132435E+00  5.62610481E+03
  6.90855956E+03  9.46795083E+02  1.36475542E+03  9.87857350E+02  1.52360475E+03
  2.01475241E+03  2.10567903E+03  2.23577481E+03  1.71458823E+03  5.24570081E+01
  2.81680913E+01  2.61760843E-03  6.76796831E+01  9.04434904E+01  1.34728399E-01
%FLAG LENNARD_JONES_BCOEF                                                       
%FORMAT(5E16.8)                                                                 
  2.87011518E+02  3.52573684E+02  4.32634597E+02  3.67361018E+02  4.51916854E+02
  4.69350655E+02  4.41089616E+02  5.41675626E+02  5.64804067E+02  6.77820248E+02
  4.04310927E+02  4.95260330E+02  5.19385932E+02  6.20851625E+02  5.65406768E+02
  4.34643024E+02  5.32518426E+02  5.58212938E+02  6.67466109E+02  6.08126668E+02
  6.54052181E+02  4.38146883E+02  5.36620538E+02  5.62969425E+02  6.72777963E+02
  6.12468585E+02  6.58763033E+02  6.63431737E+02  3.88758656E+02  4.76608379E+02
  4.98871431E+02  5.97113873E+02  5.44830041E+02  5.85909304E+02  5.90251928E+02
  5.24668528E+02  7.31636661E+01  9.08431526E+01  9.23664132E+01  1.12788003E+02
  1.05935811E+02  1.13671113E+02  1.14981426E+02  1.01040256E+02  1.67944276E+01
  6.02145835E+01  7.49920368E+01  7.57220777E+01  9.29071597E+01  8.78666889E+01
  9.42330147E+01  9.54115851E+01  8.36149973E+01  1.34124560E+01  1.06181419E+01
  2.93355636E+00  3.81654050E+00  3.48534600E+00  4.58384710E+00  4.78443613E+00
  5.09294489E+00  5.22789272E+00  4.40751799E+00  4.15568027E-01  2.86326700E-01
  4.55498033E-04  7.27065100E+01  9.01089277E+01  9.20079458E+01  1.12023534E+02
  1.04776275E+02  1.12463011E+02  1.13692208E+02  1.00073628E+02  1.69967767E+01
  1.36459692E+01  4.59018960E-01  1.71467049E+01  7.98066064E+01  9.87712192E+01
  1.01173582E+02  1.22913863E+02  1.14599119E+02  1.23036209E+02  1.24325688E+02
  1.09570372E+02  1.89134207E+01  1.52447987E+01  5.44840215E-01  1.90347353E+01
  2.10929191E+01  1.01016461E+01  1.29026271E+01  1.22938581E+01  1.57004457E+01
  1.57231024E+01  1.67892226E+01  1.71355763E+01  1.46824710E+01  1.73959275E+00
  1.27474859E+00  8.47240681E-03  1.85338491E+00  2.14252117E+00  7.34107347E-02
%FLAG BONDS_INC_HYDROGEN                                                        
%FORMAT(10I8)                                                                   
       3      69       3       6      72       3       9      78       3      21
      84      12      21      87      12      24      51      14      27      54
      14      30      57      15      33      60      14      36      63      17
      36      66      17      39      75      19      45      81      21
%FLAG BONDS_WITHOUT_HYDROGEN                                                    
%FORMAT(10I8)                                                                   
       0      30       1       0      33       1       3      24       2       6
      27       2       9      36       4      12      42       5      15      30
       6      15      39       7      15      42       8      18      42       9
      18      48      10      21      48      11      24      27      13      24
      30      13      27      33      13      33      36      16      39      45
      18      45      48      20
%FLAG ANGLES_INC_HYDROGEN                                                       
%FORMAT(10I8)                                                                   
       0      30      57       3       0      33      60       5       3      24
      51       7       6      27      54       7       9      36      63       9
       9      36      66       9      15      30      57      13      15      39
      75      15      24       3      69      20      24      27      54      22
      24      30      57      23      27       6      72      20      27      24
      51      22      27      33      60      22      30      24      51      22
      33      27      54      22      33      36      63      28      33      36
      66      28      36       9      78      29      36      33      60      30
      39      45      81      33      45      39      75      35      48      21
      84      36      48      21      87      36      48      45      81      37
      63      36      66      38      84      21      87      39
%FLAG ANGLES_WITHOUT_HYDROGEN                                                   
%FORMAT(10I8)                                                                   
       0      30      15       1       0      30      24       2       0      33
      27       2       0      33      36       4       3      24      27       6
       3      24      30       6       6      27      24       6       6      27
      33       6       9      36      33       8      12      42      15      10
      12      42      18      11      15      30      24      12      15      39
      45      14      15      42      18      16      18      48      21      17
      18      48      45      18      21      48      45      19      24      27
      33      21      27      24      30      21      27      33      36      24
      30       0      33      25      30      15      39      26      30      15
      42      27      39      15      42      31      39      45      48      32
      42      18      48      34
%FLAG DIHEDRALS_INC_HYDROGEN                                                    
%FORMAT(10I8)                                                                   
       0      30      24      51       9       0      30     -24      51      10
       0      33      27      54       9       0      33     -27      54      10
       0      33      36      63       9       0      33     -36      63      10
       0      33      36      66       9       0      33     -36      66      10
       3      24      27      54       9       3      24     -27      54      10
       3      24      30      57       8       6      27      24      51       9
       6      27     -24      51      10       6      27      33      60       9
       6      27     -33      60      10       9      36      33      60       9
       9      36     -33      60      10      15      30      24      51       8
      15      39      45      81      16      18      48      21      84      19
      18      48      21      87      19      18      48      45      81      16
      21      48      45      81      16      24      27       6      72      21
      24      27      33      60       8      27      24       3      69      21
      27      24      30      57       8      27      33      36      63       8
      27      33      36      66       8      30       0      33      60      29
      30      15      39      75      30      30      24       3      69      21
      30      24      27      54       8      33       0      30      57      17
      33      27       6      72      21      33      27      24      51       8
      33      36       9      78      21      36      33      27      54       8
      39      15      30      57       4      42      15      30      57       4
      42      15      39      75      30      45      48      21      84      19
      45      48      21      87      19      48      45      39      75      16
      51      24       3      69      31      51      24      27      54       8
      51      24      30      57       8      54      27       6      72      31
      54      27      33      60       8      60      33      36      63       8
      60      33      36      66       8      63      36       9      78      31
      66      36       9      78      31      75      39      45      81      16
      48      84     -21     -87      32      45      75     -39     -15      32
      39      48     -45     -81      32
%FLAG DIHEDRALS_WITHOUT_HYDROGEN                                                
%FORMAT(10I8)                                                                   
       0      30      15      39       1       0      30     -15      39       2
       0      30     -15      39       3       0      30      15      42       4
       0      30      24       3       5       0      30     -24       3       6
       0      30     -24       3       7       0      30     -24      27       8
       0      33      27       6       5       0      33     -27       6       6
       0      33     -27       6       7       0      33     -27      24       8
       0      33      36       9       5       0      33     -36       9       6
       0      33     -36       9       7       3      24      27       6      11
       3      24     -27       6      12       3      24      27      33      13
       3      24      30      15      14       6      27      24      30      13
       6      27      33      36      13       9      36      33      27      13
      12      42      15      30      15      12      42      15      39      15
      12      42      18      48      16      33       0      30      15      17
      15      30      24      27      18      15      39      45      48      16
      15      42     -18      48      16      18      42      15      30      15
      18      42      15      39      15      18      48     -45      39      16
      21      48      18      42      20      21      48      45      39      16
      24      27      33      36      22      33       0     -30      24      23
      33       0     -30      24      24      33       0     -30      24      25
      24      30      15      39       4      24      30      15      42      26
      24      30     -15      42      27      24      30     -15      42      28
      30       0     -33      27      23      30       0     -33      27      24
      30       0     -33      27      25      30       0      33      36      23
      30       0     -33      36      24      30       0     -33      36      25
      30      15      39      45      30      30      24     -27      33      22
      42      15      39      45      30      42      18     -48      45      20
      42      30     -15     -39      32      15      18     -42     -12      33
      45      18     -48     -21      32
%FLAG EXCLUDED_ATOMS_LIST                                                       
%FORMAT(10I8)                                                                   
       2       3       4       6       9      10      11      12      13      14
      15      18      19      20      21      22      23       3       6       9
      10      11      12      18      19      20      24       9      10      11
      12      13      18      19      21      25      10      12      13      21
      22      23      27       6       7      11      14      15      17       7
       9      10      11      12      14      15      16      17      18      20
      26      28       8      11      14      15      16      17      28      29
      30      14      15      16      17      28      29      30      10      11
      12      13      14      15      18      19      20      21      24      25
      11      12      13      18      19      20      21      22      23      24
      25      12      13      14      15      16      18      19      20      21
      24      26      13      18      19      20      21      22      23      25
      27      19      21      22      23      27      15      16      17      20
      26      28      16      17      20      26      17      26      28      29
      30      26      28      29      30      19      20      24      21      25
       0      22      23      23      27      27       0       0      28       0
       0      30       0
%FLAG HBOND_ACOEF                                                               
%FORMAT(5E16.8)                                                                 

%FLAG HBOND_BCOEF                                                               
%FORMAT(5E16.8)                                                                 

%FLAG HBCUT                                                                     
%FORMAT(5E16.8)                                                                 

%FLAG AMBER_ATOM_TYPE                                                           
%FORMAT(20a4)                                                                   
os  oh  oh  oh  o   n   nc  nv  c5  c5  c5  c5  c3  cc  c   cd  cd  h1  h1  h2  
h1  h1  h1  ho  ho  h4  ho  ha  hn  hn  
%FLAG TREE_CHAIN_CLASSIFICATION                                                 
%FORMAT(20a4)                                                                   
BLA BLA BLA BLA BLA BLA BLA BLA BLA BLA BLA BLA BLA BLA BLA BLA BLA BLA BLA BLA 
BLA BLA BLA BLA BLA BLA BLA BLA BLA BLA 
%FLAG JOIN_ARRAY                                                                
%FORMAT(10I8)                                                                   
       0       0       0       0       0       0       0       0       0       0
       0       0       0       0       0       0       0       0       0       0
       0       0       0       0       0       0       0       0       0       0
%FLAG IROTAT                                                                    
%FORMAT(10I8)                                                                   
       0       0       0       0       0       0       0       0       0       0
       0       0       0       0       0       0       0       0       0       0
       0       0       0       0       0       0       0       0       0       0
%FLAG RADIUS_SET                                                                
%FORMAT(1a80)                                                                   
modified Bondi radii (mbondi)                                                   
%FLAG RADII                                                                     
%FORMAT(5E16.8)                                                                 
  1.50000000E+00  1.50000000E+00  1.50000000E+00  1.50000000E+00  1.50000000E+00
  1.55000000E+00  1.55000000E+00  1.55000000E+00  1.70000000E+00  1.70000000E+00
  1.70000000E+00  1.70000000E+00  1.70000000E+00  1.70000000E+00  1.70000000E+00
  1.70000000E+00  1.70000000E+00  1.30000000E+00  1.30000000E+00  1.30000000E+00
  1.30000000E+00  1.30000000E+00  1.30000000E+00  8.00000000E-01  8.00000000E-01
  1.30000000E+00  8.00000000E-01  1.30000000E+00  1.30000000E+00  1.30000000E+00
%FLAG SCREEN                                                                    
%FORMAT(5E16.8)                                                                 
  8.50000000E-01  8.50000000E-01  8.50000000E-01  8.50000000E-01  8.50000000E-01
  7.90000000E-01  7.90000000E-01  7.90000000E-01  7.20000000E-01  7.20000000E-01
  7.20000000E-01  7.20000000E-01  7.20000000E-01  7.20000000E-01  7.20000000E-01
  7.20000000E-01  7.20000000E-01  8.50000000E-01  8.50000000E-01  8.50000000E-01
  8.50000000E-01  8.50000000E-01  8.50000000E-01  8.50000000E-01  8.50000000E-01
  8.50000000E-01  8.50000000E-01  8.50000000E-01  8.50000000E-01  8.50000000E-01
%FLAG IPOL                                                                      
%FORMAT(1I8)                                                                    
       0
