5564
    24
  -1.9930000   2.6480000   1.0550000   4.9960000  -1.2990000   1.2090000
  -4.9750000  -1.7900000   0.3950000  -0.0040000   1.1640000  -0.6410000
   1.9870000   0.5100000  -2.4670000   1.1580000   0.5910000  -0.2220000
  -1.1830000   0.4850000  -0.3840000   2.1580000   0.2640000  -1.1380000
   1.3450000   0.3340000   1.1360000  -2.1750000   1.0680000   0.3860000
  -1.3350000  -0.7820000  -0.9200000   3.3450000  -0.3210000  -0.6960000
   2.5320000  -0.2500000   1.5780000  -3.3540000   0.3620000   0.6280000
  -2.5130000  -1.4880000  -0.6780000   3.5320000  -0.5780000   0.6620000
  -3.5220000  -0.9170000   0.0960000   0.5830000   0.5920000   1.8670000
  -0.5640000  -1.2370000  -1.5350000   4.1240000  -0.5760000  -1.4100000
   2.6650000  -0.4430000   2.6400000  -4.1420000   0.8070000   1.2320000
  -2.6310000  -2.4830000  -1.1010000   2.7800000   0.2170000  -2.9480000
