; triclosan_GMX_OPLS.top created by acpype (v: 2023.10.27) on Mon Feb  9 18:00:26 2026

; Include forcefield parameters
#include "ffoplsaa.itp"

; Include triclosan_GMX.itp topology
#include "triclosan_GMX.itp"

; Ligand position restraints
#ifdef POSRES_LIG
#include "posre_triclosan.itp"
#endif

[ system ]
 triclosan

[ molecules ]
; Compound        nmols
 triclosan        1     
