; triclosan_GMX_OPLS.itp created by acpype (v: 2023.10.27) on Mon Feb  9 18:00:26 2026

; For OPLS atomtypes manual fine tuning
; AC_at:OPLS_at:OPLScode: Possible_Alternatives (see ffoplsaa.atp and ffoplsaanb.itp)
; cl:x:opls_x: []
; os:x:opls_x: []
; oh:OH:opls_154: ['167']
; ca:CA:opls_145: ['166', '501', '502']
; ha:HA:opls_146: []
; ho:HO:opls_155: ['168']

[ moleculetype ]
;name            nrexcl
 triclosan        3

[ atoms ]
;   nr  type  resi  res  atom  cgnr     charge      mass       ; qtot   bond_type
     1 opls_x     1   UNL    CL    1    -0.069400      0.00000 ; qtot -0.069  x   
     2 opls_x     1   UNL   CL1    2    -0.082400      0.00000 ; qtot -0.152  x   
     3 opls_x     1   UNL   CL2    3    -0.083400      0.00000 ; qtot -0.235  x   
     4 opls_x     1   UNL     O    4    -0.235200      0.00000 ; qtot -0.470  x   
     5 opls_154     1   UNL    O1    5    -0.485100     15.99940 ; qtot -0.955  OH  
     6 opls_145     1   UNL     C    6     0.059100     12.01100 ; qtot -0.896  CA  
     7 opls_145     1   UNL    C1    7     0.097100     12.01100 ; qtot -0.799  CA  
     8 opls_145     1   UNL    C2    8     0.130100     12.01100 ; qtot -0.669  CA  
     9 opls_145     1   UNL    C3    9    -0.090000     12.01100 ; qtot -0.759  CA  
    10 opls_145     1   UNL    C4   10     0.016400     12.01100 ; qtot -0.743  CA  
    11 opls_145     1   UNL    C5   11    -0.121000     12.01100 ; qtot -0.864  CA  
    12 opls_145     1   UNL    C6   12    -0.206000     12.01100 ; qtot -1.070  CA  
    13 opls_145     1   UNL    C7   13    -0.150000     12.01100 ; qtot -1.220  CA  
    14 opls_145     1   UNL    C8   14    -0.117000     12.01100 ; qtot -1.337  CA  
    15 opls_145     1   UNL    C9   15    -0.116000     12.01100 ; qtot -1.453  CA  
    16 opls_145     1   UNL   C10   16     0.054400     12.01100 ; qtot -1.398  CA  
    17 opls_145     1   UNL   C11   17     0.018400     12.01100 ; qtot -1.380  CA  
    18 opls_146     1   UNL     H   18     0.161000      1.00800 ; qtot -1.219  HA  
    19 opls_146     1   UNL    H1   19     0.170000      1.00800 ; qtot -1.049  HA  
    20 opls_146     1   UNL    H2   20     0.152000      1.00800 ; qtot -0.897  HA  
    21 opls_146     1   UNL    H3   21     0.155000      1.00800 ; qtot -0.742  HA  
    22 opls_146     1   UNL    H4   22     0.163000      1.00800 ; qtot -0.579  HA  
    23 opls_146     1   UNL    H5   23     0.154000      1.00800 ; qtot -0.425  HA  
    24 opls_155     1   UNL    H6   24     0.425000      1.00800 ; qtot  0.000  HO  

[ bonds ]
;   ai     aj funct   r             k
     1     10   1 ;    1.7572e-01    1.5730e+05 ;     CL - C4          x - CA    
     2     16   1 ;    1.7572e-01    1.5730e+05 ;    CL1 - C10         x - CA    
     3     17   1 ;    1.7572e-01    1.5730e+05 ;    CL2 - C11         x - CA    
     4      6   1 ;    1.3688e-01    2.8731e+05 ;      O - C           x - CA    
     4      7   1 ;    1.3688e-01    2.8731e+05 ;      O - C1          x - CA    
     5      8   1 ;    1.3644e-01    2.9167e+05 ;     O1 - C2         OH - CA    
     5     24   1 ;    9.7250e-02    4.4811e+05 ;     O1 - H6         OH - HO    
     6      8   1 ;    1.3986e-01    2.9644e+05 ;      C - C2         CA - CA    
     6      9   1 ;    1.3986e-01    2.9644e+05 ;      C - C3         CA - CA    
     7     10   1 ;    1.3986e-01    2.9644e+05 ;     C1 - C4         CA - CA    
     7     11   1 ;    1.3986e-01    2.9644e+05 ;     C1 - C5         CA - CA    
     8     12   1 ;    1.3986e-01    2.9644e+05 ;     C2 - C6         CA - CA    
     9     13   1 ;    1.3986e-01    2.9644e+05 ;     C3 - C7         CA - CA    
     9     18   1 ;    1.0860e-01    3.0183e+05 ;     C3 - H          CA - HA    
    10     14   1 ;    1.3986e-01    2.9644e+05 ;     C4 - C8         CA - CA    
    11     15   1 ;    1.3986e-01    2.9644e+05 ;     C5 - C9         CA - CA    
    11     19   1 ;    1.0860e-01    3.0183e+05 ;     C5 - H1         CA - HA    
    12     16   1 ;    1.3986e-01    2.9644e+05 ;     C6 - C10        CA - CA    
    12     20   1 ;    1.0860e-01    3.0183e+05 ;     C6 - H2         CA - HA    
    13     16   1 ;    1.3986e-01    2.9644e+05 ;     C7 - C10        CA - CA    
    13     21   1 ;    1.0860e-01    3.0183e+05 ;     C7 - H3         CA - HA    
    14     17   1 ;    1.3986e-01    2.9644e+05 ;     C8 - C11        CA - CA    
    14     22   1 ;    1.0860e-01    3.0183e+05 ;     C8 - H4         CA - HA    
    15     17   1 ;    1.3986e-01    2.9644e+05 ;     C9 - C11        CA - CA    
    15     23   1 ;    1.0860e-01    3.0183e+05 ;     C9 - H5         CA - HA    

[ pairs ]
;   ai     aj    funct
     1      4      1 ;     CL - O     
     1     11      1 ;     CL - C5    
     1     17      1 ;     CL - C11   
     1     22      1 ;     CL - H4    
     2      8      1 ;    CL1 - C2    
     2      9      1 ;    CL1 - C3    
     2     20      1 ;    CL1 - H2    
     2     21      1 ;    CL1 - H3    
     3     10      1 ;    CL2 - C4    
     3     11      1 ;    CL2 - C5    
     3     22      1 ;    CL2 - H4    
     3     23      1 ;    CL2 - H5    
     4      5      1 ;      O - O1    
     4     12      1 ;      O - C6    
     4     13      1 ;      O - C7    
     4     14      1 ;      O - C8    
     4     15      1 ;      O - C9    
     4     18      1 ;      O - H     
     4     19      1 ;      O - H1    
     5      9      1 ;     O1 - C3    
     5     16      1 ;     O1 - C10   
     5     20      1 ;     O1 - H2    
     6     10      1 ;      C - C4    
     6     11      1 ;      C - C5    
     6     16      1 ;      C - C10   
     6     20      1 ;      C - H2    
     6     21      1 ;      C - H3    
     6     24      1 ;      C - H6    
     7      8      1 ;     C1 - C2    
     7      9      1 ;     C1 - C3    
     7     17      1 ;     C1 - C11   
     7     22      1 ;     C1 - H4    
     7     23      1 ;     C1 - H5    
     8     13      1 ;     C2 - C7    
     8     18      1 ;     C2 - H     
     9     12      1 ;     C3 - C6    
    10     15      1 ;     C4 - C9    
    10     19      1 ;     C4 - H1    
    11     14      1 ;     C5 - C8    
    12     21      1 ;     C6 - H3    
    12     24      1 ;     C6 - H6    
    13     20      1 ;     C7 - H2    
    14     23      1 ;     C8 - H5    
    15     22      1 ;     C9 - H4    
    16     18      1 ;    C10 - H     
    17     19      1 ;    C11 - H1    
    18     21      1 ;      H - H3    
    19     23      1 ;     H1 - H5    

[ angles ]
;   ai     aj     ak    funct   theta         cth
     1     10      7      1 ;    1.1938e+02    5.3605e+02 ;     CL - C4   - C1        x -   CA - CA  
     1     10     14      1 ;    1.1938e+02    5.3605e+02 ;     CL - C4   - C8        x -   CA - CA  
     2     16     12      1 ;    1.1938e+02    5.3605e+02 ;    CL1 - C10  - C6        x -   CA - CA  
     2     16     13      1 ;    1.1938e+02    5.3605e+02 ;    CL1 - C10  - C7        x -   CA - CA  
     3     17     14      1 ;    1.1938e+02    5.3605e+02 ;    CL2 - C11  - C8        x -   CA - CA  
     3     17     15      1 ;    1.1938e+02    5.3605e+02 ;    CL2 - C11  - C9        x -   CA - CA  
     4      6      8      1 ;    1.1911e+02    6.6107e+02 ;      O - C    - C2        x -   CA - CA  
     4      6      9      1 ;    1.1911e+02    6.6107e+02 ;      O - C    - C3        x -   CA - CA  
     4      7     10      1 ;    1.1911e+02    6.6107e+02 ;      O - C1   - C4        x -   CA - CA  
     4      7     11      1 ;    1.1911e+02    6.6107e+02 ;      O - C1   - C5        x -   CA - CA  
     5      8      6      1 ;    1.1990e+02    6.5990e+02 ;     O1 - C2   - C        OH -   CA - CA  
     5      8     12      1 ;    1.1990e+02    6.5990e+02 ;     O1 - C2   - C6       OH -   CA - CA  
     6      4      7      1 ;    1.1987e+02    7.5036e+02 ;      C - O    - C1       CA -    x - CA  
     6      8     12      1 ;    1.2002e+02    5.3279e+02 ;      C - C2   - C6       CA -   CA - CA  
     6      9     13      1 ;    1.2002e+02    5.3279e+02 ;      C - C3   - C7       CA -   CA - CA  
     6      9     18      1 ;    1.1988e+02    3.7572e+02 ;      C - C3   - H        CA -   CA - HA  
     7     10     14      1 ;    1.2002e+02    5.3279e+02 ;     C1 - C4   - C8       CA -   CA - CA  
     7     11     15      1 ;    1.2002e+02    5.3279e+02 ;     C1 - C5   - C9       CA -   CA - CA  
     7     11     19      1 ;    1.1988e+02    3.7572e+02 ;     C1 - C5   - H1       CA -   CA - HA  
     8      5     24      1 ;    1.0858e+02    5.6409e+02 ;     C2 - O1   - H6       CA -   OH - HO  
     8      6      9      1 ;    1.2002e+02    5.3279e+02 ;     C2 - C    - C3       CA -   CA - CA  
     8     12     16      1 ;    1.2002e+02    5.3279e+02 ;     C2 - C6   - C10      CA -   CA - CA  
     8     12     20      1 ;    1.1988e+02    3.7572e+02 ;     C2 - C6   - H2       CA -   CA - HA  
     9     13     16      1 ;    1.2002e+02    5.3279e+02 ;     C3 - C7   - C10      CA -   CA - CA  
     9     13     21      1 ;    1.1988e+02    3.7572e+02 ;     C3 - C7   - H3       CA -   CA - HA  
    10      7     11      1 ;    1.2002e+02    5.3279e+02 ;     C4 - C1   - C5       CA -   CA - CA  
    10     14     17      1 ;    1.2002e+02    5.3279e+02 ;     C4 - C8   - C11      CA -   CA - CA  
    10     14     22      1 ;    1.1988e+02    3.7572e+02 ;     C4 - C8   - H4       CA -   CA - HA  
    11     15     17      1 ;    1.2002e+02    5.3279e+02 ;     C5 - C9   - C11      CA -   CA - CA  
    11     15     23      1 ;    1.1988e+02    3.7572e+02 ;     C5 - C9   - H5       CA -   CA - HA  
    12     16     13      1 ;    1.2002e+02    5.3279e+02 ;     C6 - C10  - C7       CA -   CA - CA  
    13      9     18      1 ;    1.1988e+02    3.7572e+02 ;     C7 - C3   - H        CA -   CA - HA  
    14     17     15      1 ;    1.2002e+02    5.3279e+02 ;     C8 - C11  - C9       CA -   CA - CA  
    15     11     19      1 ;    1.1988e+02    3.7572e+02 ;     C9 - C5   - H1       CA -   CA - HA  
    16     12     20      1 ;    1.1988e+02    3.7572e+02 ;    C10 - C6   - H2       CA -   CA - HA  
    16     13     21      1 ;    1.1988e+02    3.7572e+02 ;    C10 - C7   - H3       CA -   CA - HA  
    17     14     22      1 ;    1.1988e+02    3.7572e+02 ;    C11 - C8   - H4       CA -   CA - HA  
    17     15     23      1 ;    1.1988e+02    3.7572e+02 ;    C11 - C9   - H5       CA -   CA - HA  

[ dihedrals ] ; propers
; for gromacs 4.5 or higher, using funct 9
;    i      j      k      l   func   phase     kd      pn
     1     10      7      4      9 ;   180.00  15.16700   2 ;     CL-    C4-    C1-     O
     1     10      7     11      9 ;   180.00  15.16700   2 ;     CL-    C4-    C1-    C5
     1     10     14     17      9 ;   180.00  15.16700   2 ;     CL-    C4-    C8-   C11
     1     10     14     22      9 ;   180.00  15.16700   2 ;     CL-    C4-    C8-    H4
     2     16     12      8      9 ;   180.00  15.16700   2 ;    CL1-   C10-    C6-    C2
     2     16     12     20      9 ;   180.00  15.16700   2 ;    CL1-   C10-    C6-    H2
     2     16     13      9      9 ;   180.00  15.16700   2 ;    CL1-   C10-    C7-    C3
     2     16     13     21      9 ;   180.00  15.16700   2 ;    CL1-   C10-    C7-    H3
     3     17     14     10      9 ;   180.00  15.16700   2 ;    CL2-   C11-    C8-    C4
     3     17     14     22      9 ;   180.00  15.16700   2 ;    CL2-   C11-    C8-    H4
     3     17     15     11      9 ;   180.00  15.16700   2 ;    CL2-   C11-    C9-    C5
     3     17     15     23      9 ;   180.00  15.16700   2 ;    CL2-   C11-    C9-    H5
     4      6      8      5      9 ;   180.00  15.16700   2 ;      O-     C-    C2-    O1
     4      6      8     12      9 ;   180.00  15.16700   2 ;      O-     C-    C2-    C6
     4      6      9     13      9 ;   180.00  15.16700   2 ;      O-     C-    C3-    C7
     4      6      9     18      9 ;   180.00  15.16700   2 ;      O-     C-    C3-     H
     4      7     10     14      9 ;   180.00  15.16700   2 ;      O-    C1-    C4-    C8
     4      7     11     15      9 ;   180.00  15.16700   2 ;      O-    C1-    C5-    C9
     4      7     11     19      9 ;   180.00  15.16700   2 ;      O-    C1-    C5-    H1
     5      8      6      9      9 ;   180.00  15.16700   2 ;     O1-    C2-     C-    C3
     5      8     12     16      9 ;   180.00  15.16700   2 ;     O1-    C2-    C6-   C10
     5      8     12     20      9 ;   180.00  15.16700   2 ;     O1-    C2-    C6-    H2
     6      4      7     10      9 ;   180.00   3.76560   2 ;      C-     O-    C1-    C4
     6      4      7     11      9 ;   180.00   3.76560   2 ;      C-     O-    C1-    C5
     6      8      5     24      9 ;   180.00   3.57732   2 ;      C-    C2-    O1-    H6
     6      8     12     16      9 ;   180.00  15.16700   2 ;      C-    C2-    C6-   C10
     6      8     12     20      9 ;   180.00  15.16700   2 ;      C-    C2-    C6-    H2
     6      9     13     16      9 ;   180.00  15.16700   2 ;      C-    C3-    C7-   C10
     6      9     13     21      9 ;   180.00  15.16700   2 ;      C-    C3-    C7-    H3
     7      4      6      8      9 ;   180.00   3.76560   2 ;     C1-     O-     C-    C2
     7      4      6      9      9 ;   180.00   3.76560   2 ;     C1-     O-     C-    C3
     7     10     14     17      9 ;   180.00  15.16700   2 ;     C1-    C4-    C8-   C11
     7     10     14     22      9 ;   180.00  15.16700   2 ;     C1-    C4-    C8-    H4
     7     11     15     17      9 ;   180.00  15.16700   2 ;     C1-    C5-    C9-   C11
     7     11     15     23      9 ;   180.00  15.16700   2 ;     C1-    C5-    C9-    H5
     8      6      9     13      9 ;   180.00  15.16700   2 ;     C2-     C-    C3-    C7
     8      6      9     18      9 ;   180.00  15.16700   2 ;     C2-     C-    C3-     H
     8     12     16     13      9 ;   180.00  15.16700   2 ;     C2-    C6-   C10-    C7
     9      6      8     12      9 ;   180.00  15.16700   2 ;     C3-     C-    C2-    C6
     9     13     16     12      9 ;   180.00  15.16700   2 ;     C3-    C7-   C10-    C6
    10      7     11     15      9 ;   180.00  15.16700   2 ;     C4-    C1-    C5-    C9
    10      7     11     19      9 ;   180.00  15.16700   2 ;     C4-    C1-    C5-    H1
    10     14     17     15      9 ;   180.00  15.16700   2 ;     C4-    C8-   C11-    C9
    11      7     10     14      9 ;   180.00  15.16700   2 ;     C5-    C1-    C4-    C8
    11     15     17     14      9 ;   180.00  15.16700   2 ;     C5-    C9-   C11-    C8
    12      8      5     24      9 ;   180.00   3.57732   2 ;     C6-    C2-    O1-    H6
    12     16     13     21      9 ;   180.00  15.16700   2 ;     C6-   C10-    C7-    H3
    13     16     12     20      9 ;   180.00  15.16700   2 ;     C7-   C10-    C6-    H2
    14     17     15     23      9 ;   180.00  15.16700   2 ;     C8-   C11-    C9-    H5
    15     17     14     22      9 ;   180.00  15.16700   2 ;     C9-   C11-    C8-    H4
    16     13      9     18      9 ;   180.00  15.16700   2 ;    C10-    C7-    C3-     H
    17     15     11     19      9 ;   180.00  15.16700   2 ;    C11-    C9-    C5-    H1
    18      9     13     21      9 ;   180.00  15.16700   2 ;      H-    C3-    C7-    H3
    19     11     15     23      9 ;   180.00  15.16700   2 ;     H1-    C5-    C9-    H5

[ dihedrals ] ; impropers
; treated as propers in GROMACS to use correct AMBER analytical function
;    i      j      k      l   func   phase     kd      pn
     1     10     14      7      4 ;   180.00   4.60240   2 ;     CL-    C4-    C8-    C1
     6     12      8      5      4 ;   180.00   4.60240   2 ;      C-    C6-    C2-    O1
     6     13      9     18      4 ;   180.00   4.60240   2 ;      C-    C7-    C3-     H
     7     15     11     19      4 ;   180.00   4.60240   2 ;     C1-    C9-    C5-    H1
     8      9      6      4      4 ;   180.00   4.60240   2 ;     C2-    C3-     C-     O
     8     16     12     20      4 ;   180.00   4.60240   2 ;     C2-   C10-    C6-    H2
     9     16     13     21      4 ;   180.00   4.60240   2 ;     C3-   C10-    C7-    H3
    10     11      7      4      4 ;   180.00   4.60240   2 ;     C4-    C5-    C1-     O
    10     17     14     22      4 ;   180.00   4.60240   2 ;     C4-   C11-    C8-    H4
    11     17     15     23      4 ;   180.00   4.60240   2 ;     C5-   C11-    C9-    H5
    12     13     16      2      4 ;   180.00   4.60240   2 ;     C6-    C7-   C10-   CL1
    14     15     17      3      4 ;   180.00   4.60240   2 ;     C8-    C9-   C11-   CL2
