triclosan_GMX.gro created by acpype (v: 2023.10.27) on Mon Feb  9 18:00:26 2026
 24
    1  UNL   CL    1  -0.199   0.265   0.105
    1  UNL  CL1    2   0.500  -0.130   0.121
    1  UNL  CL2    3  -0.497  -0.179   0.040
    1  UNL    O    4  -0.000   0.116  -0.064
    1  UNL   O1    5   0.199   0.051  -0.247
    1  UNL    C    6   0.116   0.059  -0.022
    1  UNL   C1    7  -0.118   0.049  -0.038
    1  UNL   C2    8   0.216   0.026  -0.114
    1  UNL   C3    9   0.135   0.033   0.114
    1  UNL   C4   10  -0.217   0.107   0.039
    1  UNL   C5   11  -0.134  -0.078  -0.092
    1  UNL   C6   12   0.335  -0.032  -0.070
    1  UNL   C7   13   0.253  -0.025   0.158
    1  UNL   C8   14  -0.335   0.036   0.063
    1  UNL   C9   15  -0.251  -0.149  -0.068
    1  UNL  C10   16   0.353  -0.058   0.066
    1  UNL  C11   17  -0.352  -0.092   0.010
    1  UNL    H   18   0.058   0.059   0.187
    1  UNL   H1   19  -0.056  -0.124  -0.153
    1  UNL   H2   20   0.412  -0.058  -0.141
    1  UNL   H3   21   0.267  -0.044   0.264
    1  UNL   H4   22  -0.414   0.081   0.123
    1  UNL   H5   23  -0.263  -0.248  -0.110
    1  UNL   H6   24   0.278   0.022  -0.295
   19.94200    10.26200    11.17600
