%VERSION  VERSION_STAMP = V0001.000  DATE = 02/09/26  18:00:44                  
%FLAG TITLE                                                                     
%FORMAT(20a4)                                                                   
5564                                                                            
%FLAG POINTERS                                                                  
%FORMAT(10I8)                                                                   
      24       6       7      18      13      25      30      36       0       0
     116       1      18      25      36       6       7       4       6       0
       0       0       0       0       0       0       0       0      24       0
       0
%FLAG ATOM_NAME                                                                 
%FORMAT(20a4)                                                                   
Cl  Cl1 Cl2 O   O1  C   C1  C2  C3  C4  C5  C6  C7  C8  C9  C10 C11 H   H1  H2  
H3  H4  H5  H6  
%FLAG CHARGE                                                                    
%FORMAT(5E16.8)                                                                 
 -1.26462762E+00 -1.50151752E+00 -1.51973982E+00 -4.28588496E+00 -8.83963773E+00
  1.07693793E+00  1.76938533E+00  2.37072123E+00 -1.64000700E+00  2.98845720E-01
 -2.20489830E+00 -3.75379380E+00 -2.73334500E+00 -2.13200910E+00 -2.11378680E+00
  9.91293120E-01  3.35290320E-01  2.93379030E+00  3.09779100E+00  2.76978960E+00
  2.82445650E+00  2.97023490E+00  2.80623420E+00  7.74447750E+00
%FLAG ATOMIC_NUMBER                                                             
%FORMAT(10I8)                                                                   
      17      17      17       8       8       6       6       6       6       6
       6       6       6       6       6       6       6       1       1       1
       1       1       1       1
%FLAG MASS                                                                      
%FORMAT(5E16.8)                                                                 
  3.54500000E+01  3.54500000E+01  3.54500000E+01  1.60000000E+01  1.60000000E+01
  1.20100000E+01  1.20100000E+01  1.20100000E+01  1.20100000E+01  1.20100000E+01
  1.20100000E+01  1.20100000E+01  1.20100000E+01  1.20100000E+01  1.20100000E+01
  1.20100000E+01  1.20100000E+01  1.00800000E+00  1.00800000E+00  1.00800000E+00
  1.00800000E+00  1.00800000E+00  1.00800000E+00  1.00800000E+00
%FLAG ATOM_TYPE_INDEX                                                           
%FORMAT(10I8)                                                                   
       1       1       1       2       3       4       4       4       4       4
       4       4       4       4       4       4       4       5       5       5
       5       5       5       6
%FLAG NUMBER_EXCLUDED_ATOMS                                                     
%FORMAT(10I8)                                                                   
       7       7       7      13       7      12      10       7       5       6
       5       5       4       4       4       3       3       1       1       1
       1       1       1       1
%FLAG NONBONDED_PARM_INDEX                                                      
%FORMAT(10I8)                                                                   
       1       2       4       7      11      16       2       3       5       8
      12      17       4       5       6       9      13      18       7       8
       9      10      14      19      11      12      13      14      15      20
      16      17      18      19      20      21
%FLAG RESIDUE_LABEL                                                             
%FORMAT(20a4)                                                                   
UNL 
%FLAG RESIDUE_POINTER                                                           
%FORMAT(10I8)                                                                   
       1
%FLAG BOND_FORCE_CONSTANT                                                       
%FORMAT(5E16.8)                                                                 
  1.87980000E+02  3.43340000E+02  3.48550000E+02  5.35510000E+02  3.54250000E+02
  3.60690000E+02
%FLAG BOND_EQUIL_VALUE                                                          
%FORMAT(5E16.8)                                                                 
  1.75720000E+00  1.36880000E+00  1.36440000E+00  9.72500000E-01  1.39860000E+00
  1.08600000E+00
%FLAG ANGLE_FORCE_CONSTANT                                                      
%FORMAT(5E16.8)                                                                 
  6.40600000E+01  7.90000000E+01  7.88600000E+01  8.96700000E+01  6.36700000E+01
  4.49000000E+01  6.74100000E+01
%FLAG ANGLE_EQUIL_VALUE                                                         
%FORMAT(5E16.8)                                                                 
  2.08357495E+00  2.07886256E+00  2.09265067E+00  2.09212707E+00  2.09474507E+00
  2.09230160E+00  1.89507931E+00
%FLAG DIHEDRAL_FORCE_CONSTANT                                                   
%FORMAT(5E16.8)                                                                 
  3.62500000E+00  9.00000000E-01  8.55000000E-01  1.10000000E+00
%FLAG DIHEDRAL_PERIODICITY                                                      
%FORMAT(5E16.8)                                                                 
  2.00000000E+00  2.00000000E+00  2.00000000E+00  2.00000000E+00
%FLAG DIHEDRAL_PHASE                                                            
%FORMAT(5E16.8)                                                                 
  3.14159400E+00  3.14159400E+00  3.14159400E+00  3.14159400E+00
%FLAG SCEE_SCALE_FACTOR                                                         
%FORMAT(5E16.8)                                                                 
  1.20000000E+00  1.20000000E+00  1.20000000E+00  0.00000000E+00
%FLAG SCNB_SCALE_FACTOR                                                         
%FORMAT(5E16.8)                                                                 
  2.00000000E+00  2.00000000E+00  2.00000000E+00  0.00000000E+00
%FLAG SOLTY                                                                     
%FORMAT(5E16.8)                                                                 
  0.00000000E+00  0.00000000E+00  0.00000000E+00  0.00000000E+00  0.00000000E+00
  0.00000000E+00
%FLAG LENNARD_JONES_ACOEF                                                       
%FORMAT(5E16.8)                                                                 
  3.17107030E+06  9.60982218E+05  2.83662575E+05  1.27155594E+06  3.78207390E+05
  5.03152404E+05  1.49062160E+06  4.46121722E+05  5.92438683E+05  6.96551276E+05
  1.66104821E+05  4.65732396E+04  6.30298721E+04  7.52549148E+04  6.90855956E+03
  5.83653537E+02  1.16469347E+02  1.74176419E+02  2.25372434E+02  8.53132435E+00
  1.10360882E-05
%FLAG LENNARD_JONES_BCOEF                                                       
%FORMAT(5E16.8)                                                                 
  1.82923847E+03  7.29357620E+02  2.87011518E+02  8.92559477E+02  3.52573684E+02
  4.32634597E+02  9.81118883E+02  3.88758656E+02  4.76608379E+02  5.24668528E+02
  2.08087638E+02  7.98066064E+01  9.87712192E+01  1.09570372E+02  2.10929191E+01
  9.06673074E+00  2.93355636E+00  3.81654050E+00  4.40751799E+00  5.44840215E-01
  4.55498033E-04
%FLAG BONDS_INC_HYDROGEN                                                        
%FORMAT(10I8)                                                                   
      12      69       4      24      51       6      30      54       6      33
      57       6      36      60       6      39      63       6      42      66
       6
%FLAG BONDS_WITHOUT_HYDROGEN                                                    
%FORMAT(10I8)                                                                   
       0      27       1       3      45       1       6      48       1       9
      15       2       9      18       2      12      21       3      15      21
       5      15      24       5      18      27       5      18      30       5
      21      33       5      24      36       5      27      39       5      30
      42       5      33      45       5      36      45       5      39      48
       5      42      48       5
%FLAG ANGLES_INC_HYDROGEN                                                       
%FORMAT(10I8)                                                                   
      15      24      51       6      18      30      54       6      21      12
      69       7      21      33      57       6      24      36      60       6
      27      39      63       6      30      42      66       6      36      24
      51       6      42      30      54       6      45      33      57       6
      45      36      60       6      48      39      63       6      48      42
      66       6
%FLAG ANGLES_WITHOUT_HYDROGEN                                                   
%FORMAT(10I8)                                                                   
       0      27      18       1       0      27      39       1       3      45
      33       1       3      45      36       1       6      48      39       1
       6      48      42       1       9      15      21       2       9      15
      24       2       9      18      27       2       9      18      30       2
      12      21      15       3      12      21      33       3      15       9
      18       4      15      21      33       5      15      24      36       5
      18      27      39       5      18      30      42       5      21      15
      24       5      21      33      45       5      24      36      45       5
      27      18      30       5      27      39      48       5      30      42
      48       5      33      45      36       5      39      48      42       5
%FLAG DIHEDRALS_INC_HYDROGEN                                                    
%FORMAT(10I8)                                                                   
       0      27      39      63       1       3      45      33      57       1
       3      45      36      60       1       6      48      39      63       1
       6      48      42      66       1       9      15      24      51       1
       9      18      30      54       1      12      21      33      57       1
      15      21      12      69       3      15      21      33      57       1
      15      24      36      60       1      18      27      39      63       1
      18      30      42      66       1      21      15      24      51       1
      27      18      30      54       1      33      21      12      69       3
      33      45      36      60       1      36      45      33      57       1
      39      48      42      66       1      42      48      39      63       1
      45      36      24      51       1      48      42      30      54       1
      51      24      36      60       1      54      30      42      66       1
      15      36     -24     -51       4      18      42     -30     -54       4
      21      45     -33     -57       4      24      45     -36     -60       4
      27      48     -39     -63       4      30      48     -42     -66       4
%FLAG DIHEDRALS_WITHOUT_HYDROGEN                                                
%FORMAT(10I8)                                                                   
       0      27      18       9       1       0      27      18      30       1
       0      27      39      48       1       3      45      33      21       1
       3      45      36      24       1       6      48      39      27       1
       6      48      42      30       1       9      15      21      12       1
       9      15      21      33       1       9      15      24      36       1
       9      18      27      39       1       9      18      30      42       1
      12      21      15      24       1      12      21      33      45       1
      15       9      18      27       2      15       9      18      30       2
      15      21      33      45       1      15      24     -36      45       1
      18       9      15      21       2      18       9      15      24       2
      18      27      39      48       1      18      30     -42      48       1
      21      15      24      36       1      21      33     -45      36       1
      24      15      21      33       1      24      36     -45      33       1
      27      18      30      42       1      27      39     -48      42       1
      30      18      27      39       1      30      42     -48      39       1
      21      24     -15      -9       4      27      30     -18      -9       4
      15      33     -21     -12       4       0      27     -39     -18       4
      33      36     -45      -3       4      39      42     -48      -6       4
%FLAG EXCLUDED_ATOMS_LIST                                                       
%FORMAT(10I8)                                                                   
       4       7      10      11      14      17      22       8       9      12
      13      16      20      21      10      11      14      15      17      22
      23       5       6       7       8       9      10      11      12      13
      14      15      18      19       6       8       9      12      16      20
      24       7       8       9      10      11      12      13      16      18
      20      21      24       8       9      10      11      14      15      17
      19      22      23       9      12      13      16      18      20      24
      12      13      16      18      21      11      14      15      17      19
      22      14      15      17      19      23      13      16      20      21
      24      16      18      20      21      15      17      22      23      17
      19      22      23      18      20      21      19      22      23      21
      23       0       0       0       0       0
%FLAG HBOND_ACOEF                                                               
%FORMAT(5E16.8)                                                                 

%FLAG HBOND_BCOEF                                                               
%FORMAT(5E16.8)                                                                 

%FLAG HBCUT                                                                     
%FORMAT(5E16.8)                                                                 

%FLAG AMBER_ATOM_TYPE                                                           
%FORMAT(20a4)                                                                   
cl  cl  cl  os  oh  ca  ca  ca  ca  ca  ca  ca  ca  ca  ca  ca  ca  ha  ha  ha  
ha  ha  ha  ho  
%FLAG TREE_CHAIN_CLASSIFICATION                                                 
%FORMAT(20a4)                                                                   
BLA BLA BLA BLA BLA BLA BLA BLA BLA BLA BLA BLA BLA BLA BLA BLA BLA BLA BLA BLA 
BLA BLA BLA BLA 
%FLAG JOIN_ARRAY                                                                
%FORMAT(10I8)                                                                   
       0       0       0       0       0       0       0       0       0       0
       0       0       0       0       0       0       0       0       0       0
       0       0       0       0
%FLAG IROTAT                                                                    
%FORMAT(10I8)                                                                   
       0       0       0       0       0       0       0       0       0       0
       0       0       0       0       0       0       0       0       0       0
       0       0       0       0
%FLAG RADIUS_SET                                                                
%FORMAT(1a80)                                                                   
modified Bondi radii (mbondi)                                                   
%FLAG RADII                                                                     
%FORMAT(5E16.8)                                                                 
  1.70000000E+00  1.70000000E+00  1.70000000E+00  1.50000000E+00  1.50000000E+00
  1.70000000E+00  1.70000000E+00  1.70000000E+00  1.70000000E+00  1.70000000E+00
  1.70000000E+00  1.70000000E+00  1.70000000E+00  1.70000000E+00  1.70000000E+00
  1.70000000E+00  1.70000000E+00  1.30000000E+00  1.30000000E+00  1.30000000E+00
  1.30000000E+00  1.30000000E+00  1.30000000E+00  8.00000000E-01
%FLAG SCREEN                                                                    
%FORMAT(5E16.8)                                                                 
  8.00000000E-01  8.00000000E-01  8.00000000E-01  8.50000000E-01  8.50000000E-01
  7.20000000E-01  7.20000000E-01  7.20000000E-01  7.20000000E-01  7.20000000E-01
  7.20000000E-01  7.20000000E-01  7.20000000E-01  7.20000000E-01  7.20000000E-01
  7.20000000E-01  7.20000000E-01  8.50000000E-01  8.50000000E-01  8.50000000E-01
  8.50000000E-01  8.50000000E-01  8.50000000E-01  8.50000000E-01
%FLAG IPOL                                                                      
%FORMAT(1I8)                                                                    
       0
