5994
    53
   5.5190000  -0.1940000  -0.6740000  -6.0870000  -0.2510000   1.0000000
   1.4340000   0.9510000   0.3840000   2.3080000  -0.2440000  -0.0540000
   0.0470000   0.9460000  -0.2670000  -0.6910000  -0.3710000   0.1300000
  -2.1520000  -0.4560000  -0.4580000   3.6030000   0.0990000   0.7150000
   1.6070000  -1.5290000   0.4070000   0.1770000  -1.6280000  -0.1540000
   2.3480000   2.1530000   0.1720000  -0.7800000   2.1630000   0.1670000
   3.7410000   1.6280000   0.5650000  -2.9010000   0.8490000  -0.1580000
   2.5670000  -0.3070000  -1.5820000  -2.1690000   2.1360000  -0.4570000
  -2.8810000  -1.6550000   0.2150000  -2.1470000  -0.6680000  -1.9890000
   4.8190000  -0.6330000   0.2370000  -4.3900000  -1.6330000   0.0300000
  -4.1550000   0.9010000   0.3240000  -4.9590000  -0.3270000   0.5180000
   5.1420000  -1.9300000   0.9270000   1.2710000   0.8820000   1.4730000
   0.1590000   0.9950000  -1.3550000  -0.8000000  -0.3330000   1.2260000
   3.4790000  -0.1160000   1.7850000   1.5560000  -1.5600000   1.5030000
   2.1720000  -2.4140000   0.0960000   0.2300000  -1.8170000  -1.2310000
  -0.2910000  -2.5130000   0.2900000   2.0570000   3.0080000   0.7920000
   2.3420000   2.4840000  -0.8730000  -0.2780000   3.0890000  -0.1360000
  -0.8660000   2.1910000   1.2610000   4.4790000   1.9410000  -0.1800000
   4.0550000   2.0660000   1.5210000   3.1200000   0.5630000  -1.9490000
   3.1510000  -1.1980000  -1.8390000   1.6450000  -0.3620000  -2.1650000
  -2.0850000   2.2530000  -1.5440000  -2.7320000   3.0060000  -0.0970000
  -2.6720000  -1.6510000   1.2940000  -2.4990000  -2.6080000  -0.1710000
  -1.5300000   0.0710000  -2.5090000  -1.7680000  -1.6600000  -2.2580000
  -3.1570000  -0.5890000  -2.4090000  -4.8350000  -2.4460000   0.6150000
  -4.6750000  -1.7720000  -1.0170000  -4.6480000   1.8440000   0.5360000
   5.2320000  -1.7650000   2.0040000   4.3690000  -2.6710000   0.7220000
   6.0980000  -2.3110000   0.5560000
