progesterone_GMX.gro created by acpype (v: 2023.10.27) on Mon Feb  9 17:55:42 2026
 53
    1  UNL    O    1   0.552  -0.019  -0.067
    1  UNL   O1    2  -0.609  -0.025   0.100
    1  UNL    C    3   0.143   0.095   0.038
    1  UNL   C1    4   0.231  -0.024  -0.005
    1  UNL   C2    5   0.005   0.095  -0.027
    1  UNL   C3    6  -0.069  -0.037   0.013
    1  UNL   C4    7  -0.215  -0.046  -0.046
    1  UNL   C5    8   0.360   0.010   0.071
    1  UNL   C6    9   0.161  -0.153   0.041
    1  UNL   C7   10   0.018  -0.163  -0.015
    1  UNL   C8   11   0.235   0.215   0.017
    1  UNL   C9   12  -0.078   0.216   0.017
    1  UNL  C10   13   0.374   0.163   0.056
    1  UNL  C11   14  -0.290   0.085  -0.016
    1  UNL  C12   15   0.257  -0.031  -0.158
    1  UNL  C13   16  -0.217   0.214  -0.046
    1  UNL  C14   17  -0.288  -0.166   0.022
    1  UNL  C15   18  -0.215  -0.067  -0.199
    1  UNL  C16   19   0.482  -0.063   0.024
    1  UNL  C17   20  -0.439  -0.163   0.003
    1  UNL  C18   21  -0.416   0.090   0.032
    1  UNL  C19   22  -0.496  -0.033   0.052
    1  UNL  C20   23   0.514  -0.193   0.093
    1  UNL    H   24   0.127   0.088   0.147
    1  UNL   H1   25   0.016   0.100  -0.136
    1  UNL   H2   26  -0.080  -0.033   0.123
    1  UNL   H3   27   0.348  -0.012   0.178
    1  UNL   H4   28   0.156  -0.156   0.150
    1  UNL   H5   29   0.217  -0.241   0.010
    1  UNL   H6   30   0.023  -0.182  -0.123
    1  UNL   H7   31  -0.029  -0.251   0.029
    1  UNL   H8   32   0.206   0.301   0.079
    1  UNL   H9   33   0.234   0.248  -0.087
    1  UNL  H10   34  -0.028   0.309  -0.014
    1  UNL  H11   35  -0.087   0.219   0.126
    1  UNL  H12   36   0.448   0.194  -0.018
    1  UNL  H13   37   0.405   0.207   0.152
    1  UNL  H14   38   0.312   0.056  -0.195
    1  UNL  H15   39   0.315  -0.120  -0.184
    1  UNL  H16   40   0.165  -0.036  -0.217
    1  UNL  H17   41  -0.209   0.225  -0.154
    1  UNL  H18   42  -0.273   0.301  -0.010
    1  UNL  H19   43  -0.267  -0.165   0.129
    1  UNL  H20   44  -0.250  -0.261  -0.017
    1  UNL  H21   45  -0.153   0.007  -0.251
    1  UNL  H22   46  -0.177  -0.166  -0.226
    1  UNL  H23   47  -0.316  -0.059  -0.241
    1  UNL  H24   48  -0.484  -0.245   0.061
    1  UNL  H25   49  -0.468  -0.177  -0.102
    1  UNL  H26   50  -0.465   0.184   0.054
    1  UNL  H27   51   0.523  -0.176   0.200
    1  UNL  H28   52   0.437  -0.267   0.072
    1  UNL  H29   53   0.610  -0.231   0.056
   24.37000    11.52000     9.02600
