%VERSION  VERSION_STAMP = V0001.000  DATE = 02/09/26  17:56:01                  
%FLAG TITLE                                                                     
%FORMAT(20a4)                                                                   
5994                                                                            
%FLAG POINTERS                                                                  
%FORMAT(10I8)                                                                   
      53       5      30      26      72      42     136      81       0       0
     355       1      26      42      81      16      35      25       9       0
       0       0       0       0       0       0       0       0      53       0
       0
%FLAG ATOM_NAME                                                                 
%FORMAT(20a4)                                                                   
O   O1  C   C1  C2  C3  C4  C5  C6  C7  C8  C9  C10 C11 C12 C13 C14 C15 C16 C17 
C18 C19 C20 H   H1  H2  H3  H4  H5  H6  H7  H8  H9  H10 H11 H12 H13 H14 H15 H16 
H17 H18 H19 H20 H21 H22 H23 H24 H25 H26 H27 H28 H29 
%FLAG CHARGE                                                                    
%FORMAT(5E16.8)                                                                 
 -9.71430813E+00 -9.75075273E+00 -1.12431591E+00 -6.92447400E-01 -9.23870610E-01
 -8.69203710E-01 -2.87912340E-01 -3.00121281E+00 -1.22818302E+00 -1.35573912E+00
 -1.31929452E+00 -1.31929452E+00 -1.37396142E+00 -5.17513320E-01 -1.66005153E+00
 -9.87648660E-01 -1.26462762E+00 -1.56894003E+00  1.04978670E+01 -3.32374752E+00
 -4.83255396E+00  1.03739554E+01 -3.71917143E+00  8.69203710E-01  1.08787131E+00
  9.42092910E-01  1.12431591E+00  7.59869910E-01  7.59869910E-01  8.05425660E-01
  8.05425660E-01  8.41870260E-01  8.41870260E-01  8.78314860E-01  8.78314860E-01
  1.03320441E+00  1.03320441E+00  7.90246484E-01  7.90246484E-01  7.90246484E-01
  1.02409326E+00  1.02409326E+00  9.14759460E-01  9.14759460E-01  7.47715636E-01
  7.47715636E-01  7.47715636E-01  1.30653891E+00  1.30653891E+00  2.69690040E+00
  1.16076051E+00  1.16076051E+00  1.16076051E+00
%FLAG ATOMIC_NUMBER                                                             
%FORMAT(10I8)                                                                   
       8       8       6       6       6       6       6       6       6       6
       6       6       6       6       6       6       6       6       6       6
       6       6       6       1       1       1       1       1       1       1
       1       1       1       1       1       1       1       1       1       1
       1       1       1       1       1       1       1       1       1       1
       1       1       1
%FLAG MASS                                                                      
%FORMAT(5E16.8)                                                                 
  1.60000000E+01  1.60000000E+01  1.20100000E+01  1.20100000E+01  1.20100000E+01
  1.20100000E+01  1.20100000E+01  1.20100000E+01  1.20100000E+01  1.20100000E+01
  1.20100000E+01  1.20100000E+01  1.20100000E+01  1.20100000E+01  1.20100000E+01
  1.20100000E+01  1.20100000E+01  1.20100000E+01  1.20100000E+01  1.20100000E+01
  1.20100000E+01  1.20100000E+01  1.20100000E+01  1.00800000E+00  1.00800000E+00
  1.00800000E+00  1.00800000E+00  1.00800000E+00  1.00800000E+00  1.00800000E+00
  1.00800000E+00  1.00800000E+00  1.00800000E+00  1.00800000E+00  1.00800000E+00
  1.00800000E+00  1.00800000E+00  1.00800000E+00  1.00800000E+00  1.00800000E+00
  1.00800000E+00  1.00800000E+00  1.00800000E+00  1.00800000E+00  1.00800000E+00
  1.00800000E+00  1.00800000E+00  1.00800000E+00  1.00800000E+00  1.00800000E+00
  1.00800000E+00  1.00800000E+00  1.00800000E+00
%FLAG ATOM_TYPE_INDEX                                                           
%FORMAT(10I8)                                                                   
       1       1       2       2       2       2       2       2       2       2
       2       2       2       3       2       2       2       2       3       2
       3       3       2       4       4       4       4       4       4       4
       4       4       4       4       4       4       4       4       4       4
       4       4       4       4       4       4       4       4       4       5
       4       4       4
%FLAG NUMBER_EXCLUDED_ATOMS                                                     
%FORMAT(10I8)                                                                   
       9       8      28      25      24      25      24      21      15      11
      11      10       9      17       8      10      12       8       7       7
       6       5       4       3       3       2       2       3       2       1
       1       3       2       3       2       1       1       2       1       1
       1       1       3       2       2       1       1       1       1       1
       2       1       1
%FLAG NONBONDED_PARM_INDEX                                                      
%FORMAT(10I8)                                                                   
       1       2       4       7      11       2       3       5       8      12
       4       5       6       9      13       7       8       9      10      14
      11      12      13      14      15
%FLAG RESIDUE_LABEL                                                             
%FORMAT(20a4)                                                                   
UNL 
%FLAG RESIDUE_POINTER                                                           
%FORMAT(10I8)                                                                   
       1
%FLAG BOND_FORCE_CONSTANT                                                       
%FORMAT(5E16.8)                                                                 
  5.90600000E+02  2.20100000E+02  2.26470000E+02  3.46430000E+02  2.27640000E+02
  2.26810000E+02  3.42750000E+02  2.44960000E+02  2.23800000E+02  2.29450000E+02
  4.24300000E+02  3.45250000E+02  2.34850000E+02  2.33630000E+02  2.67760000E+02
  3.57590000E+02
%FLAG BOND_EQUIL_VALUE                                                          
%FORMAT(5E16.8)                                                                 
  1.21900000E+00  1.54830000E+00  1.53890000E+00  1.09540000E+00  1.53720000E+00
  1.53840000E+00  1.09790000E+00  1.51330000E+00  1.54280000E+00  1.53460000E+00
  1.34570000E+00  1.09620000E+00  1.52700000E+00  1.52870000E+00  1.48480000E+00
  1.08800000E+00
%FLAG ANGLE_FORCE_CONSTANT                                                      
%FORMAT(5E16.8)                                                                 
  7.53100000E+01  7.64500000E+01  7.65600000E+01  7.79900000E+01  6.18400000E+01
  5.92600000E+01  5.93300000E+01  6.01700000E+01  4.32400000E+01  4.26500000E+01
  6.09400000E+01  4.30600000E+01  4.38400000E+01  6.01800000E+01  4.32300000E+01
  6.05700000E+01  5.99900000E+01  5.98700000E+01  6.12000000E+01  4.28900000E+01
  5.86700000E+01  6.03300000E+01  6.09300000E+01  4.39000000E+01  6.21100000E+01
  4.62400000E+01  6.02700000E+01  4.35000000E+01  4.36300000E+01  6.00600000E+01
  4.38400000E+01  4.33100000E+01  3.59300000E+01  3.59100000E+01  3.58000000E+01
%FLAG ANGLE_EQUIL_VALUE                                                         
%FORMAT(5E16.8)                                                                 
  2.19335621E+00  2.14501057E+00  2.13523672E+00  2.15094469E+00  1.81217614E+00
  1.98531288E+00  1.98269488E+00  1.93801443E+00  1.90834382E+00  1.94028336E+00
  1.88251294E+00  1.92911325E+00  1.85738019E+00  1.93836350E+00  1.91026369E+00
  1.94447215E+00  1.94482122E+00  2.02388467E+00  2.14064725E+00  1.93085858E+00
  2.05948940E+00  1.92963685E+00  1.91584874E+00  1.90782022E+00  2.12930260E+00
  2.09439600E+00  1.94482122E+00  1.89612651E+00  1.90153704E+00  2.02720080E+00
  1.87919681E+00  2.03173865E+00  1.86087085E+00  1.87134283E+00  1.88024401E+00
%FLAG DIHEDRAL_FORCE_CONSTANT                                                   
%FORMAT(5E16.8)                                                                 
  6.80000000E-01  2.00000000E-01  4.40000000E-01  4.03000000E+00  3.66000000E+00
  1.17400000E+01  1.10000000E-01  8.00000000E-02  2.17500000E+00  5.20000000E-01
  4.60000000E-01  4.00000000E-02  0.00000000E+00  1.30000000E-01  2.62000000E-01
  1.55555556E-01  0.00000000E+00  1.50000000E-01  6.65000000E+00  0.00000000E+00
  2.90000000E+00  0.00000000E+00  1.20000000E-01  1.10000000E+00  1.05000000E+01
%FLAG DIHEDRAL_PERIODICITY                                                      
%FORMAT(5E16.8)                                                                 
  1.00000000E+00  2.00000000E+00  3.00000000E+00  1.00000000E+00  2.00000000E+00
  1.00000000E+00  2.00000000E+00  3.00000000E+00  2.00000000E+00  3.00000000E+00
  1.00000000E+00  2.00000000E+00  3.00000000E+00  3.00000000E+00  2.00000000E+00
  3.00000000E+00  2.00000000E+00  3.00000000E+00  2.00000000E+00  3.00000000E+00
  2.00000000E+00  2.00000000E+00  3.00000000E+00  2.00000000E+00  2.00000000E+00
%FLAG DIHEDRAL_PHASE                                                            
%FORMAT(5E16.8)                                                                 
  0.00000000E+00  3.14159400E+00  3.14159400E+00  0.00000000E+00  3.14159400E+00
  0.00000000E+00  0.00000000E+00  3.14159400E+00  3.14159400E+00  0.00000000E+00
  3.14159400E+00  0.00000000E+00  0.00000000E+00  0.00000000E+00  3.14159400E+00
  0.00000000E+00  0.00000000E+00  0.00000000E+00  3.14159400E+00  3.14159400E+00
  0.00000000E+00  3.14159400E+00  0.00000000E+00  3.14159400E+00  3.14159400E+00
%FLAG SCEE_SCALE_FACTOR                                                         
%FORMAT(5E16.8)                                                                 
  1.20000000E+00  1.20000000E+00  1.20000000E+00  1.20000000E+00  1.20000000E+00
  1.20000000E+00  1.20000000E+00  1.20000000E+00  1.20000000E+00  1.20000000E+00
  1.20000000E+00  1.20000000E+00  1.20000000E+00  1.20000000E+00  1.20000000E+00
  1.20000000E+00  1.20000000E+00  1.20000000E+00  1.20000000E+00  1.20000000E+00
  1.20000000E+00  1.20000000E+00  1.20000000E+00  0.00000000E+00  0.00000000E+00
%FLAG SCNB_SCALE_FACTOR                                                         
%FORMAT(5E16.8)                                                                 
  2.00000000E+00  2.00000000E+00  2.00000000E+00  2.00000000E+00  2.00000000E+00
  2.00000000E+00  2.00000000E+00  2.00000000E+00  2.00000000E+00  2.00000000E+00
  2.00000000E+00  2.00000000E+00  2.00000000E+00  2.00000000E+00  2.00000000E+00
  2.00000000E+00  2.00000000E+00  2.00000000E+00  2.00000000E+00  2.00000000E+00
  2.00000000E+00  2.00000000E+00  2.00000000E+00  0.00000000E+00  0.00000000E+00
%FLAG SOLTY                                                                     
%FORMAT(5E16.8)                                                                 
  0.00000000E+00  0.00000000E+00  0.00000000E+00  0.00000000E+00  0.00000000E+00
  0.00000000E+00  0.00000000E+00  0.00000000E+00  0.00000000E+00
%FLAG LENNARD_JONES_ACOEF                                                       
%FORMAT(5E16.8)                                                                 
  3.76435470E+05  6.30925504E+05  1.02073671E+06  5.17507491E+05  8.43969952E+05
  6.96551276E+05  5.68021765E+04  1.00235148E+05  8.12662403E+04  7.94617769E+03
  5.27277400E+04  9.27554496E+04  7.52549148E+04  7.41026906E+03  6.90855956E+03
%FLAG LENNARD_JONES_BCOEF                                                       
%FORMAT(5E16.8)                                                                 
  4.69350655E+02  5.62969425E+02  6.63431737E+02  4.98871431E+02  5.90251928E+02
  5.24668528E+02  1.11953944E+02  1.37787728E+02  1.21392023E+02  2.57122925E+01
  1.01173582E+02  1.24325688E+02  1.09570372E+02  2.32899892E+01  2.10929191E+01
%FLAG BONDS_INC_HYDROGEN                                                        
%FORMAT(10I8)                                                                   
       6      69       4      12      72       7      15      75       7      21
      78       4      24      81       7      24      84       7      27      87
       7      27      90       7      30      93       4      30      96       4
      33      99       7      33     102       7      36     105       4      36
     108       4      42     111      12      42     114      12      42     117
      12      45     120       7      45     123       7      48     126       7
      48     129       7      51     132      12      51     135      12      51
     138      12      57     141       7      57     144       7      60     147
      16      66     150      12      66     153      12      66     156      12
%FLAG BONDS_WITHOUT_HYDROGEN                                                    
%FORMAT(10I8)                                                                   
       0      54       1       3      63       1       6       9       2       6
      12       3       6      30       2       9      21       2       9      24
       3       9      42       5      12      15       6      12      33       6
      15      18       6      15      27       6      18      39       8      18
      48       6      18      51       9      21      36       2      21      54
      10      24      27       6      30      36       2      33      45       6
      39      45       8      39      60      11      48      57       6      54
      66      13      57      63      14      60      63      15
%FLAG ANGLES_INC_HYDROGEN                                                       
%FORMAT(10I8)                                                                   
       6      12      72       9       6      30      93      10       6      30
      96      10       9       6      69      10       9      21      78      10
       9      24      81       9       9      24      84       9       9      42
     111      12       9      42     114      12       9      42     117      12
      12       6      69      13      12      15      75      15      12      33
      99      15      12      33     102      15      15      12      72      15
      15      27      87      15      15      27      90      15      18      15
      75      15      18      48     126      15      18      48     129      15
      18      51     132      20      18      51     135      20      18      51
     138      20      21      36     105      10      21      36     108      10
      24      27      87      15      24      27      90      15      27      15
      75      15      27      24      81      15      27      24      84      15
      30       6      69      10      30      36     105      10      30      36
     108      10      33      12      72      15      33      45     120      15
      33      45     123      15      36      21      78      10      36      30
      93      10      36      30      96      10      39      45     120      24
      39      45     123      24      39      60     147      26      45      33
      99      15      45      33     102      15      48      57     141      15
      48      57     144      15      54      21      78      28      54      66
     150      29      54      66     153      29      54      66     156      29
      57      48     126      15      57      48     129      15      63      57
     141      31      63      57     144      31      63      60     147      32
      81      24      84      33      87      27      90      33      93      30
      96      34      99      33     102      33     105      36     108      34
     111      42     114      35     111      42     117      35     114      42
     117      35     120      45     123      33     126      48     129      33
     132      51     135      35     132      51     138      35     135      51
     138      35     141      57     144      33     150      66     153      35
     150      66     156      35     153      66     156      35
%FLAG ANGLES_WITHOUT_HYDROGEN                                                   
%FORMAT(10I8)                                                                   
       0      54      21       1       0      54      66       2       3      63
      57       3       3      63      60       4       6       9      21       5
       6       9      24       6       6       9      42       7       6      12
      15       8       6      12      33       8       6      30      36       5
       9       6      12       6       9       6      30       5       9      21
      36       5       9      21      54      11       9      24      27       8
      12       6      30       6      12      15      18      14      12      15
      27      14      12      33      45      14      15      12      33      14
      15      18      39      16      15      18      48      14      15      18
      51      17      15      27      24      14      18      15      27      14
      18      39      45      18      18      39      60      19      18      48
      57      14      21       9      24       6      21       9      42       7
      21      36      30       5      21      54      66      21      24       9
      42      22      33      45      39      16      36      21      54      11
      39      18      48      16      39      18      51      23      39      60
      63      25      45      39      60      19      48      18      51      17
      48      57      63      27      57      63      60      30
%FLAG DIHEDRALS_INC_HYDROGEN                                                    
%FORMAT(10I8)                                                                   
       0      54      21      78       4       0      54     -21      78       5
       0      54      66     150       4       0      54     -66     150       5
       0      54      66     153       4       0      54     -66     153       5
       0      54      66     156       4       0      54     -66     156       5
       3      63      57     141       4       3      63     -57     141       5
       3      63      57     144       4       3      63     -57     144       5
       3      63      60     147       9       6       9      21      78      14
       6       9      24      81      14       6       9      24      84      14
       6       9      42     111      14       6       9      42     114      14
       6       9      42     117      14       6      12      15      75      14
       6      12      33      99      14       6      12      33     102      14
       6      30      36     105      14       6      30      36     108      14
       9       6      12      72      14       9       6      30      93      14
       9       6      30      96      14       9      21      36     105      14
       9      21      36     108      14       9      24      27      87      14
       9      24      27      90      14      12       6      30      93      14
      12       6      30      96      14      12      15      27      87      14
      12      15      27      90      14      12      33      45     120      14
      12      33      45     123      14      15      12       6      69      14
      15      12      33      99      14      15      12      33     102      14
      15      18      48     126      14      15      18      48     129      14
      15      18      51     132      14      15      18      51     135      14
      15      18      51     138      14      15      27      24      81      14
      15      27      24      84      14      18      15      12      72      14
      18      15      27      87      14      18      15      27      90      14
      18      39      45     120      18      18      39      45     123      18
      18      39      60     147      19      18      48      57     141      14
      18      48      57     144      14      21       9       6      69      14
      21       9      24      81      14      21       9      24      84      14
      21       9      42     111      14      21       9      42     114      14
      21       9      42     117      14      21      36      30      93      14
      21      36      30      96      14      21      54      66     150      20
      21      54      66     153      20      21      54      66     156      20
      24       9       6      69      14      24       9      21      78      14
      24       9      42     111      14      24       9      42     114      14
      24       9      42     117      14      24      27      15      75      14
      27      15      12      72      14      30       6      12      72      14
      30      36      21      78      14      33      12       6      69      14
      33      12      15      75      14      36      30       6      69      14
      39      18      15      75      16      39      18      48     126      16
      39      18      48     129      16      39      18      51     132      16
      39      18      51     135      16      39      18      51     138      16
      39      45      33      99      16      39      45      33     102      16
      42       9       6      69      14      42       9      21      78      14
      42       9      24      81      14      42       9      24      84      14
      45      33      12      72      14      45      39      60     147      19
      48      18      15      75      14      48      18      51     132      14
      48      18      51     135      14      48      18      51     138      14
      51      18      15      75      14      51      18      48     126      14
      51      18      48     129      14      54      21      36     105      16
      54      21      36     108      16      57      63      60     147       9
      60      39      45     120      17      60      39      45     123      17
      60      63      57     141      22      60      63      57     144      22
      63      57      48     126      16      63      57      48     129      16
      66      54      21      78      20      69       6      12      72      23
      69       6      30      93      23      69       6      30      96      23
      72      12      15      75      23      72      12      33      99      23
      72      12      33     102      23      75      15      27      87      23
      75      15      27      90      23      78      21      36     105      23
      78      21      36     108      23      81      24      27      87      23
      81      24      27      90      23      84      24      27      87      23
      84      24      27      90      23      93      30      36     105      23
      93      30      36     108      23      96      30      36     105      23
      96      30      36     108      23      99      33      45     120      23
      99      33      45     123      23     102      33      45     120      23
     102      33      45     123      23     126      48      57     141      23
     126      48      57     144      23     129      48      57     141      23
     129      48      57     144      23      63      39     -60    -147      24
%FLAG DIHEDRALS_WITHOUT_HYDROGEN                                                
%FORMAT(10I8)                                                                   
       0      54      21       9       1       0      54     -21       9       2
       0      54     -21       9       3       0      54      21      36       1
       0      54     -21      36       2       0      54     -21      36       3
       3      63      57      48       6       3      63     -57      48       7
       3      63     -57      48       8       3      63      60      39       9
       6       9     -21      36      10       6       9      21      54      11
       6       9     -21      54      12       6       9     -21      54      13
       6       9      24      27      10       6      12      15      18      10
       6      12     -15      27      10       6      12      33      45      10
       6      30     -36      21      10       9       6      12      15      10
       9       6      12      33      10       9       6     -30      36      10
       9      21     -36      30      10       9      21      54      66      15
       9      24     -27      15      10      12       6       9      21      10
      12       6       9      24      10      12       6       9      42      10
      12       6      30      36      10      12      15      18      39      16
      12      15      18      48      10      12      15      18      51      10
      12      15     -27      24      10      12      33     -45      39      16
      15      12       6      30      10      15      12      33      45      10
      15      18     -39      45      17      15      18      39      60      17
      15      18      48      57      10      18      15      12      33      10
      18      15      27      24      10      18      39     -45      33      17
      18      39      60      63      19      18      48     -57      63      11
      18      48     -57      63      12      18      48     -57      63      13
      21       9      -6      30      10      21       9      24      27      10
      24       9       6      30      10      24       9      21      36      10
      24       9      21      54      11      24       9     -21      54      12
      24       9     -21      54      13      27      15      12      33      10
      27      15      18      39      16      27      15      18      48      10
      27      15      18      51      10      27      24       9      42      10
      30       6       9      42      10      30       6      12      33      10
      30      36      21      54      11      30      36     -21      54      12
      30      36     -21      54      13      33      45      39      60      17
      36      21       9      42      10      36      21      54      66      15
      39      18      48      57      16      39      60     -63      57      21
      42       9      21      54      11      42       9     -21      54      12
      42       9     -21      54      13      45      39      18      48      17
      45      39      18      51      17      45      39      60      63      19
      48      18      39      60      17      48      57     -63      60      22
      51      18      39      60      17      51      18      48      57      10
      18      45     -39     -60      24       0      54     -21     -66      25
      57      60     -63      -3      25
%FLAG EXCLUDED_ATOMS_LIST                                                       
%FORMAT(10I8)                                                                   
       4       8      13      19      23      27      51      52      53      14
      17      20      21      22      48      49      50       4       5       6
       7       8       9      10      11      12      13      15      16      19
      24      25      26      27      28      29      32      33      34      35
      36      37      38      39      40       5       6       8       9      10
      11      12      13      15      19      23      24      25      27      28
      29      30      31      32      33      36      37      38      39      40
       6       7       8       9      10      11      12      13      14      15
      16      17      18      24      25      26      30      31      32      33
      34      35      41      42       7       9      10      11      12      14
      16      17      18      20      21      24      25      26      28      29
      30      31      34      35      43      44      45      46      47       9
      10      12      14      16      17      18      20      21      22      25
      26      30      31      41      42      43      44      45      46      47
      48      49      50       9      10      11      13      15      19      23
      24      27      28      29      32      33      36      37      38      39
      40      51      52      53      10      11      13      15      19      24
      26      27      28      29      30      31      38      39      40      12
      14      15      17      18      25      26      28      29      30      31
      12      13      15      19      24      25      27      32      33      36
      37      14      16      21      24      25      26      34      35      41
      42      15      19      23      24      27      32      33      36      37
      16      17      18      20      21      22      26      34      35      41
      42      43      44      45      46      47      50      19      24      27
      28      29      38      39      40      17      18      21      22      25
      34      35      41      42      50      18      20      21      22      26
      43      44      45      46      47      48      49      20      21      26
      43      44      45      46      47      23      27      36      37      51
      52      53      21      22      43      44      48      49      50      22
      41      42      48      49      50      43      44      48      49      50
      27      51      52      53      25      32      33      26      34      35
      30      31      36      37      29      30      31      30      31      31
       0      33      36      37      36      37      35      41      42      41
      42      37       0      39      40      40       0      42       0      44
      48      49      48      49      46      47      47       0      49       0
       0      52      53      53       0
%FLAG HBOND_ACOEF                                                               
%FORMAT(5E16.8)                                                                 

%FLAG HBOND_BCOEF                                                               
%FORMAT(5E16.8)                                                                 

%FLAG HBCUT                                                                     
%FORMAT(5E16.8)                                                                 

%FLAG AMBER_ATOM_TYPE                                                           
%FORMAT(20a4)                                                                   
o   o   c5  c5  c6  c6  c6  c5  c6  c6  c5  c6  c5  c2  c3  c6  c6  c3  c   c6  
ce  c   c3  hc  hc  hc  hc  hc  hc  hc  hc  hc  hc  hc  hc  hc  hc  hc  hc  hc  
hc  hc  hc  hc  hc  hc  hc  hc  hc  ha  hc  hc  hc  
%FLAG TREE_CHAIN_CLASSIFICATION                                                 
%FORMAT(20a4)                                                                   
BLA BLA BLA BLA BLA BLA BLA BLA BLA BLA BLA BLA BLA BLA BLA BLA BLA BLA BLA BLA 
BLA BLA BLA BLA BLA BLA BLA BLA BLA BLA BLA BLA BLA BLA BLA BLA BLA BLA BLA BLA 
BLA BLA BLA BLA BLA BLA BLA BLA BLA BLA BLA BLA BLA 
%FLAG JOIN_ARRAY                                                                
%FORMAT(10I8)                                                                   
       0       0       0       0       0       0       0       0       0       0
       0       0       0       0       0       0       0       0       0       0
       0       0       0       0       0       0       0       0       0       0
       0       0       0       0       0       0       0       0       0       0
       0       0       0       0       0       0       0       0       0       0
       0       0       0
%FLAG IROTAT                                                                    
%FORMAT(10I8)                                                                   
       0       0       0       0       0       0       0       0       0       0
       0       0       0       0       0       0       0       0       0       0
       0       0       0       0       0       0       0       0       0       0
       0       0       0       0       0       0       0       0       0       0
       0       0       0       0       0       0       0       0       0       0
       0       0       0
%FLAG RADIUS_SET                                                                
%FORMAT(1a80)                                                                   
modified Bondi radii (mbondi)                                                   
%FLAG RADII                                                                     
%FORMAT(5E16.8)                                                                 
  1.50000000E+00  1.50000000E+00  1.70000000E+00  1.70000000E+00  1.50000000E+00
  1.50000000E+00  1.50000000E+00  1.70000000E+00  1.50000000E+00  1.50000000E+00
  1.70000000E+00  1.50000000E+00  1.70000000E+00  1.70000000E+00  1.70000000E+00
  1.50000000E+00  1.50000000E+00  1.70000000E+00  1.70000000E+00  1.50000000E+00
  1.70000000E+00  1.70000000E+00  1.70000000E+00  1.30000000E+00  1.30000000E+00
  1.30000000E+00  1.30000000E+00  1.30000000E+00  1.30000000E+00  1.30000000E+00
  1.30000000E+00  1.30000000E+00  1.30000000E+00  1.30000000E+00  1.30000000E+00
  1.30000000E+00  1.30000000E+00  1.30000000E+00  1.30000000E+00  1.30000000E+00
  1.30000000E+00  1.30000000E+00  1.30000000E+00  1.30000000E+00  1.30000000E+00
  1.30000000E+00  1.30000000E+00  1.30000000E+00  1.30000000E+00  1.30000000E+00
  1.30000000E+00  1.30000000E+00  1.30000000E+00
%FLAG SCREEN                                                                    
%FORMAT(5E16.8)                                                                 
  8.50000000E-01  8.50000000E-01  7.20000000E-01  7.20000000E-01  8.00000000E-01
  8.00000000E-01  8.00000000E-01  7.20000000E-01  8.00000000E-01  8.00000000E-01
  7.20000000E-01  8.00000000E-01  7.20000000E-01  7.20000000E-01  7.20000000E-01
  8.00000000E-01  8.00000000E-01  7.20000000E-01  7.20000000E-01  8.00000000E-01
  7.20000000E-01  7.20000000E-01  7.20000000E-01  8.50000000E-01  8.50000000E-01
  8.50000000E-01  8.50000000E-01  8.50000000E-01  8.50000000E-01  8.50000000E-01
  8.50000000E-01  8.50000000E-01  8.50000000E-01  8.50000000E-01  8.50000000E-01
  8.50000000E-01  8.50000000E-01  8.50000000E-01  8.50000000E-01  8.50000000E-01
  8.50000000E-01  8.50000000E-01  8.50000000E-01  8.50000000E-01  8.50000000E-01
  8.50000000E-01  8.50000000E-01  8.50000000E-01  8.50000000E-01  8.50000000E-01
  8.50000000E-01  8.50000000E-01  8.50000000E-01
%FLAG IPOL                                                                      
%FORMAT(1I8)                                                                    
       0
