; progesterone_GMX.itp created by acpype (v: 2023.10.27) on Mon Feb  9 17:55:42 2026

[ atomtypes ]
;name   bond_type     mass     charge   ptype   sigma         epsilon       Amb
 o        o           0.00000  0.00000   A     3.04812e-01   6.12119e-01 ; 1.71  0.1463
 c5       c5          0.00000  0.00000   A     3.39771e-01   4.51035e-01 ; 1.91  0.1078
 c6       c6          0.00000  0.00000   A     3.39771e-01   4.51035e-01 ; 1.91  0.1078
 c2       c2          0.00000  0.00000   A     3.31521e-01   4.13379e-01 ; 1.86  0.0988
 c3       c3          0.00000  0.00000   A     3.39771e-01   4.51035e-01 ; 1.91  0.1078
 c        c           0.00000  0.00000   A     3.31521e-01   4.13379e-01 ; 1.86  0.0988
 ce       ce          0.00000  0.00000   A     3.31521e-01   4.13379e-01 ; 1.86  0.0988
 hc       hc          0.00000  0.00000   A     2.60018e-01   8.70272e-02 ; 1.46  0.0208
 ha       ha          0.00000  0.00000   A     2.62548e-01   6.73624e-02 ; 1.47  0.0161

[ moleculetype ]
;name            nrexcl
 progesterone     3

[ atoms ]
;   nr  type  resi  res  atom  cgnr     charge      mass       ; qtot   bond_type
     1    o     1   UNL     O    1    -0.533100     16.00000 ; qtot -0.533
     2    o     1   UNL    O1    2    -0.535100     16.00000 ; qtot -1.068
     3   c5     1   UNL     C    3    -0.061700     12.01000 ; qtot -1.130
     4   c5     1   UNL    C1    4    -0.038000     12.01000 ; qtot -1.168
     5   c6     1   UNL    C2    5    -0.050700     12.01000 ; qtot -1.219
     6   c6     1   UNL    C3    6    -0.047700     12.01000 ; qtot -1.266
     7   c6     1   UNL    C4    7    -0.015800     12.01000 ; qtot -1.282
     8   c5     1   UNL    C5    8    -0.164700     12.01000 ; qtot -1.447
     9   c6     1   UNL    C6    9    -0.067400     12.01000 ; qtot -1.514
    10   c6     1   UNL    C7   10    -0.074400     12.01000 ; qtot -1.589
    11   c5     1   UNL    C8   11    -0.072400     12.01000 ; qtot -1.661
    12   c6     1   UNL    C9   12    -0.072400     12.01000 ; qtot -1.733
    13   c5     1   UNL   C10   13    -0.075400     12.01000 ; qtot -1.809
    14   c2     1   UNL   C11   14    -0.028400     12.01000 ; qtot -1.837
    15   c3     1   UNL   C12   15    -0.091100     12.01000 ; qtot -1.928
    16   c6     1   UNL   C13   16    -0.054200     12.01000 ; qtot -1.983
    17   c6     1   UNL   C14   17    -0.069400     12.01000 ; qtot -2.052
    18   c3     1   UNL   C15   18    -0.086100     12.01000 ; qtot -2.138
    19    c     1   UNL   C16   19     0.577100     12.01000 ; qtot -1.561
    20   c6     1   UNL   C17   20    -0.182400     12.01000 ; qtot -1.743
    21   ce     1   UNL   C18   21    -0.265200     12.01000 ; qtot -2.009
    22    c     1   UNL   C19   22     0.569300     12.01000 ; qtot -1.439
    23   c3     1   UNL   C20   23    -0.204100     12.01000 ; qtot -1.643
    24   hc     1   UNL     H   24     0.047700      1.00800 ; qtot -1.596
    25   hc     1   UNL    H1   25     0.059700      1.00800 ; qtot -1.536
    26   hc     1   UNL    H2   26     0.051700      1.00800 ; qtot -1.484
    27   hc     1   UNL    H3   27     0.061700      1.00800 ; qtot -1.423
    28   hc     1   UNL    H4   28     0.041700      1.00800 ; qtot -1.381
    29   hc     1   UNL    H5   29     0.041700      1.00800 ; qtot -1.339
    30   hc     1   UNL    H6   30     0.044200      1.00800 ; qtot -1.295
    31   hc     1   UNL    H7   31     0.044200      1.00800 ; qtot -1.251
    32   hc     1   UNL    H8   32     0.046200      1.00800 ; qtot -1.205
    33   hc     1   UNL    H9   33     0.046200      1.00800 ; qtot -1.158
    34   hc     1   UNL   H10   34     0.048200      1.00800 ; qtot -1.110
    35   hc     1   UNL   H11   35     0.048200      1.00800 ; qtot -1.062
    36   hc     1   UNL   H12   36     0.056700      1.00800 ; qtot -1.005
    37   hc     1   UNL   H13   37     0.056700      1.00800 ; qtot -0.949
    38   hc     1   UNL   H14   38     0.043367      1.00800 ; qtot -0.905
    39   hc     1   UNL   H15   39     0.043367      1.00800 ; qtot -0.862
    40   hc     1   UNL   H16   40     0.043367      1.00800 ; qtot -0.818
    41   hc     1   UNL   H17   41     0.056200      1.00800 ; qtot -0.762
    42   hc     1   UNL   H18   42     0.056200      1.00800 ; qtot -0.706
    43   hc     1   UNL   H19   43     0.050200      1.00800 ; qtot -0.656
    44   hc     1   UNL   H20   44     0.050200      1.00800 ; qtot -0.606
    45   hc     1   UNL   H21   45     0.041033      1.00800 ; qtot -0.565
    46   hc     1   UNL   H22   46     0.041033      1.00800 ; qtot -0.524
    47   hc     1   UNL   H23   47     0.041033      1.00800 ; qtot -0.483
    48   hc     1   UNL   H24   48     0.071700      1.00800 ; qtot -0.411
    49   hc     1   UNL   H25   49     0.071700      1.00800 ; qtot -0.339
    50   ha     1   UNL   H26   50     0.148000      1.00800 ; qtot -0.191
    51   hc     1   UNL   H27   51     0.063700      1.00800 ; qtot -0.127
    52   hc     1   UNL   H28   52     0.063700      1.00800 ; qtot -0.064
    53   hc     1   UNL   H29   53     0.063700      1.00800 ; qtot -0.000

[ bonds ]
;   ai     aj funct   r             k
     1     19   1    1.2190e-01    4.9421e+05 ;      O - C16   
     2     22   1    1.2190e-01    4.9421e+05 ;     O1 - C19   
     3      4   1    1.5483e-01    1.8418e+05 ;      C - C1    
     3      5   1    1.5389e-01    1.8951e+05 ;      C - C2    
     3     11   1    1.5483e-01    1.8418e+05 ;      C - C8    
     3     24   1    1.0954e-01    2.8989e+05 ;      C - H     
     4      8   1    1.5483e-01    1.8418e+05 ;     C1 - C5    
     4      9   1    1.5389e-01    1.8951e+05 ;     C1 - C6    
     4     15   1    1.5372e-01    1.9049e+05 ;     C1 - C12   
     5      6   1    1.5384e-01    1.8979e+05 ;     C2 - C3    
     5     12   1    1.5384e-01    1.8979e+05 ;     C2 - C9    
     5     25   1    1.0979e-01    2.8681e+05 ;     C2 - H1    
     6      7   1    1.5384e-01    1.8979e+05 ;     C3 - C4    
     6     10   1    1.5384e-01    1.8979e+05 ;     C3 - C7    
     6     26   1    1.0979e-01    2.8681e+05 ;     C3 - H2    
     7     14   1    1.5133e-01    2.0498e+05 ;     C4 - C11   
     7     17   1    1.5384e-01    1.8979e+05 ;     C4 - C14   
     7     18   1    1.5428e-01    1.8728e+05 ;     C4 - C15   
     8     13   1    1.5483e-01    1.8418e+05 ;     C5 - C10   
     8     19   1    1.5346e-01    1.9200e+05 ;     C5 - C16   
     8     27   1    1.0954e-01    2.8989e+05 ;     C5 - H3    
     9     10   1    1.5384e-01    1.8979e+05 ;     C6 - C7    
     9     28   1    1.0979e-01    2.8681e+05 ;     C6 - H4    
     9     29   1    1.0979e-01    2.8681e+05 ;     C6 - H5    
    10     30   1    1.0979e-01    2.8681e+05 ;     C7 - H6    
    10     31   1    1.0979e-01    2.8681e+05 ;     C7 - H7    
    11     13   1    1.5483e-01    1.8418e+05 ;     C8 - C10   
    11     32   1    1.0954e-01    2.8989e+05 ;     C8 - H8    
    11     33   1    1.0954e-01    2.8989e+05 ;     C8 - H9    
    12     16   1    1.5384e-01    1.8979e+05 ;     C9 - C13   
    12     34   1    1.0979e-01    2.8681e+05 ;     C9 - H10   
    12     35   1    1.0979e-01    2.8681e+05 ;     C9 - H11   
    13     36   1    1.0954e-01    2.8989e+05 ;    C10 - H12   
    13     37   1    1.0954e-01    2.8989e+05 ;    C10 - H13   
    14     16   1    1.5133e-01    2.0498e+05 ;    C11 - C13   
    14     21   1    1.3457e-01    3.5505e+05 ;    C11 - C18   
    15     38   1    1.0962e-01    2.8891e+05 ;    C12 - H14   
    15     39   1    1.0962e-01    2.8891e+05 ;    C12 - H15   
    15     40   1    1.0962e-01    2.8891e+05 ;    C12 - H16   
    16     41   1    1.0979e-01    2.8681e+05 ;    C13 - H17   
    16     42   1    1.0979e-01    2.8681e+05 ;    C13 - H18   
    17     20   1    1.5384e-01    1.8979e+05 ;    C14 - C17   
    17     43   1    1.0979e-01    2.8681e+05 ;    C14 - H19   
    17     44   1    1.0979e-01    2.8681e+05 ;    C14 - H20   
    18     45   1    1.0962e-01    2.8891e+05 ;    C15 - H21   
    18     46   1    1.0962e-01    2.8891e+05 ;    C15 - H22   
    18     47   1    1.0962e-01    2.8891e+05 ;    C15 - H23   
    19     23   1    1.5270e-01    1.9652e+05 ;    C16 - C20   
    20     22   1    1.5287e-01    1.9550e+05 ;    C17 - C19   
    20     48   1    1.0979e-01    2.8681e+05 ;    C17 - H24   
    20     49   1    1.0979e-01    2.8681e+05 ;    C17 - H25   
    21     22   1    1.4848e-01    2.2406e+05 ;    C18 - C19   
    21     50   1    1.0880e-01    2.9923e+05 ;    C18 - H26   
    23     51   1    1.0962e-01    2.8891e+05 ;    C20 - H27   
    23     52   1    1.0962e-01    2.8891e+05 ;    C20 - H28   
    23     53   1    1.0962e-01    2.8891e+05 ;    C20 - H29   

[ pairs ]
;   ai     aj    funct
     1      4      1 ;      O - C1    
     1     13      1 ;      O - C10   
     1     27      1 ;      O - H3    
     1     51      1 ;      O - H27   
     1     52      1 ;      O - H28   
     1     53      1 ;      O - H29   
     2     14      1 ;     O1 - C11   
     2     17      1 ;     O1 - C14   
     2     48      1 ;     O1 - H24   
     2     49      1 ;     O1 - H25   
     2     50      1 ;     O1 - H26   
     3      7      1 ;      C - C4    
     3     10      1 ;      C - C7    
     3     16      1 ;      C - C13   
     3     19      1 ;      C - C16   
     3     26      1 ;      C - H2    
     3     27      1 ;      C - H3    
     3     28      1 ;      C - H4    
     3     29      1 ;      C - H5    
     3     34      1 ;      C - H10   
     3     35      1 ;      C - H11   
     3     36      1 ;      C - H12   
     3     37      1 ;      C - H13   
     3     38      1 ;      C - H14   
     3     39      1 ;      C - H15   
     3     40      1 ;      C - H16   
     4      6      1 ;     C1 - C3    
     4     12      1 ;     C1 - C9    
     4     23      1 ;     C1 - C20   
     4     25      1 ;     C1 - H1    
     4     30      1 ;     C1 - H6    
     4     31      1 ;     C1 - H7    
     4     32      1 ;     C1 - H8    
     4     33      1 ;     C1 - H9    
     4     36      1 ;     C1 - H12   
     4     37      1 ;     C1 - H13   
     5      8      1 ;     C2 - C5    
     5      9      1 ;     C2 - C6    
     5     13      1 ;     C2 - C10   
     5     14      1 ;     C2 - C11   
     5     15      1 ;     C2 - C12   
     5     17      1 ;     C2 - C14   
     5     18      1 ;     C2 - C15   
     5     30      1 ;     C2 - H6    
     5     31      1 ;     C2 - H7    
     5     32      1 ;     C2 - H8    
     5     33      1 ;     C2 - H9    
     5     41      1 ;     C2 - H17   
     5     42      1 ;     C2 - H18   
     6     11      1 ;     C3 - C8    
     6     16      1 ;     C3 - C13   
     6     20      1 ;     C3 - C17   
     6     21      1 ;     C3 - C18   
     6     24      1 ;     C3 - H     
     6     28      1 ;     C3 - H4    
     6     29      1 ;     C3 - H5    
     6     34      1 ;     C3 - H10   
     6     35      1 ;     C3 - H11   
     6     43      1 ;     C3 - H19   
     6     44      1 ;     C3 - H20   
     6     45      1 ;     C3 - H21   
     6     46      1 ;     C3 - H22   
     6     47      1 ;     C3 - H23   
     7      9      1 ;     C4 - C6    
     7     12      1 ;     C4 - C9    
     7     22      1 ;     C4 - C19   
     7     25      1 ;     C4 - H1    
     7     30      1 ;     C4 - H6    
     7     31      1 ;     C4 - H7    
     7     41      1 ;     C4 - H17   
     7     42      1 ;     C4 - H18   
     7     48      1 ;     C4 - H24   
     7     49      1 ;     C4 - H25   
     7     50      1 ;     C4 - H26   
     8     10      1 ;     C5 - C7    
     8     24      1 ;     C5 - H     
     8     28      1 ;     C5 - H4    
     8     29      1 ;     C5 - H5    
     8     32      1 ;     C5 - H8    
     8     33      1 ;     C5 - H9    
     8     38      1 ;     C5 - H14   
     8     39      1 ;     C5 - H15   
     8     40      1 ;     C5 - H16   
     8     51      1 ;     C5 - H27   
     8     52      1 ;     C5 - H28   
     8     53      1 ;     C5 - H29   
     9     11      1 ;     C6 - C8    
     9     13      1 ;     C6 - C10   
     9     19      1 ;     C6 - C16   
     9     24      1 ;     C6 - H     
     9     26      1 ;     C6 - H2    
     9     27      1 ;     C6 - H3    
     9     38      1 ;     C6 - H14   
     9     39      1 ;     C6 - H15   
     9     40      1 ;     C6 - H16   
    10     12      1 ;     C7 - C9    
    10     14      1 ;     C7 - C11   
    10     15      1 ;     C7 - C12   
    10     17      1 ;     C7 - C14   
    10     18      1 ;     C7 - C15   
    10     25      1 ;     C7 - H1    
    11     12      1 ;     C8 - C9    
    11     15      1 ;     C8 - C12   
    11     19      1 ;     C8 - C16   
    11     25      1 ;     C8 - H1    
    11     27      1 ;     C8 - H3    
    12     21      1 ;     C9 - C18   
    12     24      1 ;     C9 - H     
    12     26      1 ;     C9 - H2    
    13     15      1 ;    C10 - C12   
    13     23      1 ;    C10 - C20   
    13     24      1 ;    C10 - H     
    14     20      1 ;    C11 - C17   
    14     26      1 ;    C11 - H2    
    14     34      1 ;    C11 - H10   
    14     35      1 ;    C11 - H11   
    14     43      1 ;    C11 - H19   
    14     44      1 ;    C11 - H20   
    14     45      1 ;    C11 - H21   
    14     46      1 ;    C11 - H22   
    14     47      1 ;    C11 - H23   
    15     19      1 ;    C12 - C16   
    15     24      1 ;    C12 - H     
    15     27      1 ;    C12 - H3    
    15     28      1 ;    C12 - H4    
    15     29      1 ;    C12 - H5    
    16     17      1 ;    C13 - C14   
    16     18      1 ;    C13 - C15   
    16     22      1 ;    C13 - C19   
    16     25      1 ;    C13 - H1    
    16     50      1 ;    C13 - H26   
    17     21      1 ;    C14 - C18   
    17     26      1 ;    C14 - H2    
    17     45      1 ;    C14 - H21   
    17     46      1 ;    C14 - H22   
    17     47      1 ;    C14 - H23   
    18     20      1 ;    C15 - C17   
    18     21      1 ;    C15 - C18   
    18     26      1 ;    C15 - H2    
    18     43      1 ;    C15 - H19   
    18     44      1 ;    C15 - H20   
    19     36      1 ;    C16 - H12   
    19     37      1 ;    C16 - H13   
    20     50      1 ;    C17 - H26   
    21     41      1 ;    C18 - H17   
    21     42      1 ;    C18 - H18   
    21     48      1 ;    C18 - H24   
    21     49      1 ;    C18 - H25   
    22     43      1 ;    C19 - H19   
    22     44      1 ;    C19 - H20   
    23     27      1 ;    C20 - H3    
    24     25      1 ;      H - H1    
    24     32      1 ;      H - H8    
    24     33      1 ;      H - H9    
    25     26      1 ;     H1 - H2    
    25     34      1 ;     H1 - H10   
    25     35      1 ;     H1 - H11   
    26     30      1 ;     H2 - H6    
    26     31      1 ;     H2 - H7    
    27     36      1 ;     H3 - H12   
    27     37      1 ;     H3 - H13   
    28     30      1 ;     H4 - H6    
    28     31      1 ;     H4 - H7    
    29     30      1 ;     H5 - H6    
    29     31      1 ;     H5 - H7    
    32     36      1 ;     H8 - H12   
    32     37      1 ;     H8 - H13   
    33     36      1 ;     H9 - H12   
    33     37      1 ;     H9 - H13   
    34     41      1 ;    H10 - H17   
    34     42      1 ;    H10 - H18   
    35     41      1 ;    H11 - H17   
    35     42      1 ;    H11 - H18   
    43     48      1 ;    H19 - H24   
    43     49      1 ;    H19 - H25   
    44     48      1 ;    H20 - H24   
    44     49      1 ;    H20 - H25   

[ angles ]
;   ai     aj     ak    funct   theta         cth
     1     19      8      1    1.2567e+02    6.3019e+02 ;      O - C16    - C5    
     1     19     23      1    1.2290e+02    6.3973e+02 ;      O - C16    - C20   
     2     22     20      1    1.2234e+02    6.4065e+02 ;     O1 - C19    - C17   
     2     22     21      1    1.2324e+02    6.5262e+02 ;     O1 - C19    - C18   
     3      4      8      1    1.0383e+02    5.1748e+02 ;      C - C1     - C5    
     3      4      9      1    1.1375e+02    4.9589e+02 ;      C - C1     - C6    
     3      4     15      1    1.1360e+02    4.9647e+02 ;      C - C1     - C12   
     3      5      6      1    1.1104e+02    5.0350e+02 ;      C - C2     - C3    
     3      5     12      1    1.1104e+02    5.0350e+02 ;      C - C2     - C9    
     3      5     25      1    1.0934e+02    3.6183e+02 ;      C - C2     - H1    
     3     11     13      1    1.0383e+02    5.1748e+02 ;      C - C8     - C10   
     3     11     32      1    1.1117e+02    3.5690e+02 ;      C - C8     - H8    
     3     11     33      1    1.1117e+02    3.5690e+02 ;      C - C8     - H9    
     4      3      5      1    1.1375e+02    4.9589e+02 ;     C1 - C      - C2    
     4      3     11      1    1.0383e+02    5.1748e+02 ;     C1 - C      - C8    
     4      3     24      1    1.1117e+02    3.5690e+02 ;     C1 - C      - H     
     4      8     13      1    1.0383e+02    5.1748e+02 ;     C1 - C5     - C10   
     4      8     19      1    1.0786e+02    5.0995e+02 ;     C1 - C5     - C16   
     4      8     27      1    1.1117e+02    3.5690e+02 ;     C1 - C5     - H3    
     4      9     10      1    1.1104e+02    5.0350e+02 ;     C1 - C6     - C7    
     4      9     28      1    1.0934e+02    3.6183e+02 ;     C1 - C6     - H4    
     4      9     29      1    1.0934e+02    3.6183e+02 ;     C1 - C6     - H5    
     4     15     38      1    1.1053e+02    3.6033e+02 ;     C1 - C12    - H14   
     4     15     39      1    1.1053e+02    3.6033e+02 ;     C1 - C12    - H15   
     4     15     40      1    1.1053e+02    3.6033e+02 ;     C1 - C12    - H16   
     5      3     11      1    1.1375e+02    4.9589e+02 ;     C2 - C      - C8    
     5      3     24      1    1.0642e+02    3.6685e+02 ;     C2 - C      - H     
     5      6      7      1    1.1106e+02    5.0359e+02 ;     C2 - C3     - C4    
     5      6     10      1    1.1106e+02    5.0359e+02 ;     C2 - C3     - C7    
     5      6     26      1    1.0945e+02    3.6175e+02 ;     C2 - C3     - H2    
     5     12     16      1    1.1106e+02    5.0359e+02 ;     C2 - C9     - C13   
     5     12     34      1    1.0945e+02    3.6175e+02 ;     C2 - C9     - H10   
     5     12     35      1    1.0945e+02    3.6175e+02 ;     C2 - C9     - H11   
     6      5     12      1    1.1106e+02    5.0359e+02 ;     C3 - C2     - C9    
     6      5     25      1    1.0945e+02    3.6175e+02 ;     C3 - C2     - H1    
     6      7     14      1    1.1141e+02    5.0685e+02 ;     C3 - C4     - C11   
     6      7     17      1    1.1106e+02    5.0359e+02 ;     C3 - C4     - C14   
     6      7     18      1    1.1143e+02    5.0200e+02 ;     C3 - C4     - C15   
     6     10      9      1    1.1106e+02    5.0359e+02 ;     C3 - C7     - C6    
     6     10     30      1    1.0945e+02    3.6175e+02 ;     C3 - C7     - H6    
     6     10     31      1    1.0945e+02    3.6175e+02 ;     C3 - C7     - H7    
     7      6     10      1    1.1106e+02    5.0359e+02 ;     C4 - C3     - C7    
     7      6     26      1    1.0945e+02    3.6175e+02 ;     C4 - C3     - H2    
     7     14     16      1    1.1596e+02    5.0099e+02 ;     C4 - C11    - C13   
     7     14     21      1    1.2265e+02    5.1212e+02 ;     C4 - C11    - C18   
     7     17     20      1    1.1106e+02    5.0359e+02 ;     C4 - C14    - C17   
     7     17     43      1    1.0945e+02    3.6175e+02 ;     C4 - C14    - H19   
     7     17     44      1    1.0945e+02    3.6175e+02 ;     C4 - C14    - H20   
     7     18     45      1    1.1063e+02    3.5890e+02 ;     C4 - C15    - H21   
     7     18     46      1    1.1063e+02    3.5890e+02 ;     C4 - C15    - H22   
     7     18     47      1    1.1063e+02    3.5890e+02 ;     C4 - C15    - H23   
     8      4      9      1    1.1375e+02    4.9589e+02 ;     C5 - C1     - C6    
     8      4     15      1    1.1360e+02    4.9647e+02 ;     C5 - C1     - C12   
     8     13     11      1    1.0383e+02    5.1748e+02 ;     C5 - C10    - C8    
     8     13     36      1    1.1117e+02    3.5690e+02 ;     C5 - C10    - H12   
     8     13     37      1    1.1117e+02    3.5690e+02 ;     C5 - C10    - H13   
     8     19     23      1    1.1800e+02    4.9095e+02 ;     C5 - C16    - C20   
     9      4     15      1    1.1056e+02    5.0484e+02 ;     C6 - C1     - C12   
     9     10     30      1    1.0945e+02    3.6175e+02 ;     C6 - C7     - H6    
     9     10     31      1    1.0945e+02    3.6175e+02 ;     C6 - C7     - H7    
    10      6     26      1    1.0945e+02    3.6175e+02 ;     C7 - C3     - H2    
    10      9     28      1    1.0945e+02    3.6175e+02 ;     C7 - C6     - H4    
    10      9     29      1    1.0945e+02    3.6175e+02 ;     C7 - C6     - H5    
    11      3     24      1    1.1117e+02    3.5690e+02 ;     C8 - C      - H     
    11     13     36      1    1.1117e+02    3.5690e+02 ;     C8 - C10    - H12   
    11     13     37      1    1.1117e+02    3.5690e+02 ;     C8 - C10    - H13   
    12      5     25      1    1.0945e+02    3.6175e+02 ;     C9 - C2     - H1    
    12     16     14      1    1.1141e+02    5.0685e+02 ;     C9 - C13    - C11   
    12     16     41      1    1.0945e+02    3.6175e+02 ;     C9 - C13    - H17   
    12     16     42      1    1.0945e+02    3.6175e+02 ;     C9 - C13    - H18   
    13      8     19      1    1.0786e+02    5.0995e+02 ;    C10 - C5     - C16   
    13      8     27      1    1.1117e+02    3.5690e+02 ;    C10 - C5     - H3    
    13     11     32      1    1.1117e+02    3.5690e+02 ;    C10 - C8     - H8    
    13     11     33      1    1.1117e+02    3.5690e+02 ;    C10 - C8     - H9    
    14      7     17      1    1.1141e+02    5.0685e+02 ;    C11 - C4     - C14   
    14      7     18      1    1.0977e+02    5.0986e+02 ;    C11 - C4     - C15   
    14     16     41      1    1.0931e+02    3.6736e+02 ;    C11 - C13    - H17   
    14     16     42      1    1.0931e+02    3.6736e+02 ;    C11 - C13    - H18   
    14     21     22      1    1.2200e+02    5.1974e+02 ;    C11 - C18    - C19   
    14     21     50      1    1.2000e+02    3.8694e+02 ;    C11 - C18    - H26   
    16     12     34      1    1.0945e+02    3.6175e+02 ;    C13 - C9     - H10   
    16     12     35      1    1.0945e+02    3.6175e+02 ;    C13 - C9     - H11   
    16     14     21      1    1.2265e+02    5.1212e+02 ;    C13 - C11    - C18   
    17      7     18      1    1.1143e+02    5.0200e+02 ;    C14 - C4     - C15   
    17     20     22      1    1.1143e+02    5.0434e+02 ;    C14 - C17    - C19   
    17     20     48      1    1.0945e+02    3.6175e+02 ;    C14 - C17    - H24   
    17     20     49      1    1.0945e+02    3.6175e+02 ;    C14 - C17    - H25   
    19      8     27      1    1.0864e+02    3.6401e+02 ;    C16 - C5     - H3    
    19     23     51      1    1.0895e+02    3.6510e+02 ;    C16 - C20    - H27   
    19     23     52      1    1.0895e+02    3.6510e+02 ;    C16 - C20    - H28   
    19     23     53      1    1.0895e+02    3.6510e+02 ;    C16 - C20    - H29   
    20     17     43      1    1.0945e+02    3.6175e+02 ;    C17 - C14    - H19   
    20     17     44      1    1.0945e+02    3.6175e+02 ;    C17 - C14    - H20   
    20     22     21      1    1.1615e+02    5.0258e+02 ;    C17 - C19    - C18   
    22     20     48      1    1.0767e+02    3.6685e+02 ;    C19 - C17    - H24   
    22     20     49      1    1.0767e+02    3.6685e+02 ;    C19 - C17    - H25   
    22     21     50      1    1.1641e+02    3.6242e+02 ;    C19 - C18    - H26   
    28      9     29      1    1.0662e+02    3.0066e+02 ;     H4 - C6     - H5    
    30     10     31      1    1.0662e+02    3.0066e+02 ;     H6 - C7     - H7    
    32     11     33      1    1.0722e+02    3.0049e+02 ;     H8 - C8     - H9    
    34     12     35      1    1.0662e+02    3.0066e+02 ;    H10 - C9     - H11   
    36     13     37      1    1.0722e+02    3.0049e+02 ;    H12 - C10    - H13   
    38     15     39      1    1.0773e+02    2.9957e+02 ;    H14 - C12    - H15   
    38     15     40      1    1.0773e+02    2.9957e+02 ;    H14 - C12    - H16   
    39     15     40      1    1.0773e+02    2.9957e+02 ;    H15 - C12    - H16   
    41     16     42      1    1.0662e+02    3.0066e+02 ;    H17 - C13    - H18   
    43     17     44      1    1.0662e+02    3.0066e+02 ;    H19 - C14    - H20   
    45     18     46      1    1.0773e+02    2.9957e+02 ;    H21 - C15    - H22   
    45     18     47      1    1.0773e+02    2.9957e+02 ;    H21 - C15    - H23   
    46     18     47      1    1.0773e+02    2.9957e+02 ;    H22 - C15    - H23   
    48     20     49      1    1.0662e+02    3.0066e+02 ;    H24 - C17    - H25   
    51     23     52      1    1.0773e+02    2.9957e+02 ;    H27 - C20    - H28   
    51     23     53      1    1.0773e+02    2.9957e+02 ;    H27 - C20    - H29   
    52     23     53      1    1.0773e+02    2.9957e+02 ;    H28 - C20    - H29   

[ dihedrals ] ; propers
; for gromacs 4.5 or higher, using funct 9
;    i      j      k      l   func   phase     kd      pn
     1     19      8      4      9     0.00   2.84512   1 ;      O-   C16-    C5-    C1
     1     19      8      4      9   180.00   0.83680   2 ;      O-   C16-    C5-    C1
     1     19      8      4      9   180.00   1.84096   3 ;      O-   C16-    C5-    C1
     1     19      8     13      9     0.00   2.84512   1 ;      O-   C16-    C5-   C10
     1     19      8     13      9   180.00   0.83680   2 ;      O-   C16-    C5-   C10
     1     19      8     13      9   180.00   1.84096   3 ;      O-   C16-    C5-   C10
     1     19      8     27      9     0.00  16.86152   1 ;      O-   C16-    C5-    H3
     1     19      8     27      9   180.00  15.31344   2 ;      O-   C16-    C5-    H3
     1     19     23     51      9     0.00  16.86152   1 ;      O-   C16-   C20-   H27
     1     19     23     51      9   180.00  15.31344   2 ;      O-   C16-   C20-   H27
     1     19     23     52      9     0.00  16.86152   1 ;      O-   C16-   C20-   H28
     1     19     23     52      9   180.00  15.31344   2 ;      O-   C16-   C20-   H28
     1     19     23     53      9     0.00  16.86152   1 ;      O-   C16-   C20-   H29
     1     19     23     53      9   180.00  15.31344   2 ;      O-   C16-   C20-   H29
     2     22     20     17      9     0.00   0.46024   2 ;     O1-   C19-   C17-   C14
     2     22     20     17      9     0.00  49.12016   1 ;     O1-   C19-   C17-   C14
     2     22     20     17      9   180.00   0.33472   3 ;     O1-   C19-   C17-   C14
     2     22     20     48      9     0.00  16.86152   1 ;     O1-   C19-   C17-   H24
     2     22     20     48      9   180.00  15.31344   2 ;     O1-   C19-   C17-   H24
     2     22     20     49      9     0.00  16.86152   1 ;     O1-   C19-   C17-   H25
     2     22     20     49      9   180.00  15.31344   2 ;     O1-   C19-   C17-   H25
     2     22     21     14      9   180.00   9.10020   2 ;     O1-   C19-   C18-   C11
     2     22     21     50      9   180.00   9.10020   2 ;     O1-   C19-   C18-   H26
     3      4      8     13      9     0.00   2.17568   3 ;      C-    C1-    C5-   C10
     3      4      8     19      9     0.00   0.00000   0 ;      C-    C1-    C5-   C16
     3      4      8     19      9     0.00   0.16736   2 ;      C-    C1-    C5-   C16
     3      4      8     19      9   180.00   1.92464   1 ;      C-    C1-    C5-   C16
     3      4      8     27      9     0.00   0.54392   3 ;      C-    C1-    C5-    H3
     3      4      9     10      9     0.00   2.17568   3 ;      C-    C1-    C6-    C7
     3      4      9     28      9     0.00   0.54392   3 ;      C-    C1-    C6-    H4
     3      4      9     29      9     0.00   0.54392   3 ;      C-    C1-    C6-    H5
     3      4     15     38      9     0.00   0.54392   3 ;      C-    C1-   C12-   H14
     3      4     15     39      9     0.00   0.54392   3 ;      C-    C1-   C12-   H15
     3      4     15     40      9     0.00   0.54392   3 ;      C-    C1-   C12-   H16
     3      5      6      7      9     0.00   2.17568   3 ;      C-    C2-    C3-    C4
     3      5      6     10      9     0.00   2.17568   3 ;      C-    C2-    C3-    C7
     3      5      6     26      9     0.00   0.54392   3 ;      C-    C2-    C3-    H2
     3      5     12     16      9     0.00   2.17568   3 ;      C-    C2-    C9-   C13
     3      5     12     34      9     0.00   0.54392   3 ;      C-    C2-    C9-   H10
     3      5     12     35      9     0.00   0.54392   3 ;      C-    C2-    C9-   H11
     3     11     13      8      9     0.00   2.17568   3 ;      C-    C8-   C10-    C5
     3     11     13     36      9     0.00   0.54392   3 ;      C-    C8-   C10-   H12
     3     11     13     37      9     0.00   0.54392   3 ;      C-    C8-   C10-   H13
     4      3      5      6      9     0.00   2.17568   3 ;     C1-     C-    C2-    C3
     4      3      5     12      9     0.00   2.17568   3 ;     C1-     C-    C2-    C9
     4      3      5     25      9     0.00   0.54392   3 ;     C1-     C-    C2-    H1
     4      3     11     13      9     0.00   2.17568   3 ;     C1-     C-    C8-   C10
     4      3     11     32      9     0.00   0.54392   3 ;     C1-     C-    C8-    H8
     4      3     11     33      9     0.00   0.54392   3 ;     C1-     C-    C8-    H9
     4      8     13     11      9     0.00   2.17568   3 ;     C1-    C5-   C10-    C8
     4      8     13     36      9     0.00   0.54392   3 ;     C1-    C5-   C10-   H12
     4      8     13     37      9     0.00   0.54392   3 ;     C1-    C5-   C10-   H13
     4      8     19     23      9   180.00   1.09621   2 ;     C1-    C5-   C16-   C20
     4      9     10      6      9     0.00   2.17568   3 ;     C1-    C6-    C7-    C3
     4      9     10     30      9     0.00   0.54392   3 ;     C1-    C6-    C7-    H6
     4      9     10     31      9     0.00   0.54392   3 ;     C1-    C6-    C7-    H7
     5      3      4      8      9     0.00   2.17568   3 ;     C2-     C-    C1-    C5
     5      3      4      9      9     0.00   2.17568   3 ;     C2-     C-    C1-    C6
     5      3      4     15      9     0.00   2.17568   3 ;     C2-     C-    C1-   C12
     5      3     11     13      9     0.00   2.17568   3 ;     C2-     C-    C8-   C10
     5      3     11     32      9     0.00   0.54392   3 ;     C2-     C-    C8-    H8
     5      3     11     33      9     0.00   0.54392   3 ;     C2-     C-    C8-    H9
     5      6      7     14      9     0.00   0.65084   3 ;     C2-    C3-    C4-   C11
     5      6      7     17      9     0.00   2.17568   3 ;     C2-    C3-    C4-   C14
     5      6      7     18      9     0.00   2.17568   3 ;     C2-    C3-    C4-   C15
     5      6     10      9      9     0.00   2.17568   3 ;     C2-    C3-    C7-    C6
     5      6     10     30      9     0.00   0.54392   3 ;     C2-    C3-    C7-    H6
     5      6     10     31      9     0.00   0.54392   3 ;     C2-    C3-    C7-    H7
     5     12     16     14      9     0.00   0.65084   3 ;     C2-    C9-   C13-   C11
     5     12     16     41      9     0.00   0.54392   3 ;     C2-    C9-   C13-   H17
     5     12     16     42      9     0.00   0.54392   3 ;     C2-    C9-   C13-   H18
     6      5      3     11      9     0.00   2.17568   3 ;     C3-    C2-     C-    C8
     6      5      3     24      9     0.00   0.54392   3 ;     C3-    C2-     C-     H
     6      5     12     16      9     0.00   2.17568   3 ;     C3-    C2-    C9-   C13
     6      5     12     34      9     0.00   0.54392   3 ;     C3-    C2-    C9-   H10
     6      5     12     35      9     0.00   0.54392   3 ;     C3-    C2-    C9-   H11
     6      7     14     16      9     0.00   0.00000   0 ;     C3-    C4-   C11-   C13
     6      7     14     21      9     0.00   0.00000   0 ;     C3-    C4-   C11-   C18
     6      7     17     20      9     0.00   2.17568   3 ;     C3-    C4-   C14-   C17
     6      7     17     43      9     0.00   0.54392   3 ;     C3-    C4-   C14-   H19
     6      7     17     44      9     0.00   0.54392   3 ;     C3-    C4-   C14-   H20
     6      7     18     45      9     0.00   0.54392   3 ;     C3-    C4-   C15-   H21
     6      7     18     46      9     0.00   0.54392   3 ;     C3-    C4-   C15-   H22
     6      7     18     47      9     0.00   0.54392   3 ;     C3-    C4-   C15-   H23
     6     10      9     28      9     0.00   0.54392   3 ;     C3-    C7-    C6-    H4
     6     10      9     29      9     0.00   0.54392   3 ;     C3-    C7-    C6-    H5
     7      6      5     12      9     0.00   2.17568   3 ;     C4-    C3-    C2-    C9
     7      6      5     25      9     0.00   0.54392   3 ;     C4-    C3-    C2-    H1
     7      6     10      9      9     0.00   2.17568   3 ;     C4-    C3-    C7-    C6
     7      6     10     30      9     0.00   0.54392   3 ;     C4-    C3-    C7-    H6
     7      6     10     31      9     0.00   0.54392   3 ;     C4-    C3-    C7-    H7
     7     14     16     12      9     0.00   0.00000   0 ;     C4-   C11-   C13-    C9
     7     14     16     41      9     0.00   0.62760   3 ;     C4-   C11-   C13-   H17
     7     14     16     42      9     0.00   0.62760   3 ;     C4-   C11-   C13-   H18
     7     14     21     22      9   180.00  27.82360   2 ;     C4-   C11-   C18-   C19
     7     14     21     50      9   180.00  27.82360   2 ;     C4-   C11-   C18-   H26
     7     17     20     22      9     0.00   0.00000   0 ;     C4-   C14-   C17-   C19
     7     17     20     22      9     0.00   0.16736   2 ;     C4-   C14-   C17-   C19
     7     17     20     22      9   180.00   1.92464   1 ;     C4-   C14-   C17-   C19
     7     17     20     48      9     0.00   0.54392   3 ;     C4-   C14-   C17-   H24
     7     17     20     49      9     0.00   0.54392   3 ;     C4-   C14-   C17-   H25
     8      4      3     11      9     0.00   2.17568   3 ;     C5-    C1-     C-    C8
     8      4      3     24      9     0.00   0.54392   3 ;     C5-    C1-     C-     H
     8      4      9     10      9     0.00   2.17568   3 ;     C5-    C1-    C6-    C7
     8      4      9     28      9     0.00   0.54392   3 ;     C5-    C1-    C6-    H4
     8      4      9     29      9     0.00   0.54392   3 ;     C5-    C1-    C6-    H5
     8      4     15     38      9     0.00   0.54392   3 ;     C5-    C1-   C12-   H14
     8      4     15     39      9     0.00   0.54392   3 ;     C5-    C1-   C12-   H15
     8      4     15     40      9     0.00   0.54392   3 ;     C5-    C1-   C12-   H16
     8     13     11     32      9     0.00   0.54392   3 ;     C5-   C10-    C8-    H8
     8     13     11     33      9     0.00   0.54392   3 ;     C5-   C10-    C8-    H9
     8     19     23     51      9   180.00   0.00000   3 ;     C5-   C16-   C20-   H27
     8     19     23     52      9   180.00   0.00000   3 ;     C5-   C16-   C20-   H28
     8     19     23     53      9   180.00   0.00000   3 ;     C5-   C16-   C20-   H29
     9      4      3     11      9     0.00   2.17568   3 ;     C6-    C1-     C-    C8
     9      4      3     24      9     0.00   0.54392   3 ;     C6-    C1-     C-     H
     9      4      8     13      9     0.00   2.17568   3 ;     C6-    C1-    C5-   C10
     9      4      8     19      9     0.00   0.00000   0 ;     C6-    C1-    C5-   C16
     9      4      8     19      9     0.00   0.16736   2 ;     C6-    C1-    C5-   C16
     9      4      8     19      9   180.00   1.92464   1 ;     C6-    C1-    C5-   C16
     9      4      8     27      9     0.00   0.54392   3 ;     C6-    C1-    C5-    H3
     9      4     15     38      9     0.00   0.54392   3 ;     C6-    C1-   C12-   H14
     9      4     15     39      9     0.00   0.54392   3 ;     C6-    C1-   C12-   H15
     9      4     15     40      9     0.00   0.54392   3 ;     C6-    C1-   C12-   H16
     9     10      6     26      9     0.00   0.54392   3 ;     C6-    C7-    C3-    H2
    10      6      5     12      9     0.00   2.17568   3 ;     C7-    C3-    C2-    C9
    10      6      5     25      9     0.00   0.54392   3 ;     C7-    C3-    C2-    H1
    10      6      7     14      9     0.00   0.65084   3 ;     C7-    C3-    C4-   C11
    10      6      7     17      9     0.00   2.17568   3 ;     C7-    C3-    C4-   C14
    10      6      7     18      9     0.00   2.17568   3 ;     C7-    C3-    C4-   C15
    10      9      4     15      9     0.00   2.17568   3 ;     C7-    C6-    C1-   C12
    11      3      4     15      9     0.00   2.17568   3 ;     C8-     C-    C1-   C12
    11      3      5     12      9     0.00   2.17568   3 ;     C8-     C-    C2-    C9
    11      3      5     25      9     0.00   0.54392   3 ;     C8-     C-    C2-    H1
    11     13      8     19      9     0.00   0.00000   0 ;     C8-   C10-    C5-   C16
    11     13      8     19      9     0.00   0.16736   2 ;     C8-   C10-    C5-   C16
    11     13      8     19      9   180.00   1.92464   1 ;     C8-   C10-    C5-   C16
    11     13      8     27      9     0.00   0.54392   3 ;     C8-   C10-    C5-    H3
    12      5      3     24      9     0.00   0.54392   3 ;     C9-    C2-     C-     H
    12      5      6     26      9     0.00   0.54392   3 ;     C9-    C2-    C3-    H2
    12     16     14     21      9     0.00   0.00000   0 ;     C9-   C13-   C11-   C18
    13      8      4     15      9     0.00   2.17568   3 ;    C10-    C5-    C1-   C12
    13      8     19     23      9   180.00   1.09621   2 ;    C10-    C5-   C16-   C20
    13     11      3     24      9     0.00   0.54392   3 ;    C10-    C8-     C-     H
    14      7      6     26      9     0.00   0.65084   3 ;    C11-    C4-    C3-    H2
    14      7     17     20      9     0.00   0.65084   3 ;    C11-    C4-   C14-   C17
    14      7     17     43      9     0.00   0.65084   3 ;    C11-    C4-   C14-   H19
    14      7     17     44      9     0.00   0.65084   3 ;    C11-    C4-   C14-   H20
    14      7     18     45      9     0.00   0.65084   3 ;    C11-    C4-   C15-   H21
    14      7     18     46      9     0.00   0.65084   3 ;    C11-    C4-   C15-   H22
    14      7     18     47      9     0.00   0.65084   3 ;    C11-    C4-   C15-   H23
    14     16     12     34      9     0.00   0.65084   3 ;    C11-   C13-    C9-   H10
    14     16     12     35      9     0.00   0.65084   3 ;    C11-   C13-    C9-   H11
    14     21     22     20      9     0.00  12.13360   2 ;    C11-   C18-   C19-   C17
    15      4      3     24      9     0.00   0.54392   3 ;    C12-    C1-     C-     H
    15      4      8     19      9     0.00   0.00000   0 ;    C12-    C1-    C5-   C16
    15      4      8     19      9     0.00   0.16736   2 ;    C12-    C1-    C5-   C16
    15      4      8     19      9   180.00   1.92464   1 ;    C12-    C1-    C5-   C16
    15      4      8     27      9     0.00   0.54392   3 ;    C12-    C1-    C5-    H3
    15      4      9     28      9     0.00   0.54392   3 ;    C12-    C1-    C6-    H4
    15      4      9     29      9     0.00   0.54392   3 ;    C12-    C1-    C6-    H5
    16     12      5     25      9     0.00   0.54392   3 ;    C13-    C9-    C2-    H1
    16     14      7     17      9     0.00   0.00000   0 ;    C13-   C11-    C4-   C14
    16     14      7     18      9     0.00   0.00000   0 ;    C13-   C11-    C4-   C15
    16     14     21     22      9   180.00  27.82360   2 ;    C13-   C11-   C18-   C19
    16     14     21     50      9   180.00  27.82360   2 ;    C13-   C11-   C18-   H26
    17      7      6     26      9     0.00   0.54392   3 ;    C14-    C4-    C3-    H2
    17      7     14     21      9     0.00   0.00000   0 ;    C14-    C4-   C11-   C18
    17      7     18     45      9     0.00   0.54392   3 ;    C14-    C4-   C15-   H21
    17      7     18     46      9     0.00   0.54392   3 ;    C14-    C4-   C15-   H22
    17      7     18     47      9     0.00   0.54392   3 ;    C14-    C4-   C15-   H23
    17     20     22     21      9   180.00   0.00000   2 ;    C14-   C17-   C19-   C18
    18      7      6     26      9     0.00   0.54392   3 ;    C15-    C4-    C3-    H2
    18      7     14     21      9     0.00   0.00000   0 ;    C15-    C4-   C11-   C18
    18      7     17     20      9     0.00   2.17568   3 ;    C15-    C4-   C14-   C17
    18      7     17     43      9     0.00   0.54392   3 ;    C15-    C4-   C14-   H19
    18      7     17     44      9     0.00   0.54392   3 ;    C15-    C4-   C14-   H20
    19      8     13     36      9     0.00   0.65084   3 ;    C16-    C5-   C10-   H12
    19      8     13     37      9     0.00   0.65084   3 ;    C16-    C5-   C10-   H13
    20     22     21     50      9   180.00   9.10020   2 ;    C17-   C19-   C18-   H26
    21     14     16     41      9     0.00   0.00000   0 ;    C18-   C11-   C13-   H17
    21     14     16     42      9     0.00   0.00000   0 ;    C18-   C11-   C13-   H18
    21     22     20     48      9   180.00   0.00000   2 ;    C18-   C19-   C17-   H24
    21     22     20     49      9   180.00   0.00000   2 ;    C18-   C19-   C17-   H25
    22     20     17     43      9     0.00   0.65084   3 ;    C19-   C17-   C14-   H19
    22     20     17     44      9     0.00   0.65084   3 ;    C19-   C17-   C14-   H20
    23     19      8     27      9   180.00   0.00000   3 ;    C20-   C16-    C5-    H3
    24      3      5     25      9     0.00   0.50208   3 ;      H-     C-    C2-    H1
    24      3     11     32      9     0.00   0.50208   3 ;      H-     C-    C8-    H8
    24      3     11     33      9     0.00   0.50208   3 ;      H-     C-    C8-    H9
    25      5      6     26      9     0.00   0.50208   3 ;     H1-    C2-    C3-    H2
    25      5     12     34      9     0.00   0.50208   3 ;     H1-    C2-    C9-   H10
    25      5     12     35      9     0.00   0.50208   3 ;     H1-    C2-    C9-   H11
    26      6     10     30      9     0.00   0.50208   3 ;     H2-    C3-    C7-    H6
    26      6     10     31      9     0.00   0.50208   3 ;     H2-    C3-    C7-    H7
    27      8     13     36      9     0.00   0.50208   3 ;     H3-    C5-   C10-   H12
    27      8     13     37      9     0.00   0.50208   3 ;     H3-    C5-   C10-   H13
    28      9     10     30      9     0.00   0.50208   3 ;     H4-    C6-    C7-    H6
    28      9     10     31      9     0.00   0.50208   3 ;     H4-    C6-    C7-    H7
    29      9     10     30      9     0.00   0.50208   3 ;     H5-    C6-    C7-    H6
    29      9     10     31      9     0.00   0.50208   3 ;     H5-    C6-    C7-    H7
    32     11     13     36      9     0.00   0.50208   3 ;     H8-    C8-   C10-   H12
    32     11     13     37      9     0.00   0.50208   3 ;     H8-    C8-   C10-   H13
    33     11     13     36      9     0.00   0.50208   3 ;     H9-    C8-   C10-   H12
    33     11     13     37      9     0.00   0.50208   3 ;     H9-    C8-   C10-   H13
    34     12     16     41      9     0.00   0.50208   3 ;    H10-    C9-   C13-   H17
    34     12     16     42      9     0.00   0.50208   3 ;    H10-    C9-   C13-   H18
    35     12     16     41      9     0.00   0.50208   3 ;    H11-    C9-   C13-   H17
    35     12     16     42      9     0.00   0.50208   3 ;    H11-    C9-   C13-   H18
    43     17     20     48      9     0.00   0.50208   3 ;    H19-   C14-   C17-   H24
    43     17     20     49      9     0.00   0.50208   3 ;    H19-   C14-   C17-   H25
    44     17     20     48      9     0.00   0.50208   3 ;    H20-   C14-   C17-   H24
    44     17     20     49      9     0.00   0.50208   3 ;    H20-   C14-   C17-   H25

[ dihedrals ] ; impropers
; treated as propers in GROMACS to use correct AMBER analytical function
;    i      j      k      l   func   phase     kd      pn
     1     19      8     23      4   180.00  43.93200   2 ;      O-   C16-    C5-   C20
     7     16     14     21      4   180.00   4.60240   2 ;     C4-   C13-   C11-   C18
    20     21     22      2      4   180.00  43.93200   2 ;    C17-   C18-   C19-    O1
    22     14     21     50      4   180.00   4.60240   2 ;    C19-   C11-   C18-   H26
