guanosine_GMX.gro created by acpype (v: 2023.10.27) on Mon Feb  9 17:46:18 2026
 33
    1   G1  O4*    1   0.225   0.040   0.101
    1   G1  O2*    2   0.121  -0.215  -0.132
    1   G1  O3*    3   0.342  -0.231   0.031
    1   G1  O5*    4   0.419   0.236   0.053
    1   G1   O6    5  -0.425   0.194  -0.044
    1   G1   N9    6  -0.003   0.043   0.014
    1   G1   N7    7  -0.130   0.222  -0.032
    1   G1   N3    8  -0.174  -0.127   0.040
    1   G1   N1    9  -0.391  -0.032   0.006
    1   G1   N2   10  -0.366  -0.261   0.056
    1   G1  C2*   11   0.182  -0.096  -0.089
    1   G1  C1*   12   0.121  -0.039   0.039
    1   G1  C3*   13   0.327  -0.114  -0.049
    1   G1  C4*   14   0.352   0.007   0.040
    1   G1  C5*   15   0.400   0.129  -0.038
    1   G1   C4   16  -0.132  -0.001   0.015
    1   G1   C8   17  -0.007   0.177  -0.015
    1   G1   C5   18  -0.207   0.111  -0.013
    1   G1   C6   19  -0.350   0.100  -0.019
    1   G1   C2   20  -0.304  -0.140   0.035
    1   G1  H2*   21   0.175  -0.022  -0.170
    1   G1  H1*   22   0.091  -0.118   0.110
    1   G1  H3*   23   0.395  -0.123  -0.135
    1   G1  H4*   24   0.422  -0.014   0.121
    1   G1 H5*1   25   0.326   0.161  -0.112
    1   G1 H5*2   26   0.495   0.108  -0.088
    1   G1   H6   27   0.172  -0.250  -0.207
    1   G1   H7   28   0.436  -0.237   0.057
    1   G1   H8   29   0.083   0.237  -0.022
    1   G1  H5*   30   0.450   0.312   0.001
    1   G1   H1   31  -0.491  -0.051   0.004
    1   G1  H21   32  -0.312  -0.344   0.077
    1   G1  H22   33  -0.467  -0.270   0.052
   19.71800    13.13200     6.56000
