; guanosine_GMX.top created by acpype (v: 2023.10.27) on Mon Feb  9 17:46:18 2026

[ defaults ]
; nbfunc        comb-rule       gen-pairs       fudgeLJ fudgeQQ
1               2               yes             0.5     0.8333333333

; Include guanosine_GMX.itp topology
#include "guanosine_GMX.itp"

; Ligand position restraints
#ifdef POSRES_LIG
#include "posre_guanosine.itp"
#endif

[ system ]
 guanosine

[ molecules ]
; Compound        nmols
 guanosine        1     
