; guanosine_GMX_OPLS.itp created by acpype (v: 2023.10.27) on Mon Feb  9 17:46:18 2026

; For OPLS atomtypes manual fine tuning
; AC_at:OPLS_at:OPLScode: Possible_Alternatives (see ffoplsaa.atp and ffoplsaanb.itp)
; os:x:opls_x: []
; oh:OH:opls_154: ['167']
; o:O:opls_236: ['272']
; na:NA:opls_503: ['512']
; nc:NB:opls_511: []
; nd:NB:opls_511: []
; ns:x:opls_x: []
; nv:x:opls_x: []
; c5:x:opls_x: []
; c3:CT:opls_135: ['136', '137', '149', '157', '158', '206', '209', '210', '223B', '224B', '245', '246', '274', '283', '284', '285', '292', '292B', '293B', '296', '307', '308', '505']
; cd:C*:opls_500: ['506', '507', '508', '514']
; cc:C*:opls_500: ['506', '507', '508', '514']
; c:C:opls_235: ['271']
; h1:HC:opls_140: []
; h2:x:opls_x: []
; ho:HO:opls_155: ['168']
; h5:HA:opls_146: []
; hn:H:opls_240: ['241', '290', '301', '304', '310', '504', '513']

[ moleculetype ]
;name            nrexcl
 guanosine        3

[ atoms ]
;   nr  type  resi  res  atom  cgnr     charge      mass       ; qtot   bond_type
     1 opls_x     1    G1   O4*    1    -0.414600      0.00000 ; qtot -0.415  x   
     2 opls_154     1    G1   O2*    2    -0.560800     15.99940 ; qtot -0.975  OH  
     3 opls_154     1    G1   O3*    3    -0.587800     15.99940 ; qtot -1.563  OH  
     4 opls_154     1    G1   O5*    4    -0.587800     15.99940 ; qtot -2.151  OH  
     5 opls_236     1    G1    O6    5    -0.595500     15.99940 ; qtot -2.746  O   
     6 opls_503     1    G1    N9    6    -0.230900     14.00670 ; qtot -2.977  NA  
     7 opls_511     1    G1    N7    7    -0.582000     14.00670 ; qtot -3.559  NB  
     8 opls_511     1    G1    N3    8    -0.672100     14.00670 ; qtot -4.231  NB  
     9 opls_x     1    G1    N1    9    -0.509400      0.00000 ; qtot -4.741  x   
    10 opls_x     1    G1    N2   10    -0.895800      0.00000 ; qtot -5.637  x   
    11 opls_x     1    G1   C2*   11     0.132100      0.00000 ; qtot -5.505  x   
    12 opls_x     1    G1   C1*   12     0.219800      0.00000 ; qtot -5.285  x   
    13 opls_x     1    G1   C3*   13     0.082100      0.00000 ; qtot -5.203  x   
    14 opls_x     1    G1   C4*   14     0.049100      0.00000 ; qtot -5.154  x   
    15 opls_135     1    G1   C5*   15     0.111400     12.01100 ; qtot -5.042  CT  
    16 opls_500     1    G1    C4   16     0.112800     12.01100 ; qtot -4.929  C*  
    17 opls_500     1    G1    C8   17     0.402400     12.01100 ; qtot -4.527  C*  
    18 opls_500     1    G1    C5   18     0.176800     12.01100 ; qtot -4.350  C*  
    19 opls_235     1    G1    C6   19     0.651000     12.01100 ; qtot -3.699  C   
    20 opls_500     1    G1    C2   20     0.684800     12.01100 ; qtot -3.014  C*  
    21 opls_140     1    G1   H2*   21     0.114700      1.00800 ; qtot -2.900  HC  
    22 opls_x     1    G1   H1*   22     0.114700      0.00000 ; qtot -2.785  x   
    23 opls_140     1    G1   H3*   23     0.067700      1.00800 ; qtot -2.717  HC  
    24 opls_140     1    G1   H4*   24     0.097700      1.00800 ; qtot -2.620  HC  
    25 opls_140     1    G1  H5*1   25     0.057700      1.00800 ; qtot -2.562  HC  
    26 opls_140     1    G1  H5*2   26     0.057700      1.00800 ; qtot -2.504  HC  
    27 opls_155     1    G1    H6   27     0.422000      1.00800 ; qtot -2.082  HO  
    28 opls_155     1    G1    H7   28     0.418000      1.00800 ; qtot -1.664  HO  
    29 opls_146     1    G1    H8   29     0.070100      1.00800 ; qtot -1.594  HA  
    30 opls_155     1    G1   H5*   30     0.412000      1.00800 ; qtot -1.182  HO  
    31 opls_240     1    G1    H1   31     0.335500      1.00800 ; qtot -0.847  H   
    32 opls_240     1    G1   H21   32     0.423300      1.00800 ; qtot -0.423  H   
    33 opls_240     1    G1   H22   33     0.423300      1.00800 ; qtot -0.000  H   

[ bonds ]
;   ai     aj funct   r             k
     1     12   1 ;    1.4346e-01    2.3063e+05 ;    O4* - C1*         x - x     
     1     14   1 ;    1.4346e-01    2.3063e+05 ;    O4* - C4*         x - x     
     2     11   1 ;    1.4194e-01    2.4241e+05 ;    O2* - C2*        OH - x     
     2     27   1 ;    9.7250e-02    4.4811e+05 ;    O2* - H6         OH - HO    
     3     13   1 ;    1.4194e-01    2.4241e+05 ;    O3* - C3*        OH - x     
     3     28   1 ;    9.7250e-02    4.4811e+05 ;    O3* - H7         OH - HO    
     4     15   1 ;    1.4242e-01    2.3861e+05 ;    O5* - C5*        OH - CT    
     4     30   1 ;    9.7250e-02    4.4811e+05 ;    O5* - H5*        OH - HO    
     5     19   1 ;    1.2190e-01    4.9421e+05 ;     O6 - C6          O - C     
     6     12   1 ;    1.4571e-01    2.1790e+05 ;     N9 - C1*        NA - x     
     6     16   1 ;    1.3830e-01    2.7819e+05 ;     N9 - C4         NA - C*    
     6     17   1 ;    1.3830e-01    2.7819e+05 ;     N9 - C8         NA - C*    
     7     17   1 ;    1.3171e-01    3.4961e+05 ;     N7 - C8         NB - C*    
     7     18   1 ;    1.3629e-01    2.9793e+05 ;     N7 - C5         NB - C*    
     8     16   1 ;    1.3713e-01    2.8947e+05 ;     N3 - C4         NB - C*    
     8     20   1 ;    1.3158e-01    3.5122e+05 ;     N3 - C2         NB - C*    
     9     19   1 ;    1.3798e-01    2.8122e+05 ;     N1 - C6          x - C     
     9     20   1 ;    1.3804e-01    2.8065e+05 ;     N1 - C2          x - C*    
     9     31   1 ;    1.0132e-01    3.9630e+05 ;     N1 - H1          x - H     
    10     20   1 ;    1.3685e-01    2.9226e+05 ;     N2 - C2          x - C*    
    10     32   1 ;    1.0114e-01    3.9961e+05 ;     N2 - H21         x - H     
    10     33   1 ;    1.0114e-01    3.9961e+05 ;     N2 - H22         x - H     
    11     12   1 ;    1.5483e-01    1.8418e+05 ;    C2* - C1*         x - x     
    11     13   1 ;    1.5483e-01    1.8418e+05 ;    C2* - C3*         x - x     
    11     21   1 ;    1.0972e-01    2.8768e+05 ;    C2* - H2*         x - HC    
    12     22   1 ;    1.0955e-01    2.8977e+05 ;    C1* - H1*         x - x     
    13     14   1 ;    1.5483e-01    1.8418e+05 ;    C3* - C4*         x - x     
    13     23   1 ;    1.0972e-01    2.8768e+05 ;    C3* - H3*         x - HC    
    14     15   1 ;    1.5372e-01    1.9049e+05 ;    C4* - C5*         x - CT    
    14     24   1 ;    1.0972e-01    2.8768e+05 ;    C4* - H4*         x - HC    
    15     25   1 ;    1.0969e-01    2.8804e+05 ;    C5* - H5*1       CT - HC    
    15     26   1 ;    1.0969e-01    2.8804e+05 ;    C5* - H5*2       CT - HC    
    16     18   1 ;    1.3730e-01    3.2321e+05 ;     C4 - C5         C* - C*    
    17     29   1 ;    1.0821e-01    3.0695e+05 ;     C8 - H8         C* - HA    
    18     19   1 ;    1.4687e-01    2.3579e+05 ;     C5 - C6         C* - C     

[ pairs ]
;   ai     aj    funct
     1      2      1 ;    O4* - O2*   
     1      3      1 ;    O4* - O3*   
     1      4      1 ;    O4* - O5*   
     1     16      1 ;    O4* - C4    
     1     17      1 ;    O4* - C8    
     1     21      1 ;    O4* - H2*   
     1     23      1 ;    O4* - H3*   
     1     25      1 ;    O4* - H5*1  
     1     26      1 ;    O4* - H5*2  
     2      3      1 ;    O2* - O3*   
     2      6      1 ;    O2* - N9    
     2     14      1 ;    O2* - C4*   
     2     22      1 ;    O2* - H1*   
     2     23      1 ;    O2* - H3*   
     3     12      1 ;    O3* - C1*   
     3     15      1 ;    O3* - C5*   
     3     21      1 ;    O3* - H2*   
     3     24      1 ;    O3* - H4*   
     4     13      1 ;    O5* - C3*   
     4     24      1 ;    O5* - H4*   
     5      7      1 ;     O6 - N7    
     5     16      1 ;     O6 - C4    
     5     20      1 ;     O6 - C2    
     5     31      1 ;     O6 - H1    
     6     13      1 ;     N9 - C3*   
     6     19      1 ;     N9 - C6    
     6     20      1 ;     N9 - C2    
     6     21      1 ;     N9 - H2*   
     7      8      1 ;     N7 - N3    
     7      9      1 ;     N7 - N1    
     7     12      1 ;     N7 - C1*   
     8     12      1 ;     N3 - C1*   
     8     17      1 ;     N3 - C8    
     8     19      1 ;     N3 - C6    
     8     31      1 ;     N3 - H1    
     8     32      1 ;     N3 - H21   
     8     33      1 ;     N3 - H22   
     9     16      1 ;     N1 - C4    
     9     32      1 ;     N1 - H21   
     9     33      1 ;     N1 - H22   
    10     16      1 ;     N2 - C4    
    10     19      1 ;     N2 - C6    
    10     31      1 ;     N2 - H1    
    11     15      1 ;    C2* - C5*   
    11     16      1 ;    C2* - C4    
    11     17      1 ;    C2* - C8    
    11     24      1 ;    C2* - H4*   
    11     28      1 ;    C2* - H7    
    12     15      1 ;    C1* - C5*   
    12     18      1 ;    C1* - C5    
    12     23      1 ;    C1* - H3*   
    12     24      1 ;    C1* - H4*   
    12     27      1 ;    C1* - H6    
    12     29      1 ;    C1* - H8    
    13     22      1 ;    C3* - H1*   
    13     25      1 ;    C3* - H5*1  
    13     26      1 ;    C3* - H5*2  
    13     27      1 ;    C3* - H6    
    14      6      1 ;    C4* - N9    
    14     21      1 ;    C4* - H2*   
    14     22      1 ;    C4* - H1*   
    14     28      1 ;    C4* - H7    
    14     30      1 ;    C4* - H5*   
    15     23      1 ;    C5* - H3*   
    16     22      1 ;     C4 - H1*   
    16     29      1 ;     C4 - H8    
    17     19      1 ;     C8 - C6    
    17     22      1 ;     C8 - H1*   
    18     20      1 ;     C5 - C2    
    18     29      1 ;     C5 - H8    
    18     31      1 ;     C5 - H1    
    21     22      1 ;    H2* - H1*   
    21     23      1 ;    H2* - H3*   
    21     27      1 ;    H2* - H6    
    23     24      1 ;    H3* - H4*   
    23     28      1 ;    H3* - H7    
    24     25      1 ;    H4* - H5*1  
    24     26      1 ;    H4* - H5*2  
    25     30      1 ;   H5*1 - H5*   
    26     30      1 ;   H5*2 - H5*   

[ angles ]
;   ai     aj     ak    funct   theta         cth
     1     12      6      1 ;    1.0927e+02    7.0124e+02 ;    O4* - C1*  - N9        x -    x - NA  
     1     12     11      1 ;    1.0614e+02    6.4793e+02 ;    O4* - C1*  - C2*       x -    x - x   
     1     12     22      1 ;    1.0947e+02    4.7028e+02 ;    O4* - C1*  - H1*       x -    x - x   
     1     14     13      1 ;    1.0614e+02    6.4793e+02 ;    O4* - C4*  - C3*       x -    x - x   
     1     14     15      1 ;    1.0897e+02    6.4224e+02 ;    O4* - C4*  - C5*       x -    x - CT  
     1     14     24      1 ;    1.0846e+02    4.7229e+02 ;    O4* - C4*  - H4*       x -    x - HC  
     2     11     12      1 ;    1.1162e+02    6.3455e+02 ;    O2* - C2*  - C1*      OH -    x - x   
     2     11     13      1 ;    1.1162e+02    6.3455e+02 ;    O2* - C2*  - C3*      OH -    x - x   
     2     11     21      1 ;    1.1027e+02    4.7254e+02 ;    O2* - C2*  - H2*      OH -    x - HC  
     3     13     11      1 ;    1.1162e+02    6.3455e+02 ;    O3* - C3*  - C2*      OH -    x - x   
     3     13     14      1 ;    1.1162e+02    6.3455e+02 ;    O3* - C3*  - C4*      OH -    x - x   
     3     13     23      1 ;    1.1027e+02    4.7254e+02 ;    O3* - C3*  - H3*      OH -    x - HC  
     4     15     14      1 ;    1.0985e+02    6.4157e+02 ;    O5* - C5*  - C4*      OH -   CT - x   
     4     15     25      1 ;    1.1038e+02    4.7103e+02 ;    O5* - C5*  - H5*1     OH -   CT - HC  
     4     15     26      1 ;    1.1038e+02    4.7103e+02 ;    O5* - C5*  - H5*2     OH -   CT - HC  
     5     19      9      1 ;    1.2305e+02    7.2977e+02 ;     O6 - C6   - N1        O -    C - x   
     5     19     18      1 ;    1.2406e+02    6.5572e+02 ;     O6 - C6   - C5        O -    C - C*  
     6     12     11      1 ;    1.1485e+02    5.3714e+02 ;     N9 - C1*  - C2*      NA -    x - x   
     6     12     22      1 ;    1.0616e+02    4.0911e+02 ;     N9 - C1*  - H1*      NA -    x - x   
     6     16      8      1 ;    1.2113e+02    6.0693e+02 ;     N9 - C4   - N3       NA -   C* - NB  
     6     16     18      1 ;    1.0899e+02    6.0241e+02 ;     N9 - C4   - C5       NA -   C* - C*  
     6     17      7      1 ;    1.1302e+02    6.4024e+02 ;     N9 - C8   - N7       NA -   C* - NB  
     6     17     29      1 ;    1.2083e+02    4.0116e+02 ;     N9 - C8   - H8       NA -   C* - HA  
     7     17     29      1 ;    1.2529e+02    4.0911e+02 ;     N7 - C8   - H8       NB -   C* - HA  
     7     18     16      1 ;    1.1799e+02    5.8325e+02 ;     N7 - C5   - C4       NB -   C* - C*  
     7     18     19      1 ;    1.2319e+02    5.4994e+02 ;     N7 - C5   - C6       NB -   C* - C   
     8     16     18      1 ;    1.1158e+02    5.9789e+02 ;     N3 - C4   - C5       NB -   C* - C*  
     8     20      9      1 ;    1.2262e+02    6.1555e+02 ;     N3 - C2   - N1       NB -   C* - x   
     8     20     10      1 ;    1.2215e+02    6.1973e+02 ;     N3 - C2   - N2       NB -   C* - x   
     9     19     18      1 ;    1.1288e+02    5.7162e+02 ;     N1 - C6   - C5        x -    C - C*  
     9     20     10      1 ;    1.1707e+02    6.1856e+02 ;     N1 - C2   - N2        x -   C* - x   
    11      2     27      1 ;    1.0717e+02    5.4727e+02 ;    C2* - O2*  - H6        x -   OH - HO  
    11     12     22      1 ;    1.1053e+02    3.5798e+02 ;    C2* - C1*  - H1*       x -    x - x   
    11     13     14      1 ;    1.0383e+02    5.1748e+02 ;    C2* - C3*  - C4*       x -    x - x   
    11     13     23      1 ;    1.1117e+02    3.5690e+02 ;    C2* - C3*  - H3*       x -    x - HC  
    12      1     14      1 ;    1.0926e+02    7.4986e+02 ;    C1* - O4*  - C4*       x -    x - x   
    12      6     16      1 ;    1.2654e+02    6.3078e+02 ;    C1* - N9   - C4        x -   NA - C*  
    12      6     17      1 ;    1.2654e+02    6.3078e+02 ;    C1* - N9   - C8        x -   NA - C*  
    12     11     13      1 ;    1.0383e+02    5.1748e+02 ;    C1* - C2*  - C3*       x -    x - x   
    12     11     21      1 ;    1.1117e+02    3.5690e+02 ;    C1* - C2*  - H2*       x -    x - HC  
    13      3     28      1 ;    1.0717e+02    5.4727e+02 ;    C3* - O3*  - H7        x -   OH - HO  
    13     11     21      1 ;    1.1117e+02    3.5690e+02 ;    C3* - C2*  - H2*       x -    x - HC  
    13     14     15      1 ;    1.1360e+02    4.9647e+02 ;    C3* - C4*  - C5*       x -    x - CT  
    13     14     24      1 ;    1.1117e+02    3.5690e+02 ;    C3* - C4*  - H4*       x -    x - HC  
    14     13     23      1 ;    1.1117e+02    3.5690e+02 ;    C4* - C3*  - H3*       x -    x - HC  
    14     15     25      1 ;    1.0938e+02    3.6217e+02 ;    C4* - C5*  - H5*1      x -   CT - HC  
    14     15     26      1 ;    1.0938e+02    3.6217e+02 ;    C4* - C5*  - H5*2      x -   CT - HC  
    15      4     30      1 ;    1.0739e+02    5.4501e+02 ;    C5* - O5*  - H5*      CT -   OH - HO  
    15     14     24      1 ;    1.0924e+02    3.6242e+02 ;    C5* - C4*  - H4*      CT -    x - HC  
    16      6     17      1 ;    1.1090e+02    6.9279e+02 ;     C4 - N9   - C8       C* -   NA - C*  
    16      8     20      1 ;    1.0537e+02    7.3094e+02 ;     C4 - N3   - C2       C* -   NB - C*  
    16     18     19      1 ;    1.2132e+02    5.2049e+02 ;     C4 - C5   - C6       C* -   C* - C   
    17      7     18      1 ;    1.0915e+02    7.2032e+02 ;     C8 - N7   - C5       C* -   NB - C*  
    19      9     20      1 ;    1.2518e+02    6.5346e+02 ;     C6 - N1   - C2        C -    x - C*  
    19      9     31      1 ;    1.1726e+02    4.8007e+02 ;     C6 - N1   - H1        C -    x - H   
    20      9     31      1 ;    1.1891e+02    4.7656e+02 ;     C2 - N1   - H1       C* -    x - H   
    20     10     32      1 ;    1.1650e+02    4.8526e+02 ;     C2 - N2   - H21      C* -    x - H   
    20     10     33      1 ;    1.1650e+02    4.8526e+02 ;     C2 - N2   - H22      C* -    x - H   
    25     15     26      1 ;    1.0855e+02    2.9824e+02 ;   H5*1 - C5*  - H5*2     HC -   CT - HC  
    32     10     33      1 ;    1.1528e+02    3.8794e+02 ;    H21 - N2   - H22       H -    x - H   

[ dihedrals ] ; propers
; for gromacs 4.5 or higher, using funct 9
;    i      j      k      l   func   phase     kd      pn
     1     12      6     16      9 ;     0.00   0.00000   0 ;    O4*-   C1*-    N9-    C4
     1     12      6     17      9 ;     0.00   0.00000   0 ;    O4*-   C1*-    N9-    C8
     1     12     11      2      9 ;     0.00   2.46856   1 ;    O4*-   C1*-   C2*-   O2*
     1     12     11      2      9 ;     0.00   3.30536   3 ;    O4*-   C1*-   C2*-   O2*
     1     12     11      2      9 ;     0.00   5.27184   2 ;    O4*-   C1*-   C2*-   O2*
     1     12     11     13      9 ;     0.00   0.65084   3 ;    O4*-   C1*-   C2*-   C3*
     1     12     11     21      9 ;     0.00   0.00000   0 ;    O4*-   C1*-   C2*-   H2*
     1     12     11     21      9 ;     0.00   1.04600   1 ;    O4*-   C1*-   C2*-   H2*
     1     14     13      3      9 ;     0.00   2.46856   1 ;    O4*-   C4*-   C3*-   O3*
     1     14     13      3      9 ;     0.00   3.30536   3 ;    O4*-   C4*-   C3*-   O3*
     1     14     13      3      9 ;     0.00   5.27184   2 ;    O4*-   C4*-   C3*-   O3*
     1     14     13     11      9 ;     0.00   0.65084   3 ;    O4*-   C4*-   C3*-   C2*
     1     14     13     23      9 ;     0.00   0.00000   0 ;    O4*-   C4*-   C3*-   H3*
     1     14     13     23      9 ;     0.00   1.04600   1 ;    O4*-   C4*-   C3*-   H3*
     1     14     15      4      9 ;     0.00   2.46856   1 ;    O4*-   C4*-   C5*-   O5*
     1     14     15      4      9 ;     0.00   3.30536   3 ;    O4*-   C4*-   C5*-   O5*
     1     14     15      4      9 ;     0.00   5.27184   2 ;    O4*-   C4*-   C5*-   O5*
     1     14     15     25      9 ;     0.00   0.00000   0 ;    O4*-   C4*-   C5*-  H5*1
     1     14     15     25      9 ;     0.00   1.04600   1 ;    O4*-   C4*-   C5*-  H5*1
     1     14     15     26      9 ;     0.00   0.00000   0 ;    O4*-   C4*-   C5*-  H5*2
     1     14     15     26      9 ;     0.00   1.04600   1 ;    O4*-   C4*-   C5*-  H5*2
     2     11     12      6      9 ;     0.00   0.65084   3 ;    O2*-   C2*-   C1*-    N9
     2     11     12     22      9 ;     0.00   0.65084   3 ;    O2*-   C2*-   C1*-   H1*
     2     11     13      3      9 ;     0.00   4.18400   1 ;    O2*-   C2*-   C3*-   O3*
     2     11     13      3      9 ;     0.00   6.02496   3 ;    O2*-   C2*-   C3*-   O3*
     2     11     13     14      9 ;     0.00   0.75312   3 ;    O2*-   C2*-   C3*-   C4*
     2     11     13     23      9 ;     0.00   0.00000   0 ;    O2*-   C2*-   C3*-   H3*
     2     11     13     23      9 ;     0.00   1.04600   1 ;    O2*-   C2*-   C3*-   H3*
     3     13     11     12      9 ;     0.00   0.75312   3 ;    O3*-   C3*-   C2*-   C1*
     3     13     11     21      9 ;     0.00   0.00000   0 ;    O3*-   C3*-   C2*-   H2*
     3     13     11     21      9 ;     0.00   1.04600   1 ;    O3*-   C3*-   C2*-   H2*
     3     13     14     15      9 ;     0.00   0.75312   3 ;    O3*-   C3*-   C4*-   C5*
     3     13     14     24      9 ;     0.00   0.00000   0 ;    O3*-   C3*-   C4*-   H4*
     3     13     14     24      9 ;     0.00   1.04600   1 ;    O3*-   C3*-   C4*-   H4*
     4     15     14     13      9 ;     0.00   0.75312   3 ;    O5*-   C5*-   C4*-   C3*
     4     15     14     24      9 ;     0.00   0.00000   0 ;    O5*-   C5*-   C4*-   H4*
     4     15     14     24      9 ;     0.00   1.04600   1 ;    O5*-   C5*-   C4*-   H4*
     5     19      9     20      9 ;   180.00  10.46000   2 ;     O6-    C6-    N1-    C2
     5     19      9     31      9 ;     0.00   8.36800   1 ;     O6-    C6-    N1-    H1
     5     19      9     31      9 ;   180.00  10.46000   2 ;     O6-    C6-    N1-    H1
     5     19     18      7      9 ;   180.00  12.02900   2 ;     O6-    C6-    C5-    N7
     5     19     18     16      9 ;   180.00  12.02900   2 ;     O6-    C6-    C5-    C4
     6     12     11     13      9 ;     0.00   0.65084   3 ;     N9-   C1*-   C2*-   C3*
     6     12     11     21      9 ;     0.00   0.65084   3 ;     N9-   C1*-   C2*-   H2*
     6     16      8     20      9 ;   180.00  19.87400   2 ;     N9-    C4-    N3-    C2
     6     16     18      7      9 ;   180.00  16.73600   2 ;     N9-    C4-    C5-    N7
     6     16     18     19      9 ;   180.00  16.73600   2 ;     N9-    C4-    C5-    C6
     6     17      7     18      9 ;   180.00  19.87400   2 ;     N9-    C8-    N7-    C5
     7     17      6     12      9 ;   180.00   7.11280   2 ;     N7-    C8-    N9-   C1*
     7     17      6     16      9 ;   180.00   7.11280   2 ;     N7-    C8-    N9-    C4
     7     18     16      8      9 ;   180.00  16.73600   2 ;     N7-    C5-    C4-    N3
     7     18     19      9      9 ;   180.00  12.02900   2 ;     N7-    C5-    C6-    N1
     8     16      6     12      9 ;   180.00   7.11280   2 ;     N3-    C4-    N9-   C1*
     8     16      6     17      9 ;   180.00   7.11280   2 ;     N3-    C4-    N9-    C8
     8     16     18     19      9 ;   180.00  16.73600   2 ;     N3-    C4-    C5-    C6
     8     20      9     19      9 ;   180.00   6.90360   2 ;     N3-    C2-    N1-    C6
     8     20      9     31      9 ;   180.00   6.90360   2 ;     N3-    C2-    N1-    H1
     8     20     10     32      9 ;   180.00   4.39320   2 ;     N3-    C2-    N2-   H21
     8     20     10     33      9 ;   180.00   4.39320   2 ;     N3-    C2-    N2-   H22
     9     19     18     16      9 ;   180.00  12.02900   2 ;     N1-    C6-    C5-    C4
     9     20      8     16      9 ;   180.00  19.87400   2 ;     N1-    C2-    N3-    C4
     9     20     10     32      9 ;   180.00   4.39320   2 ;     N1-    C2-    N2-   H21
     9     20     10     33      9 ;   180.00   4.39320   2 ;     N1-    C2-    N2-   H22
    10     20      8     16      9 ;   180.00  19.87400   2 ;     N2-    C2-    N3-    C4
    10     20      9     19      9 ;   180.00   6.90360   2 ;     N2-    C2-    N1-    C6
    10     20      9     31      9 ;   180.00   6.90360   2 ;     N2-    C2-    N1-    H1
    11     12      6     16      9 ;     0.00   0.00000   0 ;    C2*-   C1*-    N9-    C4
    11     12      6     17      9 ;     0.00   0.00000   0 ;    C2*-   C1*-    N9-    C8
    11     13      3     28      9 ;     0.00   0.25104   3 ;    C2*-   C3*-   O3*-    H7
    11     13     14     15      9 ;     0.00   2.17568   3 ;    C2*-   C3*-   C4*-   C5*
    11     13     14     24      9 ;     0.00   0.65084   3 ;    C2*-   C3*-   C4*-   H4*
    12      1     14     13      9 ;     0.00   0.33472   2 ;    C1*-   O4*-   C4*-   C3*
    12      1     14     13      9 ;     0.00   3.13800   3 ;    C1*-   O4*-   C4*-   C3*
    12      1     14     13      9 ;   180.00   3.68192   1 ;    C1*-   O4*-   C4*-   C3*
    12      1     14     15      9 ;     0.00   0.33472   2 ;    C1*-   O4*-   C4*-   C5*
    12      1     14     15      9 ;     0.00   3.13800   3 ;    C1*-   O4*-   C4*-   C5*
    12      1     14     15      9 ;   180.00   3.68192   1 ;    C1*-   O4*-   C4*-   C5*
    12      1     14     24      9 ;     0.00   1.41001   3 ;    C1*-   O4*-   C4*-   H4*
    12      6     16     18      9 ;   180.00   7.11280   2 ;    C1*-    N9-    C4-    C5
    12      6     17     29      9 ;   180.00   7.11280   2 ;    C1*-    N9-    C8-    H8
    12     11      2     27      9 ;     0.00   0.25104   3 ;    C1*-   C2*-   O2*-    H6
    12     11     13     14      9 ;     0.00   2.17568   3 ;    C1*-   C2*-   C3*-   C4*
    12     11     13     23      9 ;     0.00   0.65084   3 ;    C1*-   C2*-   C3*-   H3*
    13     11      2     27      9 ;     0.00   0.25104   3 ;    C3*-   C2*-   O2*-    H6
    13     11     12     22      9 ;     0.00   0.65084   3 ;    C3*-   C2*-   C1*-   H1*
    13     14     15     25      9 ;     0.00   0.65084   3 ;    C3*-   C4*-   C5*-  H5*1
    13     14     15     26      9 ;     0.00   0.65084   3 ;    C3*-   C4*-   C5*-  H5*2
    14      1     12      6      9 ;     0.00   1.60247   3 ;    C4*-   O4*-   C1*-    N9
    14      1     12      6      9 ;     0.00   2.71960   2 ;    C4*-   O4*-   C1*-    N9
    14      1     12     11      9 ;     0.00   0.33472   2 ;    C4*-   O4*-   C1*-   C2*
    14      1     12     11      9 ;     0.00   3.13800   3 ;    C4*-   O4*-   C1*-   C2*
    14      1     12     11      9 ;   180.00   3.68192   1 ;    C4*-   O4*-   C1*-   C2*
    14      1     12     22      9 ;     0.00   1.60387   3 ;    C4*-   O4*-   C1*-   H1*
    14     13      3     28      9 ;     0.00   0.25104   3 ;    C4*-   C3*-   O3*-    H7
    14     13     11     21      9 ;     0.00   0.65084   3 ;    C4*-   C3*-   C2*-   H2*
    14     15      4     30      9 ;     0.00   0.25104   3 ;    C4*-   C5*-   O5*-   H5*
    15     14     13     23      9 ;     0.00   0.65084   3 ;    C5*-   C4*-   C3*-   H3*
    16      6     12     22      9 ;     0.00   0.00000   0 ;     C4-    N9-   C1*-   H1*
    16      6     17     29      9 ;   180.00   7.11280   2 ;     C4-    N9-    C8-    H8
    16     18      7     17      9 ;   180.00  19.87400   2 ;     C4-    C5-    N7-    C8
    17      6     12     22      9 ;     0.00   0.00000   0 ;     C8-    N9-   C1*-   H1*
    17      6     16     18      9 ;   180.00   7.11280   2 ;     C8-    N9-    C4-    C5
    17      7     18     19      9 ;   180.00  19.87400   2 ;     C8-    N7-    C5-    C6
    18      7     17     29      9 ;   180.00  19.87400   2 ;     C5-    N7-    C8-    H8
    18     16      8     20      9 ;   180.00  19.87400   2 ;     C5-    C4-    N3-    C2
    18     19      9     20      9 ;   180.00  10.46000   2 ;     C5-    C6-    N1-    C2
    18     19      9     31      9 ;   180.00  10.46000   2 ;     C5-    C6-    N1-    H1
    21     11      2     27      9 ;     0.00   0.51463   3 ;    H2*-   C2*-   O2*-    H6
    21     11     12     22      9 ;     0.00   0.65084   3 ;    H2*-   C2*-   C1*-   H1*
    21     11     13     23      9 ;     0.00   0.65084   3 ;    H2*-   C2*-   C3*-   H3*
    23     13      3     28      9 ;     0.00   0.51463   3 ;    H3*-   C3*-   O3*-    H7
    23     13     14     24      9 ;     0.00   0.65084   3 ;    H3*-   C3*-   C4*-   H4*
    24     14     15     25      9 ;     0.00   0.65084   3 ;    H4*-   C4*-   C5*-  H5*1
    24     14     15     26      9 ;     0.00   0.65084   3 ;    H4*-   C4*-   C5*-  H5*2
    25     15      4     30      9 ;     0.00   0.51463   3 ;   H5*1-   C5*-   O5*-   H5*
    26     15      4     30      9 ;     0.00   0.51463   3 ;   H5*2-   C5*-   O5*-   H5*

[ dihedrals ] ; impropers
; treated as propers in GROMACS to use correct AMBER analytical function
;    i      j      k      l   func   phase     kd      pn
     8      9     20     10      4 ;   180.00   4.60240   2 ;     N3-    N1-    C2-    N2
    12     16      6     17      4 ;   180.00   4.60240   2 ;    C1*-    C4-    N9-    C8
    18      6     16      8      4 ;   180.00   4.60240   2 ;     C5-    N9-    C4-    N3
    18      9     19      5      4 ;   180.00  43.93200   2 ;     C5-    N1-    C6-    O6
    19     16     18      7      4 ;   180.00   4.60240   2 ;     C6-    C4-    C5-    N7
    19     20      9     31      4 ;   180.00   4.60240   2 ;     C6-    C2-    N1-    H1
    20     32     10     33      4 ;   180.00   4.60240   2 ;     C2-   H21-    N2-   H22
    29      6     17      7      4 ;   180.00   4.60240   2 ;     H8-    N9-    C8-    N7
