%VERSION  VERSION_STAMP = V0001.000  DATE = 02/09/26  17:47:28                  
%FLAG TITLE                                                                     
%FORMAT(20a4)                                                                   
135398635                                                                       
%FLAG POINTERS                                                                  
%FORMAT(10I8)                                                                   
      33      14      13      22      27      33      58      66       0       0
     182       1      22      33      66      24      45      30      18       0
       0       0       0       0       0       0       0       0      33       0
       0
%FLAG ATOM_NAME                                                                 
%FORMAT(20a4)                                                                   
O4* O2* O3* O5* O6  N9  N7  N3  N1  N2  C2* C1* C3* C4* C5* C4  C8  C5  C6  C2  
H2* H1* H3* H4* H5*1H5*2H6  H7  H8  H5* H1  H21 H22 
%FLAG CHARGE                                                                    
%FORMAT(5E16.8)                                                                 
 -7.55496558E+00 -1.02190658E+01 -1.07110679E+01 -1.07110679E+01 -1.08513797E+01
 -4.20752907E+00 -1.06053786E+01 -1.22472078E+01 -9.28243962E+00 -1.62870917E+01
  2.40716583E+00  4.00526154E+00  1.49605083E+00  8.94714930E-01  2.02996422E+00
  2.05547544E+00  7.33265352E+00  3.22170264E+00  1.18627173E+01  1.24786310E+01
  2.09009781E+00  2.09009781E+00  1.23364971E+00  1.78031871E+00  1.05142671E+00
  1.05142671E+00  7.68981060E+00  7.61692140E+00  1.27738323E+00  7.50758760E+00
  6.11358165E+00  7.71349959E+00  7.71349959E+00
%FLAG ATOMIC_NUMBER                                                             
%FORMAT(10I8)                                                                   
       8       8       8       8       8       7       7       7       7       7
       6       6       6       6       6       6       6       6       6       6
       1       1       1       1       1       1       1       1       1       1
       1       1       1
%FLAG MASS                                                                      
%FORMAT(5E16.8)                                                                 
  1.60000000E+01  1.60000000E+01  1.60000000E+01  1.60000000E+01  1.60000000E+01
  1.40100000E+01  1.40100000E+01  1.40100000E+01  1.40100000E+01  1.40100000E+01
  1.20100000E+01  1.20100000E+01  1.20100000E+01  1.20100000E+01  1.20100000E+01
  1.20100000E+01  1.20100000E+01  1.20100000E+01  1.20100000E+01  1.20100000E+01
  1.00800000E+00  1.00800000E+00  1.00800000E+00  1.00800000E+00  1.00800000E+00
  1.00800000E+00  1.00800000E+00  1.00800000E+00  1.00800000E+00  1.00800000E+00
  1.00800000E+00  1.00800000E+00  1.00800000E+00
%FLAG ATOM_TYPE_INDEX                                                           
%FORMAT(10I8)                                                                   
       1       2       2       2       3       4       5       5       6       7
       8       8       8       8       8       9       9       9       9       9
      10      11      10      10      10      10      12      12      13      12
      14      14      14
%FLAG NUMBER_EXCLUDED_ATOMS                                                     
%FORMAT(10I8)                                                                   
      17      10       9       7       7      14       8      11       8       6
      12      12      10       9       5       6       4       4       2       3
       3       1       2       2       2       1       1       1       1       1
       1       1       1
%FLAG NONBONDED_PARM_INDEX                                                      
%FORMAT(10I8)                                                                   
       1       2       4       7      11      16      22      29      37      46
      56      67      79      92       2       3       5       8      12      17
      23      30      38      47      57      68      80      93       4       5
       6       9      13      18      24      31      39      48      58      69
      81      94       7       8       9      10      14      19      25      32
      40      49      59      70      82      95      11      12      13      14
      15      20      26      33      41      50      60      71      83      96
      16      17      18      19      20      21      27      34      42      51
      61      72      84      97      22      23      24      25      26      27
      28      35      43      52      62      73      85      98      29      30
      31      32      33      34      35      36      44      53      63      74
      86      99      37      38      39      40      41      42      43      44
      45      54      64      75      87     100      46      47      48      49
      50      51      52      53      54      55      65      76      88     101
      56      57      58      59      60      61      62      63      64      65
      66      77      89     102      67      68      69      70      71      72
      73      74      75      76      77      78      90     103      79      80
      81      82      83      84      85      86      87      88      89      90
      91     104      92      93      94      95      96      97      98      99
     100     101     102     103     104     105
%FLAG RESIDUE_LABEL                                                             
%FORMAT(20a4)                                                                   
G1  
%FLAG RESIDUE_POINTER                                                           
%FORMAT(10I8)                                                                   
       1
%FLAG BOND_FORCE_CONSTANT                                                       
%FORMAT(5E16.8)                                                                 
  2.75610000E+02  2.89690000E+02  5.35510000E+02  2.85150000E+02  5.90600000E+02
  2.60400000E+02  3.32450000E+02  4.17790000E+02  3.56030000E+02  3.45930000E+02
  4.19720000E+02  3.36070000E+02  3.35390000E+02  4.73590000E+02  3.49260000E+02
  4.77540000E+02  2.20100000E+02  3.43780000E+02  3.46280000E+02  2.27640000E+02
  3.44220000E+02  3.86240000E+02  3.66810000E+02  2.81780000E+02
%FLAG BOND_EQUIL_VALUE                                                          
%FORMAT(5E16.8)                                                                 
  1.43460000E+00  1.41940000E+00  9.72500000E-01  1.42420000E+00  1.21900000E+00
  1.45710000E+00  1.38300000E+00  1.31710000E+00  1.36290000E+00  1.37130000E+00
  1.31580000E+00  1.37980000E+00  1.38040000E+00  1.01320000E+00  1.36850000E+00
  1.01140000E+00  1.54830000E+00  1.09720000E+00  1.09550000E+00  1.53720000E+00
  1.09690000E+00  1.37300000E+00  1.08210000E+00  1.46870000E+00
%FLAG ANGLE_FORCE_CONSTANT                                                      
%FORMAT(5E16.8)                                                                 
  8.38000000E+01  7.74300000E+01  5.62000000E+01  7.67500000E+01  5.64400000E+01
  7.58300000E+01  5.64700000E+01  7.66700000E+01  5.62900000E+01  8.72100000E+01
  7.83600000E+01  6.41900000E+01  4.88900000E+01  7.25300000E+01  7.19900000E+01
  7.65100000E+01  4.79400000E+01  4.88900000E+01  6.97000000E+01  6.57200000E+01
  7.14500000E+01  7.35600000E+01  7.40600000E+01  6.83100000E+01  7.39200000E+01
  6.54000000E+01  4.27800000E+01  6.18400000E+01  4.26500000E+01  8.96100000E+01
  7.53800000E+01  5.93300000E+01  4.32800000E+01  6.51300000E+01  4.33100000E+01
  8.27900000E+01  8.73500000E+01  6.22000000E+01  8.60800000E+01  7.80900000E+01
  5.73700000E+01  5.69500000E+01  5.79900000E+01  3.56400000E+01  4.63600000E+01
%FLAG ANGLE_EQUIL_VALUE                                                         
%FORMAT(5E16.8)                                                                 
  1.90712209E+00  1.85249326E+00  1.91061275E+00  1.90188610E+00  1.89298492E+00
  1.94813735E+00  1.92457539E+00  1.91724501E+00  1.92649525E+00  2.14762857E+00
  2.16525640E+00  2.00451150E+00  1.85284233E+00  2.11411823E+00  1.90223517E+00
  1.97257197E+00  2.10888224E+00  2.18672396E+00  2.05931487E+00  2.15007203E+00
  1.94743921E+00  2.14012365E+00  2.13192060E+00  1.97012850E+00  2.04325783E+00
  1.87047016E+00  1.92911325E+00  1.81217614E+00  1.94028336E+00  1.90694756E+00
  2.20854058E+00  1.98269488E+00  1.90904195E+00  1.87430989E+00  1.90659849E+00
  1.93557097E+00  1.83905422E+00  2.11743436E+00  1.90502770E+00  2.18480409E+00
  2.04657396E+00  2.07537190E+00  2.03330945E+00  1.89455572E+00  2.01201642E+00
%FLAG DIHEDRAL_FORCE_CONSTANT                                                   
%FORMAT(5E16.8)                                                                 
  0.00000000E+00  5.90000000E-01  1.26000000E+00  7.90000000E-01  1.55555556E-01
  2.50000000E-01  0.00000000E+00  1.00000000E+00  1.44000000E+00  1.80000000E-01
  2.50000000E+00  2.00000000E+00  2.87500000E+00  6.50000000E-01  3.83000000E-01
  4.75000000E+00  4.00000000E+00  1.70000000E+00  1.65000000E+00  1.05000000E+00
  8.80000000E-01  8.00000000E-02  7.50000000E-01  6.00000000E-02  5.20000000E-01
  3.37000000E-01  3.83333333E-01  1.23000000E-01  1.10000000E+00  1.05000000E+01
%FLAG DIHEDRAL_PERIODICITY                                                      
%FORMAT(5E16.8)                                                                 
  2.00000000E+00  1.00000000E+00  2.00000000E+00  3.00000000E+00  3.00000000E+00
  1.00000000E+00  3.00000000E+00  1.00000000E+00  3.00000000E+00  3.00000000E+00
  2.00000000E+00  1.00000000E+00  2.00000000E+00  2.00000000E+00  3.00000000E+00
  2.00000000E+00  2.00000000E+00  2.00000000E+00  2.00000000E+00  2.00000000E+00
  1.00000000E+00  2.00000000E+00  3.00000000E+00  3.00000000E+00  3.00000000E+00
  3.00000000E+00  3.00000000E+00  3.00000000E+00  2.00000000E+00  2.00000000E+00
%FLAG DIHEDRAL_PHASE                                                            
%FORMAT(5E16.8)                                                                 
  0.00000000E+00  0.00000000E+00  0.00000000E+00  0.00000000E+00  0.00000000E+00
  0.00000000E+00  0.00000000E+00  0.00000000E+00  0.00000000E+00  0.00000000E+00
  3.14159400E+00  0.00000000E+00  3.14159400E+00  0.00000000E+00  0.00000000E+00
  3.14159400E+00  3.14159400E+00  3.14159400E+00  3.14159400E+00  3.14159400E+00
  3.14159400E+00  0.00000000E+00  0.00000000E+00  0.00000000E+00  0.00000000E+00
  0.00000000E+00  0.00000000E+00  0.00000000E+00  3.14159400E+00  3.14159400E+00
%FLAG SCEE_SCALE_FACTOR                                                         
%FORMAT(5E16.8)                                                                 
  1.20000000E+00  1.20000000E+00  1.20000000E+00  1.20000000E+00  1.20000000E+00
  1.20000000E+00  1.20000000E+00  1.20000000E+00  1.20000000E+00  1.20000000E+00
  1.20000000E+00  1.20000000E+00  1.20000000E+00  1.20000000E+00  1.20000000E+00
  1.20000000E+00  1.20000000E+00  1.20000000E+00  1.20000000E+00  1.20000000E+00
  1.20000000E+00  1.20000000E+00  1.20000000E+00  1.20000000E+00  1.20000000E+00
  1.20000000E+00  1.20000000E+00  1.20000000E+00  0.00000000E+00  0.00000000E+00
%FLAG SCNB_SCALE_FACTOR                                                         
%FORMAT(5E16.8)                                                                 
  2.00000000E+00  2.00000000E+00  2.00000000E+00  2.00000000E+00  2.00000000E+00
  2.00000000E+00  2.00000000E+00  2.00000000E+00  2.00000000E+00  2.00000000E+00
  2.00000000E+00  2.00000000E+00  2.00000000E+00  2.00000000E+00  2.00000000E+00
  2.00000000E+00  2.00000000E+00  2.00000000E+00  2.00000000E+00  2.00000000E+00
  2.00000000E+00  2.00000000E+00  2.00000000E+00  2.00000000E+00  2.00000000E+00
  2.00000000E+00  2.00000000E+00  2.00000000E+00  0.00000000E+00  0.00000000E+00
%FLAG SOLTY                                                                     
%FORMAT(5E16.8)                                                                 
  0.00000000E+00  0.00000000E+00  0.00000000E+00  0.00000000E+00  0.00000000E+00
  0.00000000E+00  0.00000000E+00  0.00000000E+00  0.00000000E+00  0.00000000E+00
  0.00000000E+00  0.00000000E+00  0.00000000E+00  0.00000000E+00  0.00000000E+00
  0.00000000E+00  0.00000000E+00  0.00000000E+00
%FLAG LENNARD_JONES_ACOEF                                                       
%FORMAT(5E16.8)                                                                 
  2.83662575E+05  3.78207390E+05  5.03152404E+05  3.27367585E+05  4.37717034E+05
  3.76435470E+05  5.22690526E+05  6.96017793E+05  6.04208667E+05  9.62429652E+05
  4.94433451E+05  6.55497149E+05  5.74782316E+05  9.08092643E+05  8.49322032E+05
  4.47026838E+05  5.94304835E+05  5.17814271E+05  8.22346035E+05  7.73425391E+05
  7.01825028E+05  5.23754919E+05  6.94638423E+05  6.08567325E+05  9.62159465E+05
  9.00584118E+05  8.19705544E+05  9.54875571E+05  5.42502534E+05  7.18991463E+05
  6.30925504E+05  9.96191545E+05  9.31115275E+05  8.48258258E+05  9.87370297E+05
  1.02073671E+06  4.46121722E+05  5.92438683E+05  5.17507491E+05  8.20152428E+05
  7.69642101E+05  6.99381362E+05  8.15855629E+05  8.43969952E+05  6.96551276E+05
  3.44374471E+04  4.69084694E+04  3.86646725E+04  6.42436358E+04  6.34160397E+04
  5.58085097E+04  6.69267216E+04  6.97998263E+04  5.63013422E+04  3.39005767E+03
  2.33261683E+04  3.19666529E+04  2.59855087E+04  4.36678042E+04  4.36276732E+04
  3.81023323E+04  4.59944574E+04  4.80619274E+04  3.85565555E+04  2.16218723E+03
  1.35510742E+03  1.16469347E+02  1.74176419E+02  1.15813907E+02  2.29317644E+02
  2.72118326E+02  2.13197010E+02  2.82631147E+02  3.03553352E+02  2.25372434E+02
  4.36660257E+00  2.07292270E+00  1.10360882E-05  3.19887757E+04  4.35368956E+04
  3.59538577E+04  5.96470418E+04  5.87815925E+04  5.17840911E+04  6.20446596E+04
  6.46910138E+04  5.22195041E+04  3.17496391E+03  2.02982706E+03  4.25484751E+00
  2.97255425E+03  9.46795083E+02  1.36475542E+03  9.87857350E+02  1.82491629E+03
  2.01475241E+03  1.65195713E+03  2.10567903E+03  2.23577481E+03  1.71458823E+03
  5.24570081E+01  2.81680913E+01  2.61760843E-03  5.02830284E+01  1.34728399E-01
%FLAG LENNARD_JONES_BCOEF                                                       
%FORMAT(5E16.8)                                                                 
  2.87011518E+02  3.52573684E+02  4.32634597E+02  3.67361018E+02  4.51916854E+02
  4.69350655E+02  5.04545572E+02  6.19405188E+02  6.46321327E+02  8.86629877E+02
  4.04310927E+02  4.95260330E+02  5.19385932E+02  7.09588248E+02  5.65406768E+02
  4.06301077E+02  4.98393522E+02  5.21008860E+02  7.13654906E+02  5.70234696E+02
  5.74088001E+02  4.34643024E+02  5.32518426E+02  5.58212938E+02  7.62907640E+02
  6.08126668E+02  6.13169384E+02  6.54052181E+02  4.38146883E+02  5.36620538E+02
  5.62969425E+02  7.68900328E+02  6.12468585E+02  6.17825399E+02  6.58763033E+02
  6.63431737E+02  3.88758656E+02  4.76608379E+02  4.98871431E+02  6.82622272E+02
  5.44830041E+02  5.48900066E+02  5.85909304E+02  5.90251928E+02  5.24668528E+02
  7.31636661E+01  9.08431526E+01  9.23664132E+01  1.29412081E+02  1.05935811E+02
  1.05029928E+02  1.13671113E+02  1.14981426E+02  1.01040256E+02  1.67944276E+01
  6.02145835E+01  7.49920368E+01  7.57220777E+01  1.06694109E+02  8.78666889E+01
  8.67837942E+01  9.42330147E+01  9.54115851E+01  8.36149973E+01  1.34124560E+01
  1.06181419E+01  2.93355636E+00  3.81654050E+00  3.48534600E+00  5.33073545E+00
  4.78443613E+00  4.47571103E+00  5.09294489E+00  5.22789272E+00  4.40751799E+00
  4.15568027E-01  2.86326700E-01  4.55498033E-04  6.61407978E+01  8.20891825E+01
  8.35449674E+01  1.16962018E+02  9.56653235E+01  9.48968218E+01  1.02658089E+02
  1.03827676E+02  9.12729468E+01  1.52447987E+01  1.21893856E+01  3.84771529E-01
  1.38359132E+01  1.01016461E+01  1.29026271E+01  1.22938581E+01  1.81620725E+01
  1.57231024E+01  1.50468782E+01  1.67892226E+01  1.71355763E+01  1.46824710E+01
  1.73959275E+00  1.27474859E+00  8.47240681E-03  1.59752321E+00  7.34107347E-02
%FLAG BONDS_INC_HYDROGEN                                                        
%FORMAT(10I8)                                                                   
       3      78       3       6      81       3       9      87       3      24
      90      14      27      93      16      27      96      16      30      60
      18      33      63      19      36      66      18      39      69      18
      42      72      21      42      75      21      48      84      23
%FLAG BONDS_WITHOUT_HYDROGEN                                                    
%FORMAT(10I8)                                                                   
       0      33       1       0      39       1       3      30       2       6
      36       2       9      42       4      12      54       5      15      33
       6      15      45       7      15      48       7      18      48       8
      18      51       9      21      45      10      21      57      11      24
      54      12      24      57      13      27      57      15      30      33
      17      30      36      17      36      39      17      39      42      20
      45      51      22      51      54      24
%FLAG ANGLES_INC_HYDROGEN                                                       
%FORMAT(10I8)                                                                   
       0      33      63       3       0      39      69       5       3      30
      60       7       6      36      66       7       9      42      72       9
       9      42      75       9      15      33      63      13      15      48
      84      17      18      48      84      18      30       3      78      26
      30      33      63      27      30      36      66      29      33      30
      60      29      36       6      81      26      36      30      60      29
      36      39      69      29      39      36      66      29      39      42
      72      33      39      42      75      33      42       9      87      34
      42      39      69      35      54      24      90      41      57      24
      90      42      57      27      93      43      57      27      96      43
      72      42      75      44      93      27      96      45
%FLAG ANGLES_WITHOUT_HYDROGEN                                                   
%FORMAT(10I8)                                                                   
       0      33      15       1       0      33      30       2       0      39
      36       2       0      39      42       4       3      30      33       6
       3      30      36       6       6      36      30       6       6      36
      39       6       9      42      39       8      12      54      24      10
      12      54      51      11      15      33      30      12      15      45
      21      14      15      45      51      15      15      48      18      16
      18      51      45      19      18      51      54      20      21      45
      51      21      21      57      24      22      21      57      27      23
      24      54      51      24      24      57      27      25      30      36
      39      28      33       0      39      30      33      15      45      31
      33      15      48      31      33      30      36      28      36      39
      42      32      45      15      48      36      45      21      57      37
      45      51      54      38      48      18      51      39      54      24
      57      40
%FLAG DIHEDRALS_INC_HYDROGEN                                                    
%FORMAT(10I8)                                                                   
       0      33      30      60       6       0      33     -30      60       7
       0      39      36      66       6       0      39     -36      66       7
       0      39      42      72       6       0      39     -42      72       7
       0      39      42      75       6       0      39     -42      75       7
       3      30      33      63       5       3      30      36      66       6
       3      30     -36      66       7       6      36      30      60       6
       6      36     -30      60       7       6      36      39      69       6
       6      36     -39      69       7       9      42      39      69       6
       9      42     -39      69       7      12      54      24      90      12
      12      54     -24      90      11      15      33      30      60       5
      21      57      24      90      19      21      57      27      93      20
      21      57      27      96      20      24      57      27      93      20
      24      57      27      96      20      27      57      24      90      19
      30      36       6      81      24      30      36      39      69       5
      33       0      39      69      26      33      15      48      84      18
      33      30       3      78      24      33      30      36      66       5
      36      30       3      78      24      36      30      33      63       5
      36      39      42      72       5      36      39      42      75       5
      39       0      33      63      27      39      36       6      81      24
      39      36      30      60       5      39      42       9      87      24
      42      39      36      66       5      45      15      33      63       1
      45      15      48      84      18      48      15      33      63       1
      51      18      48      84      16      51      54      24      90      11
      60      30       3      78      28      60      30      33      63       5
      60      30      36      66       5      66      36       6      81      28
      66      36      39      69       5      69      39      42      72       5
      69      39      42      75       5      72      42       9      87      28
      75      42       9      87      28      54      57     -24     -90      29
      57      93     -27     -96      29      84      15     -48     -18      29
%FLAG DIHEDRALS_WITHOUT_HYDROGEN                                                
%FORMAT(10I8)                                                                   
       0      33      15      45       1       0      33      15      48       1
       0      33      30       3       2       0      33     -30       3       3
       0      33     -30       3       4       0      33     -30      36       5
       0      39      36       6       2       0      39     -36       6       3
       0      39     -36       6       4       0      39     -36      30       5
       0      39      42       9       2       0      39     -42       9       3
       0      39     -42       9       4       3      30      33      15       5
       3      30      36       6       8       3      30     -36       6       9
       3      30      36      39      10       6      36      30      33      10
       6      36      39      42      10       9      42      39      36      10
      12      54      24      57      11      12      54      51      18      13
      12      54      51      45      13      39       0      33      15      14
      39       0     -33      15      15      15      33      30      36       5
      15      45      21      57      16      15      45     -51      18      17
      15      45      51      54      17      15      48     -18      51      16
      18      48      15      33      18      18      48     -15      45      18
      18      51      45      21      17      18      51      54      24      13
      21      45      15      33      18      21      45      15      48      18
      21      45      51      54      17      21      57     -24      54      19
      24      54      51      45      13      24      57     -21      45      16
      27      57      21      45      16      27      57      24      54      19
      39       0     -33      30      21      39       0     -33      30      22
      39       0     -33      30      23      30      33      15      45       1
      30      33      15      48       1      30      36      39      42      25
      33       0     -39      36      21      33       0     -39      36      22
      33       0     -39      36      23      33       0      39      42      21
      33       0     -39      42      22      33       0     -39      42      23
      33      15      45      51      18      33      30     -36      39      25
      45      51     -18      48      16      48      15     -45      51      18
      48      18      51      54      16      51      45      21      57      16
      51      54     -24      57      11      33      45     -15     -48      29
      51      15     -45     -21      29      54      45     -51     -18      29
      51      24     -54     -12      30      21      24     -57     -27      29
%FLAG EXCLUDED_ATOMS_LIST                                                       
%FORMAT(10I8)                                                                   
       2       3       4       6      11      12      13      14      15      16
      17      21      22      23      24      25      26       3       6      11
      12      13      14      21      22      23      27      11      12      13
      14      15      21      23      24      28      13      14      15      24
      25      26      30       7       9      16      18      19      20      31
       7       8      11      12      13      14      16      17      18      19
      20      21      22      29       8       9      12      16      17      18
      19      29       9      10      12      16      17      18      19      20
      31      32      33      10      16      18      19      20      31      32
      33      16      19      20      31      32      33      12      13      14
      15      16      17      21      22      23      24      27      28      13
      14      15      16      17      18      21      22      23      24      27
      29      14      15      21      22      23      24      25      26      27
      28      15      21      22      23      24      25      26      28      30
      23      24      25      26      30      17      18      19      20      22
      29      18      19      22      29      19      20      29      31      20
      31      31      32      33      22      23      27       0      24      28
      25      26      26      30      30       0       0       0       0       0
      33       0
%FLAG HBOND_ACOEF                                                               
%FORMAT(5E16.8)                                                                 

%FLAG HBOND_BCOEF                                                               
%FORMAT(5E16.8)                                                                 

%FLAG HBCUT                                                                     
%FORMAT(5E16.8)                                                                 

%FLAG AMBER_ATOM_TYPE                                                           
%FORMAT(20a4)                                                                   
os  oh  oh  oh  o   na  nc  nd  ns  nv  c5  c5  c5  c5  c3  cd  cd  cc  c   cc  
h1  h2  h1  h1  h1  h1  ho  ho  h5  ho  hn  hn  hn  
%FLAG TREE_CHAIN_CLASSIFICATION                                                 
%FORMAT(20a4)                                                                   
BLA BLA BLA BLA BLA BLA BLA BLA BLA BLA BLA BLA BLA BLA BLA BLA BLA BLA BLA BLA 
BLA BLA BLA BLA BLA BLA BLA BLA BLA BLA BLA BLA BLA 
%FLAG JOIN_ARRAY                                                                
%FORMAT(10I8)                                                                   
       0       0       0       0       0       0       0       0       0       0
       0       0       0       0       0       0       0       0       0       0
       0       0       0       0       0       0       0       0       0       0
       0       0       0
%FLAG IROTAT                                                                    
%FORMAT(10I8)                                                                   
       0       0       0       0       0       0       0       0       0       0
       0       0       0       0       0       0       0       0       0       0
       0       0       0       0       0       0       0       0       0       0
       0       0       0
%FLAG RADIUS_SET                                                                
%FORMAT(1a80)                                                                   
modified Bondi radii (mbondi)                                                   
%FLAG RADII                                                                     
%FORMAT(5E16.8)                                                                 
  1.50000000E+00  1.50000000E+00  1.50000000E+00  1.50000000E+00  1.50000000E+00
  1.55000000E+00  1.55000000E+00  1.55000000E+00  1.55000000E+00  1.55000000E+00
  1.70000000E+00  1.70000000E+00  1.70000000E+00  1.70000000E+00  1.70000000E+00
  1.70000000E+00  1.70000000E+00  1.70000000E+00  1.70000000E+00  1.70000000E+00
  1.30000000E+00  1.30000000E+00  1.30000000E+00  1.30000000E+00  1.30000000E+00
  1.30000000E+00  8.00000000E-01  8.00000000E-01  1.30000000E+00  8.00000000E-01
  1.30000000E+00  1.30000000E+00  1.30000000E+00
%FLAG SCREEN                                                                    
%FORMAT(5E16.8)                                                                 
  8.50000000E-01  8.50000000E-01  8.50000000E-01  8.50000000E-01  8.50000000E-01
  7.90000000E-01  7.90000000E-01  7.90000000E-01  7.90000000E-01  7.90000000E-01
  7.20000000E-01  7.20000000E-01  7.20000000E-01  7.20000000E-01  7.20000000E-01
  7.20000000E-01  7.20000000E-01  7.20000000E-01  7.20000000E-01  7.20000000E-01
  8.50000000E-01  8.50000000E-01  8.50000000E-01  8.50000000E-01  8.50000000E-01
  8.50000000E-01  8.50000000E-01  8.50000000E-01  8.50000000E-01  8.50000000E-01
  8.50000000E-01  8.50000000E-01  8.50000000E-01
%FLAG IPOL                                                                      
%FORMAT(1I8)                                                                    
       0
