; guanosine_GMX.itp created by acpype (v: 2023.10.27) on Mon Feb  9 17:46:18 2026

[ atomtypes ]
;name   bond_type     mass     charge   ptype   sigma         epsilon       Amb
 os       os          0.00000  0.00000   A     3.15610e-01   3.03758e-01 ; 1.77  0.0726
 oh       oh          0.00000  0.00000   A     3.24287e-01   3.89112e-01 ; 1.82  0.0930
 o        o           0.00000  0.00000   A     3.04812e-01   6.12119e-01 ; 1.71  0.1463
 na       na          0.00000  0.00000   A     3.20581e-01   8.54373e-01 ; 1.80  0.2042
 nc       nc          0.00000  0.00000   A     3.38417e-01   3.93714e-01 ; 1.90  0.0941
 nd       nd          0.00000  0.00000   A     3.38417e-01   3.93714e-01 ; 1.90  0.0941
 ns       ns          0.00000  0.00000   A     3.26995e-01   4.91202e-01 ; 1.84  0.1174
 nv       nv          0.00000  0.00000   A     3.36813e-01   4.68608e-01 ; 1.89  0.1120
 c5       c5          0.00000  0.00000   A     3.39771e-01   4.51035e-01 ; 1.91  0.1078
 c3       c3          0.00000  0.00000   A     3.39771e-01   4.51035e-01 ; 1.91  0.1078
 cd       cd          0.00000  0.00000   A     3.31521e-01   4.13379e-01 ; 1.86  0.0988
 cc       cc          0.00000  0.00000   A     3.31521e-01   4.13379e-01 ; 1.86  0.0988
 c        c           0.00000  0.00000   A     3.31521e-01   4.13379e-01 ; 1.86  0.0988
 h1       h1          0.00000  0.00000   A     2.42200e-01   8.70272e-02 ; 1.36  0.0208
 h2       h2          0.00000  0.00000   A     2.24382e-01   8.70272e-02 ; 1.26  0.0208
 ho       ho          0.00000  0.00000   A     5.37925e-02   1.96648e-02 ; 0.30  0.0047
 h5       h5          0.00000  0.00000   A     2.44730e-01   6.73624e-02 ; 1.37  0.0161
 hn       hn          0.00000  0.00000   A     1.10650e-01   4.18400e-02 ; 0.62  0.0100

[ moleculetype ]
;name            nrexcl
 guanosine        3

[ atoms ]
;   nr  type  resi  res  atom  cgnr     charge      mass       ; qtot   bond_type
     1   os     1    G1   O4*    1    -0.414600     16.00000 ; qtot -0.415
     2   oh     1    G1   O2*    2    -0.560800     16.00000 ; qtot -0.975
     3   oh     1    G1   O3*    3    -0.587800     16.00000 ; qtot -1.563
     4   oh     1    G1   O5*    4    -0.587800     16.00000 ; qtot -2.151
     5    o     1    G1    O6    5    -0.595500     16.00000 ; qtot -2.746
     6   na     1    G1    N9    6    -0.230900     14.01000 ; qtot -2.977
     7   nc     1    G1    N7    7    -0.582000     14.01000 ; qtot -3.559
     8   nd     1    G1    N3    8    -0.672100     14.01000 ; qtot -4.231
     9   ns     1    G1    N1    9    -0.509400     14.01000 ; qtot -4.741
    10   nv     1    G1    N2   10    -0.895800     14.01000 ; qtot -5.637
    11   c5     1    G1   C2*   11     0.132100     12.01000 ; qtot -5.505
    12   c5     1    G1   C1*   12     0.219800     12.01000 ; qtot -5.285
    13   c5     1    G1   C3*   13     0.082100     12.01000 ; qtot -5.203
    14   c5     1    G1   C4*   14     0.049100     12.01000 ; qtot -5.154
    15   c3     1    G1   C5*   15     0.111400     12.01000 ; qtot -5.042
    16   cd     1    G1    C4   16     0.112800     12.01000 ; qtot -4.929
    17   cd     1    G1    C8   17     0.402400     12.01000 ; qtot -4.527
    18   cc     1    G1    C5   18     0.176800     12.01000 ; qtot -4.350
    19    c     1    G1    C6   19     0.651000     12.01000 ; qtot -3.699
    20   cc     1    G1    C2   20     0.684800     12.01000 ; qtot -3.014
    21   h1     1    G1   H2*   21     0.114700      1.00800 ; qtot -2.900
    22   h2     1    G1   H1*   22     0.114700      1.00800 ; qtot -2.785
    23   h1     1    G1   H3*   23     0.067700      1.00800 ; qtot -2.717
    24   h1     1    G1   H4*   24     0.097700      1.00800 ; qtot -2.620
    25   h1     1    G1  H5*1   25     0.057700      1.00800 ; qtot -2.562
    26   h1     1    G1  H5*2   26     0.057700      1.00800 ; qtot -2.504
    27   ho     1    G1    H6   27     0.422000      1.00800 ; qtot -2.082
    28   ho     1    G1    H7   28     0.418000      1.00800 ; qtot -1.664
    29   h5     1    G1    H8   29     0.070100      1.00800 ; qtot -1.594
    30   ho     1    G1   H5*   30     0.412000      1.00800 ; qtot -1.182
    31   hn     1    G1    H1   31     0.335500      1.00800 ; qtot -0.847
    32   hn     1    G1   H21   32     0.423300      1.00800 ; qtot -0.423
    33   hn     1    G1   H22   33     0.423300      1.00800 ; qtot -0.000

[ bonds ]
;   ai     aj funct   r             k
     1     12   1    1.4346e-01    2.3063e+05 ;    O4* - C1*   
     1     14   1    1.4346e-01    2.3063e+05 ;    O4* - C4*   
     2     11   1    1.4194e-01    2.4241e+05 ;    O2* - C2*   
     2     27   1    9.7250e-02    4.4811e+05 ;    O2* - H6    
     3     13   1    1.4194e-01    2.4241e+05 ;    O3* - C3*   
     3     28   1    9.7250e-02    4.4811e+05 ;    O3* - H7    
     4     15   1    1.4242e-01    2.3861e+05 ;    O5* - C5*   
     4     30   1    9.7250e-02    4.4811e+05 ;    O5* - H5*   
     5     19   1    1.2190e-01    4.9421e+05 ;     O6 - C6    
     6     12   1    1.4571e-01    2.1790e+05 ;     N9 - C1*   
     6     16   1    1.3830e-01    2.7819e+05 ;     N9 - C4    
     6     17   1    1.3830e-01    2.7819e+05 ;     N9 - C8    
     7     17   1    1.3171e-01    3.4961e+05 ;     N7 - C8    
     7     18   1    1.3629e-01    2.9793e+05 ;     N7 - C5    
     8     16   1    1.3713e-01    2.8947e+05 ;     N3 - C4    
     8     20   1    1.3158e-01    3.5122e+05 ;     N3 - C2    
     9     19   1    1.3798e-01    2.8122e+05 ;     N1 - C6    
     9     20   1    1.3804e-01    2.8065e+05 ;     N1 - C2    
     9     31   1    1.0132e-01    3.9630e+05 ;     N1 - H1    
    10     20   1    1.3685e-01    2.9226e+05 ;     N2 - C2    
    10     32   1    1.0114e-01    3.9961e+05 ;     N2 - H21   
    10     33   1    1.0114e-01    3.9961e+05 ;     N2 - H22   
    11     12   1    1.5483e-01    1.8418e+05 ;    C2* - C1*   
    11     13   1    1.5483e-01    1.8418e+05 ;    C2* - C3*   
    11     21   1    1.0972e-01    2.8768e+05 ;    C2* - H2*   
    12     22   1    1.0955e-01    2.8977e+05 ;    C1* - H1*   
    13     14   1    1.5483e-01    1.8418e+05 ;    C3* - C4*   
    13     23   1    1.0972e-01    2.8768e+05 ;    C3* - H3*   
    14     15   1    1.5372e-01    1.9049e+05 ;    C4* - C5*   
    14     24   1    1.0972e-01    2.8768e+05 ;    C4* - H4*   
    15     25   1    1.0969e-01    2.8804e+05 ;    C5* - H5*1  
    15     26   1    1.0969e-01    2.8804e+05 ;    C5* - H5*2  
    16     18   1    1.3730e-01    3.2321e+05 ;     C4 - C5    
    17     29   1    1.0821e-01    3.0695e+05 ;     C8 - H8    
    18     19   1    1.4687e-01    2.3579e+05 ;     C5 - C6    

[ pairs ]
;   ai     aj    funct
     1      2      1 ;    O4* - O2*   
     1      3      1 ;    O4* - O3*   
     1      4      1 ;    O4* - O5*   
     1     16      1 ;    O4* - C4    
     1     17      1 ;    O4* - C8    
     1     21      1 ;    O4* - H2*   
     1     23      1 ;    O4* - H3*   
     1     25      1 ;    O4* - H5*1  
     1     26      1 ;    O4* - H5*2  
     2      3      1 ;    O2* - O3*   
     2      6      1 ;    O2* - N9    
     2     14      1 ;    O2* - C4*   
     2     22      1 ;    O2* - H1*   
     2     23      1 ;    O2* - H3*   
     3     12      1 ;    O3* - C1*   
     3     15      1 ;    O3* - C5*   
     3     21      1 ;    O3* - H2*   
     3     24      1 ;    O3* - H4*   
     4     13      1 ;    O5* - C3*   
     4     24      1 ;    O5* - H4*   
     5      7      1 ;     O6 - N7    
     5     16      1 ;     O6 - C4    
     5     20      1 ;     O6 - C2    
     5     31      1 ;     O6 - H1    
     6     13      1 ;     N9 - C3*   
     6     19      1 ;     N9 - C6    
     6     20      1 ;     N9 - C2    
     6     21      1 ;     N9 - H2*   
     7      8      1 ;     N7 - N3    
     7      9      1 ;     N7 - N1    
     7     12      1 ;     N7 - C1*   
     8     12      1 ;     N3 - C1*   
     8     17      1 ;     N3 - C8    
     8     19      1 ;     N3 - C6    
     8     31      1 ;     N3 - H1    
     8     32      1 ;     N3 - H21   
     8     33      1 ;     N3 - H22   
     9     16      1 ;     N1 - C4    
     9     32      1 ;     N1 - H21   
     9     33      1 ;     N1 - H22   
    10     16      1 ;     N2 - C4    
    10     19      1 ;     N2 - C6    
    10     31      1 ;     N2 - H1    
    11     15      1 ;    C2* - C5*   
    11     16      1 ;    C2* - C4    
    11     17      1 ;    C2* - C8    
    11     24      1 ;    C2* - H4*   
    11     28      1 ;    C2* - H7    
    12     15      1 ;    C1* - C5*   
    12     18      1 ;    C1* - C5    
    12     23      1 ;    C1* - H3*   
    12     24      1 ;    C1* - H4*   
    12     27      1 ;    C1* - H6    
    12     29      1 ;    C1* - H8    
    13     22      1 ;    C3* - H1*   
    13     25      1 ;    C3* - H5*1  
    13     26      1 ;    C3* - H5*2  
    13     27      1 ;    C3* - H6    
    14      6      1 ;    C4* - N9    
    14     21      1 ;    C4* - H2*   
    14     22      1 ;    C4* - H1*   
    14     28      1 ;    C4* - H7    
    14     30      1 ;    C4* - H5*   
    15     23      1 ;    C5* - H3*   
    16     22      1 ;     C4 - H1*   
    16     29      1 ;     C4 - H8    
    17     19      1 ;     C8 - C6    
    17     22      1 ;     C8 - H1*   
    18     20      1 ;     C5 - C2    
    18     29      1 ;     C5 - H8    
    18     31      1 ;     C5 - H1    
    21     22      1 ;    H2* - H1*   
    21     23      1 ;    H2* - H3*   
    21     27      1 ;    H2* - H6    
    23     24      1 ;    H3* - H4*   
    23     28      1 ;    H3* - H7    
    24     25      1 ;    H4* - H5*1  
    24     26      1 ;    H4* - H5*2  
    25     30      1 ;   H5*1 - H5*   
    26     30      1 ;   H5*2 - H5*   

[ angles ]
;   ai     aj     ak    funct   theta         cth
     1     12      6      1    1.0927e+02    7.0124e+02 ;    O4* - C1*    - N9    
     1     12     11      1    1.0614e+02    6.4793e+02 ;    O4* - C1*    - C2*   
     1     12     22      1    1.0947e+02    4.7028e+02 ;    O4* - C1*    - H1*   
     1     14     13      1    1.0614e+02    6.4793e+02 ;    O4* - C4*    - C3*   
     1     14     15      1    1.0897e+02    6.4224e+02 ;    O4* - C4*    - C5*   
     1     14     24      1    1.0846e+02    4.7229e+02 ;    O4* - C4*    - H4*   
     2     11     12      1    1.1162e+02    6.3455e+02 ;    O2* - C2*    - C1*   
     2     11     13      1    1.1162e+02    6.3455e+02 ;    O2* - C2*    - C3*   
     2     11     21      1    1.1027e+02    4.7254e+02 ;    O2* - C2*    - H2*   
     3     13     11      1    1.1162e+02    6.3455e+02 ;    O3* - C3*    - C2*   
     3     13     14      1    1.1162e+02    6.3455e+02 ;    O3* - C3*    - C4*   
     3     13     23      1    1.1027e+02    4.7254e+02 ;    O3* - C3*    - H3*   
     4     15     14      1    1.0985e+02    6.4157e+02 ;    O5* - C5*    - C4*   
     4     15     25      1    1.1038e+02    4.7103e+02 ;    O5* - C5*    - H5*1  
     4     15     26      1    1.1038e+02    4.7103e+02 ;    O5* - C5*    - H5*2  
     5     19      9      1    1.2305e+02    7.2977e+02 ;     O6 - C6     - N1    
     5     19     18      1    1.2406e+02    6.5572e+02 ;     O6 - C6     - C5    
     6     12     11      1    1.1485e+02    5.3714e+02 ;     N9 - C1*    - C2*   
     6     12     22      1    1.0616e+02    4.0911e+02 ;     N9 - C1*    - H1*   
     6     16      8      1    1.2113e+02    6.0693e+02 ;     N9 - C4     - N3    
     6     16     18      1    1.0899e+02    6.0241e+02 ;     N9 - C4     - C5    
     6     17      7      1    1.1302e+02    6.4024e+02 ;     N9 - C8     - N7    
     6     17     29      1    1.2083e+02    4.0116e+02 ;     N9 - C8     - H8    
     7     17     29      1    1.2529e+02    4.0911e+02 ;     N7 - C8     - H8    
     7     18     16      1    1.1799e+02    5.8325e+02 ;     N7 - C5     - C4    
     7     18     19      1    1.2319e+02    5.4994e+02 ;     N7 - C5     - C6    
     8     16     18      1    1.1158e+02    5.9789e+02 ;     N3 - C4     - C5    
     8     20      9      1    1.2262e+02    6.1555e+02 ;     N3 - C2     - N1    
     8     20     10      1    1.2215e+02    6.1973e+02 ;     N3 - C2     - N2    
     9     19     18      1    1.1288e+02    5.7162e+02 ;     N1 - C6     - C5    
     9     20     10      1    1.1707e+02    6.1856e+02 ;     N1 - C2     - N2    
    11      2     27      1    1.0717e+02    5.4727e+02 ;    C2* - O2*    - H6    
    11     12     22      1    1.1053e+02    3.5798e+02 ;    C2* - C1*    - H1*   
    11     13     14      1    1.0383e+02    5.1748e+02 ;    C2* - C3*    - C4*   
    11     13     23      1    1.1117e+02    3.5690e+02 ;    C2* - C3*    - H3*   
    12      1     14      1    1.0926e+02    7.4986e+02 ;    C1* - O4*    - C4*   
    12      6     16      1    1.2654e+02    6.3078e+02 ;    C1* - N9     - C4    
    12      6     17      1    1.2654e+02    6.3078e+02 ;    C1* - N9     - C8    
    12     11     13      1    1.0383e+02    5.1748e+02 ;    C1* - C2*    - C3*   
    12     11     21      1    1.1117e+02    3.5690e+02 ;    C1* - C2*    - H2*   
    13      3     28      1    1.0717e+02    5.4727e+02 ;    C3* - O3*    - H7    
    13     11     21      1    1.1117e+02    3.5690e+02 ;    C3* - C2*    - H2*   
    13     14     15      1    1.1360e+02    4.9647e+02 ;    C3* - C4*    - C5*   
    13     14     24      1    1.1117e+02    3.5690e+02 ;    C3* - C4*    - H4*   
    14     13     23      1    1.1117e+02    3.5690e+02 ;    C4* - C3*    - H3*   
    14     15     25      1    1.0938e+02    3.6217e+02 ;    C4* - C5*    - H5*1  
    14     15     26      1    1.0938e+02    3.6217e+02 ;    C4* - C5*    - H5*2  
    15      4     30      1    1.0739e+02    5.4501e+02 ;    C5* - O5*    - H5*   
    15     14     24      1    1.0924e+02    3.6242e+02 ;    C5* - C4*    - H4*   
    16      6     17      1    1.1090e+02    6.9279e+02 ;     C4 - N9     - C8    
    16      8     20      1    1.0537e+02    7.3094e+02 ;     C4 - N3     - C2    
    16     18     19      1    1.2132e+02    5.2049e+02 ;     C4 - C5     - C6    
    17      7     18      1    1.0915e+02    7.2032e+02 ;     C8 - N7     - C5    
    19      9     20      1    1.2518e+02    6.5346e+02 ;     C6 - N1     - C2    
    19      9     31      1    1.1726e+02    4.8007e+02 ;     C6 - N1     - H1    
    20      9     31      1    1.1891e+02    4.7656e+02 ;     C2 - N1     - H1    
    20     10     32      1    1.1650e+02    4.8526e+02 ;     C2 - N2     - H21   
    20     10     33      1    1.1650e+02    4.8526e+02 ;     C2 - N2     - H22   
    25     15     26      1    1.0855e+02    2.9824e+02 ;   H5*1 - C5*    - H5*2  
    32     10     33      1    1.1528e+02    3.8794e+02 ;    H21 - N2     - H22   

[ dihedrals ] ; propers
; for gromacs 4.5 or higher, using funct 9
;    i      j      k      l   func   phase     kd      pn
     1     12      6     16      9     0.00   0.00000   0 ;    O4*-   C1*-    N9-    C4
     1     12      6     17      9     0.00   0.00000   0 ;    O4*-   C1*-    N9-    C8
     1     12     11      2      9     0.00   2.46856   1 ;    O4*-   C1*-   C2*-   O2*
     1     12     11      2      9     0.00   3.30536   3 ;    O4*-   C1*-   C2*-   O2*
     1     12     11      2      9     0.00   5.27184   2 ;    O4*-   C1*-   C2*-   O2*
     1     12     11     13      9     0.00   0.65084   3 ;    O4*-   C1*-   C2*-   C3*
     1     12     11     21      9     0.00   0.00000   0 ;    O4*-   C1*-   C2*-   H2*
     1     12     11     21      9     0.00   1.04600   1 ;    O4*-   C1*-   C2*-   H2*
     1     14     13      3      9     0.00   2.46856   1 ;    O4*-   C4*-   C3*-   O3*
     1     14     13      3      9     0.00   3.30536   3 ;    O4*-   C4*-   C3*-   O3*
     1     14     13      3      9     0.00   5.27184   2 ;    O4*-   C4*-   C3*-   O3*
     1     14     13     11      9     0.00   0.65084   3 ;    O4*-   C4*-   C3*-   C2*
     1     14     13     23      9     0.00   0.00000   0 ;    O4*-   C4*-   C3*-   H3*
     1     14     13     23      9     0.00   1.04600   1 ;    O4*-   C4*-   C3*-   H3*
     1     14     15      4      9     0.00   2.46856   1 ;    O4*-   C4*-   C5*-   O5*
     1     14     15      4      9     0.00   3.30536   3 ;    O4*-   C4*-   C5*-   O5*
     1     14     15      4      9     0.00   5.27184   2 ;    O4*-   C4*-   C5*-   O5*
     1     14     15     25      9     0.00   0.00000   0 ;    O4*-   C4*-   C5*-  H5*1
     1     14     15     25      9     0.00   1.04600   1 ;    O4*-   C4*-   C5*-  H5*1
     1     14     15     26      9     0.00   0.00000   0 ;    O4*-   C4*-   C5*-  H5*2
     1     14     15     26      9     0.00   1.04600   1 ;    O4*-   C4*-   C5*-  H5*2
     2     11     12      6      9     0.00   0.65084   3 ;    O2*-   C2*-   C1*-    N9
     2     11     12     22      9     0.00   0.65084   3 ;    O2*-   C2*-   C1*-   H1*
     2     11     13      3      9     0.00   4.18400   1 ;    O2*-   C2*-   C3*-   O3*
     2     11     13      3      9     0.00   6.02496   3 ;    O2*-   C2*-   C3*-   O3*
     2     11     13     14      9     0.00   0.75312   3 ;    O2*-   C2*-   C3*-   C4*
     2     11     13     23      9     0.00   0.00000   0 ;    O2*-   C2*-   C3*-   H3*
     2     11     13     23      9     0.00   1.04600   1 ;    O2*-   C2*-   C3*-   H3*
     3     13     11     12      9     0.00   0.75312   3 ;    O3*-   C3*-   C2*-   C1*
     3     13     11     21      9     0.00   0.00000   0 ;    O3*-   C3*-   C2*-   H2*
     3     13     11     21      9     0.00   1.04600   1 ;    O3*-   C3*-   C2*-   H2*
     3     13     14     15      9     0.00   0.75312   3 ;    O3*-   C3*-   C4*-   C5*
     3     13     14     24      9     0.00   0.00000   0 ;    O3*-   C3*-   C4*-   H4*
     3     13     14     24      9     0.00   1.04600   1 ;    O3*-   C3*-   C4*-   H4*
     4     15     14     13      9     0.00   0.75312   3 ;    O5*-   C5*-   C4*-   C3*
     4     15     14     24      9     0.00   0.00000   0 ;    O5*-   C5*-   C4*-   H4*
     4     15     14     24      9     0.00   1.04600   1 ;    O5*-   C5*-   C4*-   H4*
     5     19      9     20      9   180.00  10.46000   2 ;     O6-    C6-    N1-    C2
     5     19      9     31      9     0.00   8.36800   1 ;     O6-    C6-    N1-    H1
     5     19      9     31      9   180.00  10.46000   2 ;     O6-    C6-    N1-    H1
     5     19     18      7      9   180.00  12.02900   2 ;     O6-    C6-    C5-    N7
     5     19     18     16      9   180.00  12.02900   2 ;     O6-    C6-    C5-    C4
     6     12     11     13      9     0.00   0.65084   3 ;     N9-   C1*-   C2*-   C3*
     6     12     11     21      9     0.00   0.65084   3 ;     N9-   C1*-   C2*-   H2*
     6     16      8     20      9   180.00  19.87400   2 ;     N9-    C4-    N3-    C2
     6     16     18      7      9   180.00  16.73600   2 ;     N9-    C4-    C5-    N7
     6     16     18     19      9   180.00  16.73600   2 ;     N9-    C4-    C5-    C6
     6     17      7     18      9   180.00  19.87400   2 ;     N9-    C8-    N7-    C5
     7     17      6     12      9   180.00   7.11280   2 ;     N7-    C8-    N9-   C1*
     7     17      6     16      9   180.00   7.11280   2 ;     N7-    C8-    N9-    C4
     7     18     16      8      9   180.00  16.73600   2 ;     N7-    C5-    C4-    N3
     7     18     19      9      9   180.00  12.02900   2 ;     N7-    C5-    C6-    N1
     8     16      6     12      9   180.00   7.11280   2 ;     N3-    C4-    N9-   C1*
     8     16      6     17      9   180.00   7.11280   2 ;     N3-    C4-    N9-    C8
     8     16     18     19      9   180.00  16.73600   2 ;     N3-    C4-    C5-    C6
     8     20      9     19      9   180.00   6.90360   2 ;     N3-    C2-    N1-    C6
     8     20      9     31      9   180.00   6.90360   2 ;     N3-    C2-    N1-    H1
     8     20     10     32      9   180.00   4.39320   2 ;     N3-    C2-    N2-   H21
     8     20     10     33      9   180.00   4.39320   2 ;     N3-    C2-    N2-   H22
     9     19     18     16      9   180.00  12.02900   2 ;     N1-    C6-    C5-    C4
     9     20      8     16      9   180.00  19.87400   2 ;     N1-    C2-    N3-    C4
     9     20     10     32      9   180.00   4.39320   2 ;     N1-    C2-    N2-   H21
     9     20     10     33      9   180.00   4.39320   2 ;     N1-    C2-    N2-   H22
    10     20      8     16      9   180.00  19.87400   2 ;     N2-    C2-    N3-    C4
    10     20      9     19      9   180.00   6.90360   2 ;     N2-    C2-    N1-    C6
    10     20      9     31      9   180.00   6.90360   2 ;     N2-    C2-    N1-    H1
    11     12      6     16      9     0.00   0.00000   0 ;    C2*-   C1*-    N9-    C4
    11     12      6     17      9     0.00   0.00000   0 ;    C2*-   C1*-    N9-    C8
    11     13      3     28      9     0.00   0.25104   3 ;    C2*-   C3*-   O3*-    H7
    11     13     14     15      9     0.00   2.17568   3 ;    C2*-   C3*-   C4*-   C5*
    11     13     14     24      9     0.00   0.65084   3 ;    C2*-   C3*-   C4*-   H4*
    12      1     14     13      9     0.00   0.33472   2 ;    C1*-   O4*-   C4*-   C3*
    12      1     14     13      9     0.00   3.13800   3 ;    C1*-   O4*-   C4*-   C3*
    12      1     14     13      9   180.00   3.68192   1 ;    C1*-   O4*-   C4*-   C3*
    12      1     14     15      9     0.00   0.33472   2 ;    C1*-   O4*-   C4*-   C5*
    12      1     14     15      9     0.00   3.13800   3 ;    C1*-   O4*-   C4*-   C5*
    12      1     14     15      9   180.00   3.68192   1 ;    C1*-   O4*-   C4*-   C5*
    12      1     14     24      9     0.00   1.41001   3 ;    C1*-   O4*-   C4*-   H4*
    12      6     16     18      9   180.00   7.11280   2 ;    C1*-    N9-    C4-    C5
    12      6     17     29      9   180.00   7.11280   2 ;    C1*-    N9-    C8-    H8
    12     11      2     27      9     0.00   0.25104   3 ;    C1*-   C2*-   O2*-    H6
    12     11     13     14      9     0.00   2.17568   3 ;    C1*-   C2*-   C3*-   C4*
    12     11     13     23      9     0.00   0.65084   3 ;    C1*-   C2*-   C3*-   H3*
    13     11      2     27      9     0.00   0.25104   3 ;    C3*-   C2*-   O2*-    H6
    13     11     12     22      9     0.00   0.65084   3 ;    C3*-   C2*-   C1*-   H1*
    13     14     15     25      9     0.00   0.65084   3 ;    C3*-   C4*-   C5*-  H5*1
    13     14     15     26      9     0.00   0.65084   3 ;    C3*-   C4*-   C5*-  H5*2
    14      1     12      6      9     0.00   1.60247   3 ;    C4*-   O4*-   C1*-    N9
    14      1     12      6      9     0.00   2.71960   2 ;    C4*-   O4*-   C1*-    N9
    14      1     12     11      9     0.00   0.33472   2 ;    C4*-   O4*-   C1*-   C2*
    14      1     12     11      9     0.00   3.13800   3 ;    C4*-   O4*-   C1*-   C2*
    14      1     12     11      9   180.00   3.68192   1 ;    C4*-   O4*-   C1*-   C2*
    14      1     12     22      9     0.00   1.60387   3 ;    C4*-   O4*-   C1*-   H1*
    14     13      3     28      9     0.00   0.25104   3 ;    C4*-   C3*-   O3*-    H7
    14     13     11     21      9     0.00   0.65084   3 ;    C4*-   C3*-   C2*-   H2*
    14     15      4     30      9     0.00   0.25104   3 ;    C4*-   C5*-   O5*-   H5*
    15     14     13     23      9     0.00   0.65084   3 ;    C5*-   C4*-   C3*-   H3*
    16      6     12     22      9     0.00   0.00000   0 ;     C4-    N9-   C1*-   H1*
    16      6     17     29      9   180.00   7.11280   2 ;     C4-    N9-    C8-    H8
    16     18      7     17      9   180.00  19.87400   2 ;     C4-    C5-    N7-    C8
    17      6     12     22      9     0.00   0.00000   0 ;     C8-    N9-   C1*-   H1*
    17      6     16     18      9   180.00   7.11280   2 ;     C8-    N9-    C4-    C5
    17      7     18     19      9   180.00  19.87400   2 ;     C8-    N7-    C5-    C6
    18      7     17     29      9   180.00  19.87400   2 ;     C5-    N7-    C8-    H8
    18     16      8     20      9   180.00  19.87400   2 ;     C5-    C4-    N3-    C2
    18     19      9     20      9   180.00  10.46000   2 ;     C5-    C6-    N1-    C2
    18     19      9     31      9   180.00  10.46000   2 ;     C5-    C6-    N1-    H1
    21     11      2     27      9     0.00   0.51463   3 ;    H2*-   C2*-   O2*-    H6
    21     11     12     22      9     0.00   0.65084   3 ;    H2*-   C2*-   C1*-   H1*
    21     11     13     23      9     0.00   0.65084   3 ;    H2*-   C2*-   C3*-   H3*
    23     13      3     28      9     0.00   0.51463   3 ;    H3*-   C3*-   O3*-    H7
    23     13     14     24      9     0.00   0.65084   3 ;    H3*-   C3*-   C4*-   H4*
    24     14     15     25      9     0.00   0.65084   3 ;    H4*-   C4*-   C5*-  H5*1
    24     14     15     26      9     0.00   0.65084   3 ;    H4*-   C4*-   C5*-  H5*2
    25     15      4     30      9     0.00   0.51463   3 ;   H5*1-   C5*-   O5*-   H5*
    26     15      4     30      9     0.00   0.51463   3 ;   H5*2-   C5*-   O5*-   H5*

[ dihedrals ] ; impropers
; treated as propers in GROMACS to use correct AMBER analytical function
;    i      j      k      l   func   phase     kd      pn
     8      9     20     10      4   180.00   4.60240   2 ;     N3-    N1-    C2-    N2
    12     16      6     17      4   180.00   4.60240   2 ;    C1*-    C4-    N9-    C8
    18      6     16      8      4   180.00   4.60240   2 ;     C5-    N9-    C4-    N3
    18      9     19      5      4   180.00  43.93200   2 ;     C5-    N1-    C6-    O6
    19     16     18      7      4   180.00   4.60240   2 ;     C6-    C4-    C5-    N7
    19     20      9     31      4   180.00   4.60240   2 ;     C6-    C2-    N1-    H1
    20     32     10     33      4   180.00   4.60240   2 ;     C2-   H21-    N2-   H22
    29      6     17      7      4   180.00   4.60240   2 ;     H8-    N9-    C8-    N7
