135398635
    33
   2.2520000   0.3950000   1.0060000   1.2060000  -2.1540000  -1.3160000
   3.4190000  -2.3130000   0.3110000   4.1920000   2.3590000   0.5280000
  -4.2510000   1.9350000  -0.4360000  -0.0310000   0.4280000   0.1410000
  -1.2970000   2.2150000  -0.3150000  -1.7360000  -1.2700000   0.3970000
  -3.9100000  -0.3210000   0.0640000  -3.6600000  -2.6080000   0.5640000
   1.8210000  -0.9550000  -0.8900000   1.2120000  -0.3930000   0.3900000
   3.2720000  -1.1430000  -0.4920000   3.5210000   0.0710000   0.3950000
   4.0020000   1.2890000  -0.3810000  -1.3230000  -0.0070000   0.1540000
  -0.0660000   1.7710000  -0.1460000  -2.0730000   1.1090000  -0.1280000
  -3.5040000   0.9960000  -0.1910000  -3.0440000  -1.4030000   0.3460000
   1.7460000  -0.2230000  -1.7040000   0.9080000  -1.1770000   1.0950000
   3.9490000  -1.2340000  -1.3460000   4.2160000  -0.1450000   1.2140000
   3.2640000   1.6110000  -1.1220000   4.9510000   1.0820000  -0.8830000
   1.7210000  -2.4960000  -2.0660000   4.3550000  -2.3710000   0.5700000
   0.8300000   2.3710000  -0.2220000   4.5010000   3.1230000   0.0110000
  -4.9080000  -0.5130000   0.0440000  -3.1230000  -3.4430000   0.7730000
  -4.6690000  -2.7010000   0.5220000
