ibuprofen_GMX.gro created by acpype (v: 2023.10.27) on Mon Feb  9 17:47:32 2026
 33
    1  UNL    O    1  -0.445  -0.100   0.041
    1  UNL   O1    2  -0.240  -0.191   0.005
    1  UNL    C    3   0.390  -0.044   0.004
    1  UNL   C1    4   0.315   0.082  -0.043
    1  UNL   C2    5   0.165   0.074  -0.025
    1  UNL   C3    6  -0.110   0.059   0.009
    1  UNL   C4    7  -0.257   0.052   0.027
    1  UNL   C5    8   0.361  -0.078   0.150
    1  UNL   C6    9   0.352  -0.163  -0.085
    1  UNL   C7   10   0.087   0.023  -0.127
    1  UNL   C8   11   0.109   0.118   0.094
    1  UNL   C9   12  -0.051   0.015  -0.110
    1  UNL  C10   13  -0.029   0.111   0.111
    1  UNL  C11   14  -0.337   0.135  -0.075
    1  UNL  C12   15  -0.310  -0.092   0.023
    1  UNL    H   16   0.498  -0.025  -0.007
    1  UNL   H1   17   0.338   0.102  -0.149
    1  UNL   H2   18   0.353   0.169   0.012
    1  UNL   H3   19  -0.282   0.089   0.127
    1  UNL   H4   20   0.258  -0.112   0.166
    1  UNL   H5   21   0.380   0.009   0.215
    1  UNL   H6   22   0.427  -0.159   0.184
    1  UNL   H7   23   0.418  -0.248  -0.063
    1  UNL   H8   24   0.250  -0.197  -0.069
    1  UNL   H9   25   0.365  -0.139  -0.191
    1  UNL  H10   26   0.131  -0.011  -0.220
    1  UNL  H11   27   0.170   0.159   0.174
    1  UNL  H12   28  -0.112  -0.025  -0.191
    1  UNL  H13   29  -0.073   0.145   0.204
    1  UNL  H14   30  -0.300   0.238  -0.078
    1  UNL  H15   31  -0.330   0.093  -0.176
    1  UNL  H16   32  -0.444   0.139  -0.048
    1  UNL  H17   33  -0.476  -0.193   0.038
   19.48400     9.72000     8.70000
