3672
    33
  -4.4460000  -1.0030000   0.4110000  -2.4010000  -1.9110000   0.0530000
   3.9020000  -0.4410000   0.0360000   3.1490000   0.8190000  -0.4310000
   1.6530000   0.7390000  -0.2470000  -1.0950000   0.5940000   0.0900000
  -2.5730000   0.5150000   0.2720000   3.6080000  -0.7760000   1.5000000
   3.5240000  -1.6300000  -0.8510000   0.8690000   0.2280000  -1.2700000
   1.0900000   1.1790000   0.9410000  -0.5130000   0.1550000  -1.1000000
  -0.2930000   1.1060000   1.1100000  -3.3740000   1.3490000  -0.7490000
  -3.1000000  -0.9230000   0.2330000   4.9780000  -0.2530000  -0.0730000
   3.3790000   1.0240000  -1.4850000   3.5300000   1.6910000   0.1180000
  -2.8240000   0.8900000   1.2740000   2.5790000  -1.1170000   1.6570000
   3.7960000   0.0880000   2.1460000   4.2660000  -1.5850000   1.8370000
   4.1780000  -2.4810000  -0.6300000   2.4960000  -1.9690000  -0.6860000
   3.6490000  -1.3890000  -1.9110000   1.3080000  -0.1100000  -2.2040000
   1.7020000   1.5850000   1.7400000  -1.1210000  -0.2450000  -1.9070000
  -0.7290000   1.4530000   2.0430000  -3.0010000   2.3790000  -0.7840000
  -3.3030000   0.9290000  -1.7580000  -4.4360000   1.3890000  -0.4830000
  -4.7640000  -1.9310000   0.3780000
