%VERSION  VERSION_STAMP = V0001.000  DATE = 02/09/26  17:47:50                  
%FLAG TITLE                                                                     
%FORMAT(20a4)                                                                   
3672                                                                            
%FLAG POINTERS                                                                  
%FORMAT(10I8)                                                                   
      33       7      18      15      38      20      66      27       0       0
     175       1      15      20      27       9      15      17       8       0
       0       0       0       0       0       0       0       0      33       0
       0
%FLAG ATOM_NAME                                                                 
%FORMAT(20a4)                                                                   
O   O1  C   C1  C2  C3  C4  C5  C6  C7  C8  C9  C10 C11 C12 H   H1  H2  H3  H4  
H5  H6  H7  H8  H9  H10 H11 H12 H13 H14 H15 H16 H17 
%FLAG CHARGE                                                                    
%FORMAT(5E16.8)                                                                 
 -1.10627583E+01 -1.00769319E+01 -1.08787131E+00 -6.57825030E-01 -1.15347159E+00
 -1.80947439E+00 -1.00951542E+00 -1.69649613E+00 -1.69649613E+00 -2.35978785E+00
 -2.35978785E+00 -2.06823105E+00 -2.06823105E+00 -1.64182923E+00  1.16823165E+01
  7.96314510E-01  8.78314860E-01  8.78314860E-01  1.56165111E+00  6.56604136E-01
  6.56604136E-01  6.56604136E-01  6.56604136E-01  6.56604136E-01  6.56604136E-01
  2.46001050E+00  2.46001050E+00  2.60578890E+00  2.60578890E+00  9.29938636E-01
  9.29938636E-01  9.29938636E-01  8.07247890E+00
%FLAG ATOMIC_NUMBER                                                             
%FORMAT(10I8)                                                                   
       8       8       6       6       6       6       6       6       6       6
       6       6       6       6       6       1       1       1       1       1
       1       1       1       1       1       1       1       1       1       1
       1       1       1
%FLAG MASS                                                                      
%FORMAT(5E16.8)                                                                 
  1.60000000E+01  1.60000000E+01  1.20100000E+01  1.20100000E+01  1.20100000E+01
  1.20100000E+01  1.20100000E+01  1.20100000E+01  1.20100000E+01  1.20100000E+01
  1.20100000E+01  1.20100000E+01  1.20100000E+01  1.20100000E+01  1.20100000E+01
  1.00800000E+00  1.00800000E+00  1.00800000E+00  1.00800000E+00  1.00800000E+00
  1.00800000E+00  1.00800000E+00  1.00800000E+00  1.00800000E+00  1.00800000E+00
  1.00800000E+00  1.00800000E+00  1.00800000E+00  1.00800000E+00  1.00800000E+00
  1.00800000E+00  1.00800000E+00  1.00800000E+00
%FLAG ATOM_TYPE_INDEX                                                           
%FORMAT(10I8)                                                                   
       1       2       3       3       4       4       3       3       3       4
       4       4       4       3       4       5       5       5       5       5
       5       5       5       5       5       6       6       6       6       5
       5       5       7
%FLAG NUMBER_EXCLUDED_ATOMS                                                     
%FORMAT(10I8)                                                                   
       7       6      15      18      14      15      13      10       9       8
       7       7       6       5       5       8       1       1       3       2
       1       1       2       1       1       1       1       1       1       2
       1       1       1
%FLAG NONBONDED_PARM_INDEX                                                      
%FORMAT(10I8)                                                                   
       1       2       4       7      11      16      22       2       3       5
       8      12      17      23       4       5       6       9      13      18
      24       7       8       9      10      14      19      25      11      12
      13      14      15      20      26      16      17      18      19      20
      21      27      22      23      24      25      26      27      28
%FLAG RESIDUE_LABEL                                                             
%FORMAT(20a4)                                                                   
UNL 
%FLAG RESIDUE_POINTER                                                           
%FORMAT(10I8)                                                                   
       1
%FLAG BOND_FORCE_CONSTANT                                                       
%FORMAT(5E16.8)                                                                 
  3.59270000E+02  5.35510000E+02  5.90600000E+02  2.28890000E+02  3.45250000E+02
  2.43910000E+02  3.54250000E+02  2.34850000E+02  3.60690000E+02
%FLAG BOND_EQUIL_VALUE                                                          
%FORMAT(5E16.8)                                                                 
  1.35560000E+00  9.72500000E-01  1.21900000E+00  1.53540000E+00  1.09620000E+00
  1.51470000E+00  1.39860000E+00  1.52700000E+00  1.08600000E+00
%FLAG ANGLE_FORCE_CONSTANT                                                      
%FORMAT(5E16.8)                                                                 
  1.02030000E+02  7.74200000E+01  7.64500000E+01  6.03300000E+01  4.32700000E+01
  5.98700000E+01  6.07400000E+01  4.36100000E+01  6.36700000E+01  4.49000000E+01
  6.08400000E+01  6.03600000E+01  6.84600000E+01  4.36300000E+01  3.58000000E+01
%FLAG ANGLE_EQUIL_VALUE                                                         
%FORMAT(5E16.8)                                                                 
  2.13087340E+00  1.96768504E+00  2.14501057E+00  1.96209999E+00  1.91427794E+00
  1.96576518E+00  2.10888224E+00  1.93085858E+00  2.09474507E+00  2.09230160E+00
  1.94010883E+00  1.94482122E+00  1.85947458E+00  1.90153704E+00  1.88024401E+00
%FLAG DIHEDRAL_FORCE_CONSTANT                                                   
%FORMAT(5E16.8)                                                                 
  0.00000000E+00  1.90000000E+00  2.30000000E+00  6.80000000E-01  2.00000000E-01
  4.40000000E-01  4.03000000E+00  3.66000000E+00  2.40000000E-01  1.30000000E-01
  3.62500000E+00  1.55555556E-01  1.80000000E+00  0.00000000E+00  0.00000000E+00
  1.20000000E-01  1.10000000E+00
%FLAG DIHEDRAL_PERIODICITY                                                      
%FORMAT(5E16.8)                                                                 
  2.00000000E+00  1.00000000E+00  2.00000000E+00  1.00000000E+00  2.00000000E+00
  3.00000000E+00  1.00000000E+00  2.00000000E+00  2.00000000E+00  3.00000000E+00
  2.00000000E+00  3.00000000E+00  2.00000000E+00  1.00000000E+00  2.00000000E+00
  3.00000000E+00  2.00000000E+00
%FLAG DIHEDRAL_PHASE                                                            
%FORMAT(5E16.8)                                                                 
  3.14159400E+00  0.00000000E+00  3.14159400E+00  0.00000000E+00  3.14159400E+00
  3.14159400E+00  0.00000000E+00  3.14159400E+00  3.14159400E+00  0.00000000E+00
  3.14159400E+00  0.00000000E+00  3.14159400E+00  0.00000000E+00  0.00000000E+00
  0.00000000E+00  3.14159400E+00
%FLAG SCEE_SCALE_FACTOR                                                         
%FORMAT(5E16.8)                                                                 
  1.20000000E+00  1.20000000E+00  1.20000000E+00  1.20000000E+00  1.20000000E+00
  1.20000000E+00  1.20000000E+00  1.20000000E+00  1.20000000E+00  1.20000000E+00
  1.20000000E+00  1.20000000E+00  1.20000000E+00  1.20000000E+00  1.20000000E+00
  1.20000000E+00  0.00000000E+00
%FLAG SCNB_SCALE_FACTOR                                                         
%FORMAT(5E16.8)                                                                 
  2.00000000E+00  2.00000000E+00  2.00000000E+00  2.00000000E+00  2.00000000E+00
  2.00000000E+00  2.00000000E+00  2.00000000E+00  2.00000000E+00  2.00000000E+00
  2.00000000E+00  2.00000000E+00  2.00000000E+00  2.00000000E+00  2.00000000E+00
  2.00000000E+00  0.00000000E+00
%FLAG SOLTY                                                                     
%FORMAT(5E16.8)                                                                 
  0.00000000E+00  0.00000000E+00  0.00000000E+00  0.00000000E+00  0.00000000E+00
  0.00000000E+00  0.00000000E+00  0.00000000E+00
%FLAG LENNARD_JONES_ACOEF                                                       
%FORMAT(5E16.8)                                                                 
  5.03152404E+05  4.37717034E+05  3.76435470E+05  7.18991463E+05  6.30925504E+05
  1.02073671E+06  5.92438683E+05  5.17507491E+05  8.43969952E+05  6.96551276E+05
  6.80216136E+04  5.68021765E+04  1.00235148E+05  8.12662403E+04  7.94617769E+03
  6.30298721E+04  5.27277400E+04  9.27554496E+04  7.52549148E+04  7.41026906E+03
  6.90855956E+03  1.74176419E+02  1.15813907E+02  3.03553352E+02  2.25372434E+02
  8.80612241E+00  8.53132435E+00  1.10360882E-05
%FLAG LENNARD_JONES_BCOEF                                                       
%FORMAT(5E16.8)                                                                 
  4.32634597E+02  4.51916854E+02  4.69350655E+02  5.36620538E+02  5.62969425E+02
  6.63431737E+02  4.76608379E+02  4.98871431E+02  5.90251928E+02  5.24668528E+02
  1.09393126E+02  1.11953944E+02  1.37787728E+02  1.21392023E+02  2.57122925E+01
  9.87712192E+01  1.01173582E+02  1.24325688E+02  1.09570372E+02  2.32899892E+01
  2.10929191E+01  3.81654050E+00  3.48534600E+00  5.22789272E+00  4.40751799E+00
  5.90150328E-01  5.44840215E-01  4.55498033E-04
%FLAG BONDS_INC_HYDROGEN                                                        
%FORMAT(10I8)                                                                   
       0      96       2       6      45       5       9      48       5       9
      51       5      18      54       5      21      57       5      21      60
       5      21      63       5      24      66       5      24      69       5
      24      72       5      27      75       9      30      78       9      33
      81       9      36      84       9      39      87       5      39      90
       5      39      93       5
%FLAG BONDS_WITHOUT_HYDROGEN                                                    
%FORMAT(10I8)                                                                   
       0      42       1       3      42       3       6       9       4       6
      21       4       6      24       4       9      12       6      12      27
       7      12      30       7      15      18       6      15      33       7
      15      36       7      18      39       4      18      42       8      27
      33       7      30      36       7
%FLAG ANGLES_INC_HYDROGEN                                                       
%FORMAT(10I8)                                                                   
       6       9      48       5       6       9      51       5       6      21
      57       5       6      21      60       5       6      21      63       5
       6      24      66       5       6      24      69       5       6      24
      72       5       9       6      45       5      12       9      48       8
      12       9      51       8      12      27      75      10      12      30
      78      10      15      18      54       8      15      33      81      10
      15      36      84      10      18      39      87       5      18      39
      90       5      18      39      93       5      21       6      45       5
      24       6      45       5      27      33      81      10      30      36
      84      10      33      27      75      10      36      30      78      10
      39      18      54       5      42       0      96      13      42      18
      54      14      48       9      51      15      57      21      60      15
      57      21      63      15      60      21      63      15      66      24
      69      15      66      24      72      15      69      24      72      15
      87      39      90      15      87      39      93      15      90      39
      93      15
%FLAG ANGLES_WITHOUT_HYDROGEN                                                   
%FORMAT(10I8)                                                                   
       0      42       3       1       0      42      18       2       3      42
      18       3       6       9      12       4       9       6      21       6
       9       6      24       6       9      12      27       7       9      12
      30       7      12      27      33       9      12      30      36       9
      15      18      39       4      15      18      42      11      15      33
      27       9      15      36      30       9      18      15      33       7
      18      15      36       7      21       6      24       6      27      12
      30       9      33      15      36       9      39      18      42      12
%FLAG DIHEDRALS_INC_HYDROGEN                                                    
%FORMAT(10I8)                                                                   
       0      42      18      54       1      96       0      42       3       2
      96       0     -42       3       3       3      42      18      54       7
       3      42     -18      54       8       9       6      21      57      10
       9       6      21      60      10       9       6      21      63      10
       9       6      24      66      10       9       6      24      69      10
       9       6      24      72      10       9      12      27      75      11
       9      12      30      78      11      12       9       6      45      12
      12      27      33      81      11      12      30      36      84      11
      15      18      39      87      12      15      18      39      90      12
      15      18      39      93      12      15      33      27      75      11
      15      36      30      78      11      18      15      33      81      11
      18      15      36      84      11      96       0      42      18      13
      21       6       9      48      10      21       6       9      51      10
      21       6      24      66      10      21       6      24      69      10
      21       6      24      72      10      24       6       9      48      10
      24       6       9      51      10      24       6      21      57      10
      24       6      21      60      10      24       6      21      63      10
      27      12       9      48      14      27      12       9      51      14
      27      12      30      78      11      30      12       9      48      14
      30      12       9      51      14      30      12      27      75      11
      33      15      18      54      14      33      15     -18      54      15
      33      15      36      84      11      36      15      18      54      14
      36      15     -18      54      15      36      15      33      81      11
      42      18      39      87      12      42      18      39      90      12
      42      18      39      93      12      45       6       9      48      16
      45       6       9      51      16      45       6      21      57      16
      45       6      21      60      16      45       6      21      63      16
      45       6      24      66      16      45       6      24      69      16
      45       6      24      72      16      54      18      39      87      16
      54      18      39      90      16      54      18      39      93      16
      75      27      33      81      11      78      30      36      84      11
      12      33     -27     -75      17      12      36     -30     -78      17
      15      27     -33     -81      17      15      30     -36     -84      17
%FLAG DIHEDRALS_WITHOUT_HYDROGEN                                                
%FORMAT(10I8)                                                                   
       0      42      18      15       1       0      42      18      39       1
       3      42      18      15       1       3      42      18      39       4
       3      42     -18      39       5       3      42     -18      39       6
       6       9      12      27       9       6       9      12      30       9
       9      12      27      33      11       9      12      30      36      11
      12       9       6      21      12      12       9       6      24      12
      12      27      33      15      11      12      30     -36      15      11
      18      15      33      27      11      18      15      36      30      11
      27      12      30      36      11      27      33     -15      36      11
      30      12      27      33      11      30      36     -15      33      11
      33      15      18      39       9      33      15      18      42      15
      36      15      18      39       9      36      15      18      42      15
      27      30     -12      -9      17      18      33     -15     -36      17
       0      42      -3     -18      17
%FLAG EXCLUDED_ATOMS_LIST                                                       
%FORMAT(10I8)                                                                   
       2       6       7      14      15      19      33       6       7      14
      15      19      33       4       5       8       9      10      11      16
      17      18      20      21      22      23      24      25       5       8
       9      10      11      12      13      16      17      18      20      21
      22      23      24      25      26      27       6       8       9      10
      11      12      13      16      17      18      26      27      28      29
       7      10      11      12      13      14      15      19      26      27
      28      29      30      31      32      10      11      12      13      14
      15      19      28      29      30      31      32      33       9      16
      17      18      20      21      22      23      24      25      16      17
      18      20      21      22      23      24      25      11      12      13
      17      18      26      27      28      12      13      17      18      26
      27      29      13      14      15      19      26      28      29      14
      15      19      27      28      29      15      19      30      31      32
      19      30      31      32      33      17      18      20      21      22
      23      24      25      18       0      30      31      32      21      22
      22       0      24      25      25       0      28      29       0       0
      31      32      32       0       0
%FLAG HBOND_ACOEF                                                               
%FORMAT(5E16.8)                                                                 

%FLAG HBOND_BCOEF                                                               
%FORMAT(5E16.8)                                                                 

%FLAG HBCUT                                                                     
%FORMAT(5E16.8)                                                                 

%FLAG AMBER_ATOM_TYPE                                                           
%FORMAT(20a4)                                                                   
oh  o   c3  c3  ca  ca  c3  c3  c3  ca  ca  ca  ca  c3  c   hc  hc  hc  hc  hc  
hc  hc  hc  hc  hc  ha  ha  ha  ha  hc  hc  hc  ho  
%FLAG TREE_CHAIN_CLASSIFICATION                                                 
%FORMAT(20a4)                                                                   
BLA BLA BLA BLA BLA BLA BLA BLA BLA BLA BLA BLA BLA BLA BLA BLA BLA BLA BLA BLA 
BLA BLA BLA BLA BLA BLA BLA BLA BLA BLA BLA BLA BLA 
%FLAG JOIN_ARRAY                                                                
%FORMAT(10I8)                                                                   
       0       0       0       0       0       0       0       0       0       0
       0       0       0       0       0       0       0       0       0       0
       0       0       0       0       0       0       0       0       0       0
       0       0       0
%FLAG IROTAT                                                                    
%FORMAT(10I8)                                                                   
       0       0       0       0       0       0       0       0       0       0
       0       0       0       0       0       0       0       0       0       0
       0       0       0       0       0       0       0       0       0       0
       0       0       0
%FLAG RADIUS_SET                                                                
%FORMAT(1a80)                                                                   
modified Bondi radii (mbondi)                                                   
%FLAG RADII                                                                     
%FORMAT(5E16.8)                                                                 
  1.50000000E+00  1.50000000E+00  1.70000000E+00  1.70000000E+00  1.70000000E+00
  1.70000000E+00  1.70000000E+00  1.70000000E+00  1.70000000E+00  1.70000000E+00
  1.70000000E+00  1.70000000E+00  1.70000000E+00  1.70000000E+00  1.70000000E+00
  1.30000000E+00  1.30000000E+00  1.30000000E+00  1.30000000E+00  1.30000000E+00
  1.30000000E+00  1.30000000E+00  1.30000000E+00  1.30000000E+00  1.30000000E+00
  1.30000000E+00  1.30000000E+00  1.30000000E+00  1.30000000E+00  1.30000000E+00
  1.30000000E+00  1.30000000E+00  8.00000000E-01
%FLAG SCREEN                                                                    
%FORMAT(5E16.8)                                                                 
  8.50000000E-01  8.50000000E-01  7.20000000E-01  7.20000000E-01  7.20000000E-01
  7.20000000E-01  7.20000000E-01  7.20000000E-01  7.20000000E-01  7.20000000E-01
  7.20000000E-01  7.20000000E-01  7.20000000E-01  7.20000000E-01  7.20000000E-01
  8.50000000E-01  8.50000000E-01  8.50000000E-01  8.50000000E-01  8.50000000E-01
  8.50000000E-01  8.50000000E-01  8.50000000E-01  8.50000000E-01  8.50000000E-01
  8.50000000E-01  8.50000000E-01  8.50000000E-01  8.50000000E-01  8.50000000E-01
  8.50000000E-01  8.50000000E-01  8.50000000E-01
%FLAG IPOL                                                                      
%FORMAT(1I8)                                                                    
       0
