; ibuprofen_GMX_OPLS.itp created by acpype (v: 2023.10.27) on Mon Feb  9 17:47:32 2026

; For OPLS atomtypes manual fine tuning
; AC_at:OPLS_at:OPLScode: Possible_Alternatives (see ffoplsaa.atp and ffoplsaanb.itp)
; oh:OH:opls_154: ['167']
; o:O:opls_236: ['272']
; c3:CT:opls_135: ['136', '137', '149', '157', '158', '206', '209', '210', '223B', '224B', '245', '246', '274', '283', '284', '285', '292', '292B', '293B', '296', '307', '308', '505']
; ca:CA:opls_145: ['166', '501', '502']
; c:C:opls_235: ['271']
; hc:HC:opls_140: []
; ha:HA:opls_146: []
; ho:HO:opls_155: ['168']

[ moleculetype ]
;name            nrexcl
 ibuprofen        3

[ atoms ]
;   nr  type  resi  res  atom  cgnr     charge      mass       ; qtot   bond_type
     1 opls_154     1   UNL     O    1    -0.607100     15.99940 ; qtot -0.607  OH  
     2 opls_236     1   UNL    O1    2    -0.553000     15.99940 ; qtot -1.160  O   
     3 opls_135     1   UNL     C    3    -0.059700     12.01100 ; qtot -1.220  CT  
     4 opls_135     1   UNL    C1    4    -0.036100     12.01100 ; qtot -1.256  CT  
     5 opls_145     1   UNL    C2    5    -0.063300     12.01100 ; qtot -1.319  CA  
     6 opls_145     1   UNL    C3    6    -0.099300     12.01100 ; qtot -1.418  CA  
     7 opls_135     1   UNL    C4    7    -0.055400     12.01100 ; qtot -1.474  CT  
     8 opls_135     1   UNL    C5    8    -0.093100     12.01100 ; qtot -1.567  CT  
     9 opls_135     1   UNL    C6    9    -0.093100     12.01100 ; qtot -1.660  CT  
    10 opls_145     1   UNL    C7   10    -0.129500     12.01100 ; qtot -1.790  CA  
    11 opls_145     1   UNL    C8   11    -0.129500     12.01100 ; qtot -1.919  CA  
    12 opls_145     1   UNL    C9   12    -0.113500     12.01100 ; qtot -2.033  CA  
    13 opls_145     1   UNL   C10   13    -0.113500     12.01100 ; qtot -2.146  CA  
    14 opls_135     1   UNL   C11   14    -0.090100     12.01100 ; qtot -2.236  CT  
    15 opls_235     1   UNL   C12   15     0.642103     12.01100 ; qtot -1.594  C   
    16 opls_140     1   UNL     H   16     0.043700      1.00800 ; qtot -1.550  HC  
    17 opls_140     1   UNL    H1   17     0.048200      1.00800 ; qtot -1.502  HC  
    18 opls_140     1   UNL    H2   18     0.048200      1.00800 ; qtot -1.454  HC  
    19 opls_140     1   UNL    H3   19     0.085700      1.00800 ; qtot -1.368  HC  
    20 opls_140     1   UNL    H4   20     0.036033      1.00800 ; qtot -1.332  HC  
    21 opls_140     1   UNL    H5   21     0.036033      1.00800 ; qtot -1.296  HC  
    22 opls_140     1   UNL    H6   22     0.036033      1.00800 ; qtot -1.260  HC  
    23 opls_140     1   UNL    H7   23     0.036033      1.00800 ; qtot -1.224  HC  
    24 opls_140     1   UNL    H8   24     0.036033      1.00800 ; qtot -1.188  HC  
    25 opls_140     1   UNL    H9   25     0.036033      1.00800 ; qtot -1.152  HC  
    26 opls_146     1   UNL   H10   26     0.135000      1.00800 ; qtot -1.017  HA  
    27 opls_146     1   UNL   H11   27     0.135000      1.00800 ; qtot -0.882  HA  
    28 opls_146     1   UNL   H12   28     0.143000      1.00800 ; qtot -0.739  HA  
    29 opls_146     1   UNL   H13   29     0.143000      1.00800 ; qtot -0.596  HA  
    30 opls_140     1   UNL   H14   30     0.051033      1.00800 ; qtot -0.545  HC  
    31 opls_140     1   UNL   H15   31     0.051033      1.00800 ; qtot -0.494  HC  
    32 opls_140     1   UNL   H16   32     0.051033      1.00800 ; qtot -0.443  HC  
    33 opls_155     1   UNL   H17   33     0.443000      1.00800 ; qtot  0.000  HO  

[ bonds ]
;   ai     aj funct   r             k
     1     15   1 ;    1.3556e-01    3.0064e+05 ;      O - C12        OH - C     
     1     33   1 ;    9.7250e-02    4.4811e+05 ;      O - H17        OH - HO    
     2     15   1 ;    1.2190e-01    4.9421e+05 ;     O1 - C12         O - C     
     3      4   1 ;    1.5354e-01    1.9154e+05 ;      C - C1         CT - CT    
     3      8   1 ;    1.5354e-01    1.9154e+05 ;      C - C5         CT - CT    
     3      9   1 ;    1.5354e-01    1.9154e+05 ;      C - C6         CT - CT    
     3     16   1 ;    1.0962e-01    2.8891e+05 ;      C - H          CT - HC    
     4      5   1 ;    1.5147e-01    2.0410e+05 ;     C1 - C2         CT - CA    
     4     17   1 ;    1.0962e-01    2.8891e+05 ;     C1 - H1         CT - HC    
     4     18   1 ;    1.0962e-01    2.8891e+05 ;     C1 - H2         CT - HC    
     5     10   1 ;    1.3986e-01    2.9644e+05 ;     C2 - C7         CA - CA    
     5     11   1 ;    1.3986e-01    2.9644e+05 ;     C2 - C8         CA - CA    
     6      7   1 ;    1.5147e-01    2.0410e+05 ;     C3 - C4         CA - CT    
     6     12   1 ;    1.3986e-01    2.9644e+05 ;     C3 - C9         CA - CA    
     6     13   1 ;    1.3986e-01    2.9644e+05 ;     C3 - C10        CA - CA    
     7     14   1 ;    1.5354e-01    1.9154e+05 ;     C4 - C11        CT - CT    
     7     15   1 ;    1.5270e-01    1.9652e+05 ;     C4 - C12        CT - C     
     7     19   1 ;    1.0962e-01    2.8891e+05 ;     C4 - H3         CT - HC    
     8     20   1 ;    1.0962e-01    2.8891e+05 ;     C5 - H4         CT - HC    
     8     21   1 ;    1.0962e-01    2.8891e+05 ;     C5 - H5         CT - HC    
     8     22   1 ;    1.0962e-01    2.8891e+05 ;     C5 - H6         CT - HC    
     9     23   1 ;    1.0962e-01    2.8891e+05 ;     C6 - H7         CT - HC    
     9     24   1 ;    1.0962e-01    2.8891e+05 ;     C6 - H8         CT - HC    
     9     25   1 ;    1.0962e-01    2.8891e+05 ;     C6 - H9         CT - HC    
    10     12   1 ;    1.3986e-01    2.9644e+05 ;     C7 - C9         CA - CA    
    10     26   1 ;    1.0860e-01    3.0183e+05 ;     C7 - H10        CA - HA    
    11     13   1 ;    1.3986e-01    2.9644e+05 ;     C8 - C10        CA - CA    
    11     27   1 ;    1.0860e-01    3.0183e+05 ;     C8 - H11        CA - HA    
    12     28   1 ;    1.0860e-01    3.0183e+05 ;     C9 - H12        CA - HA    
    13     29   1 ;    1.0860e-01    3.0183e+05 ;    C10 - H13        CA - HA    
    14     30   1 ;    1.0962e-01    2.8891e+05 ;    C11 - H14        CT - HC    
    14     31   1 ;    1.0962e-01    2.8891e+05 ;    C11 - H15        CT - HC    
    14     32   1 ;    1.0962e-01    2.8891e+05 ;    C11 - H16        CT - HC    

[ pairs ]
;   ai     aj    funct
     1      6      1 ;      O - C3    
     1     14      1 ;      O - C11   
     1     19      1 ;      O - H3    
     2      6      1 ;     O1 - C3    
     2     14      1 ;     O1 - C11   
     2     19      1 ;     O1 - H3    
     3     10      1 ;      C - C7    
     3     11      1 ;      C - C8    
     4     12      1 ;     C1 - C9    
     4     13      1 ;     C1 - C10   
     4     20      1 ;     C1 - H4    
     4     21      1 ;     C1 - H5    
     4     22      1 ;     C1 - H6    
     4     23      1 ;     C1 - H7    
     4     24      1 ;     C1 - H8    
     4     25      1 ;     C1 - H9    
     4     26      1 ;     C1 - H10   
     4     27      1 ;     C1 - H11   
     5      6      1 ;     C2 - C3    
     5      8      1 ;     C2 - C5    
     5      9      1 ;     C2 - C6    
     5     16      1 ;     C2 - H     
     5     28      1 ;     C2 - H12   
     5     29      1 ;     C2 - H13   
     6     26      1 ;     C3 - H10   
     6     27      1 ;     C3 - H11   
     6     30      1 ;     C3 - H14   
     6     31      1 ;     C3 - H15   
     6     32      1 ;     C3 - H16   
     7     10      1 ;     C4 - C7    
     7     11      1 ;     C4 - C8    
     7     28      1 ;     C4 - H12   
     7     29      1 ;     C4 - H13   
     8     17      1 ;     C5 - H1    
     8     18      1 ;     C5 - H2    
     8     23      1 ;     C5 - H7    
     8     24      1 ;     C5 - H8    
     8     25      1 ;     C5 - H9    
     9     17      1 ;     C6 - H1    
     9     18      1 ;     C6 - H2    
     9     20      1 ;     C6 - H4    
     9     21      1 ;     C6 - H5    
     9     22      1 ;     C6 - H6    
    10     13      1 ;     C7 - C10   
    10     17      1 ;     C7 - H1    
    10     18      1 ;     C7 - H2    
    10     27      1 ;     C7 - H11   
    11     12      1 ;     C8 - C9    
    11     17      1 ;     C8 - H1    
    11     18      1 ;     C8 - H2    
    11     26      1 ;     C8 - H10   
    12     14      1 ;     C9 - C11   
    12     15      1 ;     C9 - C12   
    12     19      1 ;     C9 - H3    
    12     29      1 ;     C9 - H13   
    13     14      1 ;    C10 - C11   
    13     15      1 ;    C10 - C12   
    13     19      1 ;    C10 - H3    
    13     28      1 ;    C10 - H12   
    15     30      1 ;    C12 - H14   
    15     31      1 ;    C12 - H15   
    15     32      1 ;    C12 - H16   
    16     17      1 ;      H - H1    
    16     18      1 ;      H - H2    
    16     20      1 ;      H - H4    
    16     21      1 ;      H - H5    
    16     22      1 ;      H - H6    
    16     23      1 ;      H - H7    
    16     24      1 ;      H - H8    
    16     25      1 ;      H - H9    
    19     30      1 ;     H3 - H14   
    19     31      1 ;     H3 - H15   
    19     32      1 ;     H3 - H16   
    26     28      1 ;    H10 - H12   
    27     29      1 ;    H11 - H13   
    33      2      1 ;    H17 - O1    
    33      7      1 ;    H17 - C4    

[ angles ]
;   ai     aj     ak    funct   theta         cth
     1     15      2      1 ;    1.2209e+02    8.5379e+02 ;      O - C12  - O1       OH -    C - O   
     1     15      7      1 ;    1.1274e+02    6.4785e+02 ;      O - C12  - C4       OH -    C - CT  
     2     15      7      1 ;    1.2290e+02    6.3973e+02 ;     O1 - C12  - C4        O -    C - CT  
     3      4      5      1 ;    1.1242e+02    5.0484e+02 ;      C - C1   - C2       CT -   CT - CA  
     3      4     17      1 ;    1.0968e+02    3.6208e+02 ;      C - C1   - H1       CT -   CT - HC  
     3      4     18      1 ;    1.0968e+02    3.6208e+02 ;      C - C1   - H2       CT -   CT - HC  
     3      8     20      1 ;    1.0968e+02    3.6208e+02 ;      C - C5   - H4       CT -   CT - HC  
     3      8     21      1 ;    1.0968e+02    3.6208e+02 ;      C - C5   - H5       CT -   CT - HC  
     3      8     22      1 ;    1.0968e+02    3.6208e+02 ;      C - C5   - H6       CT -   CT - HC  
     3      9     23      1 ;    1.0968e+02    3.6208e+02 ;      C - C6   - H7       CT -   CT - HC  
     3      9     24      1 ;    1.0968e+02    3.6208e+02 ;      C - C6   - H8       CT -   CT - HC  
     3      9     25      1 ;    1.0968e+02    3.6208e+02 ;      C - C6   - H9       CT -   CT - HC  
     4      3      8      1 ;    1.1263e+02    5.0099e+02 ;     C1 - C    - C5       CT -   CT - CT  
     4      3      9      1 ;    1.1263e+02    5.0099e+02 ;     C1 - C    - C6       CT -   CT - CT  
     4      3     16      1 ;    1.0968e+02    3.6208e+02 ;     C1 - C    - H        CT -   CT - HC  
     4      5     10      1 ;    1.2083e+02    5.0827e+02 ;     C1 - C2   - C7       CT -   CA - CA  
     4      5     11      1 ;    1.2083e+02    5.0827e+02 ;     C1 - C2   - C8       CT -   CA - CA  
     5      4     17      1 ;    1.1063e+02    3.6493e+02 ;     C2 - C1   - H1       CA -   CT - HC  
     5      4     18      1 ;    1.1063e+02    3.6493e+02 ;     C2 - C1   - H2       CA -   CT - HC  
     5     10     12      1 ;    1.2002e+02    5.3279e+02 ;     C2 - C7   - C9       CA -   CA - CA  
     5     10     26      1 ;    1.1988e+02    3.7572e+02 ;     C2 - C7   - H10      CA -   CA - HA  
     5     11     13      1 ;    1.2002e+02    5.3279e+02 ;     C2 - C8   - C10      CA -   CA - CA  
     5     11     27      1 ;    1.1988e+02    3.7572e+02 ;     C2 - C8   - H11      CA -   CA - HA  
     6      7     14      1 ;    1.1242e+02    5.0484e+02 ;     C3 - C4   - C11      CA -   CT - CT  
     6      7     15      1 ;    1.1116e+02    5.0911e+02 ;     C3 - C4   - C12      CA -   CT - C   
     6      7     19      1 ;    1.1063e+02    3.6493e+02 ;     C3 - C4   - H3       CA -   CT - HC  
     6     12     10      1 ;    1.2002e+02    5.3279e+02 ;     C3 - C9   - C7       CA -   CA - CA  
     6     12     28      1 ;    1.1988e+02    3.7572e+02 ;     C3 - C9   - H12      CA -   CA - HA  
     6     13     11      1 ;    1.2002e+02    5.3279e+02 ;     C3 - C10  - C8       CA -   CA - CA  
     6     13     29      1 ;    1.1988e+02    3.7572e+02 ;     C3 - C10  - H13      CA -   CA - HA  
     7      6     12      1 ;    1.2083e+02    5.0827e+02 ;     C4 - C3   - C9       CT -   CA - CA  
     7      6     13      1 ;    1.2083e+02    5.0827e+02 ;     C4 - C3   - C10      CT -   CA - CA  
     7     14     30      1 ;    1.0968e+02    3.6208e+02 ;     C4 - C11  - H14      CT -   CT - HC  
     7     14     31      1 ;    1.0968e+02    3.6208e+02 ;     C4 - C11  - H15      CT -   CT - HC  
     7     14     32      1 ;    1.0968e+02    3.6208e+02 ;     C4 - C11  - H16      CT -   CT - HC  
     8      3      9      1 ;    1.1263e+02    5.0099e+02 ;     C5 - C    - C6       CT -   CT - CT  
     8      3     16      1 ;    1.0968e+02    3.6208e+02 ;     C5 - C    - H        CT -   CT - HC  
     9      3     16      1 ;    1.0968e+02    3.6208e+02 ;     C6 - C    - H        CT -   CT - HC  
    10      5     11      1 ;    1.2002e+02    5.3279e+02 ;     C7 - C2   - C8       CA -   CA - CA  
    10     12     28      1 ;    1.1988e+02    3.7572e+02 ;     C7 - C9   - H12      CA -   CA - HA  
    11     13     29      1 ;    1.1988e+02    3.7572e+02 ;     C8 - C10  - H13      CA -   CA - HA  
    12      6     13      1 ;    1.2002e+02    5.3279e+02 ;     C9 - C3   - C10      CA -   CA - CA  
    12     10     26      1 ;    1.1988e+02    3.7572e+02 ;     C9 - C7   - H10      CA -   CA - HA  
    13     11     27      1 ;    1.1988e+02    3.7572e+02 ;    C10 - C8   - H11      CA -   CA - HA  
    14      7     15      1 ;    1.1143e+02    5.0509e+02 ;    C11 - C4   - C12      CT -   CT - C   
    14      7     19      1 ;    1.0968e+02    3.6208e+02 ;    C11 - C4   - H3       CT -   CT - HC  
    15      1     33      1 ;    1.0654e+02    5.7287e+02 ;    C12 - O    - H17       C -   OH - HO  
    15      7     19      1 ;    1.0895e+02    3.6510e+02 ;    C12 - C4   - H3        C -   CT - HC  
    17      4     18      1 ;    1.0773e+02    2.9957e+02 ;     H1 - C1   - H2       HC -   CT - HC  
    20      8     21      1 ;    1.0773e+02    2.9957e+02 ;     H4 - C5   - H5       HC -   CT - HC  
    20      8     22      1 ;    1.0773e+02    2.9957e+02 ;     H4 - C5   - H6       HC -   CT - HC  
    21      8     22      1 ;    1.0773e+02    2.9957e+02 ;     H5 - C5   - H6       HC -   CT - HC  
    23      9     24      1 ;    1.0773e+02    2.9957e+02 ;     H7 - C6   - H8       HC -   CT - HC  
    23      9     25      1 ;    1.0773e+02    2.9957e+02 ;     H7 - C6   - H9       HC -   CT - HC  
    24      9     25      1 ;    1.0773e+02    2.9957e+02 ;     H8 - C6   - H9       HC -   CT - HC  
    30     14     31      1 ;    1.0773e+02    2.9957e+02 ;    H14 - C11  - H15      HC -   CT - HC  
    30     14     32      1 ;    1.0773e+02    2.9957e+02 ;    H14 - C11  - H16      HC -   CT - HC  
    31     14     32      1 ;    1.0773e+02    2.9957e+02 ;    H15 - C11  - H16      HC -   CT - HC  

[ dihedrals ] ; propers
; for gromacs 4.5 or higher, using funct 9
;    i      j      k      l   func   phase     kd      pn
     1     15      7      6      9 ;   180.00   0.00000   2 ;      O-   C12-    C4-    C3
     1     15      7     14      9 ;   180.00   0.00000   2 ;      O-   C12-    C4-   C11
     1     15      7     19      9 ;   180.00   0.00000   2 ;      O-   C12-    C4-    H3
     2     15      7      6      9 ;   180.00   0.00000   2 ;     O1-   C12-    C4-    C3
     2     15      7     14      9 ;     0.00   2.84512   1 ;     O1-   C12-    C4-   C11
     2     15      7     14      9 ;   180.00   0.83680   2 ;     O1-   C12-    C4-   C11
     2     15      7     14      9 ;   180.00   1.84096   3 ;     O1-   C12-    C4-   C11
     2     15      7     19      9 ;     0.00  16.86152   1 ;     O1-   C12-    C4-    H3
     2     15      7     19      9 ;   180.00  15.31344   2 ;     O1-   C12-    C4-    H3
     3      4      5     10      9 ;   180.00   1.00416   2 ;      C-    C1-    C2-    C7
     3      4      5     11      9 ;   180.00   1.00416   2 ;      C-    C1-    C2-    C8
     4      3      8     20      9 ;     0.00   0.54392   3 ;     C1-     C-    C5-    H4
     4      3      8     21      9 ;     0.00   0.54392   3 ;     C1-     C-    C5-    H5
     4      3      8     22      9 ;     0.00   0.54392   3 ;     C1-     C-    C5-    H6
     4      3      9     23      9 ;     0.00   0.54392   3 ;     C1-     C-    C6-    H7
     4      3      9     24      9 ;     0.00   0.54392   3 ;     C1-     C-    C6-    H8
     4      3      9     25      9 ;     0.00   0.54392   3 ;     C1-     C-    C6-    H9
     4      5     10     12      9 ;   180.00  15.16700   2 ;     C1-    C2-    C7-    C9
     4      5     10     26      9 ;   180.00  15.16700   2 ;     C1-    C2-    C7-   H10
     4      5     11     13      9 ;   180.00  15.16700   2 ;     C1-    C2-    C8-   C10
     4      5     11     27      9 ;   180.00  15.16700   2 ;     C1-    C2-    C8-   H11
     5      4      3      8      9 ;     0.00   0.65084   3 ;     C2-    C1-     C-    C5
     5      4      3      9      9 ;     0.00   0.65084   3 ;     C2-    C1-     C-    C6
     5      4      3     16      9 ;     0.00   0.65084   3 ;     C2-    C1-     C-     H
     5     10     12      6      9 ;   180.00  15.16700   2 ;     C2-    C7-    C9-    C3
     5     10     12     28      9 ;   180.00  15.16700   2 ;     C2-    C7-    C9-   H12
     5     11     13      6      9 ;   180.00  15.16700   2 ;     C2-    C8-   C10-    C3
     5     11     13     29      9 ;   180.00  15.16700   2 ;     C2-    C8-   C10-   H13
     6      7     14     30      9 ;     0.00   0.65084   3 ;     C3-    C4-   C11-   H14
     6      7     14     31      9 ;     0.00   0.65084   3 ;     C3-    C4-   C11-   H15
     6      7     14     32      9 ;     0.00   0.65084   3 ;     C3-    C4-   C11-   H16
     6     12     10     26      9 ;   180.00  15.16700   2 ;     C3-    C9-    C7-   H10
     6     13     11     27      9 ;   180.00  15.16700   2 ;     C3-   C10-    C8-   H11
     7      6     12     10      9 ;   180.00  15.16700   2 ;     C4-    C3-    C9-    C7
     7      6     12     28      9 ;   180.00  15.16700   2 ;     C4-    C3-    C9-   H12
     7      6     13     11      9 ;   180.00  15.16700   2 ;     C4-    C3-   C10-    C8
     7      6     13     29      9 ;   180.00  15.16700   2 ;     C4-    C3-   C10-   H13
     8      3      4     17      9 ;     0.00   0.54392   3 ;     C5-     C-    C1-    H1
     8      3      4     18      9 ;     0.00   0.54392   3 ;     C5-     C-    C1-    H2
     8      3      9     23      9 ;     0.00   0.54392   3 ;     C5-     C-    C6-    H7
     8      3      9     24      9 ;     0.00   0.54392   3 ;     C5-     C-    C6-    H8
     8      3      9     25      9 ;     0.00   0.54392   3 ;     C5-     C-    C6-    H9
     9      3      4     17      9 ;     0.00   0.54392   3 ;     C6-     C-    C1-    H1
     9      3      4     18      9 ;     0.00   0.54392   3 ;     C6-     C-    C1-    H2
     9      3      8     20      9 ;     0.00   0.54392   3 ;     C6-     C-    C5-    H4
     9      3      8     21      9 ;     0.00   0.54392   3 ;     C6-     C-    C5-    H5
     9      3      8     22      9 ;     0.00   0.54392   3 ;     C6-     C-    C5-    H6
    10      5      4     17      9 ;     0.00   0.00000   0 ;     C7-    C2-    C1-    H1
    10      5      4     18      9 ;     0.00   0.00000   0 ;     C7-    C2-    C1-    H2
    10      5     11     13      9 ;   180.00  15.16700   2 ;     C7-    C2-    C8-   C10
    10      5     11     27      9 ;   180.00  15.16700   2 ;     C7-    C2-    C8-   H11
    10     12      6     13      9 ;   180.00  15.16700   2 ;     C7-    C9-    C3-   C10
    11      5      4     17      9 ;     0.00   0.00000   0 ;     C8-    C2-    C1-    H1
    11      5      4     18      9 ;     0.00   0.00000   0 ;     C8-    C2-    C1-    H2
    11      5     10     12      9 ;   180.00  15.16700   2 ;     C8-    C2-    C7-    C9
    11      5     10     26      9 ;   180.00  15.16700   2 ;     C8-    C2-    C7-   H10
    11     13      6     12      9 ;   180.00  15.16700   2 ;     C8-   C10-    C3-    C9
    12      6      7     14      9 ;   180.00   1.00416   2 ;     C9-    C3-    C4-   C11
    12      6      7     15      9 ;     0.00   0.00000   0 ;     C9-    C3-    C4-   C12
    12      6      7     19      9 ;     0.00   0.00000   0 ;     C9-    C3-    C4-    H3
    12      6      7     19      9 ;     0.00   0.00000   0 ;     C9-    C3-    C4-    H3
    12      6     13     29      9 ;   180.00  15.16700   2 ;     C9-    C3-   C10-   H13
    13      6      7     14      9 ;   180.00   1.00416   2 ;    C10-    C3-    C4-   C11
    13      6      7     15      9 ;     0.00   0.00000   0 ;    C10-    C3-    C4-   C12
    13      6      7     19      9 ;     0.00   0.00000   0 ;    C10-    C3-    C4-    H3
    13      6      7     19      9 ;     0.00   0.00000   0 ;    C10-    C3-    C4-    H3
    13      6     12     28      9 ;   180.00  15.16700   2 ;    C10-    C3-    C9-   H12
    15      7     14     30      9 ;     0.00   0.65084   3 ;    C12-    C4-   C11-   H14
    15      7     14     31      9 ;     0.00   0.65084   3 ;    C12-    C4-   C11-   H15
    15      7     14     32      9 ;     0.00   0.65084   3 ;    C12-    C4-   C11-   H16
    16      3      4     17      9 ;     0.00   0.50208   3 ;      H-     C-    C1-    H1
    16      3      4     18      9 ;     0.00   0.50208   3 ;      H-     C-    C1-    H2
    16      3      8     20      9 ;     0.00   0.50208   3 ;      H-     C-    C5-    H4
    16      3      8     21      9 ;     0.00   0.50208   3 ;      H-     C-    C5-    H5
    16      3      8     22      9 ;     0.00   0.50208   3 ;      H-     C-    C5-    H6
    16      3      9     23      9 ;     0.00   0.50208   3 ;      H-     C-    C6-    H7
    16      3      9     24      9 ;     0.00   0.50208   3 ;      H-     C-    C6-    H8
    16      3      9     25      9 ;     0.00   0.50208   3 ;      H-     C-    C6-    H9
    19      7     14     30      9 ;     0.00   0.50208   3 ;     H3-    C4-   C11-   H14
    19      7     14     31      9 ;     0.00   0.50208   3 ;     H3-    C4-   C11-   H15
    19      7     14     32      9 ;     0.00   0.50208   3 ;     H3-    C4-   C11-   H16
    26     10     12     28      9 ;   180.00  15.16700   2 ;    H10-    C7-    C9-   H12
    27     11     13     29      9 ;   180.00  15.16700   2 ;    H11-    C8-   C10-   H13
    33      1     15      2      9 ;     0.00   7.94960   1 ;    H17-     O-   C12-    O1
    33      1     15      2      9 ;   180.00   9.62320   2 ;    H17-     O-   C12-    O1
    33      1     15      7      9 ;   180.00   7.53120   2 ;    H17-     O-   C12-    C4

[ dihedrals ] ; impropers
; treated as propers in GROMACS to use correct AMBER analytical function
;    i      j      k      l   func   phase     kd      pn
     1     15      2      7      4 ;   180.00   4.60240   2 ;      O-   C12-    O1-    C4
     5     12     10     26      4 ;   180.00   4.60240   2 ;     C2-    C9-    C7-   H10
     5     13     11     27      4 ;   180.00   4.60240   2 ;     C2-   C10-    C8-   H11
     6     10     12     28      4 ;   180.00   4.60240   2 ;     C3-    C7-    C9-   H12
     6     11     13     29      4 ;   180.00   4.60240   2 ;     C3-    C8-   C10-   H13
     7     12      6     13      4 ;   180.00   4.60240   2 ;     C4-    C9-    C3-   C10
    10     11      5      4      4 ;   180.00   4.60240   2 ;     C7-    C8-    C2-    C1
