; ibuprofen_GMX.top created by acpype (v: 2023.10.27) on Mon Feb  9 17:47:32 2026

[ defaults ]
; nbfunc        comb-rule       gen-pairs       fudgeLJ fudgeQQ
1               2               yes             0.5     0.8333333333

; Include ibuprofen_GMX.itp topology
#include "ibuprofen_GMX.itp"

; Ligand position restraints
#ifdef POSRES_LIG
#include "posre_ibuprofen.itp"
#endif

[ system ]
 ibuprofen

[ molecules ]
; Compound        nmols
 ibuprofen        1     
