beta-sitosterol_GMX.gro created by acpype (v: 2023.10.27) on Mon Feb  9 17:30:40 2026
 80
    1  UNL    O    1   0.843   0.064  -0.014
    1  UNL    C    2  -0.029   0.001   0.013
    1  UNL   C1    3   0.067  -0.111   0.058
    1  UNL   C2    4   0.206  -0.102  -0.005
    1  UNL   C3    5   0.270   0.036   0.029
    1  UNL   C4    6  -0.156  -0.042   0.089
    1  UNL   C5    7   0.032   0.135   0.058
    1  UNL   C6    8   0.412   0.052  -0.038
    1  UNL   C7    9  -0.015  -0.238   0.039
    1  UNL   C8   10   0.173   0.155   0.002
    1  UNL   C9   11  -0.160  -0.196   0.071
    1  UNL  C10   12   0.296  -0.216   0.045
    1  UNL  C11   13  -0.286   0.025   0.048
    1  UNL  C12   14  -0.054   0.004  -0.140
    1  UNL  C13   15   0.495  -0.076  -0.021
    1  UNL  C14   16   0.486   0.170   0.032
    1  UNL  C15   17   0.441  -0.193   0.018
    1  UNL  C16   18   0.400   0.081  -0.190
    1  UNL  C17   19   0.643  -0.067  -0.048
    1  UNL  C18   20  -0.404  -0.031   0.130
    1  UNL  C19   21   0.634   0.181  -0.003
    1  UNL  C20   22   0.707   0.050   0.027
    1  UNL  C21   23  -0.274   0.177   0.062
    1  UNL  C22   24  -0.541   0.034   0.107
    1  UNL  C23   25  -0.601   0.017  -0.035
    1  UNL  C24   26  -0.735   0.096  -0.053
    1  UNL  C25   27  -0.614  -0.133  -0.072
    1  UNL  C26   28  -0.719   0.246  -0.024
    1  UNL  C27   29  -0.851   0.040   0.030
    1  UNL  C28   30  -0.665  -0.159  -0.213
    1  UNL    H   31   0.081  -0.101   0.167
    1  UNL   H1   32   0.197  -0.113  -0.114
    1  UNL   H2   33   0.285   0.036   0.138
    1  UNL   H3   34  -0.140  -0.022   0.196
    1  UNL   H4   35   0.037   0.138   0.168
    1  UNL   H5   36  -0.026   0.222   0.027
    1  UNL   H6   37   0.018  -0.319   0.105
    1  UNL   H7   38  -0.008  -0.275  -0.064
    1  UNL   H8   39   0.165   0.174  -0.106
    1  UNL   H9   40   0.215   0.246   0.046
    1  UNL  H10   41  -0.226  -0.227  -0.010
    1  UNL  H11   42  -0.195  -0.244   0.163
    1  UNL  H12   43   0.265  -0.310  -0.002
    1  UNL  H13   44   0.284  -0.230   0.153
    1  UNL  H14   45  -0.308   0.003  -0.058
    1  UNL  H15   46  -0.115   0.090  -0.170
    1  UNL  H16   47   0.039   0.012  -0.198
    1  UNL  H17   48  -0.104  -0.086  -0.176
    1  UNL  H18   49   0.477   0.160   0.141
    1  UNL  H19   50   0.438   0.265   0.006
    1  UNL  H20   51   0.505  -0.280   0.030
    1  UNL  H21   52   0.340   0.006  -0.241
    1  UNL  H22   53   0.355   0.179  -0.209
    1  UNL  H23   54   0.498   0.082  -0.239
    1  UNL  H24   55   0.695  -0.159  -0.020
    1  UNL  H25   56   0.660  -0.056  -0.156
    1  UNL  H26   57  -0.412  -0.140   0.117
    1  UNL  H27   58  -0.380  -0.017   0.237
    1  UNL  H28   59   0.647   0.209  -0.108
    1  UNL  H29   60   0.680   0.262   0.055
    1  UNL  H30   61   0.707   0.031   0.135
    1  UNL  H31   62  -0.217   0.221  -0.020
    1  UNL  H32   63  -0.230   0.206   0.158
    1  UNL  H33   64  -0.371   0.227   0.054
    1  UNL  H34   65  -0.537   0.139   0.136
    1  UNL  H35   66  -0.610  -0.013   0.178
    1  UNL  H36   67  -0.530   0.062  -0.106
    1  UNL  H37   68   0.888  -0.019   0.005
    1  UNL  H38   69  -0.764   0.088  -0.159
    1  UNL  H39   70  -0.515  -0.180  -0.066
    1  UNL  H40   71  -0.677  -0.185   0.001
    1  UNL  H41   72  -0.632   0.286  -0.077
    1  UNL  H42   73  -0.707   0.266   0.083
    1  UNL  H43   74  -0.807   0.301  -0.058
    1  UNL  H44   75  -0.943   0.098   0.011
    1  UNL  H45   76  -0.831   0.046   0.137
    1  UNL  H46   77  -0.873  -0.064   0.004
    1  UNL  H47   78  -0.770  -0.131  -0.224
    1  UNL  H48   79  -0.658  -0.266  -0.236
    1  UNL  H49   80  -0.606  -0.105  -0.287
   36.61600    12.39000    10.48000
