; beta-sitosterol_GMX_OPLS.itp created by acpype (v: 2023.10.27) on Mon Feb  9 17:30:40 2026

; For OPLS atomtypes manual fine tuning
; AC_at:OPLS_at:OPLScode: Possible_Alternatives (see ffoplsaa.atp and ffoplsaanb.itp)
; oh:OH:opls_154: ['167']
; c5:x:opls_x: []
; c6:x:opls_x: []
; c3:CT:opls_135: ['136', '137', '149', '157', '158', '206', '209', '210', '223B', '224B', '245', '246', '274', '283', '284', '285', '292', '292B', '293B', '296', '307', '308', '505']
; c2:CR:opls_509: ['510']
; hc:HC:opls_140: []
; ha:HA:opls_146: []
; h1:HC:opls_140: []
; ho:HO:opls_155: ['168']

[ moleculetype ]
;name            nrexcl
 beta-sitosterol  3

[ atoms ]
;   nr  type  resi  res  atom  cgnr     charge      mass       ; qtot   bond_type
     1 opls_154     1   UNL     O    1    -0.601804     15.99940 ; qtot -0.602  OH  
     2 opls_x     1   UNL     C    2    -0.044000      0.00000 ; qtot -0.646  x   
     3 opls_x     1   UNL    C1    3    -0.065700      0.00000 ; qtot -0.712  x   
     4 opls_x     1   UNL    C2    4    -0.046700      0.00000 ; qtot -0.758  x   
     5 opls_x     1   UNL    C3    5    -0.048700      0.00000 ; qtot -0.807  x   
     6 opls_x     1   UNL    C4    6    -0.053700      0.00000 ; qtot -0.861  x   
     7 opls_x     1   UNL    C5    7    -0.065400      0.00000 ; qtot -0.926  x   
     8 opls_x     1   UNL    C6    8     0.000200      0.00000 ; qtot -0.926  x   
     9 opls_x     1   UNL    C7    9    -0.074400      0.00000 ; qtot -1.000  x   
    10 opls_x     1   UNL    C8   10    -0.075400      0.00000 ; qtot -1.076  x   
    11 opls_x     1   UNL    C9   11    -0.079400      0.00000 ; qtot -1.155  x   
    12 opls_x     1   UNL   C10   12    -0.042200      0.00000 ; qtot -1.197  x   
    13 opls_135     1   UNL   C11   13    -0.057700     12.01100 ; qtot -1.255  CT  
    14 opls_135     1   UNL   C12   14    -0.082100     12.01100 ; qtot -1.337  CT  
    15 opls_509     1   UNL   C13   15    -0.105400     12.01100 ; qtot -1.442  CR  
    16 opls_x     1   UNL   C14   16    -0.070400      0.00000 ; qtot -1.513  x   
    17 opls_509     1   UNL   C15   17    -0.167200     12.01100 ; qtot -1.680  CR  
    18 opls_135     1   UNL   C16   18    -0.083100     12.01100 ; qtot -1.763  CT  
    19 opls_x     1   UNL   C17   19    -0.075200      0.00000 ; qtot -1.838  x   
    20 opls_135     1   UNL   C18   20    -0.080400     12.01100 ; qtot -1.919  CT  
    21 opls_x     1   UNL   C19   21    -0.075400      0.00000 ; qtot -1.994  x   
    22 opls_x     1   UNL   C20   22     0.145100      0.00000 ; qtot -1.849  x   
    23 opls_135     1   UNL   C21   23    -0.090100     12.01100 ; qtot -1.939  CT  
    24 opls_135     1   UNL   C22   24    -0.075400     12.01100 ; qtot -2.015  CT  
    25 opls_135     1   UNL   C23   25    -0.060700     12.01100 ; qtot -2.075  CT  
    26 opls_135     1   UNL   C24   26    -0.064700     12.01100 ; qtot -2.140  CT  
    27 opls_135     1   UNL   C25   27    -0.079400     12.01100 ; qtot -2.219  CT  
    28 opls_135     1   UNL   C26   28    -0.090100     12.01100 ; qtot -2.309  CT  
    29 opls_135     1   UNL   C27   29    -0.090100     12.01100 ; qtot -2.400  CT  
    30 opls_135     1   UNL   C28   30    -0.093100     12.01100 ; qtot -2.493  CT  
    31 opls_140     1   UNL     H   31     0.045700      1.00800 ; qtot -2.447  HC  
    32 opls_140     1   UNL    H1   32     0.058700      1.00800 ; qtot -2.388  HC  
    33 opls_140     1   UNL    H2   33     0.047700      1.00800 ; qtot -2.341  HC  
    34 opls_140     1   UNL    H3   34     0.046700      1.00800 ; qtot -2.294  HC  
    35 opls_140     1   UNL    H4   35     0.041700      1.00800 ; qtot -2.252  HC  
    36 opls_140     1   UNL    H5   36     0.041700      1.00800 ; qtot -2.210  HC  
    37 opls_140     1   UNL    H6   37     0.041700      1.00800 ; qtot -2.169  HC  
    38 opls_140     1   UNL    H7   38     0.041700      1.00800 ; qtot -2.127  HC  
    39 opls_140     1   UNL    H8   39     0.041200      1.00800 ; qtot -2.086  HC  
    40 opls_140     1   UNL    H9   40     0.041200      1.00800 ; qtot -2.045  HC  
    41 opls_140     1   UNL   H10   41     0.042200      1.00800 ; qtot -2.002  HC  
    42 opls_140     1   UNL   H11   42     0.042200      1.00800 ; qtot -1.960  HC  
    43 opls_140     1   UNL   H12   43     0.049200      1.00800 ; qtot -1.911  HC  
    44 opls_140     1   UNL   H13   44     0.049200      1.00800 ; qtot -1.862  HC  
    45 opls_140     1   UNL   H14   45     0.052700      1.00800 ; qtot -1.809  HC  
    46 opls_140     1   UNL   H15   46     0.035367      1.00800 ; qtot -1.774  HC  
    47 opls_140     1   UNL   H16   47     0.035367      1.00800 ; qtot -1.738  HC  
    48 opls_140     1   UNL   H17   48     0.035367      1.00800 ; qtot -1.703  HC  
    49 opls_140     1   UNL   H18   49     0.044700      1.00800 ; qtot -1.658  HC  
    50 opls_140     1   UNL   H19   50     0.044700      1.00800 ; qtot -1.614  HC  
    51 opls_146     1   UNL   H20   51     0.119000      1.00800 ; qtot -1.495  HA  
    52 opls_140     1   UNL   H21   52     0.037367      1.00800 ; qtot -1.457  HC  
    53 opls_140     1   UNL   H22   53     0.037367      1.00800 ; qtot -1.420  HC  
    54 opls_140     1   UNL   H23   54     0.037367      1.00800 ; qtot -1.383  HC  
    55 opls_140     1   UNL   H24   55     0.051200      1.00800 ; qtot -1.331  HC  
    56 opls_140     1   UNL   H25   56     0.051200      1.00800 ; qtot -1.280  HC  
    57 opls_140     1   UNL   H26   57     0.041700      1.00800 ; qtot -1.238  HC  
    58 opls_140     1   UNL   H27   58     0.041700      1.00800 ; qtot -1.197  HC  
    59 opls_140     1   UNL   H28   59     0.055200      1.00800 ; qtot -1.142  HC  
    60 opls_140     1   UNL   H29   60     0.055200      1.00800 ; qtot -1.086  HC  
    61 opls_140     1   UNL   H30   61     0.035700      1.00800 ; qtot -1.051  HC  
    62 opls_140     1   UNL   H31   62     0.033367      1.00800 ; qtot -1.017  HC  
    63 opls_140     1   UNL   H32   63     0.033367      1.00800 ; qtot -0.984  HC  
    64 opls_140     1   UNL   H33   64     0.033367      1.00800 ; qtot -0.951  HC  
    65 opls_140     1   UNL   H34   65     0.041700      1.00800 ; qtot -0.909  HC  
    66 opls_140     1   UNL   H35   66     0.041700      1.00800 ; qtot -0.867  HC  
    67 opls_140     1   UNL   H36   67     0.049700      1.00800 ; qtot -0.817  HC  
    68 opls_155     1   UNL   H37   68     0.398000      1.00800 ; qtot -0.419  HO  
    69 opls_140     1   UNL   H38   69     0.045700      1.00800 ; qtot -0.374  HC  
    70 opls_140     1   UNL   H39   70     0.040200      1.00800 ; qtot -0.334  HC  
    71 opls_140     1   UNL   H40   71     0.040200      1.00800 ; qtot -0.293  HC  
    72 opls_140     1   UNL   H41   72     0.032867      1.00800 ; qtot -0.260  HC  
    73 opls_140     1   UNL   H42   73     0.032867      1.00800 ; qtot -0.228  HC  
    74 opls_140     1   UNL   H43   74     0.032867      1.00800 ; qtot -0.195  HC  
    75 opls_140     1   UNL   H44   75     0.032867      1.00800 ; qtot -0.162  HC  
    76 opls_140     1   UNL   H45   76     0.032867      1.00800 ; qtot -0.129  HC  
    77 opls_140     1   UNL   H46   77     0.032867      1.00800 ; qtot -0.096  HC  
    78 opls_140     1   UNL   H47   78     0.032033      1.00800 ; qtot -0.064  HC  
    79 opls_140     1   UNL   H48   79     0.032033      1.00800 ; qtot -0.032  HC  
    80 opls_140     1   UNL   H49   80     0.032033      1.00800 ; qtot -0.000  HC  

[ bonds ]
;   ai     aj funct   r             k
     1     22   1 ;    1.4241e-01    2.3870e+05 ;      O - C20        OH - x     
     1     68   1 ;    9.7250e-02    4.4811e+05 ;      O - H37        OH - HO    
     2      3   1 ;    1.5483e-01    1.8418e+05 ;      C - C1          x - x     
     2      6   1 ;    1.5483e-01    1.8418e+05 ;      C - C4          x - x     
     2      7   1 ;    1.5389e-01    1.8951e+05 ;      C - C5          x - x     
     2     14   1 ;    1.5372e-01    1.9049e+05 ;      C - C12         x - CT    
     3      4   1 ;    1.5389e-01    1.8951e+05 ;     C1 - C2          x - x     
     3      9   1 ;    1.5483e-01    1.8418e+05 ;     C1 - C7          x - x     
     3     31   1 ;    1.0954e-01    2.8989e+05 ;     C1 - H           x - HC    
     4      5   1 ;    1.5384e-01    1.8979e+05 ;     C2 - C3          x - x     
     4     12   1 ;    1.5384e-01    1.8979e+05 ;     C2 - C10         x - x     
     4     32   1 ;    1.0979e-01    2.8681e+05 ;     C2 - H1          x - HC    
     5      8   1 ;    1.5384e-01    1.8979e+05 ;     C3 - C6          x - x     
     5     10   1 ;    1.5384e-01    1.8979e+05 ;     C3 - C8          x - x     
     5     33   1 ;    1.0979e-01    2.8681e+05 ;     C3 - H2          x - HC    
     6     11   1 ;    1.5483e-01    1.8418e+05 ;     C4 - C9          x - x     
     6     13   1 ;    1.5372e-01    1.9049e+05 ;     C4 - C11         x - CT    
     6     34   1 ;    1.0954e-01    2.8989e+05 ;     C4 - H3          x - HC    
     7     10   1 ;    1.5384e-01    1.8979e+05 ;     C5 - C8          x - x     
     7     35   1 ;    1.0979e-01    2.8681e+05 ;     C5 - H4          x - HC    
     7     36   1 ;    1.0979e-01    2.8681e+05 ;     C5 - H5          x - HC    
     8     15   1 ;    1.5133e-01    2.0498e+05 ;     C6 - C13         x - CR    
     8     16   1 ;    1.5384e-01    1.8979e+05 ;     C6 - C14         x - x     
     8     18   1 ;    1.5428e-01    1.8728e+05 ;     C6 - C16         x - CT    
     9     11   1 ;    1.5483e-01    1.8418e+05 ;     C7 - C9          x - x     
     9     37   1 ;    1.0954e-01    2.8989e+05 ;     C7 - H6          x - HC    
     9     38   1 ;    1.0954e-01    2.8989e+05 ;     C7 - H7          x - HC    
    10     39   1 ;    1.0979e-01    2.8681e+05 ;     C8 - H8          x - HC    
    10     40   1 ;    1.0979e-01    2.8681e+05 ;     C8 - H9          x - HC    
    11     41   1 ;    1.0954e-01    2.8989e+05 ;     C9 - H10         x - HC    
    11     42   1 ;    1.0954e-01    2.8989e+05 ;     C9 - H11         x - HC    
    12     17   1 ;    1.5133e-01    2.0498e+05 ;    C10 - C15         x - CR    
    12     43   1 ;    1.0979e-01    2.8681e+05 ;    C10 - H12         x - HC    
    12     44   1 ;    1.0979e-01    2.8681e+05 ;    C10 - H13         x - HC    
    13     20   1 ;    1.5354e-01    1.9154e+05 ;    C11 - C18        CT - CT    
    13     23   1 ;    1.5354e-01    1.9154e+05 ;    C11 - C21        CT - CT    
    13     45   1 ;    1.0962e-01    2.8891e+05 ;    C11 - H14        CT - HC    
    14     46   1 ;    1.0962e-01    2.8891e+05 ;    C12 - H15        CT - HC    
    14     47   1 ;    1.0962e-01    2.8891e+05 ;    C12 - H16        CT - HC    
    14     48   1 ;    1.0962e-01    2.8891e+05 ;    C12 - H17        CT - HC    
    15     17   1 ;    1.3379e-01    3.6484e+05 ;    C13 - C15        CR - CR    
    15     19   1 ;    1.5133e-01    2.0498e+05 ;    C13 - C17        CR - x     
    16     21   1 ;    1.5384e-01    1.8979e+05 ;    C14 - C19         x - x     
    16     49   1 ;    1.0979e-01    2.8681e+05 ;    C14 - H18         x - HC    
    16     50   1 ;    1.0979e-01    2.8681e+05 ;    C14 - H19         x - HC    
    17     51   1 ;    1.0882e-01    2.9898e+05 ;    C15 - H20        CR - HA    
    18     52   1 ;    1.0962e-01    2.8891e+05 ;    C16 - H21        CT - HC    
    18     53   1 ;    1.0962e-01    2.8891e+05 ;    C16 - H22        CT - HC    
    18     54   1 ;    1.0962e-01    2.8891e+05 ;    C16 - H23        CT - HC    
    19     22   1 ;    1.5384e-01    1.8979e+05 ;    C17 - C20         x - x     
    19     55   1 ;    1.0979e-01    2.8681e+05 ;    C17 - H24         x - HC    
    19     56   1 ;    1.0979e-01    2.8681e+05 ;    C17 - H25         x - HC    
    20     24   1 ;    1.5354e-01    1.9154e+05 ;    C18 - C22        CT - CT    
    20     57   1 ;    1.0962e-01    2.8891e+05 ;    C18 - H26        CT - HC    
    20     58   1 ;    1.0962e-01    2.8891e+05 ;    C18 - H27        CT - HC    
    21     22   1 ;    1.5384e-01    1.8979e+05 ;    C19 - C20         x - x     
    21     59   1 ;    1.0979e-01    2.8681e+05 ;    C19 - H28         x - HC    
    21     60   1 ;    1.0979e-01    2.8681e+05 ;    C19 - H29         x - HC    
    22     61   1 ;    1.0984e-01    2.8620e+05 ;    C20 - H30         x - HC    
    23     62   1 ;    1.0962e-01    2.8891e+05 ;    C21 - H31        CT - HC    
    23     63   1 ;    1.0962e-01    2.8891e+05 ;    C21 - H32        CT - HC    
    23     64   1 ;    1.0962e-01    2.8891e+05 ;    C21 - H33        CT - HC    
    24     25   1 ;    1.5354e-01    1.9154e+05 ;    C22 - C23        CT - CT    
    24     65   1 ;    1.0962e-01    2.8891e+05 ;    C22 - H34        CT - HC    
    24     66   1 ;    1.0962e-01    2.8891e+05 ;    C22 - H35        CT - HC    
    25     26   1 ;    1.5354e-01    1.9154e+05 ;    C23 - C24        CT - CT    
    25     27   1 ;    1.5354e-01    1.9154e+05 ;    C23 - C25        CT - CT    
    25     67   1 ;    1.0962e-01    2.8891e+05 ;    C23 - H36        CT - HC    
    26     28   1 ;    1.5354e-01    1.9154e+05 ;    C24 - C26        CT - CT    
    26     29   1 ;    1.5354e-01    1.9154e+05 ;    C24 - C27        CT - CT    
    26     69   1 ;    1.0962e-01    2.8891e+05 ;    C24 - H38        CT - HC    
    27     30   1 ;    1.5354e-01    1.9154e+05 ;    C25 - C28        CT - CT    
    27     70   1 ;    1.0962e-01    2.8891e+05 ;    C25 - H39        CT - HC    
    27     71   1 ;    1.0962e-01    2.8891e+05 ;    C25 - H40        CT - HC    
    28     72   1 ;    1.0962e-01    2.8891e+05 ;    C26 - H41        CT - HC    
    28     73   1 ;    1.0962e-01    2.8891e+05 ;    C26 - H42        CT - HC    
    28     74   1 ;    1.0962e-01    2.8891e+05 ;    C26 - H43        CT - HC    
    29     75   1 ;    1.0962e-01    2.8891e+05 ;    C27 - H44        CT - HC    
    29     76   1 ;    1.0962e-01    2.8891e+05 ;    C27 - H45        CT - HC    
    29     77   1 ;    1.0962e-01    2.8891e+05 ;    C27 - H46        CT - HC    
    30     78   1 ;    1.0962e-01    2.8891e+05 ;    C28 - H47        CT - HC    
    30     79   1 ;    1.0962e-01    2.8891e+05 ;    C28 - H48        CT - HC    
    30     80   1 ;    1.0962e-01    2.8891e+05 ;    C28 - H49        CT - HC    

[ pairs ]
;   ai     aj    funct
     1     15      1 ;      O - C13   
     1     16      1 ;      O - C14   
     1     55      1 ;      O - H24   
     1     56      1 ;      O - H25   
     1     59      1 ;      O - H28   
     1     60      1 ;      O - H29   
     2      5      1 ;      C - C3    
     2     12      1 ;      C - C10   
     2     20      1 ;      C - C18   
     2     23      1 ;      C - C21   
     2     32      1 ;      C - H1    
     2     37      1 ;      C - H6    
     2     38      1 ;      C - H7    
     2     39      1 ;      C - H8    
     2     40      1 ;      C - H9    
     2     41      1 ;      C - H10   
     2     42      1 ;      C - H11   
     2     45      1 ;      C - H14   
     3      8      1 ;     C1 - C6    
     3     10      1 ;     C1 - C8    
     3     13      1 ;     C1 - C11   
     3     17      1 ;     C1 - C15   
     3     33      1 ;     C1 - H2    
     3     34      1 ;     C1 - H3    
     3     35      1 ;     C1 - H4    
     3     36      1 ;     C1 - H5    
     3     41      1 ;     C1 - H10   
     3     42      1 ;     C1 - H11   
     3     43      1 ;     C1 - H12   
     3     44      1 ;     C1 - H13   
     3     46      1 ;     C1 - H15   
     3     47      1 ;     C1 - H16   
     3     48      1 ;     C1 - H17   
     4      6      1 ;     C2 - C4    
     4      7      1 ;     C2 - C5    
     4     11      1 ;     C2 - C9    
     4     14      1 ;     C2 - C12   
     4     15      1 ;     C2 - C13   
     4     16      1 ;     C2 - C14   
     4     18      1 ;     C2 - C16   
     4     37      1 ;     C2 - H6    
     4     38      1 ;     C2 - H7    
     4     39      1 ;     C2 - H8    
     4     40      1 ;     C2 - H9    
     4     51      1 ;     C2 - H20   
     5      9      1 ;     C3 - C7    
     5     17      1 ;     C3 - C15   
     5     19      1 ;     C3 - C17   
     5     21      1 ;     C3 - C19   
     5     31      1 ;     C3 - H     
     5     35      1 ;     C3 - H4    
     5     36      1 ;     C3 - H5    
     5     43      1 ;     C3 - H12   
     5     44      1 ;     C3 - H13   
     5     49      1 ;     C3 - H18   
     5     50      1 ;     C3 - H19   
     5     52      1 ;     C3 - H21   
     5     53      1 ;     C3 - H22   
     5     54      1 ;     C3 - H23   
     6     10      1 ;     C4 - C8    
     6     24      1 ;     C4 - C22   
     6     31      1 ;     C4 - H     
     6     35      1 ;     C4 - H4    
     6     36      1 ;     C4 - H5    
     6     37      1 ;     C4 - H6    
     6     38      1 ;     C4 - H7    
     6     46      1 ;     C4 - H15   
     6     47      1 ;     C4 - H16   
     6     48      1 ;     C4 - H17   
     6     57      1 ;     C4 - H26   
     6     58      1 ;     C4 - H27   
     6     62      1 ;     C4 - H31   
     6     63      1 ;     C4 - H32   
     6     64      1 ;     C4 - H33   
     7      8      1 ;     C5 - C6    
     7      9      1 ;     C5 - C7    
     7     11      1 ;     C5 - C9    
     7     13      1 ;     C5 - C11   
     7     31      1 ;     C5 - H     
     7     33      1 ;     C5 - H2    
     7     34      1 ;     C5 - H3    
     7     46      1 ;     C5 - H15   
     7     47      1 ;     C5 - H16   
     7     48      1 ;     C5 - H17   
     8     12      1 ;     C6 - C10   
     8     22      1 ;     C6 - C20   
     8     32      1 ;     C6 - H1    
     8     39      1 ;     C6 - H8    
     8     40      1 ;     C6 - H9    
     8     51      1 ;     C6 - H20   
     8     55      1 ;     C6 - H24   
     8     56      1 ;     C6 - H25   
     8     59      1 ;     C6 - H28   
     8     60      1 ;     C6 - H29   
     9     12      1 ;     C7 - C10   
     9     13      1 ;     C7 - C11   
     9     14      1 ;     C7 - C12   
     9     32      1 ;     C7 - H1    
     9     34      1 ;     C7 - H3    
    10     12      1 ;     C8 - C10   
    10     14      1 ;     C8 - C12   
    10     15      1 ;     C8 - C13   
    10     16      1 ;     C8 - C14   
    10     18      1 ;     C8 - C16   
    10     32      1 ;     C8 - H1    
    11     14      1 ;     C9 - C12   
    11     20      1 ;     C9 - C18   
    11     23      1 ;     C9 - C21   
    11     31      1 ;     C9 - H     
    11     45      1 ;     C9 - H14   
    12     19      1 ;    C10 - C17   
    12     31      1 ;    C10 - H     
    12     33      1 ;    C10 - H2    
    13     14      1 ;    C11 - C12   
    13     25      1 ;    C11 - C23   
    13     41      1 ;    C11 - H10   
    13     42      1 ;    C11 - H11   
    13     65      1 ;    C11 - H34   
    13     66      1 ;    C11 - H35   
    14     31      1 ;    C12 - H     
    14     34      1 ;    C12 - H3    
    14     35      1 ;    C12 - H4    
    14     36      1 ;    C12 - H5    
    15     21      1 ;    C13 - C19   
    15     33      1 ;    C13 - H2    
    15     43      1 ;    C13 - H12   
    15     44      1 ;    C13 - H13   
    15     49      1 ;    C13 - H18   
    15     50      1 ;    C13 - H19   
    15     52      1 ;    C13 - H21   
    15     53      1 ;    C13 - H22   
    15     54      1 ;    C13 - H23   
    15     61      1 ;    C13 - H30   
    16     17      1 ;    C14 - C15   
    16     19      1 ;    C14 - C17   
    16     33      1 ;    C14 - H2    
    16     52      1 ;    C14 - H21   
    16     53      1 ;    C14 - H22   
    16     54      1 ;    C14 - H23   
    16     61      1 ;    C14 - H30   
    17     18      1 ;    C15 - C16   
    17     22      1 ;    C15 - C20   
    17     32      1 ;    C15 - H1    
    17     55      1 ;    C15 - H24   
    17     56      1 ;    C15 - H25   
    18     19      1 ;    C16 - C17   
    18     21      1 ;    C16 - C19   
    18     33      1 ;    C16 - H2    
    18     49      1 ;    C16 - H18   
    18     50      1 ;    C16 - H19   
    19     51      1 ;    C17 - H20   
    19     59      1 ;    C17 - H28   
    19     60      1 ;    C17 - H29   
    20     26      1 ;    C18 - C24   
    20     27      1 ;    C18 - C25   
    20     34      1 ;    C18 - H3    
    20     62      1 ;    C18 - H31   
    20     63      1 ;    C18 - H32   
    20     64      1 ;    C18 - H33   
    20     67      1 ;    C18 - H36   
    21     55      1 ;    C19 - H24   
    21     56      1 ;    C19 - H25   
    22     49      1 ;    C20 - H18   
    22     50      1 ;    C20 - H19   
    23     24      1 ;    C21 - C22   
    23     34      1 ;    C21 - H3    
    23     57      1 ;    C21 - H26   
    23     58      1 ;    C21 - H27   
    24     28      1 ;    C22 - C26   
    24     29      1 ;    C22 - C27   
    24     30      1 ;    C22 - C28   
    24     45      1 ;    C22 - H14   
    24     69      1 ;    C22 - H38   
    24     70      1 ;    C22 - H39   
    24     71      1 ;    C22 - H40   
    25     57      1 ;    C23 - H26   
    25     58      1 ;    C23 - H27   
    25     72      1 ;    C23 - H41   
    25     73      1 ;    C23 - H42   
    25     74      1 ;    C23 - H43   
    25     75      1 ;    C23 - H44   
    25     76      1 ;    C23 - H45   
    25     77      1 ;    C23 - H46   
    25     78      1 ;    C23 - H47   
    25     79      1 ;    C23 - H48   
    25     80      1 ;    C23 - H49   
    26     30      1 ;    C24 - C28   
    26     65      1 ;    C24 - H34   
    26     66      1 ;    C24 - H35   
    26     70      1 ;    C24 - H39   
    26     71      1 ;    C24 - H40   
    27     28      1 ;    C25 - C26   
    27     29      1 ;    C25 - C27   
    27     65      1 ;    C25 - H34   
    27     66      1 ;    C25 - H35   
    27     69      1 ;    C25 - H38   
    28     67      1 ;    C26 - H36   
    28     75      1 ;    C26 - H44   
    28     76      1 ;    C26 - H45   
    28     77      1 ;    C26 - H46   
    29     67      1 ;    C27 - H36   
    29     72      1 ;    C27 - H41   
    29     73      1 ;    C27 - H42   
    29     74      1 ;    C27 - H43   
    30     67      1 ;    C28 - H36   
    31     32      1 ;      H - H1    
    31     37      1 ;      H - H6    
    31     38      1 ;      H - H7    
    32     33      1 ;     H1 - H2    
    32     43      1 ;     H1 - H12   
    32     44      1 ;     H1 - H13   
    33     39      1 ;     H2 - H8    
    33     40      1 ;     H2 - H9    
    34     41      1 ;     H3 - H10   
    34     42      1 ;     H3 - H11   
    34     45      1 ;     H3 - H14   
    35     39      1 ;     H4 - H8    
    35     40      1 ;     H4 - H9    
    36     39      1 ;     H5 - H8    
    36     40      1 ;     H5 - H9    
    37     41      1 ;     H6 - H10   
    37     42      1 ;     H6 - H11   
    38     41      1 ;     H7 - H10   
    38     42      1 ;     H7 - H11   
    43     51      1 ;    H12 - H20   
    44     51      1 ;    H13 - H20   
    45     57      1 ;    H14 - H26   
    45     58      1 ;    H14 - H27   
    45     62      1 ;    H14 - H31   
    45     63      1 ;    H14 - H32   
    45     64      1 ;    H14 - H33   
    49     59      1 ;    H18 - H28   
    49     60      1 ;    H18 - H29   
    50     59      1 ;    H19 - H28   
    50     60      1 ;    H19 - H29   
    55     61      1 ;    H24 - H30   
    56     61      1 ;    H25 - H30   
    57     65      1 ;    H26 - H34   
    57     66      1 ;    H26 - H35   
    58     65      1 ;    H27 - H34   
    58     66      1 ;    H27 - H35   
    59     61      1 ;    H28 - H30   
    60     61      1 ;    H29 - H30   
    65     67      1 ;    H34 - H36   
    66     67      1 ;    H35 - H36   
    67     69      1 ;    H36 - H38   
    67     70      1 ;    H36 - H39   
    67     71      1 ;    H36 - H40   
    68     19      1 ;    H37 - C17   
    68     21      1 ;    H37 - C19   
    68     61      1 ;    H37 - H30   
    69     72      1 ;    H38 - H41   
    69     73      1 ;    H38 - H42   
    69     74      1 ;    H38 - H43   
    69     75      1 ;    H38 - H44   
    69     76      1 ;    H38 - H45   
    69     77      1 ;    H38 - H46   
    70     78      1 ;    H39 - H47   
    70     79      1 ;    H39 - H48   
    70     80      1 ;    H39 - H49   
    71     78      1 ;    H40 - H47   
    71     79      1 ;    H40 - H48   
    71     80      1 ;    H40 - H49   

[ angles ]
;   ai     aj     ak    funct   theta         cth
     1     22     19      1 ;    1.1005e+02    6.4065e+02 ;      O - C20  - C17      OH -    x - x   
     1     22     21      1 ;    1.1005e+02    6.4065e+02 ;      O - C20  - C19      OH -    x - x   
     1     22     61      1 ;    1.0996e+02    4.7187e+02 ;      O - C20  - H30      OH -    x - HC  
     2      3      4      1 ;    1.1375e+02    4.9589e+02 ;      C - C1   - C2        x -    x - x   
     2      3      9      1 ;    1.0383e+02    5.1748e+02 ;      C - C1   - C7        x -    x - x   
     2      3     31      1 ;    1.1117e+02    3.5690e+02 ;      C - C1   - H         x -    x - HC  
     2      6     11      1 ;    1.0383e+02    5.1748e+02 ;      C - C4   - C9        x -    x - x   
     2      6     13      1 ;    1.1360e+02    4.9647e+02 ;      C - C4   - C11       x -    x - CT  
     2      6     34      1 ;    1.1117e+02    3.5690e+02 ;      C - C4   - H3        x -    x - HC  
     2      7     10      1 ;    1.1104e+02    5.0350e+02 ;      C - C5   - C8        x -    x - x   
     2      7     35      1 ;    1.0934e+02    3.6183e+02 ;      C - C5   - H4        x -    x - HC  
     2      7     36      1 ;    1.0934e+02    3.6183e+02 ;      C - C5   - H5        x -    x - HC  
     2     14     46      1 ;    1.1053e+02    3.6033e+02 ;      C - C12  - H15       x -   CT - HC  
     2     14     47      1 ;    1.1053e+02    3.6033e+02 ;      C - C12  - H16       x -   CT - HC  
     2     14     48      1 ;    1.1053e+02    3.6033e+02 ;      C - C12  - H17       x -   CT - HC  
     3      2      6      1 ;    1.0383e+02    5.1748e+02 ;     C1 - C    - C4        x -    x - x   
     3      2      7      1 ;    1.1375e+02    4.9589e+02 ;     C1 - C    - C5        x -    x - x   
     3      2     14      1 ;    1.1360e+02    4.9647e+02 ;     C1 - C    - C12       x -    x - CT  
     3      4      5      1 ;    1.1104e+02    5.0350e+02 ;     C1 - C2   - C3        x -    x - x   
     3      4     12      1 ;    1.1104e+02    5.0350e+02 ;     C1 - C2   - C10       x -    x - x   
     3      4     32      1 ;    1.0934e+02    3.6183e+02 ;     C1 - C2   - H1        x -    x - HC  
     3      9     11      1 ;    1.0383e+02    5.1748e+02 ;     C1 - C7   - C9        x -    x - x   
     3      9     37      1 ;    1.1117e+02    3.5690e+02 ;     C1 - C7   - H6        x -    x - HC  
     3      9     38      1 ;    1.1117e+02    3.5690e+02 ;     C1 - C7   - H7        x -    x - HC  
     4      3      9      1 ;    1.1375e+02    4.9589e+02 ;     C2 - C1   - C7        x -    x - x   
     4      3     31      1 ;    1.0642e+02    3.6685e+02 ;     C2 - C1   - H         x -    x - HC  
     4      5      8      1 ;    1.1106e+02    5.0359e+02 ;     C2 - C3   - C6        x -    x - x   
     4      5     10      1 ;    1.1106e+02    5.0359e+02 ;     C2 - C3   - C8        x -    x - x   
     4      5     33      1 ;    1.0945e+02    3.6175e+02 ;     C2 - C3   - H2        x -    x - HC  
     4     12     17      1 ;    1.1141e+02    5.0685e+02 ;     C2 - C10  - C15       x -    x - CR  
     4     12     43      1 ;    1.0945e+02    3.6175e+02 ;     C2 - C10  - H12       x -    x - HC  
     4     12     44      1 ;    1.0945e+02    3.6175e+02 ;     C2 - C10  - H13       x -    x - HC  
     5      4     12      1 ;    1.1106e+02    5.0359e+02 ;     C3 - C2   - C10       x -    x - x   
     5      4     32      1 ;    1.0945e+02    3.6175e+02 ;     C3 - C2   - H1        x -    x - HC  
     5      8     15      1 ;    1.1141e+02    5.0685e+02 ;     C3 - C6   - C13       x -    x - CR  
     5      8     16      1 ;    1.1106e+02    5.0359e+02 ;     C3 - C6   - C14       x -    x - x   
     5      8     18      1 ;    1.1143e+02    5.0200e+02 ;     C3 - C6   - C16       x -    x - CT  
     5     10      7      1 ;    1.1106e+02    5.0359e+02 ;     C3 - C8   - C5        x -    x - x   
     5     10     39      1 ;    1.0945e+02    3.6175e+02 ;     C3 - C8   - H8        x -    x - HC  
     5     10     40      1 ;    1.0945e+02    3.6175e+02 ;     C3 - C8   - H9        x -    x - HC  
     6      2      7      1 ;    1.1375e+02    4.9589e+02 ;     C4 - C    - C5        x -    x - x   
     6      2     14      1 ;    1.1360e+02    4.9647e+02 ;     C4 - C    - C12       x -    x - CT  
     6     11      9      1 ;    1.0383e+02    5.1748e+02 ;     C4 - C9   - C7        x -    x - x   
     6     11     41      1 ;    1.1117e+02    3.5690e+02 ;     C4 - C9   - H10       x -    x - HC  
     6     11     42      1 ;    1.1117e+02    3.5690e+02 ;     C4 - C9   - H11       x -    x - HC  
     6     13     20      1 ;    1.1370e+02    4.9840e+02 ;     C4 - C11  - C18       x -   CT - CT  
     6     13     23      1 ;    1.1370e+02    4.9840e+02 ;     C4 - C11  - C21       x -   CT - CT  
     6     13     45      1 ;    1.1053e+02    3.6033e+02 ;     C4 - C11  - H14       x -   CT - HC  
     7      2     14      1 ;    1.1056e+02    5.0484e+02 ;     C5 - C    - C12       x -    x - CT  
     7     10     39      1 ;    1.0945e+02    3.6175e+02 ;     C5 - C8   - H8        x -    x - HC  
     7     10     40      1 ;    1.0945e+02    3.6175e+02 ;     C5 - C8   - H9        x -    x - HC  
     8      5     10      1 ;    1.1106e+02    5.0359e+02 ;     C6 - C3   - C8        x -    x - x   
     8      5     33      1 ;    1.0945e+02    3.6175e+02 ;     C6 - C3   - H2        x -    x - HC  
     8     15     17      1 ;    1.2302e+02    5.1246e+02 ;     C6 - C13  - C15       x -   CR - CR  
     8     15     19      1 ;    1.1596e+02    5.0099e+02 ;     C6 - C13  - C17       x -   CR - x   
     8     16     21      1 ;    1.1106e+02    5.0359e+02 ;     C6 - C14  - C19       x -    x - x   
     8     16     49      1 ;    1.0945e+02    3.6175e+02 ;     C6 - C14  - H18       x -    x - HC  
     8     16     50      1 ;    1.0945e+02    3.6175e+02 ;     C6 - C14  - H19       x -    x - HC  
     8     18     52      1 ;    1.1063e+02    3.5890e+02 ;     C6 - C16  - H21       x -   CT - HC  
     8     18     53      1 ;    1.1063e+02    3.5890e+02 ;     C6 - C16  - H22       x -   CT - HC  
     8     18     54      1 ;    1.1063e+02    3.5890e+02 ;     C6 - C16  - H23       x -   CT - HC  
     9      3     31      1 ;    1.1117e+02    3.5690e+02 ;     C7 - C1   - H         x -    x - HC  
     9     11     41      1 ;    1.1117e+02    3.5690e+02 ;     C7 - C9   - H10       x -    x - HC  
     9     11     42      1 ;    1.1117e+02    3.5690e+02 ;     C7 - C9   - H11       x -    x - HC  
    10      5     33      1 ;    1.0945e+02    3.6175e+02 ;     C8 - C3   - H2        x -    x - HC  
    10      7     35      1 ;    1.0945e+02    3.6175e+02 ;     C8 - C5   - H4        x -    x - HC  
    10      7     36      1 ;    1.0945e+02    3.6175e+02 ;     C8 - C5   - H5        x -    x - HC  
    11      6     13      1 ;    1.1360e+02    4.9647e+02 ;     C9 - C4   - C11       x -    x - CT  
    11      6     34      1 ;    1.1117e+02    3.5690e+02 ;     C9 - C4   - H3        x -    x - HC  
    11      9     37      1 ;    1.1117e+02    3.5690e+02 ;     C9 - C7   - H6        x -    x - HC  
    11      9     38      1 ;    1.1117e+02    3.5690e+02 ;     C9 - C7   - H7        x -    x - HC  
    12      4     32      1 ;    1.0945e+02    3.6175e+02 ;    C10 - C2   - H1        x -    x - HC  
    12     17     15      1 ;    1.2302e+02    5.1246e+02 ;    C10 - C15  - C13       x -   CR - CR  
    12     17     51      1 ;    1.1657e+02    3.5606e+02 ;    C10 - C15  - H20       x -   CR - HA  
    13      6     34      1 ;    1.0779e+02    3.6484e+02 ;    C11 - C4   - H3       CT -    x - HC  
    13     20     24      1 ;    1.1263e+02    5.0099e+02 ;    C11 - C18  - C22      CT -   CT - CT  
    13     20     57      1 ;    1.0968e+02    3.6208e+02 ;    C11 - C18  - H26      CT -   CT - HC  
    13     20     58      1 ;    1.0968e+02    3.6208e+02 ;    C11 - C18  - H27      CT -   CT - HC  
    13     23     62      1 ;    1.0968e+02    3.6208e+02 ;    C11 - C21  - H31      CT -   CT - HC  
    13     23     63      1 ;    1.0968e+02    3.6208e+02 ;    C11 - C21  - H32      CT -   CT - HC  
    13     23     64      1 ;    1.0968e+02    3.6208e+02 ;    C11 - C21  - H33      CT -   CT - HC  
    15      8     16      1 ;    1.1141e+02    5.0685e+02 ;    C13 - C6   - C14      CR -    x - x   
    15      8     18      1 ;    1.0977e+02    5.0986e+02 ;    C13 - C6   - C16      CR -    x - CT  
    15     17     51      1 ;    1.2039e+02    3.8802e+02 ;    C13 - C15  - H20      CR -   CR - HA  
    15     19     22      1 ;    1.1141e+02    5.0685e+02 ;    C13 - C17  - C20      CR -    x - x   
    15     19     55      1 ;    1.0931e+02    3.6736e+02 ;    C13 - C17  - H24      CR -    x - HC  
    15     19     56      1 ;    1.0931e+02    3.6736e+02 ;    C13 - C17  - H25      CR -    x - HC  
    16      8     18      1 ;    1.1143e+02    5.0200e+02 ;    C14 - C6   - C16       x -    x - CT  
    16     21     22      1 ;    1.1106e+02    5.0359e+02 ;    C14 - C19  - C20       x -    x - x   
    16     21     59      1 ;    1.0945e+02    3.6175e+02 ;    C14 - C19  - H28       x -    x - HC  
    16     21     60      1 ;    1.0945e+02    3.6175e+02 ;    C14 - C19  - H29       x -    x - HC  
    17     12     43      1 ;    1.0931e+02    3.6736e+02 ;    C15 - C10  - H12      CR -    x - HC  
    17     12     44      1 ;    1.0931e+02    3.6736e+02 ;    C15 - C10  - H13      CR -    x - HC  
    17     15     19      1 ;    1.2302e+02    5.1246e+02 ;    C15 - C13  - C17      CR -   CR - x   
    19     22     21      1 ;    1.1106e+02    5.0359e+02 ;    C17 - C20  - C19       x -    x - x   
    19     22     61      1 ;    1.0918e+02    3.6217e+02 ;    C17 - C20  - H30       x -    x - HC  
    20     13     23      1 ;    1.1263e+02    5.0099e+02 ;    C18 - C11  - C21      CT -   CT - CT  
    20     13     45      1 ;    1.0968e+02    3.6208e+02 ;    C18 - C11  - H14      CT -   CT - HC  
    20     24     25      1 ;    1.1263e+02    5.0099e+02 ;    C18 - C22  - C23      CT -   CT - CT  
    20     24     65      1 ;    1.0968e+02    3.6208e+02 ;    C18 - C22  - H34      CT -   CT - HC  
    20     24     66      1 ;    1.0968e+02    3.6208e+02 ;    C18 - C22  - H35      CT -   CT - HC  
    21     16     49      1 ;    1.0945e+02    3.6175e+02 ;    C19 - C14  - H18       x -    x - HC  
    21     16     50      1 ;    1.0945e+02    3.6175e+02 ;    C19 - C14  - H19       x -    x - HC  
    21     22     61      1 ;    1.0918e+02    3.6217e+02 ;    C19 - C20  - H30       x -    x - HC  
    22      1     68      1 ;    1.0707e+02    5.4584e+02 ;    C20 - O    - H37       x -   OH - HO  
    22     19     55      1 ;    1.0945e+02    3.6175e+02 ;    C20 - C17  - H24       x -    x - HC  
    22     19     56      1 ;    1.0945e+02    3.6175e+02 ;    C20 - C17  - H25       x -    x - HC  
    22     21     59      1 ;    1.0945e+02    3.6175e+02 ;    C20 - C19  - H28       x -    x - HC  
    22     21     60      1 ;    1.0945e+02    3.6175e+02 ;    C20 - C19  - H29       x -    x - HC  
    23     13     45      1 ;    1.0968e+02    3.6208e+02 ;    C21 - C11  - H14      CT -   CT - HC  
    24     20     57      1 ;    1.0968e+02    3.6208e+02 ;    C22 - C18  - H26      CT -   CT - HC  
    24     20     58      1 ;    1.0968e+02    3.6208e+02 ;    C22 - C18  - H27      CT -   CT - HC  
    24     25     26      1 ;    1.1263e+02    5.0099e+02 ;    C22 - C23  - C24      CT -   CT - CT  
    24     25     27      1 ;    1.1263e+02    5.0099e+02 ;    C22 - C23  - C25      CT -   CT - CT  
    24     25     67      1 ;    1.0968e+02    3.6208e+02 ;    C22 - C23  - H36      CT -   CT - HC  
    25     24     65      1 ;    1.0968e+02    3.6208e+02 ;    C23 - C22  - H34      CT -   CT - HC  
    25     24     66      1 ;    1.0968e+02    3.6208e+02 ;    C23 - C22  - H35      CT -   CT - HC  
    25     26     28      1 ;    1.1263e+02    5.0099e+02 ;    C23 - C24  - C26      CT -   CT - CT  
    25     26     29      1 ;    1.1263e+02    5.0099e+02 ;    C23 - C24  - C27      CT -   CT - CT  
    25     26     69      1 ;    1.0968e+02    3.6208e+02 ;    C23 - C24  - H38      CT -   CT - HC  
    25     27     30      1 ;    1.1263e+02    5.0099e+02 ;    C23 - C25  - C28      CT -   CT - CT  
    25     27     70      1 ;    1.0968e+02    3.6208e+02 ;    C23 - C25  - H39      CT -   CT - HC  
    25     27     71      1 ;    1.0968e+02    3.6208e+02 ;    C23 - C25  - H40      CT -   CT - HC  
    26     25     27      1 ;    1.1263e+02    5.0099e+02 ;    C24 - C23  - C25      CT -   CT - CT  
    26     25     67      1 ;    1.0968e+02    3.6208e+02 ;    C24 - C23  - H36      CT -   CT - HC  
    26     28     72      1 ;    1.0968e+02    3.6208e+02 ;    C24 - C26  - H41      CT -   CT - HC  
    26     28     73      1 ;    1.0968e+02    3.6208e+02 ;    C24 - C26  - H42      CT -   CT - HC  
    26     28     74      1 ;    1.0968e+02    3.6208e+02 ;    C24 - C26  - H43      CT -   CT - HC  
    26     29     75      1 ;    1.0968e+02    3.6208e+02 ;    C24 - C27  - H44      CT -   CT - HC  
    26     29     76      1 ;    1.0968e+02    3.6208e+02 ;    C24 - C27  - H45      CT -   CT - HC  
    26     29     77      1 ;    1.0968e+02    3.6208e+02 ;    C24 - C27  - H46      CT -   CT - HC  
    27     25     67      1 ;    1.0968e+02    3.6208e+02 ;    C25 - C23  - H36      CT -   CT - HC  
    27     30     78      1 ;    1.0968e+02    3.6208e+02 ;    C25 - C28  - H47      CT -   CT - HC  
    27     30     79      1 ;    1.0968e+02    3.6208e+02 ;    C25 - C28  - H48      CT -   CT - HC  
    27     30     80      1 ;    1.0968e+02    3.6208e+02 ;    C25 - C28  - H49      CT -   CT - HC  
    28     26     29      1 ;    1.1263e+02    5.0099e+02 ;    C26 - C24  - C27      CT -   CT - CT  
    28     26     69      1 ;    1.0968e+02    3.6208e+02 ;    C26 - C24  - H38      CT -   CT - HC  
    29     26     69      1 ;    1.0968e+02    3.6208e+02 ;    C27 - C24  - H38      CT -   CT - HC  
    30     27     70      1 ;    1.0968e+02    3.6208e+02 ;    C28 - C25  - H39      CT -   CT - HC  
    30     27     71      1 ;    1.0968e+02    3.6208e+02 ;    C28 - C25  - H40      CT -   CT - HC  
    35      7     36      1 ;    1.0662e+02    3.0066e+02 ;     H4 - C5   - H5       HC -    x - HC  
    37      9     38      1 ;    1.0722e+02    3.0049e+02 ;     H6 - C7   - H7       HC -    x - HC  
    39     10     40      1 ;    1.0662e+02    3.0066e+02 ;     H8 - C8   - H9       HC -    x - HC  
    41     11     42      1 ;    1.0722e+02    3.0049e+02 ;    H10 - C9   - H11      HC -    x - HC  
    43     12     44      1 ;    1.0662e+02    3.0066e+02 ;    H12 - C10  - H13      HC -    x - HC  
    46     14     47      1 ;    1.0773e+02    2.9957e+02 ;    H15 - C12  - H16      HC -   CT - HC  
    46     14     48      1 ;    1.0773e+02    2.9957e+02 ;    H15 - C12  - H17      HC -   CT - HC  
    47     14     48      1 ;    1.0773e+02    2.9957e+02 ;    H16 - C12  - H17      HC -   CT - HC  
    49     16     50      1 ;    1.0662e+02    3.0066e+02 ;    H18 - C14  - H19      HC -    x - HC  
    52     18     53      1 ;    1.0773e+02    2.9957e+02 ;    H21 - C16  - H22      HC -   CT - HC  
    52     18     54      1 ;    1.0773e+02    2.9957e+02 ;    H21 - C16  - H23      HC -   CT - HC  
    53     18     54      1 ;    1.0773e+02    2.9957e+02 ;    H22 - C16  - H23      HC -   CT - HC  
    55     19     56      1 ;    1.0662e+02    3.0066e+02 ;    H24 - C17  - H25      HC -    x - HC  
    57     20     58      1 ;    1.0773e+02    2.9957e+02 ;    H26 - C18  - H27      HC -   CT - HC  
    59     21     60      1 ;    1.0662e+02    3.0066e+02 ;    H28 - C19  - H29      HC -    x - HC  
    62     23     63      1 ;    1.0773e+02    2.9957e+02 ;    H31 - C21  - H32      HC -   CT - HC  
    62     23     64      1 ;    1.0773e+02    2.9957e+02 ;    H31 - C21  - H33      HC -   CT - HC  
    63     23     64      1 ;    1.0773e+02    2.9957e+02 ;    H32 - C21  - H33      HC -   CT - HC  
    65     24     66      1 ;    1.0773e+02    2.9957e+02 ;    H34 - C22  - H35      HC -   CT - HC  
    70     27     71      1 ;    1.0773e+02    2.9957e+02 ;    H39 - C25  - H40      HC -   CT - HC  
    72     28     73      1 ;    1.0773e+02    2.9957e+02 ;    H41 - C26  - H42      HC -   CT - HC  
    72     28     74      1 ;    1.0773e+02    2.9957e+02 ;    H41 - C26  - H43      HC -   CT - HC  
    73     28     74      1 ;    1.0773e+02    2.9957e+02 ;    H42 - C26  - H43      HC -   CT - HC  
    75     29     76      1 ;    1.0773e+02    2.9957e+02 ;    H44 - C27  - H45      HC -   CT - HC  
    75     29     77      1 ;    1.0773e+02    2.9957e+02 ;    H44 - C27  - H46      HC -   CT - HC  
    76     29     77      1 ;    1.0773e+02    2.9957e+02 ;    H45 - C27  - H46      HC -   CT - HC  
    78     30     79      1 ;    1.0773e+02    2.9957e+02 ;    H47 - C28  - H48      HC -   CT - HC  
    78     30     80      1 ;    1.0773e+02    2.9957e+02 ;    H47 - C28  - H49      HC -   CT - HC  
    79     30     80      1 ;    1.0773e+02    2.9957e+02 ;    H48 - C28  - H49      HC -   CT - HC  

[ dihedrals ] ; propers
; for gromacs 4.5 or higher, using funct 9
;    i      j      k      l   func   phase     kd      pn
     1     22     19     15      9 ;     0.00   0.65084   3 ;      O-   C20-   C17-   C13
     1     22     19     55      9 ;     0.00   0.37656   3 ;      O-   C20-   C17-   H24
     1     22     19     56      9 ;     0.00   0.37656   3 ;      O-   C20-   C17-   H25
     1     22     21     16      9 ;     0.00   0.75312   3 ;      O-   C20-   C19-   C14
     1     22     21     59      9 ;     0.00   0.37656   3 ;      O-   C20-   C19-   H28
     1     22     21     60      9 ;     0.00   0.37656   3 ;      O-   C20-   C19-   H29
     2      3      4      5      9 ;     0.00   2.17568   3 ;      C-    C1-    C2-    C3
     2      3      4     12      9 ;     0.00   2.17568   3 ;      C-    C1-    C2-   C10
     2      3      4     32      9 ;     0.00   0.54392   3 ;      C-    C1-    C2-    H1
     2      3      9     11      9 ;     0.00   2.17568   3 ;      C-    C1-    C7-    C9
     2      3      9     37      9 ;     0.00   0.54392   3 ;      C-    C1-    C7-    H6
     2      3      9     38      9 ;     0.00   0.54392   3 ;      C-    C1-    C7-    H7
     2      6     11      9      9 ;     0.00   2.17568   3 ;      C-    C4-    C9-    C7
     2      6     11     41      9 ;     0.00   0.54392   3 ;      C-    C4-    C9-   H10
     2      6     11     42      9 ;     0.00   0.54392   3 ;      C-    C4-    C9-   H11
     2      6     13     20      9 ;     0.00   2.17568   3 ;      C-    C4-   C11-   C18
     2      6     13     23      9 ;     0.00   2.17568   3 ;      C-    C4-   C11-   C21
     2      6     13     45      9 ;     0.00   0.54392   3 ;      C-    C4-   C11-   H14
     2      7     10      5      9 ;     0.00   2.17568   3 ;      C-    C5-    C8-    C3
     2      7     10     39      9 ;     0.00   0.54392   3 ;      C-    C5-    C8-    H8
     2      7     10     40      9 ;     0.00   0.54392   3 ;      C-    C5-    C8-    H9
     3      2      6     11      9 ;     0.00   2.17568   3 ;     C1-     C-    C4-    C9
     3      2      6     13      9 ;     0.00   2.17568   3 ;     C1-     C-    C4-   C11
     3      2      6     34      9 ;     0.00   0.54392   3 ;     C1-     C-    C4-    H3
     3      2      7     10      9 ;     0.00   2.17568   3 ;     C1-     C-    C5-    C8
     3      2      7     35      9 ;     0.00   0.54392   3 ;     C1-     C-    C5-    H4
     3      2      7     36      9 ;     0.00   0.54392   3 ;     C1-     C-    C5-    H5
     3      2     14     46      9 ;     0.00   0.54392   3 ;     C1-     C-   C12-   H15
     3      2     14     47      9 ;     0.00   0.54392   3 ;     C1-     C-   C12-   H16
     3      2     14     48      9 ;     0.00   0.54392   3 ;     C1-     C-   C12-   H17
     3      4      5      8      9 ;     0.00   2.17568   3 ;     C1-    C2-    C3-    C6
     3      4      5     10      9 ;     0.00   2.17568   3 ;     C1-    C2-    C3-    C8
     3      4      5     33      9 ;     0.00   0.54392   3 ;     C1-    C2-    C3-    H2
     3      4     12     17      9 ;     0.00   0.65084   3 ;     C1-    C2-   C10-   C15
     3      4     12     43      9 ;     0.00   0.54392   3 ;     C1-    C2-   C10-   H12
     3      4     12     44      9 ;     0.00   0.54392   3 ;     C1-    C2-   C10-   H13
     3      9     11      6      9 ;     0.00   2.17568   3 ;     C1-    C7-    C9-    C4
     3      9     11     41      9 ;     0.00   0.54392   3 ;     C1-    C7-    C9-   H10
     3      9     11     42      9 ;     0.00   0.54392   3 ;     C1-    C7-    C9-   H11
     4      3      2      6      9 ;     0.00   2.17568   3 ;     C2-    C1-     C-    C4
     4      3      2      7      9 ;     0.00   2.17568   3 ;     C2-    C1-     C-    C5
     4      3      2     14      9 ;     0.00   2.17568   3 ;     C2-    C1-     C-   C12
     4      3      9     11      9 ;     0.00   2.17568   3 ;     C2-    C1-    C7-    C9
     4      3      9     37      9 ;     0.00   0.54392   3 ;     C2-    C1-    C7-    H6
     4      3      9     38      9 ;     0.00   0.54392   3 ;     C2-    C1-    C7-    H7
     4      5      8     15      9 ;     0.00   0.65084   3 ;     C2-    C3-    C6-   C13
     4      5      8     16      9 ;     0.00   2.17568   3 ;     C2-    C3-    C6-   C14
     4      5      8     18      9 ;     0.00   2.17568   3 ;     C2-    C3-    C6-   C16
     4      5     10      7      9 ;     0.00   2.17568   3 ;     C2-    C3-    C8-    C5
     4      5     10     39      9 ;     0.00   0.54392   3 ;     C2-    C3-    C8-    H8
     4      5     10     40      9 ;     0.00   0.54392   3 ;     C2-    C3-    C8-    H9
     4     12     17     15      9 ;     0.00   0.00000   0 ;     C2-   C10-   C15-   C13
     4     12     17     51      9 ;     0.00   0.00000   0 ;     C2-   C10-   C15-   H20
     5      4      3      9      9 ;     0.00   2.17568   3 ;     C3-    C2-    C1-    C7
     5      4      3     31      9 ;     0.00   0.54392   3 ;     C3-    C2-    C1-     H
     5      4     12     17      9 ;     0.00   0.65084   3 ;     C3-    C2-   C10-   C15
     5      4     12     43      9 ;     0.00   0.54392   3 ;     C3-    C2-   C10-   H12
     5      4     12     44      9 ;     0.00   0.54392   3 ;     C3-    C2-   C10-   H13
     5      8     15     17      9 ;     0.00   0.00000   0 ;     C3-    C6-   C13-   C15
     5      8     15     19      9 ;     0.00   0.00000   0 ;     C3-    C6-   C13-   C17
     5      8     16     21      9 ;     0.00   2.17568   3 ;     C3-    C6-   C14-   C19
     5      8     16     49      9 ;     0.00   0.54392   3 ;     C3-    C6-   C14-   H18
     5      8     16     50      9 ;     0.00   0.54392   3 ;     C3-    C6-   C14-   H19
     5      8     18     52      9 ;     0.00   0.54392   3 ;     C3-    C6-   C16-   H21
     5      8     18     53      9 ;     0.00   0.54392   3 ;     C3-    C6-   C16-   H22
     5      8     18     54      9 ;     0.00   0.54392   3 ;     C3-    C6-   C16-   H23
     5     10      7     35      9 ;     0.00   0.54392   3 ;     C3-    C8-    C5-    H4
     5     10      7     36      9 ;     0.00   0.54392   3 ;     C3-    C8-    C5-    H5
     6      2      3      9      9 ;     0.00   2.17568   3 ;     C4-     C-    C1-    C7
     6      2      3     31      9 ;     0.00   0.54392   3 ;     C4-     C-    C1-     H
     6      2      7     10      9 ;     0.00   2.17568   3 ;     C4-     C-    C5-    C8
     6      2      7     35      9 ;     0.00   0.54392   3 ;     C4-     C-    C5-    H4
     6      2      7     36      9 ;     0.00   0.54392   3 ;     C4-     C-    C5-    H5
     6      2     14     46      9 ;     0.00   0.54392   3 ;     C4-     C-   C12-   H15
     6      2     14     47      9 ;     0.00   0.54392   3 ;     C4-     C-   C12-   H16
     6      2     14     48      9 ;     0.00   0.54392   3 ;     C4-     C-   C12-   H17
     6     11      9     37      9 ;     0.00   0.54392   3 ;     C4-    C9-    C7-    H6
     6     11      9     38      9 ;     0.00   0.54392   3 ;     C4-    C9-    C7-    H7
     6     13     20     24      9 ;     0.00   2.17568   3 ;     C4-   C11-   C18-   C22
     6     13     20     57      9 ;     0.00   0.54392   3 ;     C4-   C11-   C18-   H26
     6     13     20     58      9 ;     0.00   0.54392   3 ;     C4-   C11-   C18-   H27
     6     13     23     62      9 ;     0.00   0.54392   3 ;     C4-   C11-   C21-   H31
     6     13     23     63      9 ;     0.00   0.54392   3 ;     C4-   C11-   C21-   H32
     6     13     23     64      9 ;     0.00   0.54392   3 ;     C4-   C11-   C21-   H33
     7      2      3      9      9 ;     0.00   2.17568   3 ;     C5-     C-    C1-    C7
     7      2      3     31      9 ;     0.00   0.54392   3 ;     C5-     C-    C1-     H
     7      2      6     11      9 ;     0.00   2.17568   3 ;     C5-     C-    C4-    C9
     7      2      6     13      9 ;     0.00   2.17568   3 ;     C5-     C-    C4-   C11
     7      2      6     34      9 ;     0.00   0.54392   3 ;     C5-     C-    C4-    H3
     7      2     14     46      9 ;     0.00   0.54392   3 ;     C5-     C-   C12-   H15
     7      2     14     47      9 ;     0.00   0.54392   3 ;     C5-     C-   C12-   H16
     7      2     14     48      9 ;     0.00   0.54392   3 ;     C5-     C-   C12-   H17
     7     10      5      8      9 ;     0.00   2.17568   3 ;     C5-    C8-    C3-    C6
     7     10      5     33      9 ;     0.00   0.54392   3 ;     C5-    C8-    C3-    H2
     8      5      4     12      9 ;     0.00   2.17568   3 ;     C6-    C3-    C2-   C10
     8      5      4     32      9 ;     0.00   0.54392   3 ;     C6-    C3-    C2-    H1
     8      5     10     39      9 ;     0.00   0.54392   3 ;     C6-    C3-    C8-    H8
     8      5     10     40      9 ;     0.00   0.54392   3 ;     C6-    C3-    C8-    H9
     8     15     17     12      9 ;     0.00   0.62760   1 ;     C6-   C13-   C15-   C10
     8     15     17     12      9 ;   180.00   5.56472   3 ;     C6-   C13-   C15-   C10
     8     15     17     12      9 ;   180.00  24.18352   2 ;     C6-   C13-   C15-   C10
     8     15     17     51      9 ;   180.00  27.82360   2 ;     C6-   C13-   C15-   H20
     8     15     19     22      9 ;     0.00   0.00000   0 ;     C6-   C13-   C17-   C20
     8     15     19     55      9 ;     0.00   0.62760   3 ;     C6-   C13-   C17-   H24
     8     15     19     56      9 ;     0.00   0.62760   3 ;     C6-   C13-   C17-   H25
     8     16     21     22      9 ;     0.00   2.17568   3 ;     C6-   C14-   C19-   C20
     8     16     21     59      9 ;     0.00   0.54392   3 ;     C6-   C14-   C19-   H28
     8     16     21     60      9 ;     0.00   0.54392   3 ;     C6-   C14-   C19-   H29
     9      3      2     14      9 ;     0.00   2.17568   3 ;     C7-    C1-     C-   C12
     9      3      4     12      9 ;     0.00   2.17568   3 ;     C7-    C1-    C2-   C10
     9      3      4     32      9 ;     0.00   0.54392   3 ;     C7-    C1-    C2-    H1
     9     11      6     13      9 ;     0.00   2.17568   3 ;     C7-    C9-    C4-   C11
     9     11      6     34      9 ;     0.00   0.54392   3 ;     C7-    C9-    C4-    H3
    10      5      4     12      9 ;     0.00   2.17568   3 ;     C8-    C3-    C2-   C10
    10      5      4     32      9 ;     0.00   0.54392   3 ;     C8-    C3-    C2-    H1
    10      5      8     15      9 ;     0.00   0.65084   3 ;     C8-    C3-    C6-   C13
    10      5      8     16      9 ;     0.00   2.17568   3 ;     C8-    C3-    C6-   C14
    10      5      8     18      9 ;     0.00   2.17568   3 ;     C8-    C3-    C6-   C16
    10      7      2     14      9 ;     0.00   2.17568   3 ;     C8-    C5-     C-   C12
    11      6      2     14      9 ;     0.00   2.17568   3 ;     C9-    C4-     C-   C12
    11      6     13     20      9 ;     0.00   2.17568   3 ;     C9-    C4-   C11-   C18
    11      6     13     23      9 ;     0.00   2.17568   3 ;     C9-    C4-   C11-   C21
    11      6     13     45      9 ;     0.00   0.54392   3 ;     C9-    C4-   C11-   H14
    11      9      3     31      9 ;     0.00   0.54392   3 ;     C9-    C7-    C1-     H
    12      4      3     31      9 ;     0.00   0.54392   3 ;    C10-    C2-    C1-     H
    12      4      5     33      9 ;     0.00   0.54392   3 ;    C10-    C2-    C3-    H2
    12     17     15     19      9 ;     0.00   0.62760   1 ;    C10-   C15-   C13-   C17
    12     17     15     19      9 ;   180.00   5.56472   3 ;    C10-   C15-   C13-   C17
    12     17     15     19      9 ;   180.00  24.18352   2 ;    C10-   C15-   C13-   C17
    13      6      2     14      9 ;     0.00   2.17568   3 ;    C11-    C4-     C-   C12
    13      6     11     41      9 ;     0.00   0.54392   3 ;    C11-    C4-    C9-   H10
    13      6     11     42      9 ;     0.00   0.54392   3 ;    C11-    C4-    C9-   H11
    13     20     24     25      9 ;     0.00   2.17568   3 ;    C11-   C18-   C22-   C23
    13     20     24     65      9 ;     0.00   0.54392   3 ;    C11-   C18-   C22-   H34
    13     20     24     66      9 ;     0.00   0.54392   3 ;    C11-   C18-   C22-   H35
    14      2      3     31      9 ;     0.00   0.54392   3 ;    C12-     C-    C1-     H
    14      2      6     34      9 ;     0.00   0.54392   3 ;    C12-     C-    C4-    H3
    14      2      7     35      9 ;     0.00   0.54392   3 ;    C12-     C-    C5-    H4
    14      2      7     36      9 ;     0.00   0.54392   3 ;    C12-     C-    C5-    H5
    15      8      5     33      9 ;     0.00   0.65084   3 ;    C13-    C6-    C3-    H2
    15      8     16     21      9 ;     0.00   0.65084   3 ;    C13-    C6-   C14-   C19
    15      8     16     49      9 ;     0.00   0.65084   3 ;    C13-    C6-   C14-   H18
    15      8     16     50      9 ;     0.00   0.65084   3 ;    C13-    C6-   C14-   H19
    15      8     18     52      9 ;     0.00   0.65084   3 ;    C13-    C6-   C16-   H21
    15      8     18     53      9 ;     0.00   0.65084   3 ;    C13-    C6-   C16-   H22
    15      8     18     54      9 ;     0.00   0.65084   3 ;    C13-    C6-   C16-   H23
    15     17     12     43      9 ;   180.00   1.08784   3 ;    C13-   C15-   C10-   H12
    15     17     12     44      9 ;   180.00   1.08784   3 ;    C13-   C15-   C10-   H13
    15     19     22     21      9 ;     0.00   0.65084   3 ;    C13-   C17-   C20-   C19
    15     19     22     61      9 ;     0.00   0.65084   3 ;    C13-   C17-   C20-   H30
    16      8      5     33      9 ;     0.00   0.54392   3 ;    C14-    C6-    C3-    H2
    16      8     15     17      9 ;     0.00   0.00000   0 ;    C14-    C6-   C13-   C15
    16      8     15     19      9 ;     0.00   0.00000   0 ;    C14-    C6-   C13-   C17
    16      8     18     52      9 ;     0.00   0.54392   3 ;    C14-    C6-   C16-   H21
    16      8     18     53      9 ;     0.00   0.54392   3 ;    C14-    C6-   C16-   H22
    16      8     18     54      9 ;     0.00   0.54392   3 ;    C14-    C6-   C16-   H23
    16     21     22     19      9 ;     0.00   2.17568   3 ;    C14-   C19-   C20-   C17
    16     21     22     61      9 ;     0.00   0.65084   3 ;    C14-   C19-   C20-   H30
    17     12      4     32      9 ;     0.00   0.65084   3 ;    C15-   C10-    C2-    H1
    17     15      8     18      9 ;     0.00   0.00000   0 ;    C15-   C13-    C6-   C16
    17     15     19     22      9 ;     0.00   0.00000   0 ;    C15-   C13-   C17-   C20
    17     15     19     55      9 ;   180.00   1.08784   3 ;    C15-   C13-   C17-   H24
    17     15     19     56      9 ;   180.00   1.08784   3 ;    C15-   C13-   C17-   H25
    18      8      5     33      9 ;     0.00   0.54392   3 ;    C16-    C6-    C3-    H2
    18      8     15     19      9 ;     0.00   0.00000   0 ;    C16-    C6-   C13-   C17
    18      8     16     21      9 ;     0.00   2.17568   3 ;    C16-    C6-   C14-   C19
    18      8     16     49      9 ;     0.00   0.54392   3 ;    C16-    C6-   C14-   H18
    18      8     16     50      9 ;     0.00   0.54392   3 ;    C16-    C6-   C14-   H19
    19     15     17     51      9 ;   180.00  27.82360   2 ;    C17-   C13-   C15-   H20
    19     22     21     59      9 ;     0.00   0.54392   3 ;    C17-   C20-   C19-   H28
    19     22     21     60      9 ;     0.00   0.54392   3 ;    C17-   C20-   C19-   H29
    20     13      6     34      9 ;     0.00   0.54392   3 ;    C18-   C11-    C4-    H3
    20     13     23     62      9 ;     0.00   0.54392   3 ;    C18-   C11-   C21-   H31
    20     13     23     63      9 ;     0.00   0.54392   3 ;    C18-   C11-   C21-   H32
    20     13     23     64      9 ;     0.00   0.54392   3 ;    C18-   C11-   C21-   H33
    20     24     25     26      9 ;     0.00   2.17568   3 ;    C18-   C22-   C23-   C24
    20     24     25     27      9 ;     0.00   2.17568   3 ;    C18-   C22-   C23-   C25
    20     24     25     67      9 ;     0.00   0.54392   3 ;    C18-   C22-   C23-   H36
    21     22     19     55      9 ;     0.00   0.54392   3 ;    C19-   C20-   C17-   H24
    21     22     19     56      9 ;     0.00   0.54392   3 ;    C19-   C20-   C17-   H25
    22     21     16     49      9 ;     0.00   0.54392   3 ;    C20-   C19-   C14-   H18
    22     21     16     50      9 ;     0.00   0.54392   3 ;    C20-   C19-   C14-   H19
    23     13      6     34      9 ;     0.00   0.54392   3 ;    C21-   C11-    C4-    H3
    23     13     20     24      9 ;     0.00   2.17568   3 ;    C21-   C11-   C18-   C22
    23     13     20     57      9 ;     0.00   0.54392   3 ;    C21-   C11-   C18-   H26
    23     13     20     58      9 ;     0.00   0.54392   3 ;    C21-   C11-   C18-   H27
    24     20     13     45      9 ;     0.00   0.54392   3 ;    C22-   C18-   C11-   H14
    24     25     26     28      9 ;     0.00   2.17568   3 ;    C22-   C23-   C24-   C26
    24     25     26     29      9 ;     0.00   2.17568   3 ;    C22-   C23-   C24-   C27
    24     25     26     69      9 ;     0.00   0.54392   3 ;    C22-   C23-   C24-   H38
    24     25     27     30      9 ;     0.00   2.17568   3 ;    C22-   C23-   C25-   C28
    24     25     27     70      9 ;     0.00   0.54392   3 ;    C22-   C23-   C25-   H39
    24     25     27     71      9 ;     0.00   0.54392   3 ;    C22-   C23-   C25-   H40
    25     24     20     57      9 ;     0.00   0.54392   3 ;    C23-   C22-   C18-   H26
    25     24     20     58      9 ;     0.00   0.54392   3 ;    C23-   C22-   C18-   H27
    25     26     28     72      9 ;     0.00   0.54392   3 ;    C23-   C24-   C26-   H41
    25     26     28     73      9 ;     0.00   0.54392   3 ;    C23-   C24-   C26-   H42
    25     26     28     74      9 ;     0.00   0.54392   3 ;    C23-   C24-   C26-   H43
    25     26     29     75      9 ;     0.00   0.54392   3 ;    C23-   C24-   C27-   H44
    25     26     29     76      9 ;     0.00   0.54392   3 ;    C23-   C24-   C27-   H45
    25     26     29     77      9 ;     0.00   0.54392   3 ;    C23-   C24-   C27-   H46
    25     27     30     78      9 ;     0.00   0.54392   3 ;    C23-   C25-   C28-   H47
    25     27     30     79      9 ;     0.00   0.54392   3 ;    C23-   C25-   C28-   H48
    25     27     30     80      9 ;     0.00   0.54392   3 ;    C23-   C25-   C28-   H49
    26     25     24     65      9 ;     0.00   0.54392   3 ;    C24-   C23-   C22-   H34
    26     25     24     66      9 ;     0.00   0.54392   3 ;    C24-   C23-   C22-   H35
    26     25     27     30      9 ;     0.00   2.17568   3 ;    C24-   C23-   C25-   C28
    26     25     27     70      9 ;     0.00   0.54392   3 ;    C24-   C23-   C25-   H39
    26     25     27     71      9 ;     0.00   0.54392   3 ;    C24-   C23-   C25-   H40
    27     25     24     65      9 ;     0.00   0.54392   3 ;    C25-   C23-   C22-   H34
    27     25     24     66      9 ;     0.00   0.54392   3 ;    C25-   C23-   C22-   H35
    27     25     26     28      9 ;     0.00   2.17568   3 ;    C25-   C23-   C24-   C26
    27     25     26     29      9 ;     0.00   2.17568   3 ;    C25-   C23-   C24-   C27
    27     25     26     69      9 ;     0.00   0.54392   3 ;    C25-   C23-   C24-   H38
    28     26     25     67      9 ;     0.00   0.54392   3 ;    C26-   C24-   C23-   H36
    28     26     29     75      9 ;     0.00   0.54392   3 ;    C26-   C24-   C27-   H44
    28     26     29     76      9 ;     0.00   0.54392   3 ;    C26-   C24-   C27-   H45
    28     26     29     77      9 ;     0.00   0.54392   3 ;    C26-   C24-   C27-   H46
    29     26     25     67      9 ;     0.00   0.54392   3 ;    C27-   C24-   C23-   H36
    29     26     28     72      9 ;     0.00   0.54392   3 ;    C27-   C24-   C26-   H41
    29     26     28     73      9 ;     0.00   0.54392   3 ;    C27-   C24-   C26-   H42
    29     26     28     74      9 ;     0.00   0.54392   3 ;    C27-   C24-   C26-   H43
    30     27     25     67      9 ;     0.00   0.54392   3 ;    C28-   C25-   C23-   H36
    31      3      4     32      9 ;     0.00   0.50208   3 ;      H-    C1-    C2-    H1
    31      3      9     37      9 ;     0.00   0.50208   3 ;      H-    C1-    C7-    H6
    31      3      9     38      9 ;     0.00   0.50208   3 ;      H-    C1-    C7-    H7
    32      4      5     33      9 ;     0.00   0.50208   3 ;     H1-    C2-    C3-    H2
    32      4     12     43      9 ;     0.00   0.50208   3 ;     H1-    C2-   C10-   H12
    32      4     12     44      9 ;     0.00   0.50208   3 ;     H1-    C2-   C10-   H13
    33      5     10     39      9 ;     0.00   0.50208   3 ;     H2-    C3-    C8-    H8
    33      5     10     40      9 ;     0.00   0.50208   3 ;     H2-    C3-    C8-    H9
    34      6     11     41      9 ;     0.00   0.50208   3 ;     H3-    C4-    C9-   H10
    34      6     11     42      9 ;     0.00   0.50208   3 ;     H3-    C4-    C9-   H11
    34      6     13     45      9 ;     0.00   0.50208   3 ;     H3-    C4-   C11-   H14
    35      7     10     39      9 ;     0.00   0.50208   3 ;     H4-    C5-    C8-    H8
    35      7     10     40      9 ;     0.00   0.50208   3 ;     H4-    C5-    C8-    H9
    36      7     10     39      9 ;     0.00   0.50208   3 ;     H5-    C5-    C8-    H8
    36      7     10     40      9 ;     0.00   0.50208   3 ;     H5-    C5-    C8-    H9
    37      9     11     41      9 ;     0.00   0.50208   3 ;     H6-    C7-    C9-   H10
    37      9     11     42      9 ;     0.00   0.50208   3 ;     H6-    C7-    C9-   H11
    38      9     11     41      9 ;     0.00   0.50208   3 ;     H7-    C7-    C9-   H10
    38      9     11     42      9 ;     0.00   0.50208   3 ;     H7-    C7-    C9-   H11
    43     12     17     51      9 ;     0.00   0.00000   0 ;    H12-   C10-   C15-   H20
    44     12     17     51      9 ;     0.00   0.00000   0 ;    H13-   C10-   C15-   H20
    45     13     20     57      9 ;     0.00   0.50208   3 ;    H14-   C11-   C18-   H26
    45     13     20     58      9 ;     0.00   0.50208   3 ;    H14-   C11-   C18-   H27
    45     13     23     62      9 ;     0.00   0.50208   3 ;    H14-   C11-   C21-   H31
    45     13     23     63      9 ;     0.00   0.50208   3 ;    H14-   C11-   C21-   H32
    45     13     23     64      9 ;     0.00   0.50208   3 ;    H14-   C11-   C21-   H33
    49     16     21     59      9 ;     0.00   0.50208   3 ;    H18-   C14-   C19-   H28
    49     16     21     60      9 ;     0.00   0.50208   3 ;    H18-   C14-   C19-   H29
    50     16     21     59      9 ;     0.00   0.50208   3 ;    H19-   C14-   C19-   H28
    50     16     21     60      9 ;     0.00   0.50208   3 ;    H19-   C14-   C19-   H29
    55     19     22     61      9 ;     0.00   0.65084   3 ;    H24-   C17-   C20-   H30
    56     19     22     61      9 ;     0.00   0.65084   3 ;    H25-   C17-   C20-   H30
    57     20     24     65      9 ;     0.00   0.50208   3 ;    H26-   C18-   C22-   H34
    57     20     24     66      9 ;     0.00   0.50208   3 ;    H26-   C18-   C22-   H35
    58     20     24     65      9 ;     0.00   0.50208   3 ;    H27-   C18-   C22-   H34
    58     20     24     66      9 ;     0.00   0.50208   3 ;    H27-   C18-   C22-   H35
    59     21     22     61      9 ;     0.00   0.65084   3 ;    H28-   C19-   C20-   H30
    60     21     22     61      9 ;     0.00   0.65084   3 ;    H29-   C19-   C20-   H30
    65     24     25     67      9 ;     0.00   0.50208   3 ;    H34-   C22-   C23-   H36
    66     24     25     67      9 ;     0.00   0.50208   3 ;    H35-   C22-   C23-   H36
    67     25     26     69      9 ;     0.00   0.50208   3 ;    H36-   C23-   C24-   H38
    67     25     27     70      9 ;     0.00   0.50208   3 ;    H36-   C23-   C25-   H39
    67     25     27     71      9 ;     0.00   0.50208   3 ;    H36-   C23-   C25-   H40
    68      1     22     19      9 ;     0.00   0.25104   3 ;    H37-     O-   C20-   C17
    68      1     22     21      9 ;     0.00   0.25104   3 ;    H37-     O-   C20-   C19
    68      1     22     61      9 ;     0.00   0.51463   3 ;    H37-     O-   C20-   H30
    69     26     28     72      9 ;     0.00   0.50208   3 ;    H38-   C24-   C26-   H41
    69     26     28     73      9 ;     0.00   0.50208   3 ;    H38-   C24-   C26-   H42
    69     26     28     74      9 ;     0.00   0.50208   3 ;    H38-   C24-   C26-   H43
    69     26     29     75      9 ;     0.00   0.50208   3 ;    H38-   C24-   C27-   H44
    69     26     29     76      9 ;     0.00   0.50208   3 ;    H38-   C24-   C27-   H45
    69     26     29     77      9 ;     0.00   0.50208   3 ;    H38-   C24-   C27-   H46
    70     27     30     78      9 ;     0.00   0.50208   3 ;    H39-   C25-   C28-   H47
    70     27     30     79      9 ;     0.00   0.50208   3 ;    H39-   C25-   C28-   H48
    70     27     30     80      9 ;     0.00   0.50208   3 ;    H39-   C25-   C28-   H49
    71     27     30     78      9 ;     0.00   0.50208   3 ;    H40-   C25-   C28-   H47
    71     27     30     79      9 ;     0.00   0.50208   3 ;    H40-   C25-   C28-   H48
    71     27     30     80      9 ;     0.00   0.50208   3 ;    H40-   C25-   C28-   H49

[ dihedrals ] ; impropers
; treated as propers in GROMACS to use correct AMBER analytical function
;    i      j      k      l   func   phase     kd      pn
    15     12     17     51      4 ;   180.00   4.60240   2 ;    C13-   C10-   C15-   H20
    17      8     15     19      4 ;   180.00   4.60240   2 ;    C15-    C6-   C13-   C17
