222284
    80
   8.4280000   0.6440000  -0.1450000  -0.2870000   0.0120000   0.1260000
   0.6660000  -1.1090000   0.5850000   2.0570000  -1.0190000  -0.0510000
   2.6950000   0.3600000   0.2870000  -1.5630000  -0.4190000   0.8900000
   0.3170000   1.3470000   0.5840000   4.1200000   0.5180000  -0.3800000
  -0.1510000  -2.3820000   0.3890000   1.7320000   1.5490000   0.0160000
  -1.5950000  -1.9550000   0.7120000   2.9600000  -2.1560000   0.4530000
  -2.8640000   0.2520000   0.4750000  -0.5350000   0.0430000  -1.4030000
   4.9490000  -0.7620000  -0.2060000   4.8560000   1.7010000   0.3160000
   4.4120000  -1.9330000   0.1790000   4.0030000   0.8090000  -1.8960000
   6.4320000  -0.6660000  -0.4790000  -4.0380000  -0.3130000   1.3030000
   6.3410000   1.8090000  -0.0270000   7.0720000   0.5030000   0.2650000
  -2.7410000   1.7730000   0.6170000  -5.4120000   0.3350000   1.0660000
  -6.0130000   0.1700000  -0.3540000  -7.3510000   0.9570000  -0.5290000
  -6.1390000  -1.3290000  -0.7210000  -7.1850000   2.4550000  -0.2410000
  -8.5120000   0.4010000   0.3000000  -6.6530000  -1.5940000  -2.1300000
   0.8140000  -1.0090000   1.6730000   1.9670000  -1.1250000  -1.1370000
   2.8520000   0.3580000   1.3780000  -1.4040000  -0.2230000   1.9620000
   0.3700000   1.3830000   1.6800000  -0.2620000   2.2160000   0.2720000
   0.1830000  -3.1890000   1.0490000  -0.0820000  -2.7490000  -0.6420000
   1.6470000   1.7370000  -1.0590000   2.1450000   2.4650000   0.4550000
  -2.2570000  -2.2670000  -0.1040000  -1.9450000  -2.4430000   1.6280000
   2.6520000  -3.0950000  -0.0240000   2.8390000  -2.2950000   1.5340000
  -3.0800000   0.0300000  -0.5770000  -1.1520000   0.8980000  -1.6960000
   0.3920000   0.1240000  -1.9770000  -1.0430000  -0.8590000  -1.7600000
   4.7710000   1.5960000   1.4070000   4.3760000   2.6530000   0.0600000
   5.0550000  -2.8010000   0.3050000   3.3960000   0.0550000  -2.4090000
   3.5530000   1.7880000  -2.0870000   4.9780000   0.8210000  -2.3940000
   6.9540000  -1.5910000  -0.2000000   6.6030000  -0.5610000  -1.5580000
  -4.1230000  -1.3960000   1.1690000  -3.8020000  -0.1750000   2.3680000
   6.4750000   2.0910000  -1.0790000   6.7980000   2.6220000   0.5510000
   7.0670000   0.3130000   1.3450000  -2.1700000   2.2060000  -0.2040000
  -2.3020000   2.0620000   1.5770000  -3.7090000   2.2740000   0.5420000
  -5.3700000   1.3860000   1.3570000  -6.1020000  -0.1290000   1.7840000
  -5.3010000   0.6160000  -1.0630000   8.8820000  -0.1930000   0.0510000
  -7.6410000   0.8840000  -1.5850000  -5.1510000  -1.8000000  -0.6630000
  -6.7720000  -1.8530000   0.0050000  -6.3170000   2.8620000  -0.7680000
  -7.0730000   2.6600000   0.8280000  -8.0680000   3.0060000  -0.5840000
  -9.4260000   0.9750000   0.1100000  -8.3070000   0.4560000   1.3730000
  -8.7290000  -0.6400000   0.0450000  -7.7020000  -1.3050000  -2.2380000
  -6.5830000  -2.6620000  -2.3590000  -6.0620000  -1.0490000  -2.8720000
