; beta-sitosterol_GMX_OPLS.top created by acpype (v: 2023.10.27) on Mon Feb  9 17:30:40 2026

; Include forcefield parameters
#include "ffoplsaa.itp"

; Include beta-sitosterol_GMX.itp topology
#include "beta-sitosterol_GMX.itp"

; Ligand position restraints
#ifdef POSRES_LIG
#include "posre_beta-sitosterol.itp"
#endif

[ system ]
 beta-sitosterol

[ molecules ]
; Compound        nmols
 beta-sitosterol  1     
