; beta-sitosterol_GMX.top created by acpype (v: 2023.10.27) on Mon Feb  9 17:30:40 2026

[ defaults ]
; nbfunc        comb-rule       gen-pairs       fudgeLJ fudgeQQ
1               2               yes             0.5     0.8333333333

; Include beta-sitosterol_GMX.itp topology
#include "beta-sitosterol_GMX.itp"

; Ligand position restraints
#ifdef POSRES_LIG
#include "posre_beta-sitosterol.itp"
#endif

[ system ]
 beta-sitosterol

[ molecules ]
; Compound        nmols
 beta-sitosterol  1     
