; naproxen_GMX_OPLS.itp created by acpype (v: 2023.10.27) on Mon Feb  9 17:54:25 2026

; For OPLS atomtypes manual fine tuning
; AC_at:OPLS_at:OPLScode: Possible_Alternatives (see ffoplsaa.atp and ffoplsaanb.itp)
; os:x:opls_x: []
; oh:OH:opls_154: ['167']
; o:O:opls_236: ['272']
; c3:CT:opls_135: ['136', '137', '149', '157', '158', '206', '209', '210', '223B', '224B', '245', '246', '274', '283', '284', '285', '292', '292B', '293B', '296', '307', '308', '505']
; ca:CA:opls_145: ['166', '501', '502']
; c:C:opls_235: ['271']
; hc:HC:opls_140: []
; ha:HA:opls_146: []
; ho:HO:opls_155: ['168']
; h1:HC:opls_140: []

[ moleculetype ]
;name            nrexcl
 naproxen         3

[ atoms ]
;   nr  type  resi  res  atom  cgnr     charge      mass       ; qtot   bond_type
     1 opls_x     1   UNL     O    1    -0.327900      0.00000 ; qtot -0.328  x   
     2 opls_154     1   UNL    O1    2    -0.606100     15.99940 ; qtot -0.934  OH  
     3 opls_236     1   UNL    O2    3    -0.554000     15.99940 ; qtot -1.488  O   
     4 opls_135     1   UNL     C    4    -0.054400     12.01100 ; qtot -1.542  CT  
     5 opls_145     1   UNL    C1    5    -0.106300     12.01100 ; qtot -1.649  CA  
     6 opls_145     1   UNL    C2    6    -0.069000     12.01100 ; qtot -1.718  CA  
     7 opls_145     1   UNL    C3    7     0.001000     12.01100 ; qtot -1.717  CA  
     8 opls_145     1   UNL    C4    8    -0.087000     12.01100 ; qtot -1.804  CA  
     9 opls_145     1   UNL    C5    9    -0.107000     12.01100 ; qtot -1.911  CA  
    10 opls_145     1   UNL    C6   10    -0.126000     12.01100 ; qtot -2.037  CA  
    11 opls_135     1   UNL    C7   11    -0.091100     12.01100 ; qtot -2.128  CT  
    12 opls_145     1   UNL    C8   12    -0.079000     12.01100 ; qtot -2.207  CA  
    13 opls_145     1   UNL    C9   13    -0.163000     12.01100 ; qtot -2.370  CA  
    14 opls_145     1   UNL   C10   14     0.127100     12.01100 ; qtot -2.243  CA  
    15 opls_235     1   UNL   C11   15     0.643101     12.01100 ; qtot -1.600  C   
    16 opls_145     1   UNL   C12   16    -0.186000     12.01100 ; qtot -1.786  CA  
    17 opls_135     1   UNL   C13   17     0.113700     12.01100 ; qtot -1.672  CT  
    18 opls_140     1   UNL     H   18     0.087700      1.00800 ; qtot -1.584  HC  
    19 opls_146     1   UNL    H1   19     0.155000      1.00800 ; qtot -1.429  HA  
    20 opls_146     1   UNL    H2   20     0.133000      1.00800 ; qtot -1.296  HA  
    21 opls_146     1   UNL    H3   21     0.137000      1.00800 ; qtot -1.159  HA  
    22 opls_140     1   UNL    H4   22     0.051033      1.00800 ; qtot -1.108  HC  
    23 opls_140     1   UNL    H5   23     0.051033      1.00800 ; qtot -1.057  HC  
    24 opls_140     1   UNL    H6   24     0.051033      1.00800 ; qtot -1.006  HC  
    25 opls_146     1   UNL    H7   25     0.139000      1.00800 ; qtot -0.867  HA  
    26 opls_146     1   UNL    H8   26     0.151000      1.00800 ; qtot -0.716  HA  
    27 opls_146     1   UNL    H9   27     0.139000      1.00800 ; qtot -0.577  HA  
    28 opls_155     1   UNL   H10   28     0.443000      1.00800 ; qtot -0.134  HO  
    29 opls_140     1   UNL   H11   29     0.044700      1.00800 ; qtot -0.089  HC  
    30 opls_140     1   UNL   H12   30     0.044700      1.00800 ; qtot -0.045  HC  
    31 opls_140     1   UNL   H13   31     0.044700      1.00800 ; qtot  0.000  HC  

[ bonds ]
;   ai     aj funct   r             k
     1     14   1 ;    1.3688e-01    2.8731e+05 ;      O - C10         x - CA    
     1     17   1 ;    1.4273e-01    2.3620e+05 ;      O - C13         x - CT    
     2     15   1 ;    1.3556e-01    3.0064e+05 ;     O1 - C11        OH - C     
     2     28   1 ;    9.7250e-02    4.4811e+05 ;     O1 - H10        OH - HO    
     3     15   1 ;    1.2190e-01    4.9421e+05 ;     O2 - C11         O - C     
     4      5   1 ;    1.5147e-01    2.0410e+05 ;      C - C1         CT - CA    
     4     11   1 ;    1.5354e-01    1.9154e+05 ;      C - C7         CT - CT    
     4     15   1 ;    1.5270e-01    1.9652e+05 ;      C - C11        CT - C     
     4     18   1 ;    1.0962e-01    2.8891e+05 ;      C - H          CT - HC    
     5      8   1 ;    1.3986e-01    2.9644e+05 ;     C1 - C4         CA - CA    
     5      9   1 ;    1.3986e-01    2.9644e+05 ;     C1 - C5         CA - CA    
     6      7   1 ;    1.3986e-01    2.9644e+05 ;     C2 - C3         CA - CA    
     6      8   1 ;    1.3986e-01    2.9644e+05 ;     C2 - C4         CA - CA    
     6     12   1 ;    1.3986e-01    2.9644e+05 ;     C2 - C8         CA - CA    
     7     10   1 ;    1.3986e-01    2.9644e+05 ;     C3 - C6         CA - CA    
     7     13   1 ;    1.3986e-01    2.9644e+05 ;     C3 - C9         CA - CA    
     8     19   1 ;    1.0860e-01    3.0183e+05 ;     C4 - H1         CA - HA    
     9     10   1 ;    1.3986e-01    2.9644e+05 ;     C5 - C6         CA - CA    
     9     20   1 ;    1.0860e-01    3.0183e+05 ;     C5 - H2         CA - HA    
    10     21   1 ;    1.0860e-01    3.0183e+05 ;     C6 - H3         CA - HA    
    11     22   1 ;    1.0962e-01    2.8891e+05 ;     C7 - H4         CT - HC    
    11     23   1 ;    1.0962e-01    2.8891e+05 ;     C7 - H5         CT - HC    
    11     24   1 ;    1.0962e-01    2.8891e+05 ;     C7 - H6         CT - HC    
    12     16   1 ;    1.3986e-01    2.9644e+05 ;     C8 - C12        CA - CA    
    12     25   1 ;    1.0860e-01    3.0183e+05 ;     C8 - H7         CA - HA    
    13     14   1 ;    1.3986e-01    2.9644e+05 ;     C9 - C10        CA - CA    
    13     26   1 ;    1.0860e-01    3.0183e+05 ;     C9 - H8         CA - HA    
    14     16   1 ;    1.3986e-01    2.9644e+05 ;    C10 - C12        CA - CA    
    16     27   1 ;    1.0860e-01    3.0183e+05 ;    C12 - H9         CA - HA    
    17     29   1 ;    1.0969e-01    2.8804e+05 ;    C13 - H11        CT - HC    
    17     30   1 ;    1.0969e-01    2.8804e+05 ;    C13 - H12        CT - HC    
    17     31   1 ;    1.0969e-01    2.8804e+05 ;    C13 - H13        CT - HC    

[ pairs ]
;   ai     aj    funct
     1      7      1 ;      O - C3    
     1     12      1 ;      O - C8    
     1     26      1 ;      O - H8    
     1     27      1 ;      O - H9    
     2      5      1 ;     O1 - C1    
     2     11      1 ;     O1 - C7    
     2     18      1 ;     O1 - H     
     3      5      1 ;     O2 - C1    
     3     11      1 ;     O2 - C7    
     3     18      1 ;     O2 - H     
     3     28      1 ;     O2 - H10   
     4      6      1 ;      C - C2    
     4     10      1 ;      C - C6    
     4     19      1 ;      C - H1    
     4     20      1 ;      C - H2    
     4     28      1 ;      C - H10   
     5      7      1 ;     C1 - C3    
     5     12      1 ;     C1 - C8    
     5     21      1 ;     C1 - H3    
     5     22      1 ;     C1 - H4    
     5     23      1 ;     C1 - H5    
     5     24      1 ;     C1 - H6    
     6      9      1 ;     C2 - C5    
     6     14      1 ;     C2 - C10   
     6     21      1 ;     C2 - H3    
     6     26      1 ;     C2 - H8    
     6     27      1 ;     C2 - H9    
     7     16      1 ;     C3 - C12   
     7     19      1 ;     C3 - H1    
     7     20      1 ;     C3 - H2    
     7     25      1 ;     C3 - H7    
     8     10      1 ;     C4 - C6    
     8     11      1 ;     C4 - C7    
     8     13      1 ;     C4 - C9    
     8     15      1 ;     C4 - C11   
     8     16      1 ;     C4 - C12   
     8     18      1 ;     C4 - H     
     8     20      1 ;     C4 - H2    
     8     25      1 ;     C4 - H7    
     9     11      1 ;     C5 - C7    
     9     13      1 ;     C5 - C9    
     9     15      1 ;     C5 - C11   
     9     18      1 ;     C5 - H     
     9     19      1 ;     C5 - H1    
    10     12      1 ;     C6 - C8    
    10     14      1 ;     C6 - C10   
    10     26      1 ;     C6 - H8    
    12     13      1 ;     C8 - C9    
    12     19      1 ;     C8 - H1    
    13     21      1 ;     C9 - H3    
    13     27      1 ;     C9 - H9    
    14     25      1 ;    C10 - H7    
    14     29      1 ;    C10 - H11   
    14     30      1 ;    C10 - H12   
    14     31      1 ;    C10 - H13   
    15     22      1 ;    C11 - H4    
    15     23      1 ;    C11 - H5    
    15     24      1 ;    C11 - H6    
    16     26      1 ;    C12 - H8    
    17     13      1 ;    C13 - C9    
    17     16      1 ;    C13 - C12   
    18     22      1 ;      H - H4    
    18     23      1 ;      H - H5    
    18     24      1 ;      H - H6    
    20     21      1 ;     H2 - H3    
    25     27      1 ;     H7 - H9    

[ angles ]
;   ai     aj     ak    funct   theta         cth
     1     14     13      1 ;    1.1911e+02    6.6107e+02 ;      O - C10  - C9        x -   CA - CA  
     1     14     16      1 ;    1.1911e+02    6.6107e+02 ;      O - C10  - C12       x -   CA - CA  
     1     17     29      1 ;    1.1034e+02    4.7028e+02 ;      O - C13  - H11       x -   CT - HC  
     1     17     30      1 ;    1.1034e+02    4.7028e+02 ;      O - C13  - H12       x -   CT - HC  
     1     17     31      1 ;    1.1034e+02    4.7028e+02 ;      O - C13  - H13       x -   CT - HC  
     2     15      3      1 ;    1.2209e+02    8.5379e+02 ;     O1 - C11  - O2       OH -    C - O   
     2     15      4      1 ;    1.1274e+02    6.4785e+02 ;     O1 - C11  - C        OH -    C - CT  
     3     15      4      1 ;    1.2290e+02    6.3973e+02 ;     O2 - C11  - C         O -    C - CT  
     4      5      8      1 ;    1.2083e+02    5.0827e+02 ;      C - C1   - C4       CT -   CA - CA  
     4      5      9      1 ;    1.2083e+02    5.0827e+02 ;      C - C1   - C5       CT -   CA - CA  
     4     11     22      1 ;    1.0968e+02    3.6208e+02 ;      C - C7   - H4       CT -   CT - HC  
     4     11     23      1 ;    1.0968e+02    3.6208e+02 ;      C - C7   - H5       CT -   CT - HC  
     4     11     24      1 ;    1.0968e+02    3.6208e+02 ;      C - C7   - H6       CT -   CT - HC  
     5      4     11      1 ;    1.1242e+02    5.0484e+02 ;     C1 - C    - C7       CA -   CT - CT  
     5      4     15      1 ;    1.1116e+02    5.0911e+02 ;     C1 - C    - C11      CA -   CT - C   
     5      4     18      1 ;    1.1063e+02    3.6493e+02 ;     C1 - C    - H        CA -   CT - HC  
     5      8      6      1 ;    1.2002e+02    5.3279e+02 ;     C1 - C4   - C2       CA -   CA - CA  
     5      8     19      1 ;    1.1988e+02    3.7572e+02 ;     C1 - C4   - H1       CA -   CA - HA  
     5      9     10      1 ;    1.2002e+02    5.3279e+02 ;     C1 - C5   - C6       CA -   CA - CA  
     5      9     20      1 ;    1.1988e+02    3.7572e+02 ;     C1 - C5   - H2       CA -   CA - HA  
     6      7     10      1 ;    1.2002e+02    5.3279e+02 ;     C2 - C3   - C6       CA -   CA - CA  
     6      7     13      1 ;    1.2002e+02    5.3279e+02 ;     C2 - C3   - C9       CA -   CA - CA  
     6      8     19      1 ;    1.1988e+02    3.7572e+02 ;     C2 - C4   - H1       CA -   CA - HA  
     6     12     16      1 ;    1.2002e+02    5.3279e+02 ;     C2 - C8   - C12      CA -   CA - CA  
     6     12     25      1 ;    1.1988e+02    3.7572e+02 ;     C2 - C8   - H7       CA -   CA - HA  
     7      6      8      1 ;    1.2002e+02    5.3279e+02 ;     C3 - C2   - C4       CA -   CA - CA  
     7      6     12      1 ;    1.2002e+02    5.3279e+02 ;     C3 - C2   - C8       CA -   CA - CA  
     7     10      9      1 ;    1.2002e+02    5.3279e+02 ;     C3 - C6   - C5       CA -   CA - CA  
     7     10     21      1 ;    1.1988e+02    3.7572e+02 ;     C3 - C6   - H3       CA -   CA - HA  
     7     13     14      1 ;    1.2002e+02    5.3279e+02 ;     C3 - C9   - C10      CA -   CA - CA  
     7     13     26      1 ;    1.1988e+02    3.7572e+02 ;     C3 - C9   - H8       CA -   CA - HA  
     8      5      9      1 ;    1.2002e+02    5.3279e+02 ;     C4 - C1   - C5       CA -   CA - CA  
     8      6     12      1 ;    1.2002e+02    5.3279e+02 ;     C4 - C2   - C8       CA -   CA - CA  
     9     10     21      1 ;    1.1988e+02    3.7572e+02 ;     C5 - C6   - H3       CA -   CA - HA  
    10      7     13      1 ;    1.2002e+02    5.3279e+02 ;     C6 - C3   - C9       CA -   CA - CA  
    10      9     20      1 ;    1.1988e+02    3.7572e+02 ;     C6 - C5   - H2       CA -   CA - HA  
    11      4     15      1 ;    1.1143e+02    5.0509e+02 ;     C7 - C    - C11      CT -   CT - C   
    11      4     18      1 ;    1.0968e+02    3.6208e+02 ;     C7 - C    - H        CT -   CT - HC  
    12     16     14      1 ;    1.2002e+02    5.3279e+02 ;     C8 - C12  - C10      CA -   CA - CA  
    12     16     27      1 ;    1.1988e+02    3.7572e+02 ;     C8 - C12  - H9       CA -   CA - HA  
    13     14     16      1 ;    1.2002e+02    5.3279e+02 ;     C9 - C10  - C12      CA -   CA - CA  
    14      1     17      1 ;    1.1839e+02    7.3856e+02 ;    C10 - O    - C13      CA -    x - CT  
    14     13     26      1 ;    1.1988e+02    3.7572e+02 ;    C10 - C9   - H8       CA -   CA - HA  
    14     16     27      1 ;    1.1988e+02    3.7572e+02 ;    C10 - C12  - H9       CA -   CA - HA  
    15      2     28      1 ;    1.0654e+02    5.7287e+02 ;    C11 - O1   - H10       C -   OH - HO  
    15      4     18      1 ;    1.0895e+02    3.6510e+02 ;    C11 - C    - H         C -   CT - HC  
    16     12     25      1 ;    1.1988e+02    3.7572e+02 ;    C12 - C8   - H7       CA -   CA - HA  
    22     11     23      1 ;    1.0773e+02    2.9957e+02 ;     H4 - C7   - H5       HC -   CT - HC  
    22     11     24      1 ;    1.0773e+02    2.9957e+02 ;     H4 - C7   - H6       HC -   CT - HC  
    23     11     24      1 ;    1.0773e+02    2.9957e+02 ;     H5 - C7   - H6       HC -   CT - HC  
    29     17     30      1 ;    1.0855e+02    2.9824e+02 ;    H11 - C13  - H12      HC -   CT - HC  
    29     17     31      1 ;    1.0855e+02    2.9824e+02 ;    H11 - C13  - H13      HC -   CT - HC  
    30     17     31      1 ;    1.0855e+02    2.9824e+02 ;    H12 - C13  - H13      HC -   CT - HC  

[ dihedrals ] ; propers
; for gromacs 4.5 or higher, using funct 9
;    i      j      k      l   func   phase     kd      pn
     1     14     13      7      9 ;   180.00  15.16700   2 ;      O-   C10-    C9-    C3
     1     14     13     26      9 ;   180.00  15.16700   2 ;      O-   C10-    C9-    H8
     1     14     16     12      9 ;   180.00  15.16700   2 ;      O-   C10-   C12-    C8
     1     14     16     27      9 ;   180.00  15.16700   2 ;      O-   C10-   C12-    H9
     2     15      4      5      9 ;   180.00   0.00000   2 ;     O1-   C11-     C-    C1
     2     15      4     11      9 ;   180.00   0.00000   2 ;     O1-   C11-     C-    C7
     2     15      4     18      9 ;   180.00   0.00000   2 ;     O1-   C11-     C-     H
     3     15      2     28      9 ;     0.00   7.94960   1 ;     O2-   C11-    O1-   H10
     3     15      2     28      9 ;   180.00   9.62320   2 ;     O2-   C11-    O1-   H10
     3     15      4      5      9 ;   180.00   0.00000   2 ;     O2-   C11-     C-    C1
     3     15      4     11      9 ;     0.00   2.84512   1 ;     O2-   C11-     C-    C7
     3     15      4     11      9 ;   180.00   0.83680   2 ;     O2-   C11-     C-    C7
     3     15      4     11      9 ;   180.00   1.84096   3 ;     O2-   C11-     C-    C7
     3     15      4     18      9 ;     0.00  16.86152   1 ;     O2-   C11-     C-     H
     3     15      4     18      9 ;   180.00  15.31344   2 ;     O2-   C11-     C-     H
     4      5      8      6      9 ;   180.00  15.16700   2 ;      C-    C1-    C4-    C2
     4      5      8     19      9 ;   180.00  15.16700   2 ;      C-    C1-    C4-    H1
     4      5      9     10      9 ;   180.00  15.16700   2 ;      C-    C1-    C5-    C6
     4      5      9     20      9 ;   180.00  15.16700   2 ;      C-    C1-    C5-    H2
     4     15      2     28      9 ;   180.00   7.53120   2 ;      C-   C11-    O1-   H10
     5      4     11     22      9 ;     0.00   0.65084   3 ;     C1-     C-    C7-    H4
     5      4     11     23      9 ;     0.00   0.65084   3 ;     C1-     C-    C7-    H5
     5      4     11     24      9 ;     0.00   0.65084   3 ;     C1-     C-    C7-    H6
     5      8      6      7      9 ;   180.00  15.16700   2 ;     C1-    C4-    C2-    C3
     5      8      6     12      9 ;   180.00  15.16700   2 ;     C1-    C4-    C2-    C8
     5      9     10      7      9 ;   180.00  15.16700   2 ;     C1-    C5-    C6-    C3
     5      9     10     21      9 ;   180.00  15.16700   2 ;     C1-    C5-    C6-    H3
     6      7     10      9      9 ;   180.00  15.16700   2 ;     C2-    C3-    C6-    C5
     6      7     10     21      9 ;   180.00  15.16700   2 ;     C2-    C3-    C6-    H3
     6      7     13     14      9 ;   180.00  15.16700   2 ;     C2-    C3-    C9-   C10
     6      7     13     26      9 ;   180.00  15.16700   2 ;     C2-    C3-    C9-    H8
     6      8      5      9      9 ;   180.00  15.16700   2 ;     C2-    C4-    C1-    C5
     6     12     16     14      9 ;   180.00  15.16700   2 ;     C2-    C8-   C12-   C10
     6     12     16     27      9 ;   180.00  15.16700   2 ;     C2-    C8-   C12-    H9
     7      6      8     19      9 ;   180.00  15.16700   2 ;     C3-    C2-    C4-    H1
     7      6     12     16      9 ;   180.00  15.16700   2 ;     C3-    C2-    C8-   C12
     7      6     12     25      9 ;   180.00  15.16700   2 ;     C3-    C2-    C8-    H7
     7     10      9     20      9 ;   180.00  15.16700   2 ;     C3-    C6-    C5-    H2
     7     13     14     16      9 ;   180.00  15.16700   2 ;     C3-    C9-   C10-   C12
     8      5      4     11      9 ;   180.00   1.00416   2 ;     C4-    C1-     C-    C7
     8      5      4     15      9 ;     0.00   0.00000   0 ;     C4-    C1-     C-   C11
     8      5      4     18      9 ;     0.00   0.00000   0 ;     C4-    C1-     C-     H
     8      5      9     10      9 ;   180.00  15.16700   2 ;     C4-    C1-    C5-    C6
     8      5      9     20      9 ;   180.00  15.16700   2 ;     C4-    C1-    C5-    H2
     8      6      7     10      9 ;   180.00  15.16700   2 ;     C4-    C2-    C3-    C6
     8      6      7     13      9 ;   180.00  15.16700   2 ;     C4-    C2-    C3-    C9
     8      6     12     16      9 ;   180.00  15.16700   2 ;     C4-    C2-    C8-   C12
     8      6     12     25      9 ;   180.00  15.16700   2 ;     C4-    C2-    C8-    H7
     9      5      4     11      9 ;   180.00   1.00416   2 ;     C5-    C1-     C-    C7
     9      5      4     15      9 ;     0.00   0.00000   0 ;     C5-    C1-     C-   C11
     9      5      4     18      9 ;     0.00   0.00000   0 ;     C5-    C1-     C-     H
     9      5      8     19      9 ;   180.00  15.16700   2 ;     C5-    C1-    C4-    H1
     9     10      7     13      9 ;   180.00  15.16700   2 ;     C5-    C6-    C3-    C9
    10      7      6     12      9 ;   180.00  15.16700   2 ;     C6-    C3-    C2-    C8
    10      7     13     14      9 ;   180.00  15.16700   2 ;     C6-    C3-    C9-   C10
    10      7     13     26      9 ;   180.00  15.16700   2 ;     C6-    C3-    C9-    H8
    12      6      7     13      9 ;   180.00  15.16700   2 ;     C8-    C2-    C3-    C9
    12      6      8     19      9 ;   180.00  15.16700   2 ;     C8-    C2-    C4-    H1
    12     16     14     13      9 ;   180.00  15.16700   2 ;     C8-   C12-   C10-    C9
    13      7     10     21      9 ;   180.00  15.16700   2 ;     C9-    C3-    C6-    H3
    13     14     16     27      9 ;   180.00  15.16700   2 ;     C9-   C10-   C12-    H9
    14      1     17     29      9 ;     0.00   1.60387   3 ;    C10-     O-   C13-   H11
    14      1     17     30      9 ;     0.00   1.60387   3 ;    C10-     O-   C13-   H12
    14      1     17     31      9 ;     0.00   1.60387   3 ;    C10-     O-   C13-   H13
    14     16     12     25      9 ;   180.00  15.16700   2 ;    C10-   C12-    C8-    H7
    15      4     11     22      9 ;     0.00   0.65084   3 ;    C11-     C-    C7-    H4
    15      4     11     23      9 ;     0.00   0.65084   3 ;    C11-     C-    C7-    H5
    15      4     11     24      9 ;     0.00   0.65084   3 ;    C11-     C-    C7-    H6
    16     14     13     26      9 ;   180.00  15.16700   2 ;    C12-   C10-    C9-    H8
    17      1     14     13      9 ;   180.00   6.94544   2 ;    C13-     O-   C10-    C9
    17      1     14     16      9 ;   180.00   6.94544   2 ;    C13-     O-   C10-   C12
    18      4     11     22      9 ;     0.00   0.50208   3 ;      H-     C-    C7-    H4
    18      4     11     23      9 ;     0.00   0.50208   3 ;      H-     C-    C7-    H5
    18      4     11     24      9 ;     0.00   0.50208   3 ;      H-     C-    C7-    H6
    20      9     10     21      9 ;   180.00  15.16700   2 ;     H2-    C5-    C6-    H3
    25     12     16     27      9 ;   180.00  15.16700   2 ;     H7-    C8-   C12-    H9

[ dihedrals ] ; impropers
; treated as propers in GROMACS to use correct AMBER analytical function
;    i      j      k      l   func   phase     kd      pn
     1     14     16     13      4 ;   180.00   4.60240   2 ;      O-   C10-   C12-    C9
     4      3     15      2      4 ;   180.00   4.60240   2 ;      C-    O2-   C11-    O1
     5      6      8     19      4 ;   180.00   4.60240   2 ;     C1-    C2-    C4-    H1
     5     10      9     20      4 ;   180.00   4.60240   2 ;     C1-    C6-    C5-    H2
     6     10      7     13      4 ;   180.00   4.60240   2 ;     C2-    C6-    C3-    C9
     6     16     12     25      4 ;   180.00   4.60240   2 ;     C2-   C12-    C8-    H7
     7      8      6     12      4 ;   180.00   4.60240   2 ;     C3-    C4-    C2-    C8
     7      9     10     21      4 ;   180.00   4.60240   2 ;     C3-    C5-    C6-    H3
     7     14     13     26      4 ;   180.00   4.60240   2 ;     C3-   C10-    C9-    H8
     8      9      5      4      4 ;   180.00   4.60240   2 ;     C4-    C5-    C1-     C
    12     14     16     27      4 ;   180.00   4.60240   2 ;     C8-   C10-   C12-    H9
