; naproxen_GMX.top created by acpype (v: 2023.10.27) on Mon Feb  9 17:54:25 2026

[ defaults ]
; nbfunc        comb-rule       gen-pairs       fudgeLJ fudgeQQ
1               2               yes             0.5     0.8333333333

; Include naproxen_GMX.itp topology
#include "naproxen_GMX.itp"

; Ligand position restraints
#ifdef POSRES_LIG
#include "posre_naproxen.itp"
#endif

[ system ]
 naproxen

[ molecules ]
; Compound        nmols
 naproxen         1     
