%VERSION  VERSION_STAMP = V0001.000  DATE = 02/09/26  17:54:42                  
%FLAG TITLE                                                                     
%FORMAT(20a4)                                                                   
156391                                                                          
%FLAG POINTERS                                                                  
%FORMAT(10I8)                                                                   
      31       9      14      18      28      25      48      39       0       0
     158       1      18      25      39      12      18      18      10       0
       0       0       0       0       0       0       0       0      31       0
       0
%FLAG ATOM_NAME                                                                 
%FORMAT(20a4)                                                                   
O   O1  O2  C   C1  C2  C3  C4  C5  C6  C7  C8  C9  C10 C11 C12 C13 H   H1  H2  
H3  H4  H5  H6  H7  H8  H9  H10 H11 H12 H13 
%FLAG CHARGE                                                                    
%FORMAT(5E16.8)                                                                 
 -5.97509217E+00 -1.10445360E+01 -1.00951542E+01 -9.91293120E-01 -1.93703049E+00
 -1.25733870E+00  1.82223000E-02 -1.58534010E+00 -1.94978610E+00 -2.29600980E+00
 -1.66005153E+00 -1.43956170E+00 -2.97023490E+00  2.31605433E+00  1.16823165E+01
 -3.38934780E+00  2.07187551E+00  1.59809571E+00  2.82445650E+00  2.42356590E+00
  2.49645510E+00  9.29938636E-01  9.29938636E-01  9.29938636E-01  2.53289970E+00
  2.75156730E+00  2.53289970E+00  8.07247890E+00  8.14536810E-01  8.14536810E-01
  8.14536810E-01
%FLAG ATOMIC_NUMBER                                                             
%FORMAT(10I8)                                                                   
       8       8       8       6       6       6       6       6       6       6
       6       6       6       6       6       6       6       1       1       1
       1       1       1       1       1       1       1       1       1       1
       1
%FLAG MASS                                                                      
%FORMAT(5E16.8)                                                                 
  1.60000000E+01  1.60000000E+01  1.60000000E+01  1.20100000E+01  1.20100000E+01
  1.20100000E+01  1.20100000E+01  1.20100000E+01  1.20100000E+01  1.20100000E+01
  1.20100000E+01  1.20100000E+01  1.20100000E+01  1.20100000E+01  1.20100000E+01
  1.20100000E+01  1.20100000E+01  1.00800000E+00  1.00800000E+00  1.00800000E+00
  1.00800000E+00  1.00800000E+00  1.00800000E+00  1.00800000E+00  1.00800000E+00
  1.00800000E+00  1.00800000E+00  1.00800000E+00  1.00800000E+00  1.00800000E+00
  1.00800000E+00
%FLAG ATOM_TYPE_INDEX                                                           
%FORMAT(10I8)                                                                   
       1       2       3       4       5       5       5       5       5       5
       4       5       5       5       5       5       4       6       7       7
       7       6       6       6       7       7       7       8       9       9
       9
%FLAG NUMBER_EXCLUDED_ATOMS                                                     
%FORMAT(10I8)                                                                   
      11       7       6      14      15      13      12      11       8       6
       5       6       6       8       5       4       3       3       1       1
       1       2       1       1       1       1       1       1       2       1
       1
%FLAG NONBONDED_PARM_INDEX                                                      
%FORMAT(10I8)                                                                   
       1       2       4       7      11      16      22      29      37       2
       3       5       8      12      17      23      30      38       4       5
       6       9      13      18      24      31      39       7       8       9
      10      14      19      25      32      40      11      12      13      14
      15      20      26      33      41      16      17      18      19      20
      21      27      34      42      22      23      24      25      26      27
      28      35      43      29      30      31      32      33      34      35
      36      44      37      38      39      40      41      42      43      44
      45
%FLAG RESIDUE_LABEL                                                             
%FORMAT(20a4)                                                                   
UNL 
%FLAG RESIDUE_POINTER                                                           
%FORMAT(10I8)                                                                   
       1
%FLAG BOND_FORCE_CONSTANT                                                       
%FORMAT(5E16.8)                                                                 
  3.43340000E+02  2.82270000E+02  3.59270000E+02  5.35510000E+02  5.90600000E+02
  2.43910000E+02  2.28890000E+02  2.34850000E+02  3.45250000E+02  3.54250000E+02
  3.60690000E+02  3.44220000E+02
%FLAG BOND_EQUIL_VALUE                                                          
%FORMAT(5E16.8)                                                                 
  1.36880000E+00  1.42730000E+00  1.35560000E+00  9.72500000E-01  1.21900000E+00
  1.51470000E+00  1.53540000E+00  1.52700000E+00  1.09620000E+00  1.39860000E+00
  1.08600000E+00  1.09690000E+00
%FLAG ANGLE_FORCE_CONSTANT                                                      
%FORMAT(5E16.8)                                                                 
  7.90000000E+01  5.62000000E+01  1.02030000E+02  7.74200000E+01  7.64500000E+01
  6.07400000E+01  4.32700000E+01  6.03300000E+01  6.08400000E+01  4.36100000E+01
  6.36700000E+01  4.49000000E+01  6.03600000E+01  8.82600000E+01  6.84600000E+01
  4.36300000E+01  3.58000000E+01  3.56400000E+01
%FLAG ANGLE_EQUIL_VALUE                                                         
%FORMAT(5E16.8)                                                                 
  2.07886256E+00  1.92579712E+00  2.13087340E+00  1.96768504E+00  2.14501057E+00
  2.10888224E+00  1.91427794E+00  1.96209999E+00  1.94010883E+00  1.93085858E+00
  2.09474507E+00  2.09230160E+00  1.94482122E+00  2.06629619E+00  1.85947458E+00
  1.90153704E+00  1.88024401E+00  1.89455572E+00
%FLAG DIHEDRAL_FORCE_CONSTANT                                                   
%FORMAT(5E16.8)                                                                 
  3.62500000E+00  0.00000000E+00  1.90000000E+00  2.30000000E+00  6.80000000E-01
  2.00000000E-01  4.40000000E-01  4.03000000E+00  3.66000000E+00  1.80000000E+00
  1.55555556E-01  2.40000000E-01  0.00000000E+00  0.00000000E+00  1.66000000E+00
  3.83333333E-01  1.20000000E-01  1.10000000E+00
%FLAG DIHEDRAL_PERIODICITY                                                      
%FORMAT(5E16.8)                                                                 
  2.00000000E+00  2.00000000E+00  1.00000000E+00  2.00000000E+00  1.00000000E+00
  2.00000000E+00  3.00000000E+00  1.00000000E+00  2.00000000E+00  2.00000000E+00
  3.00000000E+00  2.00000000E+00  2.00000000E+00  1.00000000E+00  2.00000000E+00
  3.00000000E+00  3.00000000E+00  2.00000000E+00
%FLAG DIHEDRAL_PHASE                                                            
%FORMAT(5E16.8)                                                                 
  3.14159400E+00  3.14159400E+00  0.00000000E+00  3.14159400E+00  0.00000000E+00
  3.14159400E+00  3.14159400E+00  0.00000000E+00  3.14159400E+00  3.14159400E+00
  0.00000000E+00  3.14159400E+00  0.00000000E+00  0.00000000E+00  3.14159400E+00
  0.00000000E+00  0.00000000E+00  3.14159400E+00
%FLAG SCEE_SCALE_FACTOR                                                         
%FORMAT(5E16.8)                                                                 
  1.20000000E+00  1.20000000E+00  1.20000000E+00  1.20000000E+00  1.20000000E+00
  1.20000000E+00  1.20000000E+00  1.20000000E+00  1.20000000E+00  1.20000000E+00
  1.20000000E+00  1.20000000E+00  1.20000000E+00  1.20000000E+00  1.20000000E+00
  1.20000000E+00  1.20000000E+00  0.00000000E+00
%FLAG SCNB_SCALE_FACTOR                                                         
%FORMAT(5E16.8)                                                                 
  2.00000000E+00  2.00000000E+00  2.00000000E+00  2.00000000E+00  2.00000000E+00
  2.00000000E+00  2.00000000E+00  2.00000000E+00  2.00000000E+00  2.00000000E+00
  2.00000000E+00  2.00000000E+00  2.00000000E+00  2.00000000E+00  2.00000000E+00
  2.00000000E+00  2.00000000E+00  0.00000000E+00
%FLAG SOLTY                                                                     
%FORMAT(5E16.8)                                                                 
  0.00000000E+00  0.00000000E+00  0.00000000E+00  0.00000000E+00  0.00000000E+00
  0.00000000E+00  0.00000000E+00  0.00000000E+00  0.00000000E+00  0.00000000E+00
%FLAG LENNARD_JONES_ACOEF                                                       
%FORMAT(5E16.8)                                                                 
  2.83662575E+05  3.78207390E+05  5.03152404E+05  3.27367585E+05  4.37717034E+05
  3.76435470E+05  5.42502534E+05  7.18991463E+05  6.30925504E+05  1.02073671E+06
  4.46121722E+05  5.92438683E+05  5.17507491E+05  8.43969952E+05  6.96551276E+05
  5.02224902E+04  6.80216136E+04  5.68021765E+04  1.00235148E+05  8.12662403E+04
  7.94617769E+03  4.65732396E+04  6.30298721E+04  5.27277400E+04  9.27554496E+04
  7.52549148E+04  7.41026906E+03  6.90855956E+03  1.16469347E+02  1.74176419E+02
  1.15813907E+02  3.03553352E+02  2.25372434E+02  8.80612241E+00  8.53132435E+00
  1.10360882E-05  3.44374471E+04  4.69084694E+04  3.86646725E+04  6.97998263E+04
  5.63013422E+04  5.22955465E+03  4.88692384E+03  4.36660257E+00  3.39005767E+03
%FLAG LENNARD_JONES_BCOEF                                                       
%FORMAT(5E16.8)                                                                 
  2.87011518E+02  3.52573684E+02  4.32634597E+02  3.67361018E+02  4.51916854E+02
  4.69350655E+02  4.38146883E+02  5.36620538E+02  5.62969425E+02  6.63431737E+02
  3.88758656E+02  4.76608379E+02  4.98871431E+02  5.90251928E+02  5.24668528E+02
  8.83545880E+01  1.09393126E+02  1.11953944E+02  1.37787728E+02  1.21392023E+02
  2.57122925E+01  7.98066064E+01  9.87712192E+01  1.01173582E+02  1.24325688E+02
  1.09570372E+02  2.32899892E+01  2.10929191E+01  2.93355636E+00  3.81654050E+00
  3.48534600E+00  5.22789272E+00  4.40751799E+00  5.90150328E-01  5.44840215E-01
  4.55498033E-04  7.31636661E+01  9.08431526E+01  9.23664132E+01  1.14981426E+02
  1.01040256E+02  2.08590256E+01  1.89134207E+01  4.15568027E-01  1.67944276E+01
%FLAG BONDS_INC_HYDROGEN                                                        
%FORMAT(10I8)                                                                   
       3      81       4       9      51       9      21      54      11      24
      57      11      27      60      11      30      63       9      30      66
       9      30      69       9      33      72      11      36      75      11
      45      78      11      48      84      12      48      87      12      48
      90      12
%FLAG BONDS_WITHOUT_HYDROGEN                                                    
%FORMAT(10I8)                                                                   
       0      39       1       0      48       2       3      42       3       6
      42       5       9      12       6       9      30       7       9      42
       8      12      21      10      12      24      10      15      18      10
      15      21      10      15      33      10      18      27      10      18
      36      10      24      27      10      33      45      10      36      39
      10      39      45      10
%FLAG ANGLES_INC_HYDROGEN                                                       
%FORMAT(10I8)                                                                   
       0      48      84       2       0      48      87       2       0      48
      90       2       9      30      63       7       9      30      66       7
       9      30      69       7      12       9      51      10      12      21
      54      12      12      24      57      12      15      21      54      12
      15      33      72      12      18      27      60      12      18      36
      75      12      24      27      60      12      27      24      57      12
      30       9      51       7      33      45      78      12      39      36
      75      12      39      45      78      12      42       3      81      15
      42       9      51      16      45      33      72      12      63      30
      66      17      63      30      69      17      66      30      69      17
      84      48      87      18      84      48      90      18      87      48
      90      18
%FLAG ANGLES_WITHOUT_HYDROGEN                                                   
%FORMAT(10I8)                                                                   
       0      39      36       1       0      39      45       1       3      42
       6       3       3      42       9       4       6      42       9       5
       9      12      21       6       9      12      24       6      12       9
      30       8      12       9      42       9      12      21      15      11
      12      24      27      11      15      18      27      11      15      18
      36      11      15      33      45      11      18      15      21      11
      18      15      33      11      18      27      24      11      18      36
      39      11      21      12      24      11      21      15      33      11
      27      18      36      11      30       9      42      13      33      45
      39      11      36      39      45      11      39       0      48      14
%FLAG DIHEDRALS_INC_HYDROGEN                                                    
%FORMAT(10I8)                                                                   
       0      39      36      75       1       0      39      45      78       1
       3      42       9      51       2       6      42       3      81       3
       6      42      -3      81       4       6      42       9      51       8
       6      42      -9      51       9       9      12      21      54       1
       9      12      24      57       1       9      42       3      81      10
      12       9      30      63      11      12       9      30      66      11
      12       9      30      69      11      12      24      27      60       1
      15      18      27      60       1      15      18      36      75       1
      15      33      45      78       1      18      15      21      54       1
      18      15      33      72       1      18      27      24      57       1
      21      12       9      51      14      21      12      24      57       1
      21      15      33      72       1      24      12       9      51      14
      24      12      21      54       1      27      18      36      75       1
      33      15      21      54       1      36      18      27      60       1
      36      39      45      78       1      39       0      48      84      16
      39       0      48      87      16      39       0      48      90      16
      39      45      33      72       1      42       9      30      63      11
      42       9      30      66      11      42       9      30      69      11
      45      39      36      75       1      51       9      30      63      17
      51       9      30      66      17      51       9      30      69      17
      57      24      27      60       1      72      33      45      78       1
      12      15     -21     -54      18      12      27     -24     -57      18
      18      24     -27     -60      18      15      45     -33     -72      18
      18      39     -36     -75      18      33      39     -45     -78      18
%FLAG DIHEDRALS_WITHOUT_HYDROGEN                                                
%FORMAT(10I8)                                                                   
       0      39      36      18       1       0      39      45      33       1
       3      42       9      12       2       3      42       9      30       2
       6      42       9      12       2       6      42       9      30       5
       6      42      -9      30       6       6      42      -9      30       7
       9      12      21      15       1       9      12      24      27       1
      12      21      15      18       1      12      21      15      33       1
      12      24     -27      18       1      15      18      27      24       1
      15      18      36      39       1      15      21     -12      24       1
      15      33     -45      39       1      18      15      33      45       1
      18      36     -39      45       1      21      12       9      30      12
      21      12       9      42      13      21      12      24      27       1
      21      15     -18      27       1      21      15      18      36       1
      21      15      33      45       1      24      12       9      30      12
      24      12       9      42      13      24      27      18      36       1
      27      18      15      33       1      27      18      36      39       1
      33      15      18      36       1      33      45     -39      36       1
      48       0      39      36      15      48       0      39      45      15
      21      24     -12      -9      18      18      21     -15     -33      18
      15      27     -18     -36      18       0      39     -45     -36      18
       9       6     -42      -3      18
%FLAG EXCLUDED_ATOMS_LIST                                                       
%FORMAT(10I8)                                                                   
       7      12      13      14      16      17      26      27      29      30
      31       3       4       5      11      15      18      28       4       5
      11      15      18      28       5       6       8       9      10      11
      15      18      19      20      22      23      24      28       6       7
       8       9      10      11      12      15      18      19      20      21
      22      23      24       7       8       9      10      12      13      14
      16      19      21      25      26      27       8       9      10      12
      13      14      16      19      20      21      25      26       9      10
      11      12      13      15      16      18      19      20      25      10
      11      13      15      18      19      20      21      12      13      14
      20      21      26      15      18      22      23      24      13      14
      16      19      25      27      14      16      17      21      26      27
      16      17      25      26      27      29      30      31      18      22
      23      24      28      17      25      26      27      29      30      31
      22      23      24       0      21       0      23      24      24       0
      27       0       0       0      30      31      31       0
%FLAG HBOND_ACOEF                                                               
%FORMAT(5E16.8)                                                                 

%FLAG HBOND_BCOEF                                                               
%FORMAT(5E16.8)                                                                 

%FLAG HBCUT                                                                     
%FORMAT(5E16.8)                                                                 

%FLAG AMBER_ATOM_TYPE                                                           
%FORMAT(20a4)                                                                   
os  oh  o   c3  ca  ca  ca  ca  ca  ca  c3  ca  ca  ca  c   ca  c3  hc  ha  ha  
ha  hc  hc  hc  ha  ha  ha  ho  h1  h1  h1  
%FLAG TREE_CHAIN_CLASSIFICATION                                                 
%FORMAT(20a4)                                                                   
BLA BLA BLA BLA BLA BLA BLA BLA BLA BLA BLA BLA BLA BLA BLA BLA BLA BLA BLA BLA 
BLA BLA BLA BLA BLA BLA BLA BLA BLA BLA BLA 
%FLAG JOIN_ARRAY                                                                
%FORMAT(10I8)                                                                   
       0       0       0       0       0       0       0       0       0       0
       0       0       0       0       0       0       0       0       0       0
       0       0       0       0       0       0       0       0       0       0
       0
%FLAG IROTAT                                                                    
%FORMAT(10I8)                                                                   
       0       0       0       0       0       0       0       0       0       0
       0       0       0       0       0       0       0       0       0       0
       0       0       0       0       0       0       0       0       0       0
       0
%FLAG RADIUS_SET                                                                
%FORMAT(1a80)                                                                   
modified Bondi radii (mbondi)                                                   
%FLAG RADII                                                                     
%FORMAT(5E16.8)                                                                 
  1.50000000E+00  1.50000000E+00  1.50000000E+00  1.70000000E+00  1.70000000E+00
  1.70000000E+00  1.70000000E+00  1.70000000E+00  1.70000000E+00  1.70000000E+00
  1.70000000E+00  1.70000000E+00  1.70000000E+00  1.70000000E+00  1.70000000E+00
  1.70000000E+00  1.70000000E+00  1.30000000E+00  1.30000000E+00  1.30000000E+00
  1.30000000E+00  1.30000000E+00  1.30000000E+00  1.30000000E+00  1.30000000E+00
  1.30000000E+00  1.30000000E+00  8.00000000E-01  1.30000000E+00  1.30000000E+00
  1.30000000E+00
%FLAG SCREEN                                                                    
%FORMAT(5E16.8)                                                                 
  8.50000000E-01  8.50000000E-01  8.50000000E-01  7.20000000E-01  7.20000000E-01
  7.20000000E-01  7.20000000E-01  7.20000000E-01  7.20000000E-01  7.20000000E-01
  7.20000000E-01  7.20000000E-01  7.20000000E-01  7.20000000E-01  7.20000000E-01
  7.20000000E-01  7.20000000E-01  8.50000000E-01  8.50000000E-01  8.50000000E-01
  8.50000000E-01  8.50000000E-01  8.50000000E-01  8.50000000E-01  8.50000000E-01
  8.50000000E-01  8.50000000E-01  8.50000000E-01  8.50000000E-01  8.50000000E-01
  8.50000000E-01
%FLAG IPOL                                                                      
%FORMAT(1I8)                                                                    
       0
