naproxen_GMX.gro created by acpype (v: 2023.10.27) on Mon Feb  9 17:54:25 2026
 31
    1  UNL    O    1  -0.469  -0.018  -0.025
    1  UNL   O1    2   0.508   0.076  -0.047
    1  UNL   O2    3   0.308   0.123  -0.143
    1  UNL    C    4   0.314  -0.040   0.038
    1  UNL   C1    5   0.167  -0.058   0.020
    1  UNL   C2    6  -0.058   0.033   0.025
    1  UNL   C3    7  -0.109  -0.093  -0.014
    1  UNL   C4    8   0.081   0.049   0.042
    1  UNL   C5    9   0.117  -0.182  -0.017
    1  UNL   C6   10  -0.021  -0.200  -0.034
    1  UNL   C7   11   0.355  -0.000   0.182
    1  UNL   C8   12  -0.147   0.140   0.046
    1  UNL   C9   13  -0.248  -0.108  -0.030
    1  UNL  C10   14  -0.335  -0.001  -0.009
    1  UNL  C11   15   0.373   0.061  -0.060
    1  UNL  C12   16  -0.284   0.123   0.029
    1  UNL  C13   17  -0.552   0.096  -0.002
    1  UNL    H   18   0.364  -0.135   0.015
    1  UNL   H1   19   0.120   0.146   0.071
    1  UNL   H2   20   0.183  -0.267  -0.034
    1  UNL   H3   21  -0.058  -0.298  -0.064
    1  UNL   H4   22   0.463  -0.003   0.194
    1  UNL   H5   23   0.321   0.101   0.207
    1  UNL   H6   24   0.311  -0.069   0.255
    1  UNL   H7   25  -0.110   0.238   0.076
    1  UNL   H8   26  -0.289  -0.205  -0.060
    1  UNL   H9   27  -0.346   0.210   0.047
    1  UNL  H10   28   0.544   0.141  -0.111
    1  UNL  H11   29  -0.655   0.064  -0.019
    1  UNL  H12   30  -0.530   0.176  -0.073
    1  UNL  H13   31  -0.546   0.129   0.102
   23.98200    10.70800     7.96200
