156391
    31
  -4.6880000  -0.1810000  -0.2530000   5.0780000   0.7630000  -0.4700000
   3.0800000   1.2330000  -1.4310000   3.1420000  -0.4000000   0.3840000
   1.6730000  -0.5830000   0.2040000  -0.5810000   0.3320000   0.2500000
  -1.0940000  -0.9290000  -0.1360000   0.8050000   0.4890000   0.4150000
   1.1680000  -1.8240000  -0.1750000  -0.2060000  -1.9970000  -0.3440000
   3.5460000  -0.0030000   1.8180000  -1.4690000   1.4000000   0.4580000
  -2.4800000  -1.0850000  -0.3010000  -3.3470000  -0.0130000  -0.0900000
   3.7330000   0.6150000  -0.6000000  -2.8430000   1.2270000   0.2890000
  -5.5180000   0.9550000  -0.0180000   3.6440000  -1.3500000   0.1540000
   1.2020000   1.4580000   0.7130000   1.8300000  -2.6690000  -0.3440000
  -0.5780000  -2.9750000  -0.6410000   4.6340000  -0.0260000   1.9430000
   3.2110000   1.0110000   2.0660000   3.1110000  -0.6930000   2.5500000
  -1.0950000   2.3790000   0.7550000  -2.8900000  -2.0490000  -0.5970000
  -3.4590000   2.1010000   0.4700000   5.4380000   1.4130000  -1.1110000
  -6.5530000   0.6410000  -0.1930000  -5.3050000   1.7620000  -0.7280000
  -5.4580000   1.2900000   1.0230000
