; naproxen_GMX.itp created by acpype (v: 2023.10.27) on Mon Feb  9 17:54:25 2026

[ atomtypes ]
;name   bond_type     mass     charge   ptype   sigma         epsilon       Amb
 os       os          0.00000  0.00000   A     3.15610e-01   3.03758e-01 ; 1.77  0.0726
 oh       oh          0.00000  0.00000   A     3.24287e-01   3.89112e-01 ; 1.82  0.0930
 o        o           0.00000  0.00000   A     3.04812e-01   6.12119e-01 ; 1.71  0.1463
 c3       c3          0.00000  0.00000   A     3.39771e-01   4.51035e-01 ; 1.91  0.1078
 ca       ca          0.00000  0.00000   A     3.31521e-01   4.13379e-01 ; 1.86  0.0988
 c        c           0.00000  0.00000   A     3.31521e-01   4.13379e-01 ; 1.86  0.0988
 hc       hc          0.00000  0.00000   A     2.60018e-01   8.70272e-02 ; 1.46  0.0208
 ha       ha          0.00000  0.00000   A     2.62548e-01   6.73624e-02 ; 1.47  0.0161
 ho       ho          0.00000  0.00000   A     5.37925e-02   1.96648e-02 ; 0.30  0.0047
 h1       h1          0.00000  0.00000   A     2.42200e-01   8.70272e-02 ; 1.36  0.0208

[ moleculetype ]
;name            nrexcl
 naproxen         3

[ atoms ]
;   nr  type  resi  res  atom  cgnr     charge      mass       ; qtot   bond_type
     1   os     1   UNL     O    1    -0.327900     16.00000 ; qtot -0.328
     2   oh     1   UNL    O1    2    -0.606100     16.00000 ; qtot -0.934
     3    o     1   UNL    O2    3    -0.554000     16.00000 ; qtot -1.488
     4   c3     1   UNL     C    4    -0.054400     12.01000 ; qtot -1.542
     5   ca     1   UNL    C1    5    -0.106300     12.01000 ; qtot -1.649
     6   ca     1   UNL    C2    6    -0.069000     12.01000 ; qtot -1.718
     7   ca     1   UNL    C3    7     0.001000     12.01000 ; qtot -1.717
     8   ca     1   UNL    C4    8    -0.087000     12.01000 ; qtot -1.804
     9   ca     1   UNL    C5    9    -0.107000     12.01000 ; qtot -1.911
    10   ca     1   UNL    C6   10    -0.126000     12.01000 ; qtot -2.037
    11   c3     1   UNL    C7   11    -0.091100     12.01000 ; qtot -2.128
    12   ca     1   UNL    C8   12    -0.079000     12.01000 ; qtot -2.207
    13   ca     1   UNL    C9   13    -0.163000     12.01000 ; qtot -2.370
    14   ca     1   UNL   C10   14     0.127100     12.01000 ; qtot -2.243
    15    c     1   UNL   C11   15     0.643101     12.01000 ; qtot -1.600
    16   ca     1   UNL   C12   16    -0.186000     12.01000 ; qtot -1.786
    17   c3     1   UNL   C13   17     0.113700     12.01000 ; qtot -1.672
    18   hc     1   UNL     H   18     0.087700      1.00800 ; qtot -1.584
    19   ha     1   UNL    H1   19     0.155000      1.00800 ; qtot -1.429
    20   ha     1   UNL    H2   20     0.133000      1.00800 ; qtot -1.296
    21   ha     1   UNL    H3   21     0.137000      1.00800 ; qtot -1.159
    22   hc     1   UNL    H4   22     0.051033      1.00800 ; qtot -1.108
    23   hc     1   UNL    H5   23     0.051033      1.00800 ; qtot -1.057
    24   hc     1   UNL    H6   24     0.051033      1.00800 ; qtot -1.006
    25   ha     1   UNL    H7   25     0.139000      1.00800 ; qtot -0.867
    26   ha     1   UNL    H8   26     0.151000      1.00800 ; qtot -0.716
    27   ha     1   UNL    H9   27     0.139000      1.00800 ; qtot -0.577
    28   ho     1   UNL   H10   28     0.443000      1.00800 ; qtot -0.134
    29   h1     1   UNL   H11   29     0.044700      1.00800 ; qtot -0.089
    30   h1     1   UNL   H12   30     0.044700      1.00800 ; qtot -0.045
    31   h1     1   UNL   H13   31     0.044700      1.00800 ; qtot 0.000

[ bonds ]
;   ai     aj funct   r             k
     1     14   1    1.3688e-01    2.8731e+05 ;      O - C10   
     1     17   1    1.4273e-01    2.3620e+05 ;      O - C13   
     2     15   1    1.3556e-01    3.0064e+05 ;     O1 - C11   
     2     28   1    9.7250e-02    4.4811e+05 ;     O1 - H10   
     3     15   1    1.2190e-01    4.9421e+05 ;     O2 - C11   
     4      5   1    1.5147e-01    2.0410e+05 ;      C - C1    
     4     11   1    1.5354e-01    1.9154e+05 ;      C - C7    
     4     15   1    1.5270e-01    1.9652e+05 ;      C - C11   
     4     18   1    1.0962e-01    2.8891e+05 ;      C - H     
     5      8   1    1.3986e-01    2.9644e+05 ;     C1 - C4    
     5      9   1    1.3986e-01    2.9644e+05 ;     C1 - C5    
     6      7   1    1.3986e-01    2.9644e+05 ;     C2 - C3    
     6      8   1    1.3986e-01    2.9644e+05 ;     C2 - C4    
     6     12   1    1.3986e-01    2.9644e+05 ;     C2 - C8    
     7     10   1    1.3986e-01    2.9644e+05 ;     C3 - C6    
     7     13   1    1.3986e-01    2.9644e+05 ;     C3 - C9    
     8     19   1    1.0860e-01    3.0183e+05 ;     C4 - H1    
     9     10   1    1.3986e-01    2.9644e+05 ;     C5 - C6    
     9     20   1    1.0860e-01    3.0183e+05 ;     C5 - H2    
    10     21   1    1.0860e-01    3.0183e+05 ;     C6 - H3    
    11     22   1    1.0962e-01    2.8891e+05 ;     C7 - H4    
    11     23   1    1.0962e-01    2.8891e+05 ;     C7 - H5    
    11     24   1    1.0962e-01    2.8891e+05 ;     C7 - H6    
    12     16   1    1.3986e-01    2.9644e+05 ;     C8 - C12   
    12     25   1    1.0860e-01    3.0183e+05 ;     C8 - H7    
    13     14   1    1.3986e-01    2.9644e+05 ;     C9 - C10   
    13     26   1    1.0860e-01    3.0183e+05 ;     C9 - H8    
    14     16   1    1.3986e-01    2.9644e+05 ;    C10 - C12   
    16     27   1    1.0860e-01    3.0183e+05 ;    C12 - H9    
    17     29   1    1.0969e-01    2.8804e+05 ;    C13 - H11   
    17     30   1    1.0969e-01    2.8804e+05 ;    C13 - H12   
    17     31   1    1.0969e-01    2.8804e+05 ;    C13 - H13   

[ pairs ]
;   ai     aj    funct
     1      7      1 ;      O - C3    
     1     12      1 ;      O - C8    
     1     26      1 ;      O - H8    
     1     27      1 ;      O - H9    
     2      5      1 ;     O1 - C1    
     2     11      1 ;     O1 - C7    
     2     18      1 ;     O1 - H     
     3      5      1 ;     O2 - C1    
     3     11      1 ;     O2 - C7    
     3     18      1 ;     O2 - H     
     3     28      1 ;     O2 - H10   
     4      6      1 ;      C - C2    
     4     10      1 ;      C - C6    
     4     19      1 ;      C - H1    
     4     20      1 ;      C - H2    
     4     28      1 ;      C - H10   
     5      7      1 ;     C1 - C3    
     5     12      1 ;     C1 - C8    
     5     21      1 ;     C1 - H3    
     5     22      1 ;     C1 - H4    
     5     23      1 ;     C1 - H5    
     5     24      1 ;     C1 - H6    
     6      9      1 ;     C2 - C5    
     6     14      1 ;     C2 - C10   
     6     21      1 ;     C2 - H3    
     6     26      1 ;     C2 - H8    
     6     27      1 ;     C2 - H9    
     7     16      1 ;     C3 - C12   
     7     19      1 ;     C3 - H1    
     7     20      1 ;     C3 - H2    
     7     25      1 ;     C3 - H7    
     8     10      1 ;     C4 - C6    
     8     11      1 ;     C4 - C7    
     8     13      1 ;     C4 - C9    
     8     15      1 ;     C4 - C11   
     8     16      1 ;     C4 - C12   
     8     18      1 ;     C4 - H     
     8     20      1 ;     C4 - H2    
     8     25      1 ;     C4 - H7    
     9     11      1 ;     C5 - C7    
     9     13      1 ;     C5 - C9    
     9     15      1 ;     C5 - C11   
     9     18      1 ;     C5 - H     
     9     19      1 ;     C5 - H1    
    10     12      1 ;     C6 - C8    
    10     14      1 ;     C6 - C10   
    10     26      1 ;     C6 - H8    
    12     13      1 ;     C8 - C9    
    12     19      1 ;     C8 - H1    
    13     21      1 ;     C9 - H3    
    13     27      1 ;     C9 - H9    
    14     25      1 ;    C10 - H7    
    14     29      1 ;    C10 - H11   
    14     30      1 ;    C10 - H12   
    14     31      1 ;    C10 - H13   
    15     22      1 ;    C11 - H4    
    15     23      1 ;    C11 - H5    
    15     24      1 ;    C11 - H6    
    16     26      1 ;    C12 - H8    
    17     13      1 ;    C13 - C9    
    17     16      1 ;    C13 - C12   
    18     22      1 ;      H - H4    
    18     23      1 ;      H - H5    
    18     24      1 ;      H - H6    
    20     21      1 ;     H2 - H3    
    25     27      1 ;     H7 - H9    

[ angles ]
;   ai     aj     ak    funct   theta         cth
     1     14     13      1    1.1911e+02    6.6107e+02 ;      O - C10    - C9    
     1     14     16      1    1.1911e+02    6.6107e+02 ;      O - C10    - C12   
     1     17     29      1    1.1034e+02    4.7028e+02 ;      O - C13    - H11   
     1     17     30      1    1.1034e+02    4.7028e+02 ;      O - C13    - H12   
     1     17     31      1    1.1034e+02    4.7028e+02 ;      O - C13    - H13   
     2     15      3      1    1.2209e+02    8.5379e+02 ;     O1 - C11    - O2    
     2     15      4      1    1.1274e+02    6.4785e+02 ;     O1 - C11    - C     
     3     15      4      1    1.2290e+02    6.3973e+02 ;     O2 - C11    - C     
     4      5      8      1    1.2083e+02    5.0827e+02 ;      C - C1     - C4    
     4      5      9      1    1.2083e+02    5.0827e+02 ;      C - C1     - C5    
     4     11     22      1    1.0968e+02    3.6208e+02 ;      C - C7     - H4    
     4     11     23      1    1.0968e+02    3.6208e+02 ;      C - C7     - H5    
     4     11     24      1    1.0968e+02    3.6208e+02 ;      C - C7     - H6    
     5      4     11      1    1.1242e+02    5.0484e+02 ;     C1 - C      - C7    
     5      4     15      1    1.1116e+02    5.0911e+02 ;     C1 - C      - C11   
     5      4     18      1    1.1063e+02    3.6493e+02 ;     C1 - C      - H     
     5      8      6      1    1.2002e+02    5.3279e+02 ;     C1 - C4     - C2    
     5      8     19      1    1.1988e+02    3.7572e+02 ;     C1 - C4     - H1    
     5      9     10      1    1.2002e+02    5.3279e+02 ;     C1 - C5     - C6    
     5      9     20      1    1.1988e+02    3.7572e+02 ;     C1 - C5     - H2    
     6      7     10      1    1.2002e+02    5.3279e+02 ;     C2 - C3     - C6    
     6      7     13      1    1.2002e+02    5.3279e+02 ;     C2 - C3     - C9    
     6      8     19      1    1.1988e+02    3.7572e+02 ;     C2 - C4     - H1    
     6     12     16      1    1.2002e+02    5.3279e+02 ;     C2 - C8     - C12   
     6     12     25      1    1.1988e+02    3.7572e+02 ;     C2 - C8     - H7    
     7      6      8      1    1.2002e+02    5.3279e+02 ;     C3 - C2     - C4    
     7      6     12      1    1.2002e+02    5.3279e+02 ;     C3 - C2     - C8    
     7     10      9      1    1.2002e+02    5.3279e+02 ;     C3 - C6     - C5    
     7     10     21      1    1.1988e+02    3.7572e+02 ;     C3 - C6     - H3    
     7     13     14      1    1.2002e+02    5.3279e+02 ;     C3 - C9     - C10   
     7     13     26      1    1.1988e+02    3.7572e+02 ;     C3 - C9     - H8    
     8      5      9      1    1.2002e+02    5.3279e+02 ;     C4 - C1     - C5    
     8      6     12      1    1.2002e+02    5.3279e+02 ;     C4 - C2     - C8    
     9     10     21      1    1.1988e+02    3.7572e+02 ;     C5 - C6     - H3    
    10      7     13      1    1.2002e+02    5.3279e+02 ;     C6 - C3     - C9    
    10      9     20      1    1.1988e+02    3.7572e+02 ;     C6 - C5     - H2    
    11      4     15      1    1.1143e+02    5.0509e+02 ;     C7 - C      - C11   
    11      4     18      1    1.0968e+02    3.6208e+02 ;     C7 - C      - H     
    12     16     14      1    1.2002e+02    5.3279e+02 ;     C8 - C12    - C10   
    12     16     27      1    1.1988e+02    3.7572e+02 ;     C8 - C12    - H9    
    13     14     16      1    1.2002e+02    5.3279e+02 ;     C9 - C10    - C12   
    14      1     17      1    1.1839e+02    7.3856e+02 ;    C10 - O      - C13   
    14     13     26      1    1.1988e+02    3.7572e+02 ;    C10 - C9     - H8    
    14     16     27      1    1.1988e+02    3.7572e+02 ;    C10 - C12    - H9    
    15      2     28      1    1.0654e+02    5.7287e+02 ;    C11 - O1     - H10   
    15      4     18      1    1.0895e+02    3.6510e+02 ;    C11 - C      - H     
    16     12     25      1    1.1988e+02    3.7572e+02 ;    C12 - C8     - H7    
    22     11     23      1    1.0773e+02    2.9957e+02 ;     H4 - C7     - H5    
    22     11     24      1    1.0773e+02    2.9957e+02 ;     H4 - C7     - H6    
    23     11     24      1    1.0773e+02    2.9957e+02 ;     H5 - C7     - H6    
    29     17     30      1    1.0855e+02    2.9824e+02 ;    H11 - C13    - H12   
    29     17     31      1    1.0855e+02    2.9824e+02 ;    H11 - C13    - H13   
    30     17     31      1    1.0855e+02    2.9824e+02 ;    H12 - C13    - H13   

[ dihedrals ] ; propers
; for gromacs 4.5 or higher, using funct 9
;    i      j      k      l   func   phase     kd      pn
     1     14     13      7      9   180.00  15.16700   2 ;      O-   C10-    C9-    C3
     1     14     13     26      9   180.00  15.16700   2 ;      O-   C10-    C9-    H8
     1     14     16     12      9   180.00  15.16700   2 ;      O-   C10-   C12-    C8
     1     14     16     27      9   180.00  15.16700   2 ;      O-   C10-   C12-    H9
     2     15      4      5      9   180.00   0.00000   2 ;     O1-   C11-     C-    C1
     2     15      4     11      9   180.00   0.00000   2 ;     O1-   C11-     C-    C7
     2     15      4     18      9   180.00   0.00000   2 ;     O1-   C11-     C-     H
     3     15      2     28      9     0.00   7.94960   1 ;     O2-   C11-    O1-   H10
     3     15      2     28      9   180.00   9.62320   2 ;     O2-   C11-    O1-   H10
     3     15      4      5      9   180.00   0.00000   2 ;     O2-   C11-     C-    C1
     3     15      4     11      9     0.00   2.84512   1 ;     O2-   C11-     C-    C7
     3     15      4     11      9   180.00   0.83680   2 ;     O2-   C11-     C-    C7
     3     15      4     11      9   180.00   1.84096   3 ;     O2-   C11-     C-    C7
     3     15      4     18      9     0.00  16.86152   1 ;     O2-   C11-     C-     H
     3     15      4     18      9   180.00  15.31344   2 ;     O2-   C11-     C-     H
     4      5      8      6      9   180.00  15.16700   2 ;      C-    C1-    C4-    C2
     4      5      8     19      9   180.00  15.16700   2 ;      C-    C1-    C4-    H1
     4      5      9     10      9   180.00  15.16700   2 ;      C-    C1-    C5-    C6
     4      5      9     20      9   180.00  15.16700   2 ;      C-    C1-    C5-    H2
     4     15      2     28      9   180.00   7.53120   2 ;      C-   C11-    O1-   H10
     5      4     11     22      9     0.00   0.65084   3 ;     C1-     C-    C7-    H4
     5      4     11     23      9     0.00   0.65084   3 ;     C1-     C-    C7-    H5
     5      4     11     24      9     0.00   0.65084   3 ;     C1-     C-    C7-    H6
     5      8      6      7      9   180.00  15.16700   2 ;     C1-    C4-    C2-    C3
     5      8      6     12      9   180.00  15.16700   2 ;     C1-    C4-    C2-    C8
     5      9     10      7      9   180.00  15.16700   2 ;     C1-    C5-    C6-    C3
     5      9     10     21      9   180.00  15.16700   2 ;     C1-    C5-    C6-    H3
     6      7     10      9      9   180.00  15.16700   2 ;     C2-    C3-    C6-    C5
     6      7     10     21      9   180.00  15.16700   2 ;     C2-    C3-    C6-    H3
     6      7     13     14      9   180.00  15.16700   2 ;     C2-    C3-    C9-   C10
     6      7     13     26      9   180.00  15.16700   2 ;     C2-    C3-    C9-    H8
     6      8      5      9      9   180.00  15.16700   2 ;     C2-    C4-    C1-    C5
     6     12     16     14      9   180.00  15.16700   2 ;     C2-    C8-   C12-   C10
     6     12     16     27      9   180.00  15.16700   2 ;     C2-    C8-   C12-    H9
     7      6      8     19      9   180.00  15.16700   2 ;     C3-    C2-    C4-    H1
     7      6     12     16      9   180.00  15.16700   2 ;     C3-    C2-    C8-   C12
     7      6     12     25      9   180.00  15.16700   2 ;     C3-    C2-    C8-    H7
     7     10      9     20      9   180.00  15.16700   2 ;     C3-    C6-    C5-    H2
     7     13     14     16      9   180.00  15.16700   2 ;     C3-    C9-   C10-   C12
     8      5      4     11      9   180.00   1.00416   2 ;     C4-    C1-     C-    C7
     8      5      4     15      9     0.00   0.00000   0 ;     C4-    C1-     C-   C11
     8      5      4     18      9     0.00   0.00000   0 ;     C4-    C1-     C-     H
     8      5      9     10      9   180.00  15.16700   2 ;     C4-    C1-    C5-    C6
     8      5      9     20      9   180.00  15.16700   2 ;     C4-    C1-    C5-    H2
     8      6      7     10      9   180.00  15.16700   2 ;     C4-    C2-    C3-    C6
     8      6      7     13      9   180.00  15.16700   2 ;     C4-    C2-    C3-    C9
     8      6     12     16      9   180.00  15.16700   2 ;     C4-    C2-    C8-   C12
     8      6     12     25      9   180.00  15.16700   2 ;     C4-    C2-    C8-    H7
     9      5      4     11      9   180.00   1.00416   2 ;     C5-    C1-     C-    C7
     9      5      4     15      9     0.00   0.00000   0 ;     C5-    C1-     C-   C11
     9      5      4     18      9     0.00   0.00000   0 ;     C5-    C1-     C-     H
     9      5      8     19      9   180.00  15.16700   2 ;     C5-    C1-    C4-    H1
     9     10      7     13      9   180.00  15.16700   2 ;     C5-    C6-    C3-    C9
    10      7      6     12      9   180.00  15.16700   2 ;     C6-    C3-    C2-    C8
    10      7     13     14      9   180.00  15.16700   2 ;     C6-    C3-    C9-   C10
    10      7     13     26      9   180.00  15.16700   2 ;     C6-    C3-    C9-    H8
    12      6      7     13      9   180.00  15.16700   2 ;     C8-    C2-    C3-    C9
    12      6      8     19      9   180.00  15.16700   2 ;     C8-    C2-    C4-    H1
    12     16     14     13      9   180.00  15.16700   2 ;     C8-   C12-   C10-    C9
    13      7     10     21      9   180.00  15.16700   2 ;     C9-    C3-    C6-    H3
    13     14     16     27      9   180.00  15.16700   2 ;     C9-   C10-   C12-    H9
    14      1     17     29      9     0.00   1.60387   3 ;    C10-     O-   C13-   H11
    14      1     17     30      9     0.00   1.60387   3 ;    C10-     O-   C13-   H12
    14      1     17     31      9     0.00   1.60387   3 ;    C10-     O-   C13-   H13
    14     16     12     25      9   180.00  15.16700   2 ;    C10-   C12-    C8-    H7
    15      4     11     22      9     0.00   0.65084   3 ;    C11-     C-    C7-    H4
    15      4     11     23      9     0.00   0.65084   3 ;    C11-     C-    C7-    H5
    15      4     11     24      9     0.00   0.65084   3 ;    C11-     C-    C7-    H6
    16     14     13     26      9   180.00  15.16700   2 ;    C12-   C10-    C9-    H8
    17      1     14     13      9   180.00   6.94544   2 ;    C13-     O-   C10-    C9
    17      1     14     16      9   180.00   6.94544   2 ;    C13-     O-   C10-   C12
    18      4     11     22      9     0.00   0.50208   3 ;      H-     C-    C7-    H4
    18      4     11     23      9     0.00   0.50208   3 ;      H-     C-    C7-    H5
    18      4     11     24      9     0.00   0.50208   3 ;      H-     C-    C7-    H6
    20      9     10     21      9   180.00  15.16700   2 ;     H2-    C5-    C6-    H3
    25     12     16     27      9   180.00  15.16700   2 ;     H7-    C8-   C12-    H9

[ dihedrals ] ; impropers
; treated as propers in GROMACS to use correct AMBER analytical function
;    i      j      k      l   func   phase     kd      pn
     1     14     16     13      4   180.00   4.60240   2 ;      O-   C10-   C12-    C9
     4      3     15      2      4   180.00   4.60240   2 ;      C-    O2-   C11-    O1
     5      6      8     19      4   180.00   4.60240   2 ;     C1-    C2-    C4-    H1
     5     10      9     20      4   180.00   4.60240   2 ;     C1-    C6-    C5-    H2
     6     10      7     13      4   180.00   4.60240   2 ;     C2-    C6-    C3-    C9
     6     16     12     25      4   180.00   4.60240   2 ;     C2-   C12-    C8-    H7
     7      8      6     12      4   180.00   4.60240   2 ;     C3-    C4-    C2-    C8
     7      9     10     21      4   180.00   4.60240   2 ;     C3-    C5-    C6-    H3
     7     14     13     26      4   180.00   4.60240   2 ;     C3-   C10-    C9-    H8
     8      9      5      4      4   180.00   4.60240   2 ;     C4-    C5-    C1-     C
    12     14     16     27      4   180.00   4.60240   2 ;     C8-   C10-   C12-    H9
