1135
    15
  -1.5190000   1.8070000  -0.0010000   2.8390000   0.2910000  -0.0010000
   0.6640000   1.0620000   0.0010000   1.1150000  -1.2320000  -0.0000000
  -1.1610000  -0.5430000   0.0000000  -0.7130000   0.8800000   0.0000000
  -0.2260000  -1.5010000  -0.0000000  -2.6300000  -0.8190000  -0.0000000
   1.6310000   0.0540000   0.0000000  -0.4790000  -2.5550000  -0.0000000
   1.0010000   2.0210000   0.0010000   1.7560000  -2.0190000  -0.0010000
  -3.1000000  -0.3860000  -0.8890000  -3.1010000  -0.3860000   0.8890000
  -2.8430000  -1.8930000  -0.0000000
