; thymine_GMX_OPLS.itp created by acpype (v: 2023.10.27) on Mon Feb  9 18:00:25 2026

; For OPLS atomtypes manual fine tuning
; AC_at:OPLS_at:OPLScode: Possible_Alternatives (see ffoplsaa.atp and ffoplsaanb.itp)
; o:O:opls_236: ['272']
; ns:x:opls_x: []
; cc:C*:opls_500: ['506', '507', '508', '514']
; c:C:opls_235: ['271']
; cd:C*:opls_500: ['506', '507', '508', '514']
; c3:CT:opls_135: ['136', '137', '149', '157', '158', '206', '209', '210', '223B', '224B', '245', '246', '274', '283', '284', '285', '292', '292B', '293B', '296', '307', '308', '505']
; h4:HA:opls_146: []
; hn:H:opls_240: ['241', '290', '301', '304', '310', '504', '513']
; hc:HC:opls_140: []

[ moleculetype ]
;name            nrexcl
 thymine          3

[ atoms ]
;   nr  type  resi  res  atom  cgnr     charge      mass       ; qtot   bond_type
     1 opls_236     1   UNL     O    1    -0.606500     15.99940 ; qtot -0.607  O   
     2 opls_236     1   UNL    O1    2    -0.638500     15.99940 ; qtot -1.245  O   
     3 opls_x     1   UNL     N    3    -0.584500      0.00000 ; qtot -1.829  x   
     4 opls_x     1   UNL    N1    4    -0.471100      0.00000 ; qtot -2.301  x   
     5 opls_500     1   UNL     C    5    -0.253400     12.01100 ; qtot -2.554  C*  
     6 opls_235     1   UNL    C1    6     0.716700     12.01100 ; qtot -1.837  C   
     7 opls_500     1   UNL    C2    7     0.037600     12.01100 ; qtot -1.800  C*  
     8 opls_135     1   UNL    C3    8    -0.030900     12.01100 ; qtot -1.831  CT  
     9 opls_235     1   UNL    C4    9     0.802501     12.01100 ; qtot -1.028  C   
    10 opls_146     1   UNL     H   10     0.163000      1.00800 ; qtot -0.865  HA  
    11 opls_240     1   UNL    H1   11     0.354500      1.00800 ; qtot -0.511  H   
    12 opls_240     1   UNL    H2   12     0.354500      1.00800 ; qtot -0.156  H   
    13 opls_140     1   UNL    H3   13     0.052033      1.00800 ; qtot -0.104  HC  
    14 opls_140     1   UNL    H4   14     0.052033      1.00800 ; qtot -0.052  HC  
    15 opls_140     1   UNL    H5   15     0.052033      1.00800 ; qtot  0.000  HC  

[ bonds ]
;   ai     aj funct   r             k
     1      6   1 ;    1.2190e-01    4.9421e+05 ;      O - C1          O - C     
     2      9   1 ;    1.2190e-01    4.9421e+05 ;     O1 - C4          O - C     
     3      6   1 ;    1.3798e-01    2.8122e+05 ;      N - C1          x - C     
     3      9   1 ;    1.3798e-01    2.8122e+05 ;      N - C4          x - C     
     3     11   1 ;    1.0132e-01    3.9630e+05 ;      N - H1          x - H     
     4      7   1 ;    1.3765e-01    2.8439e+05 ;     N1 - C2          x - C*    
     4      9   1 ;    1.3798e-01    2.8122e+05 ;     N1 - C4          x - C     
     4     12   1 ;    1.0132e-01    3.9630e+05 ;     N1 - H2          x - H     
     5      6   1 ;    1.4687e-01    2.3579e+05 ;      C - C1         C* - C     
     5      7   1 ;    1.3730e-01    3.2321e+05 ;      C - C2         C* - C*    
     5      8   1 ;    1.5002e-01    2.1350e+05 ;      C - C3         C* - CT    
     7     10   1 ;    1.0818e-01    3.0735e+05 ;     C2 - H          C* - HA    
     8     13   1 ;    1.0962e-01    2.8891e+05 ;     C3 - H3         CT - HC    
     8     14   1 ;    1.0962e-01    2.8891e+05 ;     C3 - H4         CT - HC    
     8     15   1 ;    1.0962e-01    2.8891e+05 ;     C3 - H5         CT - HC    

[ pairs ]
;   ai     aj    funct
     1      7      1 ;      O - C2    
     1      8      1 ;      O - C3    
     1      9      1 ;      O - C4    
     1     11      1 ;      O - H1    
     2      6      1 ;     O1 - C1    
     2      7      1 ;     O1 - C2    
     2     11      1 ;     O1 - H1    
     2     12      1 ;     O1 - H2    
     3      7      1 ;      N - C2    
     3      8      1 ;      N - C3    
     3     12      1 ;      N - H2    
     4      6      1 ;     N1 - C1    
     4      8      1 ;     N1 - C3    
     4     11      1 ;     N1 - H1    
     5      9      1 ;      C - C4    
     5     11      1 ;      C - H1    
     5     12      1 ;      C - H2    
     6     10      1 ;     C1 - H     
     6     13      1 ;     C1 - H3    
     6     14      1 ;     C1 - H4    
     6     15      1 ;     C1 - H5    
     7     13      1 ;     C2 - H3    
     7     14      1 ;     C2 - H4    
     7     15      1 ;     C2 - H5    
     8     10      1 ;     C3 - H     
     9     10      1 ;     C4 - H     
    10     12      1 ;      H - H2    

[ angles ]
;   ai     aj     ak    funct   theta         cth
     1      6      3      1 ;    1.2305e+02    7.2977e+02 ;      O - C1   - N         O -    C - x   
     1      6      5      1 ;    1.2406e+02    6.5572e+02 ;      O - C1   - C         O -    C - C*  
     2      9      3      1 ;    1.2305e+02    7.2977e+02 ;     O1 - C4   - N         O -    C - x   
     2      9      4      1 ;    1.2305e+02    7.2977e+02 ;     O1 - C4   - N1        O -    C - x   
     3      6      5      1 ;    1.1288e+02    5.7162e+02 ;      N - C1   - C         x -    C - C*  
     3      9      4      1 ;    1.1289e+02    6.2752e+02 ;      N - C4   - N1        x -    C - x   
     4      7      5      1 ;    1.2046e+02    5.7438e+02 ;     N1 - C2   - C         x -   C* - C*  
     4      7     10      1 ;    1.1706e+02    4.0920e+02 ;     N1 - C2   - H         x -   C* - HA  
     5      7     10      1 ;    1.2764e+02    3.6987e+02 ;      C - C2   - H        C* -   C* - HA  
     5      8     13      1 ;    1.1036e+02    3.6853e+02 ;      C - C3   - H3       C* -   CT - HC  
     5      8     14      1 ;    1.1036e+02    3.6853e+02 ;      C - C3   - H4       C* -   CT - HC  
     5      8     15      1 ;    1.1036e+02    3.6853e+02 ;      C - C3   - H5       C* -   CT - HC  
     6      3      9      1 ;    1.2805e+02    6.4618e+02 ;     C1 - N    - C4        C -    x - C   
     6      3     11      1 ;    1.1726e+02    4.8007e+02 ;     C1 - N    - H1        C -    x - H   
     6      5      7      1 ;    1.2132e+02    5.2049e+02 ;     C1 - C    - C2        C -   C* - C*  
     6      5      8      1 ;    1.1752e+02    5.0718e+02 ;     C1 - C    - C3        C -   C* - CT  
     7      4      9      1 ;    1.2538e+02    6.5379e+02 ;     C2 - N1   - C4       C* -    x - C   
     7      4     12      1 ;    1.1991e+02    4.7580e+02 ;     C2 - N1   - H2       C* -    x - H   
     7      5      8      1 ;    1.2771e+02    5.0091e+02 ;     C2 - C    - C3       C* -   C* - CT  
     9      3     11      1 ;    1.1726e+02    4.8007e+02 ;     C4 - N    - H1        C -    x - H   
     9      4     12      1 ;    1.1726e+02    4.8007e+02 ;     C4 - N1   - H2        C -    x - H   
    13      8     14      1 ;    1.0773e+02    2.9957e+02 ;     H3 - C3   - H4       HC -   CT - HC  
    13      8     15      1 ;    1.0773e+02    2.9957e+02 ;     H3 - C3   - H5       HC -   CT - HC  
    14      8     15      1 ;    1.0773e+02    2.9957e+02 ;     H4 - C3   - H5       HC -   CT - HC  

[ dihedrals ] ; propers
; for gromacs 4.5 or higher, using funct 9
;    i      j      k      l   func   phase     kd      pn
     1      6      3      9      9 ;   180.00  10.46000   2 ;      O-    C1-     N-    C4
     1      6      3     11      9 ;     0.00   8.36800   1 ;      O-    C1-     N-    H1
     1      6      3     11      9 ;   180.00  10.46000   2 ;      O-    C1-     N-    H1
     1      6      5      7      9 ;   180.00  12.02900   2 ;      O-    C1-     C-    C2
     1      6      5      8      9 ;   180.00  12.02900   2 ;      O-    C1-     C-    C3
     2      9      3      6      9 ;   180.00  10.46000   2 ;     O1-    C4-     N-    C1
     2      9      3     11      9 ;     0.00   8.36800   1 ;     O1-    C4-     N-    H1
     2      9      3     11      9 ;   180.00  10.46000   2 ;     O1-    C4-     N-    H1
     2      9      4      7      9 ;   180.00  10.46000   2 ;     O1-    C4-    N1-    C2
     2      9      4     12      9 ;     0.00   8.36800   1 ;     O1-    C4-    N1-    H2
     2      9      4     12      9 ;   180.00  10.46000   2 ;     O1-    C4-    N1-    H2
     3      6      5      7      9 ;   180.00  12.02900   2 ;      N-    C1-     C-    C2
     3      6      5      8      9 ;   180.00  12.02900   2 ;      N-    C1-     C-    C3
     3      9      4      7      9 ;   180.00   3.65054   2 ;      N-    C4-    N1-    C2
     3      9      4     12      9 ;   180.00  10.46000   2 ;      N-    C4-    N1-    H2
     4      7      5      6      9 ;   180.00  16.73600   2 ;     N1-    C2-     C-    C1
     4      7      5      8      9 ;   180.00  16.73600   2 ;     N1-    C2-     C-    C3
     4      9      3      6      9 ;   180.00  10.46000   2 ;     N1-    C4-     N-    C1
     4      9      3     11      9 ;   180.00  10.46000   2 ;     N1-    C4-     N-    H1
     5      6      3      9      9 ;   180.00  10.46000   2 ;      C-    C1-     N-    C4
     5      6      3     11      9 ;   180.00  10.46000   2 ;      C-    C1-     N-    H1
     5      7      4      9      9 ;   180.00   6.90360   2 ;      C-    C2-    N1-    C4
     5      7      4     12      9 ;   180.00   6.90360   2 ;      C-    C2-    N1-    H2
     6      5      7     10      9 ;   180.00  16.73600   2 ;     C1-     C-    C2-     H
     6      5      8     13      9 ;     0.00   0.00000   0 ;     C1-     C-    C3-    H3
     6      5      8     14      9 ;     0.00   0.00000   0 ;     C1-     C-    C3-    H4
     6      5      8     15      9 ;     0.00   0.00000   0 ;     C1-     C-    C3-    H5
     7      5      8     13      9 ;     0.00   0.00000   0 ;     C2-     C-    C3-    H3
     7      5      8     14      9 ;     0.00   0.00000   0 ;     C2-     C-    C3-    H4
     7      5      8     15      9 ;     0.00   0.00000   0 ;     C2-     C-    C3-    H5
     8      5      7     10      9 ;   180.00  16.73600   2 ;     C3-     C-    C2-     H
     9      4      7     10      9 ;   180.00   6.90360   2 ;     C4-    N1-    C2-     H
    10      7      4     12      9 ;   180.00   6.90360   2 ;      H-    C2-    N1-    H2

[ dihedrals ] ; impropers
; treated as propers in GROMACS to use correct AMBER analytical function
;    i      j      k      l   func   phase     kd      pn
     1      6      3      5      4 ;   180.00  43.93200   2 ;      O-    C1-     N-     C
     3      4      9      2      4 ;   180.00  43.93200   2 ;      N-    N1-    C4-    O1
     5     10      7      4      4 ;   180.00   4.60240   2 ;      C-     H-    C2-    N1
     6      8      5      7      4 ;   180.00   4.60240   2 ;     C1-    C3-     C-    C2
     6      9      3     11      4 ;   180.00   4.60240   2 ;     C1-    C4-     N-    H1
     9      7      4     12      4 ;   180.00   4.60240   2 ;     C4-    C2-    N1-    H2
