; thymine_GMX_OPLS.top created by acpype (v: 2023.10.27) on Mon Feb  9 18:00:25 2026

; Include forcefield parameters
#include "ffoplsaa.itp"

; Include thymine_GMX.itp topology
#include "thymine_GMX.itp"

; Ligand position restraints
#ifdef POSRES_LIG
#include "posre_thymine.itp"
#endif

[ system ]
 thymine

[ molecules ]
; Compound        nmols
 thymine          1     
