thymine_GMX.gro created by acpype (v: 2023.10.27) on Mon Feb  9 18:00:25 2026
 15
    1  UNL    O    1  -0.152   0.181  -0.000
    1  UNL   O1    2   0.284   0.029  -0.000
    1  UNL    N    3   0.066   0.106   0.000
    1  UNL   N1    4   0.112  -0.123  -0.000
    1  UNL    C    5  -0.116  -0.054   0.000
    1  UNL   C1    6  -0.071   0.088   0.000
    1  UNL   C2    7  -0.023  -0.150  -0.000
    1  UNL   C3    8  -0.263  -0.082  -0.000
    1  UNL   C4    9   0.163   0.005   0.000
    1  UNL    H   10  -0.048  -0.256  -0.000
    1  UNL   H1   11   0.100   0.202   0.000
    1  UNL   H2   12   0.176  -0.202  -0.000
    1  UNL   H3   13  -0.310  -0.039  -0.089
    1  UNL   H4   14  -0.310  -0.039   0.089
    1  UNL   H5   15  -0.284  -0.189  -0.000
   11.88000     9.15200     3.55600
