; deoxyribose_GMX_OPLS.top created by acpype (v: 2023.10.27) on Mon Feb  9 17:39:43 2026

; Include forcefield parameters
#include "ffoplsaa.itp"

; Include deoxyribose_GMX.itp topology
#include "deoxyribose_GMX.itp"

; Ligand position restraints
#ifdef POSRES_LIG
#include "posre_deoxyribose.itp"
#endif

[ system ]
 deoxyribose

[ molecules ]
; Compound        nmols
 deoxyribose      1     
