9828112
    19
  -0.2070000  -1.0300000   0.3510000   1.2400000   1.6970000   0.7450000
   2.1350000  -1.1700000   0.5030000  -2.9460000  -0.5070000   0.2430000
   0.3660000   1.1950000  -0.2630000  -0.7090000   0.3210000   0.3700000
   1.1130000   0.2300000  -1.1580000   1.0240000  -1.0730000  -0.3810000
  -2.0160000   0.3380000  -0.4110000  -0.0320000   2.0560000  -0.8100000
  -0.8910000   0.5790000   1.4200000   0.5710000   0.1250000  -2.1050000
   2.1430000   0.5360000  -1.3620000   1.0310000  -1.9510000  -1.0330000
  -1.8830000  -0.0510000  -1.4250000  -2.4370000   1.3460000  -0.4710000
   0.7150000   2.2740000   1.3240000   2.3710000  -0.2770000   0.8070000
  -3.1000000  -0.1450000   1.1320000
