deoxyribose_GMX.gro created by acpype (v: 2023.10.27) on Mon Feb  9 17:39:43 2026
 19
    1  UNL    O    1  -0.021  -0.103   0.035
    1  UNL   O1    2   0.124   0.170   0.074
    1  UNL   O2    3   0.213  -0.117   0.050
    1  UNL   O3    4  -0.295  -0.051   0.024
    1  UNL    C    5   0.037   0.120  -0.026
    1  UNL   C1    6  -0.071   0.032   0.037
    1  UNL   C2    7   0.111   0.023  -0.116
    1  UNL   C3    8   0.102  -0.107  -0.038
    1  UNL   C4    9  -0.202   0.034  -0.041
    1  UNL    H   10  -0.003   0.206  -0.081
    1  UNL   H1   11  -0.089   0.058   0.142
    1  UNL   H2   12   0.057   0.013  -0.211
    1  UNL   H3   13   0.214   0.054  -0.136
    1  UNL   H4   14   0.103  -0.195  -0.103
    1  UNL   H5   15  -0.188  -0.005  -0.143
    1  UNL   H6   16  -0.244   0.135  -0.047
    1  UNL   H7   17   0.071   0.227   0.132
    1  UNL   H8   18   0.237  -0.028   0.081
    1  UNL   H9   19  -0.310  -0.014   0.113
   10.94200     8.45000     7.05000
