%VERSION  VERSION_STAMP = V0001.000  DATE = 02/09/26  17:39:45                  
%FLAG TITLE                                                                     
%FORMAT(20a4)                                                                   
9828112                                                                         
%FLAG POINTERS                                                                  
%FORMAT(10I8)                                                                   
      19       7      10       9      22      12      44      26       0       0
     102       1       9      12      26      10      22      21       8       0
       0       0       0       0       0       0       0       0      19       0
       0
%FLAG ATOM_NAME                                                                 
%FORMAT(20a4)                                                                   
O   O1  O2  O3  C   C1  C2  C3  C4  H   H1  H2  H3  H4  H5  H6  H7  H8  H9  
%FLAG CHARGE                                                                    
%FORMAT(5E16.8)                                                                 
 -8.19274608E+00 -1.07839571E+01 -1.09479578E+01 -1.08386240E+01  2.15205363E+00
  1.00404873E+00 -2.54018862E+00  6.10264827E+00  2.33974332E+00  9.60315210E-01
  1.43409501E+00  1.49787306E+00  1.49787306E+00  1.88965251E+00  8.87426010E-01
  8.87426010E-01  7.41647610E+00  7.58047680E+00  7.61692140E+00
%FLAG ATOMIC_NUMBER                                                             
%FORMAT(10I8)                                                                   
       8       8       8       8       6       6       6       6       6       1
       1       1       1       1       1       1       1       1       1
%FLAG MASS                                                                      
%FORMAT(5E16.8)                                                                 
  1.60000000E+01  1.60000000E+01  1.60000000E+01  1.60000000E+01  1.20100000E+01
  1.20100000E+01  1.20100000E+01  1.20100000E+01  1.20100000E+01  1.00800000E+00
  1.00800000E+00  1.00800000E+00  1.00800000E+00  1.00800000E+00  1.00800000E+00
  1.00800000E+00  1.00800000E+00  1.00800000E+00  1.00800000E+00
%FLAG ATOM_TYPE_INDEX                                                           
%FORMAT(10I8)                                                                   
       1       2       2       2       3       3       3       3       3       4
       4       5       5       6       4       4       7       7       7
%FLAG NUMBER_EXCLUDED_ATOMS                                                     
%FORMAT(10I8)                                                                   
      16      10       8       7      12      12       9       7       5       4
       2       2       1       1       2       1       1       1       1
%FLAG NONBONDED_PARM_INDEX                                                      
%FORMAT(10I8)                                                                   
       1       2       4       7      11      16      22       2       3       5
       8      12      17      23       4       5       6       9      13      18
      24       7       8       9      10      14      19      25      11      12
      13      14      15      20      26      16      17      18      19      20
      21      27      22      23      24      25      26      27      28
%FLAG RESIDUE_LABEL                                                             
%FORMAT(20a4)                                                                   
UNL 
%FLAG RESIDUE_POINTER                                                           
%FORMAT(10I8)                                                                   
       1
%FLAG BOND_FORCE_CONSTANT                                                       
%FORMAT(5E16.8)                                                                 
  2.75610000E+02  2.89690000E+02  5.35510000E+02  2.85150000E+02  2.20100000E+02
  3.43780000E+02  2.27640000E+02  3.46430000E+02  3.46280000E+02  3.44220000E+02
%FLAG BOND_EQUIL_VALUE                                                          
%FORMAT(5E16.8)                                                                 
  1.43460000E+00  1.41940000E+00  9.72500000E-01  1.42420000E+00  1.54830000E+00
  1.09720000E+00  1.53720000E+00  1.09540000E+00  1.09550000E+00  1.09690000E+00
%FLAG ANGLE_FORCE_CONSTANT                                                      
%FORMAT(5E16.8)                                                                 
  7.74300000E+01  7.67500000E+01  5.64400000E+01  9.71700000E+01  5.62000000E+01
  7.58300000E+01  5.64700000E+01  5.66400000E+01  7.66700000E+01  5.62900000E+01
  6.54000000E+01  5.93300000E+01  4.26500000E+01  6.18400000E+01  4.26500000E+01
  8.96100000E+01  4.32800000E+01  4.27800000E+01  6.51300000E+01  4.33100000E+01
  3.59100000E+01  3.56400000E+01
%FLAG ANGLE_EQUIL_VALUE                                                         
%FORMAT(5E16.8)                                                                 
  1.85249326E+00  1.90188610E+00  1.89298492E+00  1.93347657E+00  1.91061275E+00
  1.94813735E+00  1.92457539E+00  1.91445248E+00  1.91724501E+00  1.92649525E+00
  1.87047016E+00  1.98269488E+00  1.94028336E+00  1.81217614E+00  1.94028336E+00
  1.90694756E+00  1.90904195E+00  1.92911325E+00  1.87430989E+00  1.90659849E+00
  1.87134283E+00  1.89455572E+00
%FLAG DIHEDRAL_FORCE_CONSTANT                                                   
%FORMAT(5E16.8)                                                                 
  5.90000000E-01  1.26000000E+00  7.90000000E-01  1.55555556E-01  2.50000000E-01
  0.00000000E+00  1.66666667E-01  1.80000000E-01  9.00000000E-02  1.56000000E+00
  8.60000000E-01  6.36666667E-01  8.80000000E-01  8.00000000E-02  7.50000000E-01
  3.83333333E-01  6.00000000E-02  5.20000000E-01  1.30000000E-01  3.37000000E-01
  1.23000000E-01
%FLAG DIHEDRAL_PERIODICITY                                                      
%FORMAT(5E16.8)                                                                 
  1.00000000E+00  2.00000000E+00  3.00000000E+00  3.00000000E+00  1.00000000E+00
  3.00000000E+00  3.00000000E+00  3.00000000E+00  3.00000000E+00  1.00000000E+00
  2.00000000E+00  3.00000000E+00  1.00000000E+00  2.00000000E+00  3.00000000E+00
  3.00000000E+00  3.00000000E+00  3.00000000E+00  3.00000000E+00  3.00000000E+00
  3.00000000E+00
%FLAG DIHEDRAL_PHASE                                                            
%FORMAT(5E16.8)                                                                 
  0.00000000E+00  0.00000000E+00  0.00000000E+00  0.00000000E+00  0.00000000E+00
  0.00000000E+00  0.00000000E+00  0.00000000E+00  0.00000000E+00  3.14159400E+00
  0.00000000E+00  0.00000000E+00  3.14159400E+00  0.00000000E+00  0.00000000E+00
  0.00000000E+00  0.00000000E+00  0.00000000E+00  0.00000000E+00  0.00000000E+00
  0.00000000E+00
%FLAG SCEE_SCALE_FACTOR                                                         
%FORMAT(5E16.8)                                                                 
  1.20000000E+00  1.20000000E+00  1.20000000E+00  1.20000000E+00  1.20000000E+00
  1.20000000E+00  1.20000000E+00  1.20000000E+00  1.20000000E+00  1.20000000E+00
  1.20000000E+00  1.20000000E+00  1.20000000E+00  1.20000000E+00  1.20000000E+00
  1.20000000E+00  1.20000000E+00  1.20000000E+00  1.20000000E+00  1.20000000E+00
  1.20000000E+00
%FLAG SCNB_SCALE_FACTOR                                                         
%FORMAT(5E16.8)                                                                 
  2.00000000E+00  2.00000000E+00  2.00000000E+00  2.00000000E+00  2.00000000E+00
  2.00000000E+00  2.00000000E+00  2.00000000E+00  2.00000000E+00  2.00000000E+00
  2.00000000E+00  2.00000000E+00  2.00000000E+00  2.00000000E+00  2.00000000E+00
  2.00000000E+00  2.00000000E+00  2.00000000E+00  2.00000000E+00  2.00000000E+00
  2.00000000E+00
%FLAG SOLTY                                                                     
%FORMAT(5E16.8)                                                                 
  0.00000000E+00  0.00000000E+00  0.00000000E+00  0.00000000E+00  0.00000000E+00
  0.00000000E+00  0.00000000E+00  0.00000000E+00
%FLAG LENNARD_JONES_ACOEF                                                       
%FORMAT(5E16.8)                                                                 
  2.83662575E+05  3.78207390E+05  5.03152404E+05  5.42502534E+05  7.18991463E+05
  1.02073671E+06  3.44374471E+04  4.69084694E+04  6.97998263E+04  3.39005767E+03
  5.02224902E+04  6.80216136E+04  1.00235148E+05  5.22955465E+03  7.94617769E+03
  2.33261683E+04  3.19666529E+04  4.80619274E+04  2.16218723E+03  3.39005767E+03
  1.35510742E+03  1.16469347E+02  1.74176419E+02  3.03553352E+02  4.36660257E+00
  8.80612241E+00  2.07292270E+00  1.10360882E-05
%FLAG LENNARD_JONES_BCOEF                                                       
%FORMAT(5E16.8)                                                                 
  2.87011518E+02  3.52573684E+02  4.32634597E+02  4.38146883E+02  5.36620538E+02
  6.63431737E+02  7.31636661E+01  9.08431526E+01  1.14981426E+02  1.67944276E+01
  8.83545880E+01  1.09393126E+02  1.37787728E+02  2.08590256E+01  2.57122925E+01
  6.02145835E+01  7.49920368E+01  9.54115851E+01  1.34124560E+01  1.67944276E+01
  1.06181419E+01  2.93355636E+00  3.81654050E+00  5.22789272E+00  4.15568027E-01
  5.90150328E-01  2.86326700E-01  4.55498033E-04
%FLAG BONDS_INC_HYDROGEN                                                        
%FORMAT(10I8)                                                                   
       3      48       3       6      51       3       9      54       3      12
      27       6      15      30       6      18      33       8      18      36
       8      21      39       9      24      42      10      24      45      10
%FLAG BONDS_WITHOUT_HYDROGEN                                                    
%FORMAT(10I8)                                                                   
       0      15       1       0      21       1       3      12       2       6
      21       2       9      24       4      12      15       5      12      18
       5      15      24       7      18      21       5
%FLAG ANGLES_INC_HYDROGEN                                                       
%FORMAT(10I8)                                                                   
       0      15      30       3       0      21      39       5       3      12
      27       7       6      21      39       8       9      24      42      10
       9      24      45      10      12       3      48      11      12      15
      30      13      12      18      33      15      12      18      36      15
      15      12      27      13      15      24      42      17      15      24
      45      17      18      12      27      13      18      21      39      18
      21       6      51      11      21      18      33      15      21      18
      36      15      24       9      54      19      24      15      30      20
      33      18      36      21      42      24      45      22
%FLAG ANGLES_WITHOUT_HYDROGEN                                                   
%FORMAT(10I8)                                                                   
       0      15      12       1       0      15      24       2       0      21
       6       4       0      21      18       1       3      12      15       6
       3      12      18       6       6      21      18       6       9      24
      15       9      12      15      24      12      12      18      21      14
      15       0      21      16      15      12      18      14
%FLAG DIHEDRALS_INC_HYDROGEN                                                    
%FORMAT(10I8)                                                                   
       0      15      12      27       5       0      15     -12      27       6
       0      15      24      42       5       0      15     -24      42       6
       0      15      24      45       5       0      15     -24      45       6
       0      21       6      51       7       0      21      18      33       5
       0      21     -18      33       6       0      21      18      36       5
       0      21     -18      36       6       3      12      15      30       5
       3      12     -15      30       6       3      12      18      33       9
       3      12      18      36       9       6      21      18      33       9
       6      21      18      36       9       9      24      15      30       5
       9      24     -15      30       6      12      15      24      42       4
      12      15      24      45       4      12      18      21      39       4
      15       0      21      39      16      15      12       3      48      17
      15      12      18      33      19      15      12      18      36      19
      15      24       9      54      17      18      12       3      48      17
      18      12      15      30       4      18      21       6      51      17
      21       0      15      30      20      21      18      12      27       4
      24      15      12      27       4      27      12       3      48      21
      27      12      15      30       4      27      12      18      33       4
      27      12      18      36       4      30      15      24      42       4
      30      15      24      45       4      33      18      21      39       4
      36      18      21      39       4      39      21       6      51       7
      42      24       9      54      21      45      24       9      54      21
%FLAG DIHEDRALS_WITHOUT_HYDROGEN                                                
%FORMAT(10I8)                                                                   
       0      15      12       3       1       0      15     -12       3       2
       0      15     -12       3       3       0      15     -12      18       4
       0      15      24       9       1       0      15     -24       9       2
       0      15     -24       9       3       0      21     -18      12       4
       3      12      15      24       8       3      12      18      21       8
      15       0      21       6      10      15       0     -21       6      11
      15       0     -21       6      12       6      21      18      12       8
       9      24      15      12       8      21       0     -15      12      13
      21       0     -15      12      14      21       0     -15      12      15
      15       0     -21      18      13      15       0     -21      18      14
      15       0     -21      18      15      15      12     -18      21      18
      18      12      15      24      18      21       0      15      24      13
      21       0     -15      24      14      21       0     -15      24      15
%FLAG EXCLUDED_ATOMS_LIST                                                       
%FORMAT(10I8)                                                                   
       2       3       4       5       6       7       8       9      10      11
      12      13      14      15      16      18       5       6       7       8
       9      10      11      12      13      17       5       6       7       8
      12      13      14      18       5       6       9      11      15      16
      19       6       7       8       9      10      11      12      13      14
      15      16      17       7       8       9      10      11      12      13
      14      15      16      17      19       8       9      10      11      12
      13      14      17      18       9      10      11      12      13      14
      18      10      11      15      16      19      11      12      13      17
      15      16      13      14      14      18      16      19      19       0
       0       0
%FLAG HBOND_ACOEF                                                               
%FORMAT(5E16.8)                                                                 

%FLAG HBOND_BCOEF                                                               
%FORMAT(5E16.8)                                                                 

%FLAG HBCUT                                                                     
%FORMAT(5E16.8)                                                                 

%FLAG AMBER_ATOM_TYPE                                                           
%FORMAT(20a4)                                                                   
os  oh  oh  oh  c5  c5  c5  c5  c3  h1  h1  hc  hc  h2  h1  h1  ho  ho  ho  
%FLAG TREE_CHAIN_CLASSIFICATION                                                 
%FORMAT(20a4)                                                                   
BLA BLA BLA BLA BLA BLA BLA BLA BLA BLA BLA BLA BLA BLA BLA BLA BLA BLA BLA 
%FLAG JOIN_ARRAY                                                                
%FORMAT(10I8)                                                                   
       0       0       0       0       0       0       0       0       0       0
       0       0       0       0       0       0       0       0       0
%FLAG IROTAT                                                                    
%FORMAT(10I8)                                                                   
       0       0       0       0       0       0       0       0       0       0
       0       0       0       0       0       0       0       0       0
%FLAG RADIUS_SET                                                                
%FORMAT(1a80)                                                                   
modified Bondi radii (mbondi)                                                   
%FLAG RADII                                                                     
%FORMAT(5E16.8)                                                                 
  1.50000000E+00  1.50000000E+00  1.50000000E+00  1.50000000E+00  1.70000000E+00
  1.70000000E+00  1.70000000E+00  1.70000000E+00  1.70000000E+00  1.30000000E+00
  1.30000000E+00  1.30000000E+00  1.30000000E+00  1.30000000E+00  1.30000000E+00
  1.30000000E+00  8.00000000E-01  8.00000000E-01  8.00000000E-01
%FLAG SCREEN                                                                    
%FORMAT(5E16.8)                                                                 
  8.50000000E-01  8.50000000E-01  8.50000000E-01  8.50000000E-01  7.20000000E-01
  7.20000000E-01  7.20000000E-01  7.20000000E-01  7.20000000E-01  8.50000000E-01
  8.50000000E-01  8.50000000E-01  8.50000000E-01  8.50000000E-01  8.50000000E-01
  8.50000000E-01  8.50000000E-01  8.50000000E-01  8.50000000E-01
%FLAG IPOL                                                                      
%FORMAT(1I8)                                                                    
       0
