; deoxyribose_GMX_OPLS.itp created by acpype (v: 2023.10.27) on Mon Feb  9 17:39:43 2026

; For OPLS atomtypes manual fine tuning
; AC_at:OPLS_at:OPLScode: Possible_Alternatives (see ffoplsaa.atp and ffoplsaanb.itp)
; os:x:opls_x: []
; oh:OH:opls_154: ['167']
; c5:x:opls_x: []
; c3:CT:opls_135: ['136', '137', '149', '157', '158', '206', '209', '210', '223B', '224B', '245', '246', '274', '283', '284', '285', '292', '292B', '293B', '296', '307', '308', '505']
; h1:HC:opls_140: []
; hc:HC:opls_140: []
; h2:x:opls_x: []
; ho:HO:opls_155: ['168']

[ moleculetype ]
;name            nrexcl
 deoxyribose      3

[ atoms ]
;   nr  type  resi  res  atom  cgnr     charge      mass       ; qtot   bond_type
     1 opls_x     1   UNL     O    1    -0.449600      0.00000 ; qtot -0.450  x   
     2 opls_154     1   UNL    O1    2    -0.591800     15.99940 ; qtot -1.041  OH  
     3 opls_154     1   UNL    O2    3    -0.598800     15.99940 ; qtot -1.640  OH  
     4 opls_154     1   UNL    O3    4    -0.594800     15.99940 ; qtot -2.235  OH  
     5 opls_x     1   UNL     C    5     0.118100      0.00000 ; qtot -2.117  x   
     6 opls_x     1   UNL    C1    6     0.055100      0.00000 ; qtot -2.062  x   
     7 opls_x     1   UNL    C2    7    -0.139400      0.00000 ; qtot -2.201  x   
     8 opls_x     1   UNL    C3    8     0.334900      0.00000 ; qtot -1.866  x   
     9 opls_135     1   UNL    C4    9     0.128400     12.01100 ; qtot -1.738  CT  
    10 opls_140     1   UNL     H   10     0.052700      1.00800 ; qtot -1.685  HC  
    11 opls_140     1   UNL    H1   11     0.078700      1.00800 ; qtot -1.607  HC  
    12 opls_140     1   UNL    H2   12     0.082200      1.00800 ; qtot -1.524  HC  
    13 opls_140     1   UNL    H3   13     0.082200      1.00800 ; qtot -1.442  HC  
    14 opls_x     1   UNL    H4   14     0.103700      0.00000 ; qtot -1.338  x   
    15 opls_140     1   UNL    H5   15     0.048700      1.00800 ; qtot -1.290  HC  
    16 opls_140     1   UNL    H6   16     0.048700      1.00800 ; qtot -1.241  HC  
    17 opls_155     1   UNL    H7   17     0.407000      1.00800 ; qtot -0.834  HO  
    18 opls_155     1   UNL    H8   18     0.416000      1.00800 ; qtot -0.418  HO  
    19 opls_155     1   UNL    H9   19     0.418000      1.00800 ; qtot -0.000  HO  

[ bonds ]
;   ai     aj funct   r             k
     1      6   1 ;    1.4346e-01    2.3063e+05 ;      O - C1          x - x     
     1      8   1 ;    1.4346e-01    2.3063e+05 ;      O - C3          x - x     
     2      5   1 ;    1.4194e-01    2.4241e+05 ;     O1 - C          OH - x     
     2     17   1 ;    9.7250e-02    4.4811e+05 ;     O1 - H7         OH - HO    
     3      8   1 ;    1.4194e-01    2.4241e+05 ;     O2 - C3         OH - x     
     3     18   1 ;    9.7250e-02    4.4811e+05 ;     O2 - H8         OH - HO    
     4      9   1 ;    1.4242e-01    2.3861e+05 ;     O3 - C4         OH - CT    
     4     19   1 ;    9.7250e-02    4.4811e+05 ;     O3 - H9         OH - HO    
     5      6   1 ;    1.5483e-01    1.8418e+05 ;      C - C1          x - x     
     5      7   1 ;    1.5483e-01    1.8418e+05 ;      C - C2          x - x     
     5     10   1 ;    1.0972e-01    2.8768e+05 ;      C - H           x - HC    
     6      9   1 ;    1.5372e-01    1.9049e+05 ;     C1 - C4          x - CT    
     6     11   1 ;    1.0972e-01    2.8768e+05 ;     C1 - H1          x - HC    
     7      8   1 ;    1.5483e-01    1.8418e+05 ;     C2 - C3          x - x     
     7     12   1 ;    1.0954e-01    2.8989e+05 ;     C2 - H2          x - HC    
     7     13   1 ;    1.0954e-01    2.8989e+05 ;     C2 - H3          x - HC    
     8     14   1 ;    1.0955e-01    2.8977e+05 ;     C3 - H4          x - x     
     9     15   1 ;    1.0969e-01    2.8804e+05 ;     C4 - H5         CT - HC    
     9     16   1 ;    1.0969e-01    2.8804e+05 ;     C4 - H6         CT - HC    

[ pairs ]
;   ai     aj    funct
     1      2      1 ;      O - O1    
     1      4      1 ;      O - O3    
     1     10      1 ;      O - H     
     1     12      1 ;      O - H2    
     1     13      1 ;      O - H3    
     1     15      1 ;      O - H5    
     1     16      1 ;      O - H6    
     1     18      1 ;      O - H8    
     2      8      1 ;     O1 - C3    
     2      9      1 ;     O1 - C4    
     2     11      1 ;     O1 - H1    
     2     12      1 ;     O1 - H2    
     2     13      1 ;     O1 - H3    
     3      5      1 ;     O2 - C     
     3     12      1 ;     O2 - H2    
     3     13      1 ;     O2 - H3    
     4      5      1 ;     O3 - C     
     4     11      1 ;     O3 - H1    
     5     14      1 ;      C - H4    
     5     15      1 ;      C - H5    
     5     16      1 ;      C - H6    
     6      3      1 ;     C1 - O2    
     6     12      1 ;     C1 - H2    
     6     13      1 ;     C1 - H3    
     6     14      1 ;     C1 - H4    
     6     17      1 ;     C1 - H7    
     6     19      1 ;     C1 - H9    
     7      9      1 ;     C2 - C4    
     7     11      1 ;     C2 - H1    
     7     17      1 ;     C2 - H7    
     7     18      1 ;     C2 - H8    
     8      9      1 ;     C3 - C4    
     8     10      1 ;     C3 - H     
     8     11      1 ;     C3 - H1    
     9     10      1 ;     C4 - H     
    10     11      1 ;      H - H1    
    10     12      1 ;      H - H2    
    10     13      1 ;      H - H3    
    10     17      1 ;      H - H7    
    11     15      1 ;     H1 - H5    
    11     16      1 ;     H1 - H6    
    12     14      1 ;     H2 - H4    
    13     14      1 ;     H3 - H4    
    14     18      1 ;     H4 - H8    
    15     19      1 ;     H5 - H9    
    16     19      1 ;     H6 - H9    

[ angles ]
;   ai     aj     ak    funct   theta         cth
     1      6      5      1 ;    1.0614e+02    6.4793e+02 ;      O - C1   - C         x -    x - x   
     1      6      9      1 ;    1.0897e+02    6.4224e+02 ;      O - C1   - C4        x -    x - CT  
     1      6     11      1 ;    1.0846e+02    4.7229e+02 ;      O - C1   - H1        x -    x - HC  
     1      8      3      1 ;    1.1078e+02    8.1312e+02 ;      O - C3   - O2        x -    x - OH  
     1      8      7      1 ;    1.0614e+02    6.4793e+02 ;      O - C3   - C2        x -    x - x   
     1      8     14      1 ;    1.0947e+02    4.7028e+02 ;      O - C3   - H4        x -    x - x   
     2      5      6      1 ;    1.1162e+02    6.3455e+02 ;     O1 - C    - C1       OH -    x - x   
     2      5      7      1 ;    1.1162e+02    6.3455e+02 ;     O1 - C    - C2       OH -    x - x   
     2      5     10      1 ;    1.1027e+02    4.7254e+02 ;     O1 - C    - H        OH -    x - HC  
     3      8      7      1 ;    1.1162e+02    6.3455e+02 ;     O2 - C3   - C2       OH -    x - x   
     3      8     14      1 ;    1.0969e+02    4.7396e+02 ;     O2 - C3   - H4       OH -    x - x   
     4      9      6      1 ;    1.0985e+02    6.4157e+02 ;     O3 - C4   - C1       OH -   CT - x   
     4      9     15      1 ;    1.1038e+02    4.7103e+02 ;     O3 - C4   - H5       OH -   CT - HC  
     4      9     16      1 ;    1.1038e+02    4.7103e+02 ;     O3 - C4   - H6       OH -   CT - HC  
     5      2     17      1 ;    1.0717e+02    5.4727e+02 ;      C - O1   - H7        x -   OH - HO  
     5      6      9      1 ;    1.1360e+02    4.9647e+02 ;      C - C1   - C4        x -    x - CT  
     5      6     11      1 ;    1.1117e+02    3.5690e+02 ;      C - C1   - H1        x -    x - HC  
     5      7      8      1 ;    1.0383e+02    5.1748e+02 ;      C - C2   - C3        x -    x - x   
     5      7     12      1 ;    1.1117e+02    3.5690e+02 ;      C - C2   - H2        x -    x - HC  
     5      7     13      1 ;    1.1117e+02    3.5690e+02 ;      C - C2   - H3        x -    x - HC  
     6      1      8      1 ;    1.0926e+02    7.4986e+02 ;     C1 - O    - C3        x -    x - x   
     6      5      7      1 ;    1.0383e+02    5.1748e+02 ;     C1 - C    - C2        x -    x - x   
     6      5     10      1 ;    1.1117e+02    3.5690e+02 ;     C1 - C    - H         x -    x - HC  
     6      9     15      1 ;    1.0938e+02    3.6217e+02 ;     C1 - C4   - H5        x -   CT - HC  
     6      9     16      1 ;    1.0938e+02    3.6217e+02 ;     C1 - C4   - H6        x -   CT - HC  
     7      5     10      1 ;    1.1117e+02    3.5690e+02 ;     C2 - C    - H         x -    x - HC  
     7      8     14      1 ;    1.1053e+02    3.5798e+02 ;     C2 - C3   - H4        x -    x - x   
     8      3     18      1 ;    1.0717e+02    5.4727e+02 ;     C3 - O2   - H8        x -   OH - HO  
     8      7     12      1 ;    1.1117e+02    3.5690e+02 ;     C3 - C2   - H2        x -    x - HC  
     8      7     13      1 ;    1.1117e+02    3.5690e+02 ;     C3 - C2   - H3        x -    x - HC  
     9      4     19      1 ;    1.0739e+02    5.4501e+02 ;     C4 - O3   - H9       CT -   OH - HO  
     9      6     11      1 ;    1.0924e+02    3.6242e+02 ;     C4 - C1   - H1       CT -    x - HC  
    12      7     13      1 ;    1.0722e+02    3.0049e+02 ;     H2 - C2   - H3       HC -    x - HC  
    15      9     16      1 ;    1.0855e+02    2.9824e+02 ;     H5 - C4   - H6       HC -   CT - HC  

[ dihedrals ] ; propers
; for gromacs 4.5 or higher, using funct 9
;    i      j      k      l   func   phase     kd      pn
     1      6      5      2      9 ;     0.00   2.46856   1 ;      O-    C1-     C-    O1
     1      6      5      2      9 ;     0.00   3.30536   3 ;      O-    C1-     C-    O1
     1      6      5      2      9 ;     0.00   5.27184   2 ;      O-    C1-     C-    O1
     1      6      5      7      9 ;     0.00   0.65084   3 ;      O-    C1-     C-    C2
     1      6      5     10      9 ;     0.00   0.00000   0 ;      O-    C1-     C-     H
     1      6      5     10      9 ;     0.00   1.04600   1 ;      O-    C1-     C-     H
     1      6      9      4      9 ;     0.00   2.46856   1 ;      O-    C1-    C4-    O3
     1      6      9      4      9 ;     0.00   3.30536   3 ;      O-    C1-    C4-    O3
     1      6      9      4      9 ;     0.00   5.27184   2 ;      O-    C1-    C4-    O3
     1      6      9     15      9 ;     0.00   0.00000   0 ;      O-    C1-    C4-    H5
     1      6      9     15      9 ;     0.00   1.04600   1 ;      O-    C1-    C4-    H5
     1      6      9     16      9 ;     0.00   0.00000   0 ;      O-    C1-    C4-    H6
     1      6      9     16      9 ;     0.00   1.04600   1 ;      O-    C1-    C4-    H6
     1      8      3     18      9 ;     0.00   0.69733   3 ;      O-    C3-    O2-    H8
     1      8      7      5      9 ;     0.00   0.65084   3 ;      O-    C3-    C2-     C
     1      8      7     12      9 ;     0.00   0.00000   0 ;      O-    C3-    C2-    H2
     1      8      7     12      9 ;     0.00   1.04600   1 ;      O-    C3-    C2-    H2
     1      8      7     13      9 ;     0.00   0.00000   0 ;      O-    C3-    C2-    H3
     1      8      7     13      9 ;     0.00   1.04600   1 ;      O-    C3-    C2-    H3
     2      5      6      9      9 ;     0.00   0.75312   3 ;     O1-     C-    C1-    C4
     2      5      6     11      9 ;     0.00   0.00000   0 ;     O1-     C-    C1-    H1
     2      5      6     11      9 ;     0.00   1.04600   1 ;     O1-     C-    C1-    H1
     2      5      7      8      9 ;     0.00   0.75312   3 ;     O1-     C-    C2-    C3
     2      5      7     12      9 ;     0.00   0.37656   3 ;     O1-     C-    C2-    H2
     2      5      7     13      9 ;     0.00   0.37656   3 ;     O1-     C-    C2-    H3
     3      8      7      5      9 ;     0.00   0.75312   3 ;     O2-    C3-    C2-     C
     3      8      7     12      9 ;     0.00   0.37656   3 ;     O2-    C3-    C2-    H2
     3      8      7     13      9 ;     0.00   0.37656   3 ;     O2-    C3-    C2-    H3
     4      9      6      5      9 ;     0.00   0.75312   3 ;     O3-    C4-    C1-     C
     4      9      6     11      9 ;     0.00   0.00000   0 ;     O3-    C4-    C1-    H1
     4      9      6     11      9 ;     0.00   1.04600   1 ;     O3-    C4-    C1-    H1
     5      6      9     15      9 ;     0.00   0.65084   3 ;      C-    C1-    C4-    H5
     5      6      9     16      9 ;     0.00   0.65084   3 ;      C-    C1-    C4-    H6
     5      7      8     14      9 ;     0.00   0.65084   3 ;      C-    C2-    C3-    H4
     6      1      8      3      9 ;     0.00   2.66381   3 ;     C1-     O-    C3-    O2
     6      1      8      3      9 ;     0.00   3.59824   2 ;     C1-     O-    C3-    O2
     6      1      8      3      9 ;   180.00   6.52704   1 ;     C1-     O-    C3-    O2
     6      1      8      7      9 ;     0.00   0.33472   2 ;     C1-     O-    C3-    C2
     6      1      8      7      9 ;     0.00   3.13800   3 ;     C1-     O-    C3-    C2
     6      1      8      7      9 ;   180.00   3.68192   1 ;     C1-     O-    C3-    C2
     6      1      8     14      9 ;     0.00   1.60387   3 ;     C1-     O-    C3-    H4
     6      5      2     17      9 ;     0.00   0.25104   3 ;     C1-     C-    O1-    H7
     6      5      7      8      9 ;     0.00   2.17568   3 ;     C1-     C-    C2-    C3
     6      5      7     12      9 ;     0.00   0.54392   3 ;     C1-     C-    C2-    H2
     6      5      7     13      9 ;     0.00   0.54392   3 ;     C1-     C-    C2-    H3
     6      9      4     19      9 ;     0.00   0.25104   3 ;     C1-    C4-    O3-    H9
     7      5      2     17      9 ;     0.00   0.25104   3 ;     C2-     C-    O1-    H7
     7      5      6      9      9 ;     0.00   2.17568   3 ;     C2-     C-    C1-    C4
     7      5      6     11      9 ;     0.00   0.65084   3 ;     C2-     C-    C1-    H1
     7      8      3     18      9 ;     0.00   0.25104   3 ;     C2-    C3-    O2-    H8
     8      1      6      5      9 ;     0.00   0.33472   2 ;     C3-     O-    C1-     C
     8      1      6      5      9 ;     0.00   3.13800   3 ;     C3-     O-    C1-     C
     8      1      6      5      9 ;   180.00   3.68192   1 ;     C3-     O-    C1-     C
     8      1      6      9      9 ;     0.00   0.33472   2 ;     C3-     O-    C1-    C4
     8      1      6      9      9 ;     0.00   3.13800   3 ;     C3-     O-    C1-    C4
     8      1      6      9      9 ;   180.00   3.68192   1 ;     C3-     O-    C1-    C4
     8      1      6     11      9 ;     0.00   1.41001   3 ;     C3-     O-    C1-    H1
     8      7      5     10      9 ;     0.00   0.65084   3 ;     C3-    C2-     C-     H
     9      6      5     10      9 ;     0.00   0.65084   3 ;     C4-    C1-     C-     H
    10      5      2     17      9 ;     0.00   0.51463   3 ;      H-     C-    O1-    H7
    10      5      6     11      9 ;     0.00   0.65084   3 ;      H-     C-    C1-    H1
    10      5      7     12      9 ;     0.00   0.65084   3 ;      H-     C-    C2-    H2
    10      5      7     13      9 ;     0.00   0.65084   3 ;      H-     C-    C2-    H3
    11      6      9     15      9 ;     0.00   0.65084   3 ;     H1-    C1-    C4-    H5
    11      6      9     16      9 ;     0.00   0.65084   3 ;     H1-    C1-    C4-    H6
    12      7      8     14      9 ;     0.00   0.65084   3 ;     H2-    C2-    C3-    H4
    13      7      8     14      9 ;     0.00   0.65084   3 ;     H3-    C2-    C3-    H4
    14      8      3     18      9 ;     0.00   0.69733   3 ;     H4-    C3-    O2-    H8
    15      9      4     19      9 ;     0.00   0.51463   3 ;     H5-    C4-    O3-    H9
    16      9      4     19      9 ;     0.00   0.51463   3 ;     H6-    C4-    O3-    H9
