atrazine_GMX.gro created by acpype (v: 2023.10.27) on Mon Feb  9 17:30:29 2026
 28
    1  UNL   CL    1  -0.144   0.382  -0.011
    1  UNL    N    2   0.216   0.044   0.011
    1  UNL   N1    3  -0.229  -0.105   0.003
    1  UNL   N2    4  -0.005  -0.034   0.007
    1  UNL   N3    5   0.043   0.201   0.001
    1  UNL   N4    6  -0.185   0.125  -0.003
    1  UNL    C    7   0.271  -0.090   0.017
    1  UNL   C1    8   0.412  -0.084   0.072
    1  UNL   C2    9   0.268  -0.153  -0.122
    1  UNL   C3   10   0.081   0.071   0.006
    1  UNL   C4   11  -0.190  -0.243   0.009
    1  UNL   C5   12  -0.135   0.000   0.002
    1  UNL   C6   13  -0.311  -0.334   0.012
    1  UNL   C7   14  -0.090   0.220  -0.004
    1  UNL    H   15   0.212  -0.152   0.085
    1  UNL   H1   16   0.279   0.123   0.005
    1  UNL   H2   17   0.455  -0.185   0.080
    1  UNL   H3   18   0.478  -0.024   0.008
    1  UNL   H4   19   0.413  -0.039   0.172
    1  UNL   H5   20   0.166  -0.162  -0.161
    1  UNL   H6   21   0.312  -0.253  -0.121
    1  UNL   H7   22   0.325  -0.092  -0.194
    1  UNL   H8   23  -0.129  -0.269  -0.079
    1  UNL   H9   24  -0.130  -0.262   0.098
    1  UNL  H10   25  -0.327  -0.079  -0.001
    1  UNL  H11   26  -0.373  -0.313   0.100
    1  UNL  H12   27  -0.373  -0.321  -0.077
    1  UNL  H13   28  -0.280  -0.439   0.017
   17.02600    16.41800     7.32000
