; atrazine_GMX_OPLS.itp created by acpype (v: 2023.10.27) on Mon Feb  9 17:30:29 2026

; For OPLS atomtypes manual fine tuning
; AC_at:OPLS_at:OPLScode: Possible_Alternatives (see ffoplsaa.atp and ffoplsaanb.itp)
; cl:x:opls_x: []
; nu:x:opls_x: []
; nb:x:opls_x: []
; c3:CT:opls_135: ['136', '137', '149', '157', '158', '206', '209', '210', '223B', '224B', '245', '246', '274', '283', '284', '285', '292', '292B', '293B', '296', '307', '308', '505']
; ca:CA:opls_145: ['166', '501', '502']
; h1:HC:opls_140: []
; hn:H:opls_240: ['241', '290', '301', '304', '310', '504', '513']
; hc:HC:opls_140: []

[ moleculetype ]
;name            nrexcl
 atrazine         3

[ atoms ]
;   nr  type  resi  res  atom  cgnr     charge      mass       ; qtot   bond_type
     1 opls_x     1   UNL    CL    1    -0.116000      0.00000 ; qtot -0.116  x   
     2 opls_x     1   UNL     N    2    -0.826900      0.00000 ; qtot -0.943  x   
     3 opls_x     1   UNL    N1    3    -0.848900      0.00000 ; qtot -1.792  x   
     4 opls_x     1   UNL    N2    4    -0.834000      0.00000 ; qtot -2.626  x   
     5 opls_x     1   UNL    N3    5    -0.811000      0.00000 ; qtot -3.437  x   
     6 opls_x     1   UNL    N4    6    -0.810000      0.00000 ; qtot -4.247  x   
     7 opls_135     1   UNL     C    7     0.215500     12.01100 ; qtot -4.031  CT  
     8 opls_135     1   UNL    C1    8    -0.114600     12.01100 ; qtot -4.146  CT  
     9 opls_135     1   UNL    C2    9    -0.114600     12.01100 ; qtot -4.261  CT  
    10 opls_145     1   UNL    C3   10     0.928900     12.01100 ; qtot -3.332  CA  
    11 opls_135     1   UNL    C4   11     0.217800     12.01100 ; qtot -3.114  CT  
    12 opls_145     1   UNL    C5   12     0.933900     12.01100 ; qtot -2.180  CA  
    13 opls_135     1   UNL    C6   13    -0.114100     12.01100 ; qtot -2.294  CT  
    14 opls_145     1   UNL    C7   14     0.806000     12.01100 ; qtot -1.488  CA  
    15 opls_140     1   UNL     H   15     0.082700      1.00800 ; qtot -1.405  HC  
    16 opls_240     1   UNL    H1   16     0.436800      1.00800 ; qtot -0.969  H   
    17 opls_140     1   UNL    H2   17     0.045200      1.00800 ; qtot -0.923  HC  
    18 opls_140     1   UNL    H3   18     0.045200      1.00800 ; qtot -0.878  HC  
    19 opls_140     1   UNL    H4   19     0.045200      1.00800 ; qtot -0.833  HC  
    20 opls_140     1   UNL    H5   20     0.045200      1.00800 ; qtot -0.788  HC  
    21 opls_140     1   UNL    H6   21     0.045200      1.00800 ; qtot -0.742  HC  
    22 opls_140     1   UNL    H7   22     0.045200      1.00800 ; qtot -0.697  HC  
    23 opls_140     1   UNL    H8   23     0.053700      1.00800 ; qtot -0.644  HC  
    24 opls_140     1   UNL    H9   24     0.053700      1.00800 ; qtot -0.590  HC  
    25 opls_240     1   UNL   H10   25     0.449800      1.00800 ; qtot -0.140  H   
    26 opls_140     1   UNL   H11   26     0.046700      1.00800 ; qtot -0.093  HC  
    27 opls_140     1   UNL   H12   27     0.046700      1.00800 ; qtot -0.047  HC  
    28 opls_140     1   UNL   H13   28     0.046700      1.00800 ; qtot -0.000  HC  

[ bonds ]
;   ai     aj funct   r             k
     1     14   1 ;    1.7572e-01    1.5730e+05 ;     CL - C7          x - CA    
     2      7   1 ;    1.4590e-01    2.1658e+05 ;      N - C           x - CT    
     2     10   1 ;    1.3944e-01    2.6771e+05 ;      N - C3          x - CA    
     2     16   1 ;    1.0137e-01    3.9538e+05 ;      N - H1          x - H     
     3     11   1 ;    1.4590e-01    2.1658e+05 ;     N1 - C4          x - CT    
     3     12   1 ;    1.3944e-01    2.6771e+05 ;     N1 - C5          x - CA    
     3     25   1 ;    1.0137e-01    3.9538e+05 ;     N1 - H10         x - H     
     4     10   1 ;    1.3392e-01    3.2341e+05 ;     N2 - C3          x - CA    
     4     12   1 ;    1.3392e-01    3.2341e+05 ;     N2 - C5          x - CA    
     5     10   1 ;    1.3392e-01    3.2341e+05 ;     N3 - C3          x - CA    
     5     14   1 ;    1.3392e-01    3.2341e+05 ;     N3 - C7          x - CA    
     6     12   1 ;    1.3392e-01    3.2341e+05 ;     N4 - C5          x - CA    
     6     14   1 ;    1.3392e-01    3.2341e+05 ;     N4 - C7          x - CA    
     7      8   1 ;    1.5354e-01    1.9154e+05 ;      C - C1         CT - CT    
     7      9   1 ;    1.5354e-01    1.9154e+05 ;      C - C2         CT - CT    
     7     15   1 ;    1.0969e-01    2.8804e+05 ;      C - H          CT - HC    
     8     17   1 ;    1.0962e-01    2.8891e+05 ;     C1 - H2         CT - HC    
     8     18   1 ;    1.0962e-01    2.8891e+05 ;     C1 - H3         CT - HC    
     8     19   1 ;    1.0962e-01    2.8891e+05 ;     C1 - H4         CT - HC    
     9     20   1 ;    1.0962e-01    2.8891e+05 ;     C2 - H5         CT - HC    
     9     21   1 ;    1.0962e-01    2.8891e+05 ;     C2 - H6         CT - HC    
     9     22   1 ;    1.0962e-01    2.8891e+05 ;     C2 - H7         CT - HC    
    11     13   1 ;    1.5354e-01    1.9154e+05 ;     C4 - C6         CT - CT    
    11     23   1 ;    1.0969e-01    2.8804e+05 ;     C4 - H8         CT - HC    
    11     24   1 ;    1.0969e-01    2.8804e+05 ;     C4 - H9         CT - HC    
    13     26   1 ;    1.0962e-01    2.8891e+05 ;     C6 - H11        CT - HC    
    13     27   1 ;    1.0962e-01    2.8891e+05 ;     C6 - H12        CT - HC    
    13     28   1 ;    1.0962e-01    2.8891e+05 ;     C6 - H13        CT - HC    

[ pairs ]
;   ai     aj    funct
     1     10      1 ;     CL - C3    
     1     12      1 ;     CL - C5    
     2     12      1 ;      N - C5    
     2     14      1 ;      N - C7    
     2     17      1 ;      N - H2    
     2     18      1 ;      N - H3    
     2     19      1 ;      N - H4    
     2     20      1 ;      N - H5    
     2     21      1 ;      N - H6    
     2     22      1 ;      N - H7    
     3     10      1 ;     N1 - C3    
     3     14      1 ;     N1 - C7    
     3     26      1 ;     N1 - H11   
     3     27      1 ;     N1 - H12   
     3     28      1 ;     N1 - H13   
     4      7      1 ;     N2 - C     
     4     11      1 ;     N2 - C4    
     4     14      1 ;     N2 - C7    
     4     16      1 ;     N2 - H1    
     4     25      1 ;     N2 - H10   
     5      7      1 ;     N3 - C     
     5     12      1 ;     N3 - C5    
     5     16      1 ;     N3 - H1    
     6     10      1 ;     N4 - C3    
     6     11      1 ;     N4 - C4    
     6     25      1 ;     N4 - H10   
     8     10      1 ;     C1 - C3    
     8     16      1 ;     C1 - H1    
     8     20      1 ;     C1 - H5    
     8     21      1 ;     C1 - H6    
     8     22      1 ;     C1 - H7    
     9     10      1 ;     C2 - C3    
     9     16      1 ;     C2 - H1    
     9     17      1 ;     C2 - H2    
     9     18      1 ;     C2 - H3    
     9     19      1 ;     C2 - H4    
    10     15      1 ;     C3 - H     
    12     13      1 ;     C5 - C6    
    12     23      1 ;     C5 - H8    
    12     24      1 ;     C5 - H9    
    13     25      1 ;     C6 - H10   
    15     16      1 ;      H - H1    
    15     17      1 ;      H - H2    
    15     18      1 ;      H - H3    
    15     19      1 ;      H - H4    
    15     20      1 ;      H - H5    
    15     21      1 ;      H - H6    
    15     22      1 ;      H - H7    
    23     25      1 ;     H8 - H10   
    23     26      1 ;     H8 - H11   
    23     27      1 ;     H8 - H12   
    23     28      1 ;     H8 - H13   
    24     25      1 ;     H9 - H10   
    24     26      1 ;     H9 - H11   
    24     27      1 ;     H9 - H12   
    24     28      1 ;     H9 - H13   

[ angles ]
;   ai     aj     ak    funct   theta         cth
     1     14      5      1 ;    1.1619e+02    5.8158e+02 ;     CL - C7   - N3        x -   CA - x   
     1     14      6      1 ;    1.1619e+02    5.8158e+02 ;     CL - C7   - N4        x -   CA - x   
     2      7      8      1 ;    1.1053e+02    5.4986e+02 ;      N - C    - C1        x -   CT - CT  
     2      7      9      1 ;    1.1053e+02    5.4986e+02 ;      N - C    - C2        x -   CT - CT  
     2      7     15      1 ;    1.0966e+02    4.0200e+02 ;      N - C    - H         x -   CT - HC  
     2     10      4      1 ;    1.1717e+02    6.2132e+02 ;      N - C3   - N2        x -   CA - x   
     2     10      5      1 ;    1.1717e+02    6.2132e+02 ;      N - C3   - N3        x -   CA - x   
     3     11     13      1 ;    1.1053e+02    5.4986e+02 ;     N1 - C4   - C6        x -   CT - CT  
     3     11     23      1 ;    1.0966e+02    4.0200e+02 ;     N1 - C4   - H8        x -   CT - HC  
     3     11     24      1 ;    1.0966e+02    4.0200e+02 ;     N1 - C4   - H9        x -   CT - HC  
     3     12      4      1 ;    1.1717e+02    6.2132e+02 ;     N1 - C5   - N2        x -   CA - x   
     3     12      6      1 ;    1.1717e+02    6.2132e+02 ;     N1 - C5   - N4        x -   CA - x   
     4     10      5      1 ;    1.2730e+02    6.0886e+02 ;     N2 - C3   - N3        x -   CA - x   
     4     12      6      1 ;    1.2730e+02    6.0886e+02 ;     N2 - C5   - N4        x -   CA - x   
     5     14      6      1 ;    1.2730e+02    6.0886e+02 ;     N3 - C7   - N4        x -   CA - x   
     7      2     10      1 ;    1.2373e+02    6.3513e+02 ;      C - N    - C3       CT -    x - CA  
     7      2     16      1 ;    1.1531e+02    4.6024e+02 ;      C - N    - H1       CT -    x - H   
     7      8     17      1 ;    1.0968e+02    3.6208e+02 ;      C - C1   - H2       CT -   CT - HC  
     7      8     18      1 ;    1.0968e+02    3.6208e+02 ;      C - C1   - H3       CT -   CT - HC  
     7      8     19      1 ;    1.0968e+02    3.6208e+02 ;      C - C1   - H4       CT -   CT - HC  
     7      9     20      1 ;    1.0968e+02    3.6208e+02 ;      C - C2   - H5       CT -   CT - HC  
     7      9     21      1 ;    1.0968e+02    3.6208e+02 ;      C - C2   - H6       CT -   CT - HC  
     7      9     22      1 ;    1.0968e+02    3.6208e+02 ;      C - C2   - H7       CT -   CT - HC  
     8      7      9      1 ;    1.1263e+02    5.0099e+02 ;     C1 - C    - C2       CT -   CT - CT  
     8      7     15      1 ;    1.0959e+02    3.6217e+02 ;     C1 - C    - H        CT -   CT - HC  
     9      7     15      1 ;    1.0959e+02    3.6217e+02 ;     C2 - C    - H        CT -   CT - HC  
    10      2     16      1 ;    1.1473e+02    4.8083e+02 ;     C3 - N    - H1       CA -    x - H   
    10      4     12      1 ;    1.1724e+02    6.9580e+02 ;     C3 - N2   - C5       CA -    x - CA  
    10      5     14      1 ;    1.1724e+02    6.9580e+02 ;     C3 - N3   - C7       CA -    x - CA  
    11      3     12      1 ;    1.2373e+02    6.3513e+02 ;     C4 - N1   - C5       CT -    x - CA  
    11      3     25      1 ;    1.1531e+02    4.6024e+02 ;     C4 - N1   - H10      CT -    x - H   
    11     13     26      1 ;    1.0968e+02    3.6208e+02 ;     C4 - C6   - H11      CT -   CT - HC  
    11     13     27      1 ;    1.0968e+02    3.6208e+02 ;     C4 - C6   - H12      CT -   CT - HC  
    11     13     28      1 ;    1.0968e+02    3.6208e+02 ;     C4 - C6   - H13      CT -   CT - HC  
    12      3     25      1 ;    1.1473e+02    4.8083e+02 ;     C5 - N1   - H10      CA -    x - H   
    12      6     14      1 ;    1.1724e+02    6.9580e+02 ;     C5 - N4   - C7       CA -    x - CA  
    13     11     23      1 ;    1.0959e+02    3.6217e+02 ;     C6 - C4   - H8       CT -   CT - HC  
    13     11     24      1 ;    1.0959e+02    3.6217e+02 ;     C6 - C4   - H9       CT -   CT - HC  
    17      8     18      1 ;    1.0773e+02    2.9957e+02 ;     H2 - C1   - H3       HC -   CT - HC  
    17      8     19      1 ;    1.0773e+02    2.9957e+02 ;     H2 - C1   - H4       HC -   CT - HC  
    18      8     19      1 ;    1.0773e+02    2.9957e+02 ;     H3 - C1   - H4       HC -   CT - HC  
    20      9     21      1 ;    1.0773e+02    2.9957e+02 ;     H5 - C2   - H6       HC -   CT - HC  
    20      9     22      1 ;    1.0773e+02    2.9957e+02 ;     H5 - C2   - H7       HC -   CT - HC  
    21      9     22      1 ;    1.0773e+02    2.9957e+02 ;     H6 - C2   - H7       HC -   CT - HC  
    23     11     24      1 ;    1.0855e+02    2.9824e+02 ;     H8 - C4   - H9       HC -   CT - HC  
    26     13     27      1 ;    1.0773e+02    2.9957e+02 ;    H11 - C6   - H12      HC -   CT - HC  
    26     13     28      1 ;    1.0773e+02    2.9957e+02 ;    H11 - C6   - H13      HC -   CT - HC  
    27     13     28      1 ;    1.0773e+02    2.9957e+02 ;    H12 - C6   - H13      HC -   CT - HC  

[ dihedrals ] ; propers
; for gromacs 4.5 or higher, using funct 9
;    i      j      k      l   func   phase     kd      pn
     1     14      5     10      9 ;   180.00  20.08320   2 ;     CL-    C7-    N3-    C3
     1     14      6     12      9 ;   180.00  20.08320   2 ;     CL-    C7-    N4-    C5
     2      7      8     17      9 ;     0.00   0.65084   3 ;      N-     C-    C1-    H2
     2      7      8     18      9 ;     0.00   0.65084   3 ;      N-     C-    C1-    H3
     2      7      8     19      9 ;     0.00   0.65084   3 ;      N-     C-    C1-    H4
     2      7      9     20      9 ;     0.00   0.65084   3 ;      N-     C-    C2-    H5
     2      7      9     21      9 ;     0.00   0.65084   3 ;      N-     C-    C2-    H6
     2      7      9     22      9 ;     0.00   0.65084   3 ;      N-     C-    C2-    H7
     2     10      4     12      9 ;   180.00  20.08320   2 ;      N-    C3-    N2-    C5
     2     10      5     14      9 ;   180.00  20.08320   2 ;      N-    C3-    N3-    C7
     3     11     13     26      9 ;     0.00   0.65084   3 ;     N1-    C4-    C6-   H11
     3     11     13     27      9 ;     0.00   0.65084   3 ;     N1-    C4-    C6-   H12
     3     11     13     28      9 ;     0.00   0.65084   3 ;     N1-    C4-    C6-   H13
     3     12      4     10      9 ;   180.00  20.08320   2 ;     N1-    C5-    N2-    C3
     3     12      6     14      9 ;   180.00  20.08320   2 ;     N1-    C5-    N4-    C7
     4     10      2      7      9 ;   180.00   4.39320   2 ;     N2-    C3-     N-     C
     4     10      2     16      9 ;   180.00   4.39320   2 ;     N2-    C3-     N-    H1
     4     10      5     14      9 ;   180.00  20.08320   2 ;     N2-    C3-    N3-    C7
     4     12      3     11      9 ;   180.00   4.39320   2 ;     N2-    C5-    N1-    C4
     4     12      3     25      9 ;   180.00   4.39320   2 ;     N2-    C5-    N1-   H10
     4     12      6     14      9 ;   180.00  20.08320   2 ;     N2-    C5-    N4-    C7
     5     10      2      7      9 ;   180.00   4.39320   2 ;     N3-    C3-     N-     C
     5     10      2     16      9 ;   180.00   4.39320   2 ;     N3-    C3-     N-    H1
     5     10      4     12      9 ;   180.00  20.08320   2 ;     N3-    C3-    N2-    C5
     5     14      6     12      9 ;   180.00  20.08320   2 ;     N3-    C7-    N4-    C5
     6     12      3     11      9 ;   180.00   4.39320   2 ;     N4-    C5-    N1-    C4
     6     12      3     25      9 ;   180.00   4.39320   2 ;     N4-    C5-    N1-   H10
     6     12      4     10      9 ;   180.00  20.08320   2 ;     N4-    C5-    N2-    C3
     6     14      5     10      9 ;   180.00  20.08320   2 ;     N4-    C7-    N3-    C3
     8      7      2     10      9 ;     0.00   0.00000   0 ;     C1-     C-     N-    C3
     8      7      2     16      9 ;     0.00   0.00000   0 ;     C1-     C-     N-    H1
     8      7      9     20      9 ;     0.00   0.54392   3 ;     C1-     C-    C2-    H5
     8      7      9     21      9 ;     0.00   0.54392   3 ;     C1-     C-    C2-    H6
     8      7      9     22      9 ;     0.00   0.54392   3 ;     C1-     C-    C2-    H7
     9      7      2     10      9 ;     0.00   0.00000   0 ;     C2-     C-     N-    C3
     9      7      2     16      9 ;     0.00   0.00000   0 ;     C2-     C-     N-    H1
     9      7      8     17      9 ;     0.00   0.54392   3 ;     C2-     C-    C1-    H2
     9      7      8     18      9 ;     0.00   0.54392   3 ;     C2-     C-    C1-    H3
     9      7      8     19      9 ;     0.00   0.54392   3 ;     C2-     C-    C1-    H4
    10      2      7     15      9 ;     0.00   1.75728   3 ;     C3-     N-     C-     H
    12      3     11     13      9 ;     0.00   0.00000   0 ;     C5-    N1-    C4-    C6
    12      3     11     23      9 ;     0.00   1.75728   3 ;     C5-    N1-    C4-    H8
    12      3     11     24      9 ;     0.00   1.75728   3 ;     C5-    N1-    C4-    H9
    13     11      3     25      9 ;     0.00   0.00000   0 ;     C6-    C4-    N1-   H10
    15      7      2     16      9 ;     0.00   0.00000   0 ;      H-     C-     N-    H1
    15      7      8     17      9 ;     0.00   0.65084   3 ;      H-     C-    C1-    H2
    15      7      8     18      9 ;     0.00   0.65084   3 ;      H-     C-    C1-    H3
    15      7      8     19      9 ;     0.00   0.65084   3 ;      H-     C-    C1-    H4
    15      7      9     20      9 ;     0.00   0.65084   3 ;      H-     C-    C2-    H5
    15      7      9     21      9 ;     0.00   0.65084   3 ;      H-     C-    C2-    H6
    15      7      9     22      9 ;     0.00   0.65084   3 ;      H-     C-    C2-    H7
    23     11      3     25      9 ;     0.00   0.00000   0 ;     H8-    C4-    N1-   H10
    23     11     13     26      9 ;     0.00   0.65084   3 ;     H8-    C4-    C6-   H11
    23     11     13     27      9 ;     0.00   0.65084   3 ;     H8-    C4-    C6-   H12
    23     11     13     28      9 ;     0.00   0.65084   3 ;     H8-    C4-    C6-   H13
    24     11      3     25      9 ;     0.00   0.00000   0 ;     H9-    C4-    N1-   H10
    24     11     13     26      9 ;     0.00   0.65084   3 ;     H9-    C4-    C6-   H11
    24     11     13     27      9 ;     0.00   0.65084   3 ;     H9-    C4-    C6-   H12
    24     11     13     28      9 ;     0.00   0.65084   3 ;     H9-    C4-    C6-   H13

[ dihedrals ] ; impropers
; treated as propers in GROMACS to use correct AMBER analytical function
;    i      j      k      l   func   phase     kd      pn
     1      5     14      6      4 ;   180.00   4.60240   2 ;     CL-    N3-    C7-    N4
     4      5     10      2      4 ;   180.00   4.60240   2 ;     N2-    N3-    C3-     N
     4      6     12      3      4 ;   180.00   4.60240   2 ;     N2-    N4-    C5-    N1
     7     10      2     16      4 ;   180.00   4.60240   2 ;      C-    C3-     N-    H1
    11     12      3     25      4 ;   180.00   4.60240   2 ;     C4-    C5-    N1-   H10
