; atrazine_GMX.itp created by acpype (v: 2023.10.27) on Mon Feb  9 17:30:29 2026

[ atomtypes ]
;name   bond_type     mass     charge   ptype   sigma         epsilon       Amb
 cl       cl          0.00000  0.00000   A     3.46595e-01   1.10374e+00 ; 1.95  0.2638
 nu       nu          0.00000  0.00000   A     3.27904e-01   6.46428e-01 ; 1.84  0.1545
 nb       nb          0.00000  0.00000   A     3.38417e-01   3.93714e-01 ; 1.90  0.0941
 c3       c3          0.00000  0.00000   A     3.39771e-01   4.51035e-01 ; 1.91  0.1078
 ca       ca          0.00000  0.00000   A     3.31521e-01   4.13379e-01 ; 1.86  0.0988
 h1       h1          0.00000  0.00000   A     2.42200e-01   8.70272e-02 ; 1.36  0.0208
 hn       hn          0.00000  0.00000   A     1.10650e-01   4.18400e-02 ; 0.62  0.0100
 hc       hc          0.00000  0.00000   A     2.60018e-01   8.70272e-02 ; 1.46  0.0208

[ moleculetype ]
;name            nrexcl
 atrazine         3

[ atoms ]
;   nr  type  resi  res  atom  cgnr     charge      mass       ; qtot   bond_type
     1   cl     1   UNL    CL    1    -0.116000     35.45000 ; qtot -0.116
     2   nu     1   UNL     N    2    -0.826900     14.01000 ; qtot -0.943
     3   nu     1   UNL    N1    3    -0.848900     14.01000 ; qtot -1.792
     4   nb     1   UNL    N2    4    -0.834000     14.01000 ; qtot -2.626
     5   nb     1   UNL    N3    5    -0.811000     14.01000 ; qtot -3.437
     6   nb     1   UNL    N4    6    -0.810000     14.01000 ; qtot -4.247
     7   c3     1   UNL     C    7     0.215500     12.01000 ; qtot -4.031
     8   c3     1   UNL    C1    8    -0.114600     12.01000 ; qtot -4.146
     9   c3     1   UNL    C2    9    -0.114600     12.01000 ; qtot -4.261
    10   ca     1   UNL    C3   10     0.928900     12.01000 ; qtot -3.332
    11   c3     1   UNL    C4   11     0.217800     12.01000 ; qtot -3.114
    12   ca     1   UNL    C5   12     0.933900     12.01000 ; qtot -2.180
    13   c3     1   UNL    C6   13    -0.114100     12.01000 ; qtot -2.294
    14   ca     1   UNL    C7   14     0.806000     12.01000 ; qtot -1.488
    15   h1     1   UNL     H   15     0.082700      1.00800 ; qtot -1.405
    16   hn     1   UNL    H1   16     0.436800      1.00800 ; qtot -0.969
    17   hc     1   UNL    H2   17     0.045200      1.00800 ; qtot -0.923
    18   hc     1   UNL    H3   18     0.045200      1.00800 ; qtot -0.878
    19   hc     1   UNL    H4   19     0.045200      1.00800 ; qtot -0.833
    20   hc     1   UNL    H5   20     0.045200      1.00800 ; qtot -0.788
    21   hc     1   UNL    H6   21     0.045200      1.00800 ; qtot -0.742
    22   hc     1   UNL    H7   22     0.045200      1.00800 ; qtot -0.697
    23   h1     1   UNL    H8   23     0.053700      1.00800 ; qtot -0.644
    24   h1     1   UNL    H9   24     0.053700      1.00800 ; qtot -0.590
    25   hn     1   UNL   H10   25     0.449800      1.00800 ; qtot -0.140
    26   hc     1   UNL   H11   26     0.046700      1.00800 ; qtot -0.093
    27   hc     1   UNL   H12   27     0.046700      1.00800 ; qtot -0.047
    28   hc     1   UNL   H13   28     0.046700      1.00800 ; qtot -0.000

[ bonds ]
;   ai     aj funct   r             k
     1     14   1    1.7572e-01    1.5730e+05 ;     CL - C7    
     2      7   1    1.4590e-01    2.1658e+05 ;      N - C     
     2     10   1    1.3944e-01    2.6771e+05 ;      N - C3    
     2     16   1    1.0137e-01    3.9538e+05 ;      N - H1    
     3     11   1    1.4590e-01    2.1658e+05 ;     N1 - C4    
     3     12   1    1.3944e-01    2.6771e+05 ;     N1 - C5    
     3     25   1    1.0137e-01    3.9538e+05 ;     N1 - H10   
     4     10   1    1.3392e-01    3.2341e+05 ;     N2 - C3    
     4     12   1    1.3392e-01    3.2341e+05 ;     N2 - C5    
     5     10   1    1.3392e-01    3.2341e+05 ;     N3 - C3    
     5     14   1    1.3392e-01    3.2341e+05 ;     N3 - C7    
     6     12   1    1.3392e-01    3.2341e+05 ;     N4 - C5    
     6     14   1    1.3392e-01    3.2341e+05 ;     N4 - C7    
     7      8   1    1.5354e-01    1.9154e+05 ;      C - C1    
     7      9   1    1.5354e-01    1.9154e+05 ;      C - C2    
     7     15   1    1.0969e-01    2.8804e+05 ;      C - H     
     8     17   1    1.0962e-01    2.8891e+05 ;     C1 - H2    
     8     18   1    1.0962e-01    2.8891e+05 ;     C1 - H3    
     8     19   1    1.0962e-01    2.8891e+05 ;     C1 - H4    
     9     20   1    1.0962e-01    2.8891e+05 ;     C2 - H5    
     9     21   1    1.0962e-01    2.8891e+05 ;     C2 - H6    
     9     22   1    1.0962e-01    2.8891e+05 ;     C2 - H7    
    11     13   1    1.5354e-01    1.9154e+05 ;     C4 - C6    
    11     23   1    1.0969e-01    2.8804e+05 ;     C4 - H8    
    11     24   1    1.0969e-01    2.8804e+05 ;     C4 - H9    
    13     26   1    1.0962e-01    2.8891e+05 ;     C6 - H11   
    13     27   1    1.0962e-01    2.8891e+05 ;     C6 - H12   
    13     28   1    1.0962e-01    2.8891e+05 ;     C6 - H13   

[ pairs ]
;   ai     aj    funct
     1     10      1 ;     CL - C3    
     1     12      1 ;     CL - C5    
     2     12      1 ;      N - C5    
     2     14      1 ;      N - C7    
     2     17      1 ;      N - H2    
     2     18      1 ;      N - H3    
     2     19      1 ;      N - H4    
     2     20      1 ;      N - H5    
     2     21      1 ;      N - H6    
     2     22      1 ;      N - H7    
     3     10      1 ;     N1 - C3    
     3     14      1 ;     N1 - C7    
     3     26      1 ;     N1 - H11   
     3     27      1 ;     N1 - H12   
     3     28      1 ;     N1 - H13   
     4      7      1 ;     N2 - C     
     4     11      1 ;     N2 - C4    
     4     14      1 ;     N2 - C7    
     4     16      1 ;     N2 - H1    
     4     25      1 ;     N2 - H10   
     5      7      1 ;     N3 - C     
     5     12      1 ;     N3 - C5    
     5     16      1 ;     N3 - H1    
     6     10      1 ;     N4 - C3    
     6     11      1 ;     N4 - C4    
     6     25      1 ;     N4 - H10   
     8     10      1 ;     C1 - C3    
     8     16      1 ;     C1 - H1    
     8     20      1 ;     C1 - H5    
     8     21      1 ;     C1 - H6    
     8     22      1 ;     C1 - H7    
     9     10      1 ;     C2 - C3    
     9     16      1 ;     C2 - H1    
     9     17      1 ;     C2 - H2    
     9     18      1 ;     C2 - H3    
     9     19      1 ;     C2 - H4    
    10     15      1 ;     C3 - H     
    12     13      1 ;     C5 - C6    
    12     23      1 ;     C5 - H8    
    12     24      1 ;     C5 - H9    
    13     25      1 ;     C6 - H10   
    15     16      1 ;      H - H1    
    15     17      1 ;      H - H2    
    15     18      1 ;      H - H3    
    15     19      1 ;      H - H4    
    15     20      1 ;      H - H5    
    15     21      1 ;      H - H6    
    15     22      1 ;      H - H7    
    23     25      1 ;     H8 - H10   
    23     26      1 ;     H8 - H11   
    23     27      1 ;     H8 - H12   
    23     28      1 ;     H8 - H13   
    24     25      1 ;     H9 - H10   
    24     26      1 ;     H9 - H11   
    24     27      1 ;     H9 - H12   
    24     28      1 ;     H9 - H13   

[ angles ]
;   ai     aj     ak    funct   theta         cth
     1     14      5      1    1.1619e+02    5.8158e+02 ;     CL - C7     - N3    
     1     14      6      1    1.1619e+02    5.8158e+02 ;     CL - C7     - N4    
     2      7      8      1    1.1053e+02    5.4986e+02 ;      N - C      - C1    
     2      7      9      1    1.1053e+02    5.4986e+02 ;      N - C      - C2    
     2      7     15      1    1.0966e+02    4.0200e+02 ;      N - C      - H     
     2     10      4      1    1.1717e+02    6.2132e+02 ;      N - C3     - N2    
     2     10      5      1    1.1717e+02    6.2132e+02 ;      N - C3     - N3    
     3     11     13      1    1.1053e+02    5.4986e+02 ;     N1 - C4     - C6    
     3     11     23      1    1.0966e+02    4.0200e+02 ;     N1 - C4     - H8    
     3     11     24      1    1.0966e+02    4.0200e+02 ;     N1 - C4     - H9    
     3     12      4      1    1.1717e+02    6.2132e+02 ;     N1 - C5     - N2    
     3     12      6      1    1.1717e+02    6.2132e+02 ;     N1 - C5     - N4    
     4     10      5      1    1.2730e+02    6.0886e+02 ;     N2 - C3     - N3    
     4     12      6      1    1.2730e+02    6.0886e+02 ;     N2 - C5     - N4    
     5     14      6      1    1.2730e+02    6.0886e+02 ;     N3 - C7     - N4    
     7      2     10      1    1.2373e+02    6.3513e+02 ;      C - N      - C3    
     7      2     16      1    1.1531e+02    4.6024e+02 ;      C - N      - H1    
     7      8     17      1    1.0968e+02    3.6208e+02 ;      C - C1     - H2    
     7      8     18      1    1.0968e+02    3.6208e+02 ;      C - C1     - H3    
     7      8     19      1    1.0968e+02    3.6208e+02 ;      C - C1     - H4    
     7      9     20      1    1.0968e+02    3.6208e+02 ;      C - C2     - H5    
     7      9     21      1    1.0968e+02    3.6208e+02 ;      C - C2     - H6    
     7      9     22      1    1.0968e+02    3.6208e+02 ;      C - C2     - H7    
     8      7      9      1    1.1263e+02    5.0099e+02 ;     C1 - C      - C2    
     8      7     15      1    1.0959e+02    3.6217e+02 ;     C1 - C      - H     
     9      7     15      1    1.0959e+02    3.6217e+02 ;     C2 - C      - H     
    10      2     16      1    1.1473e+02    4.8083e+02 ;     C3 - N      - H1    
    10      4     12      1    1.1724e+02    6.9580e+02 ;     C3 - N2     - C5    
    10      5     14      1    1.1724e+02    6.9580e+02 ;     C3 - N3     - C7    
    11      3     12      1    1.2373e+02    6.3513e+02 ;     C4 - N1     - C5    
    11      3     25      1    1.1531e+02    4.6024e+02 ;     C4 - N1     - H10   
    11     13     26      1    1.0968e+02    3.6208e+02 ;     C4 - C6     - H11   
    11     13     27      1    1.0968e+02    3.6208e+02 ;     C4 - C6     - H12   
    11     13     28      1    1.0968e+02    3.6208e+02 ;     C4 - C6     - H13   
    12      3     25      1    1.1473e+02    4.8083e+02 ;     C5 - N1     - H10   
    12      6     14      1    1.1724e+02    6.9580e+02 ;     C5 - N4     - C7    
    13     11     23      1    1.0959e+02    3.6217e+02 ;     C6 - C4     - H8    
    13     11     24      1    1.0959e+02    3.6217e+02 ;     C6 - C4     - H9    
    17      8     18      1    1.0773e+02    2.9957e+02 ;     H2 - C1     - H3    
    17      8     19      1    1.0773e+02    2.9957e+02 ;     H2 - C1     - H4    
    18      8     19      1    1.0773e+02    2.9957e+02 ;     H3 - C1     - H4    
    20      9     21      1    1.0773e+02    2.9957e+02 ;     H5 - C2     - H6    
    20      9     22      1    1.0773e+02    2.9957e+02 ;     H5 - C2     - H7    
    21      9     22      1    1.0773e+02    2.9957e+02 ;     H6 - C2     - H7    
    23     11     24      1    1.0855e+02    2.9824e+02 ;     H8 - C4     - H9    
    26     13     27      1    1.0773e+02    2.9957e+02 ;    H11 - C6     - H12   
    26     13     28      1    1.0773e+02    2.9957e+02 ;    H11 - C6     - H13   
    27     13     28      1    1.0773e+02    2.9957e+02 ;    H12 - C6     - H13   

[ dihedrals ] ; propers
; for gromacs 4.5 or higher, using funct 9
;    i      j      k      l   func   phase     kd      pn
     1     14      5     10      9   180.00  20.08320   2 ;     CL-    C7-    N3-    C3
     1     14      6     12      9   180.00  20.08320   2 ;     CL-    C7-    N4-    C5
     2      7      8     17      9     0.00   0.65084   3 ;      N-     C-    C1-    H2
     2      7      8     18      9     0.00   0.65084   3 ;      N-     C-    C1-    H3
     2      7      8     19      9     0.00   0.65084   3 ;      N-     C-    C1-    H4
     2      7      9     20      9     0.00   0.65084   3 ;      N-     C-    C2-    H5
     2      7      9     21      9     0.00   0.65084   3 ;      N-     C-    C2-    H6
     2      7      9     22      9     0.00   0.65084   3 ;      N-     C-    C2-    H7
     2     10      4     12      9   180.00  20.08320   2 ;      N-    C3-    N2-    C5
     2     10      5     14      9   180.00  20.08320   2 ;      N-    C3-    N3-    C7
     3     11     13     26      9     0.00   0.65084   3 ;     N1-    C4-    C6-   H11
     3     11     13     27      9     0.00   0.65084   3 ;     N1-    C4-    C6-   H12
     3     11     13     28      9     0.00   0.65084   3 ;     N1-    C4-    C6-   H13
     3     12      4     10      9   180.00  20.08320   2 ;     N1-    C5-    N2-    C3
     3     12      6     14      9   180.00  20.08320   2 ;     N1-    C5-    N4-    C7
     4     10      2      7      9   180.00   4.39320   2 ;     N2-    C3-     N-     C
     4     10      2     16      9   180.00   4.39320   2 ;     N2-    C3-     N-    H1
     4     10      5     14      9   180.00  20.08320   2 ;     N2-    C3-    N3-    C7
     4     12      3     11      9   180.00   4.39320   2 ;     N2-    C5-    N1-    C4
     4     12      3     25      9   180.00   4.39320   2 ;     N2-    C5-    N1-   H10
     4     12      6     14      9   180.00  20.08320   2 ;     N2-    C5-    N4-    C7
     5     10      2      7      9   180.00   4.39320   2 ;     N3-    C3-     N-     C
     5     10      2     16      9   180.00   4.39320   2 ;     N3-    C3-     N-    H1
     5     10      4     12      9   180.00  20.08320   2 ;     N3-    C3-    N2-    C5
     5     14      6     12      9   180.00  20.08320   2 ;     N3-    C7-    N4-    C5
     6     12      3     11      9   180.00   4.39320   2 ;     N4-    C5-    N1-    C4
     6     12      3     25      9   180.00   4.39320   2 ;     N4-    C5-    N1-   H10
     6     12      4     10      9   180.00  20.08320   2 ;     N4-    C5-    N2-    C3
     6     14      5     10      9   180.00  20.08320   2 ;     N4-    C7-    N3-    C3
     8      7      2     10      9     0.00   0.00000   0 ;     C1-     C-     N-    C3
     8      7      2     16      9     0.00   0.00000   0 ;     C1-     C-     N-    H1
     8      7      9     20      9     0.00   0.54392   3 ;     C1-     C-    C2-    H5
     8      7      9     21      9     0.00   0.54392   3 ;     C1-     C-    C2-    H6
     8      7      9     22      9     0.00   0.54392   3 ;     C1-     C-    C2-    H7
     9      7      2     10      9     0.00   0.00000   0 ;     C2-     C-     N-    C3
     9      7      2     16      9     0.00   0.00000   0 ;     C2-     C-     N-    H1
     9      7      8     17      9     0.00   0.54392   3 ;     C2-     C-    C1-    H2
     9      7      8     18      9     0.00   0.54392   3 ;     C2-     C-    C1-    H3
     9      7      8     19      9     0.00   0.54392   3 ;     C2-     C-    C1-    H4
    10      2      7     15      9     0.00   1.75728   3 ;     C3-     N-     C-     H
    12      3     11     13      9     0.00   0.00000   0 ;     C5-    N1-    C4-    C6
    12      3     11     23      9     0.00   1.75728   3 ;     C5-    N1-    C4-    H8
    12      3     11     24      9     0.00   1.75728   3 ;     C5-    N1-    C4-    H9
    13     11      3     25      9     0.00   0.00000   0 ;     C6-    C4-    N1-   H10
    15      7      2     16      9     0.00   0.00000   0 ;      H-     C-     N-    H1
    15      7      8     17      9     0.00   0.65084   3 ;      H-     C-    C1-    H2
    15      7      8     18      9     0.00   0.65084   3 ;      H-     C-    C1-    H3
    15      7      8     19      9     0.00   0.65084   3 ;      H-     C-    C1-    H4
    15      7      9     20      9     0.00   0.65084   3 ;      H-     C-    C2-    H5
    15      7      9     21      9     0.00   0.65084   3 ;      H-     C-    C2-    H6
    15      7      9     22      9     0.00   0.65084   3 ;      H-     C-    C2-    H7
    23     11      3     25      9     0.00   0.00000   0 ;     H8-    C4-    N1-   H10
    23     11     13     26      9     0.00   0.65084   3 ;     H8-    C4-    C6-   H11
    23     11     13     27      9     0.00   0.65084   3 ;     H8-    C4-    C6-   H12
    23     11     13     28      9     0.00   0.65084   3 ;     H8-    C4-    C6-   H13
    24     11      3     25      9     0.00   0.00000   0 ;     H9-    C4-    N1-   H10
    24     11     13     26      9     0.00   0.65084   3 ;     H9-    C4-    C6-   H11
    24     11     13     27      9     0.00   0.65084   3 ;     H9-    C4-    C6-   H12
    24     11     13     28      9     0.00   0.65084   3 ;     H9-    C4-    C6-   H13

[ dihedrals ] ; impropers
; treated as propers in GROMACS to use correct AMBER analytical function
;    i      j      k      l   func   phase     kd      pn
     1      5     14      6      4   180.00   4.60240   2 ;     CL-    N3-    C7-    N4
     4      5     10      2      4   180.00   4.60240   2 ;     N2-    N3-    C3-     N
     4      6     12      3      4   180.00   4.60240   2 ;     N2-    N4-    C5-    N1
     7     10      2     16      4   180.00   4.60240   2 ;      C-    C3-     N-    H1
    11     12      3     25      4   180.00   4.60240   2 ;     C4-    C5-    N1-   H10
