; atrazine_GMX_OPLS.top created by acpype (v: 2023.10.27) on Mon Feb  9 17:30:29 2026

; Include forcefield parameters
#include "ffoplsaa.itp"

; Include atrazine_GMX.itp topology
#include "atrazine_GMX.itp"

; Ligand position restraints
#ifdef POSRES_LIG
#include "posre_atrazine.itp"
#endif

[ system ]
 atrazine

[ molecules ]
; Compound        nmols
 atrazine         1     
