%VERSION  VERSION_STAMP = V0001.000  DATE = 02/09/26  17:30:37                  
%FLAG TITLE                                                                     
%FORMAT(20a4)                                                                   
2256                                                                            
%FLAG POINTERS                                                                  
%FORMAT(10I8)                                                                   
      28       8      14      14      30      18      42      22       0       0
     138       1      14      18      22       8      14       7       8       0
       0       0       0       0       0       0       0       0      28       0
       0
%FLAG ATOM_NAME                                                                 
%FORMAT(20a4)                                                                   
Cl  N   N1  N2  N3  N4  C   C1  C2  C3  C4  C5  C6  C7  H   H1  H2  H3  H4  H5  
H6  H7  H8  H9  H10 H11 H12 H13 
%FLAG CHARGE                                                                    
%FORMAT(5E16.8)                                                                 
 -2.11378680E+00 -1.50680199E+01 -1.54689105E+01 -1.51973982E+01 -1.47782853E+01
 -1.47600630E+01  3.92690565E+00 -2.08827558E+00 -2.08827558E+00  1.69266945E+01
  3.96881694E+00  1.69995837E+01 -2.07916443E+00  1.46871738E+01  1.50698421E+00
  7.95950064E+00  8.23647960E-01  8.23647960E-01  8.23647960E-01  8.23647960E-01
  8.23647960E-01  8.23647960E-01  9.78537510E-01  9.78537510E-01  8.19639054E+00
  8.50981410E-01  8.50981410E-01  8.50981410E-01
%FLAG ATOMIC_NUMBER                                                             
%FORMAT(10I8)                                                                   
      17       7       7       7       7       7       6       6       6       6
       6       6       6       6       1       1       1       1       1       1
       1       1       1       1       1       1       1       1
%FLAG MASS                                                                      
%FORMAT(5E16.8)                                                                 
  3.54500000E+01  1.40100000E+01  1.40100000E+01  1.40100000E+01  1.40100000E+01
  1.40100000E+01  1.20100000E+01  1.20100000E+01  1.20100000E+01  1.20100000E+01
  1.20100000E+01  1.20100000E+01  1.20100000E+01  1.20100000E+01  1.00800000E+00
  1.00800000E+00  1.00800000E+00  1.00800000E+00  1.00800000E+00  1.00800000E+00
  1.00800000E+00  1.00800000E+00  1.00800000E+00  1.00800000E+00  1.00800000E+00
  1.00800000E+00  1.00800000E+00  1.00800000E+00
%FLAG ATOM_TYPE_INDEX                                                           
%FORMAT(10I8)                                                                   
       1       2       2       3       3       3       4       4       4       5
       4       5       4       5       6       7       8       8       8       8
       8       8       6       6       7       8       8       8
%FLAG NUMBER_EXCLUDED_ATOMS                                                     
%FORMAT(10I8)                                                                   
       5      16      13       9       6       5      11      10       9       4
       8       5       6       1       7       1       2       1       1       2
       1       1       5       4       1       2       1       1
%FLAG NONBONDED_PARM_INDEX                                                      
%FORMAT(10I8)                                                                   
       1       2       4       7      11      16      22      29       2       3
       5       8      12      17      23      30       4       5       6       9
      13      18      24      31       7       8       9      10      14      19
      25      32      11      12      13      14      15      20      26      33
      16      17      18      19      20      21      27      34      22      23
      24      25      26      27      28      35      29      30      31      32
      33      34      35      36
%FLAG RESIDUE_LABEL                                                             
%FORMAT(20a4)                                                                   
UNL 
%FLAG RESIDUE_POINTER                                                           
%FORMAT(10I8)                                                                   
       1
%FLAG BOND_FORCE_CONSTANT                                                       
%FORMAT(5E16.8)                                                                 
  1.87980000E+02  2.58820000E+02  3.19920000E+02  4.72490000E+02  3.86490000E+02
  2.28890000E+02  3.44220000E+02  3.45250000E+02
%FLAG BOND_EQUIL_VALUE                                                          
%FORMAT(5E16.8)                                                                 
  1.75720000E+00  1.45900000E+00  1.39440000E+00  1.01370000E+00  1.33920000E+00
  1.53540000E+00  1.09690000E+00  1.09620000E+00
%FLAG ANGLE_FORCE_CONSTANT                                                      
%FORMAT(5E16.8)                                                                 
  6.95000000E+01  6.57100000E+01  4.80400000E+01  7.42500000E+01  7.27600000E+01
  7.59000000E+01  5.50000000E+01  4.32700000E+01  5.98700000E+01  4.32800000E+01
  5.74600000E+01  8.31500000E+01  3.58000000E+01  3.56400000E+01
%FLAG ANGLE_EQUIL_VALUE                                                         
%FORMAT(5E16.8)                                                                 
  2.02789893E+00  1.92911325E+00  1.91392888E+00  2.04500316E+00  2.22180509E+00
  2.15949681E+00  2.01254002E+00  1.91427794E+00  1.96576518E+00  1.91270715E+00
  2.00241711E+00  2.04622489E+00  1.88024401E+00  1.89455572E+00
%FLAG DIHEDRAL_FORCE_CONSTANT                                                   
%FORMAT(5E16.8)                                                                 
  4.80000000E+00  1.55555556E-01  1.05000000E+00  0.00000000E+00  1.30000000E-01
  4.20000000E-01  1.10000000E+00
%FLAG DIHEDRAL_PERIODICITY                                                      
%FORMAT(5E16.8)                                                                 
  2.00000000E+00  3.00000000E+00  2.00000000E+00  2.00000000E+00  3.00000000E+00
  3.00000000E+00  2.00000000E+00
%FLAG DIHEDRAL_PHASE                                                            
%FORMAT(5E16.8)                                                                 
  3.14159400E+00  0.00000000E+00  3.14159400E+00  0.00000000E+00  0.00000000E+00
  0.00000000E+00  3.14159400E+00
%FLAG SCEE_SCALE_FACTOR                                                         
%FORMAT(5E16.8)                                                                 
  1.20000000E+00  1.20000000E+00  1.20000000E+00  1.20000000E+00  1.20000000E+00
  1.20000000E+00  0.00000000E+00
%FLAG SCNB_SCALE_FACTOR                                                         
%FORMAT(5E16.8)                                                                 
  2.00000000E+00  2.00000000E+00  2.00000000E+00  2.00000000E+00  2.00000000E+00
  2.00000000E+00  0.00000000E+00
%FLAG SOLTY                                                                     
%FORMAT(5E16.8)                                                                 
  0.00000000E+00  0.00000000E+00  0.00000000E+00  0.00000000E+00  0.00000000E+00
  0.00000000E+00  0.00000000E+00  0.00000000E+00
%FLAG LENNARD_JONES_ACOEF                                                       
%FORMAT(5E16.8)                                                                 
  3.17107030E+06  1.74815785E+06  9.54886922E+05  1.64251971E+06  9.01905150E+05
  8.49322032E+05  1.80018612E+06  9.89136215E+05  9.31115275E+05  1.02073671E+06
  1.49062160E+06  8.15700858E+05  7.69642101E+05  8.43969952E+05  6.96551276E+05
  1.25585106E+05  6.52595638E+04  6.34160397E+04  6.97998263E+04  5.63013422E+04
  3.39005767E+03  4.18912581E+03  1.94284817E+03  2.01475241E+03  2.23577481E+03
  1.71458823E+03  5.24570081E+01  1.34728399E-01  1.79601155E+05  9.44129241E+04
  9.11435380E+04  1.00235148E+05  8.12662403E+04  5.22955465E+03  9.47421632E+01
  7.94617769E+03
%FLAG LENNARD_JONES_BCOEF                                                       
%FORMAT(5E16.8)                                                                 
  1.82923847E+03  1.18814963E+03  7.68192761E+02  1.01742263E+03  6.59538202E+02
  5.65406768E+02  1.10195051E+03  7.14570130E+02  6.12468585E+02  6.63431737E+02
  9.81118883E+02  6.34916791E+02  5.44830041E+02  5.90251928E+02  5.24668528E+02
  1.92900608E+02  1.21646616E+02  1.05935811E+02  1.14981426E+02  1.01040256E+02
  1.67944276E+01  2.93366416E+01  1.74775900E+01  1.57231024E+01  1.71355763E+01
  1.46824710E+01  1.73959275E+00  7.34107347E-02  2.30684859E+02  1.46316625E+02
  1.27000718E+02  1.37787728E+02  1.21392023E+02  2.08590256E+01  2.33785449E+00
  2.57122925E+01
%FLAG BONDS_INC_HYDROGEN                                                        
%FORMAT(10I8)                                                                   
       3      45       4       6      72       4      18      42       7      21
      48       8      21      51       8      21      54       8      24      57
       8      24      60       8      24      63       8      30      66       7
      30      69       7      36      75       8      36      78       8      36
      81       8
%FLAG BONDS_WITHOUT_HYDROGEN                                                    
%FORMAT(10I8)                                                                   
       0      39       1       3      18       2       3      27       3       6
      30       2       6      33       3       9      27       5       9      33
       5      12      27       5      12      39       5      15      33       5
      15      39       5      18      21       6      18      24       6      30
      36       6
%FLAG ANGLES_INC_HYDROGEN                                                       
%FORMAT(10I8)                                                                   
       3      18      42       3       6      30      66       3       6      30
      69       3      18       3      45       7      18      21      48       8
      18      21      51       8      18      21      54       8      18      24
      57       8      18      24      60       8      18      24      63       8
      21      18      42      10      24      18      42      10      27       3
      45      11      30       6      72       7      30      36      75       8
      30      36      78       8      30      36      81       8      33       6
      72      11      36      30      66      10      36      30      69      10
      48      21      51      13      48      21      54      13      51      21
      54      13      57      24      60      13      57      24      63      13
      60      24      63      13      66      30      69      14      75      36
      78      13      75      36      81      13      78      36      81      13
%FLAG ANGLES_WITHOUT_HYDROGEN                                                   
%FORMAT(10I8)                                                                   
       0      39      12       1       0      39      15       1       3      18
      21       2       3      18      24       2       3      27       9       4
       3      27      12       4       6      30      36       2       6      33
       9       4       6      33      15       4       9      27      12       5
       9      33      15       5      12      39      15       5      18       3
      27       6      21      18      24       9      27       9      33      12
      27      12      39      12      30       6      33       6      33      15
      39      12
%FLAG DIHEDRALS_INC_HYDROGEN                                                    
%FORMAT(10I8)                                                                   
       3      18      21      48       2       3      18      21      51       2
       3      18      21      54       2       3      18      24      57       2
       3      18      24      60       2       3      18      24      63       2
       6      30      36      75       2       6      30      36      78       2
       6      30      36      81       2       9      27       3      45       3
       9      33       6      72       3      12      27       3      45       3
      15      33       6      72       3      21      18       3      45       4
      21      18      24      57       5      21      18      24      60       5
      21      18      24      63       5      24      18       3      45       4
      24      18      21      48       5      24      18      21      51       5
      24      18      21      54       5      27       3      18      42       6
      33       6      30      66       6      33       6      30      69       6
      36      30       6      72       4      42      18       3      45       4
      42      18      21      48       2      42      18      21      51       2
      42      18      21      54       2      42      18      24      57       2
      42      18      24      60       2      42      18      24      63       2
      66      30       6      72       4      66      30      36      75       2
      66      30      36      78       2      66      30      36      81       2
      69      30       6      72       4      69      30      36      75       2
      69      30      36      78       2      69      30      36      81       2
      18      27      -3     -45       7      30      33      -6     -72       7
%FLAG DIHEDRALS_WITHOUT_HYDROGEN                                                
%FORMAT(10I8)                                                                   
       0      39      12      27       1       0      39      15      33       1
       3      27       9      33       1       3      27      12      39       1
       6      33       9      27       1       6      33      15      39       1
       9      27       3      18       3       9      27      12      39       1
       9      33       6      30       3       9      33     -15      39       1
      12      27       3      18       3      12      27       9      33       1
      12      39     -15      33       1      15      33       6      30       3
      15      33       9      27       1      15      39     -12      27       1
      21      18       3      27       4      24      18       3      27       4
      33       6      30      36       4       9      12     -27      -3       7
       9      15     -33      -6       7       0      12     -39     -15       7
%FLAG EXCLUDED_ATOMS_LIST                                                       
%FORMAT(10I8)                                                                   
       5       6      10      12      14       4       5       7       8       9
      10      12      14      15      16      17      18      19      20      21
      22       4       6      10      11      12      13      14      23      24
      25      26      27      28       5       6       7      10      11      12
      14      16      25       6       7      10      12      14      16      10
      11      12      14      25       8       9      10      15      16      17
      18      19      20      21      22       9      10      15      16      17
      18      19      20      21      22      10      15      16      17      18
      19      20      21      22      12      14      15      16      12      13
      23      24      25      26      27      28      13      14      23      24
      25      23      24      25      26      27      28       0      16      17
      18      19      20      21      22       0      18      19      19       0
      21      22      22       0      24      25      26      27      28      25
      26      27      28       0      27      28      28       0
%FLAG HBOND_ACOEF                                                               
%FORMAT(5E16.8)                                                                 

%FLAG HBOND_BCOEF                                                               
%FORMAT(5E16.8)                                                                 

%FLAG HBCUT                                                                     
%FORMAT(5E16.8)                                                                 

%FLAG AMBER_ATOM_TYPE                                                           
%FORMAT(20a4)                                                                   
cl  nu  nu  nb  nb  nb  c3  c3  c3  ca  c3  ca  c3  ca  h1  hn  hc  hc  hc  hc  
hc  hc  h1  h1  hn  hc  hc  hc  
%FLAG TREE_CHAIN_CLASSIFICATION                                                 
%FORMAT(20a4)                                                                   
BLA BLA BLA BLA BLA BLA BLA BLA BLA BLA BLA BLA BLA BLA BLA BLA BLA BLA BLA BLA 
BLA BLA BLA BLA BLA BLA BLA BLA 
%FLAG JOIN_ARRAY                                                                
%FORMAT(10I8)                                                                   
       0       0       0       0       0       0       0       0       0       0
       0       0       0       0       0       0       0       0       0       0
       0       0       0       0       0       0       0       0
%FLAG IROTAT                                                                    
%FORMAT(10I8)                                                                   
       0       0       0       0       0       0       0       0       0       0
       0       0       0       0       0       0       0       0       0       0
       0       0       0       0       0       0       0       0
%FLAG RADIUS_SET                                                                
%FORMAT(1a80)                                                                   
modified Bondi radii (mbondi)                                                   
%FLAG RADII                                                                     
%FORMAT(5E16.8)                                                                 
  1.70000000E+00  1.55000000E+00  1.55000000E+00  1.55000000E+00  1.55000000E+00
  1.55000000E+00  1.70000000E+00  1.70000000E+00  1.70000000E+00  1.70000000E+00
  1.70000000E+00  1.70000000E+00  1.70000000E+00  1.70000000E+00  1.30000000E+00
  1.30000000E+00  1.30000000E+00  1.30000000E+00  1.30000000E+00  1.30000000E+00
  1.30000000E+00  1.30000000E+00  1.30000000E+00  1.30000000E+00  1.30000000E+00
  1.30000000E+00  1.30000000E+00  1.30000000E+00
%FLAG SCREEN                                                                    
%FORMAT(5E16.8)                                                                 
  8.00000000E-01  7.90000000E-01  7.90000000E-01  7.90000000E-01  7.90000000E-01
  7.90000000E-01  7.20000000E-01  7.20000000E-01  7.20000000E-01  7.20000000E-01
  7.20000000E-01  7.20000000E-01  7.20000000E-01  7.20000000E-01  8.50000000E-01
  8.50000000E-01  8.50000000E-01  8.50000000E-01  8.50000000E-01  8.50000000E-01
  8.50000000E-01  8.50000000E-01  8.50000000E-01  8.50000000E-01  8.50000000E-01
  8.50000000E-01  8.50000000E-01  8.50000000E-01
%FLAG IPOL                                                                      
%FORMAT(1I8)                                                                    
       0
