2256
    28
  -1.4420000   3.8200000  -0.1070000   2.1600000   0.4360000   0.1060000
  -2.2870000  -1.0530000   0.0330000  -0.0530000  -0.3390000   0.0700000
   0.4260000   2.0110000   0.0070000  -1.8490000   1.2490000  -0.0310000
   2.7050000  -0.9030000   0.1660000   4.1220000  -0.8440000   0.7200000
   2.6780000  -1.5260000  -1.2240000   0.8050000   0.7110000   0.0600000
  -1.9030000  -2.4290000   0.0880000  -1.3500000   0.0040000   0.0240000
  -3.1120000  -3.3410000   0.1240000  -0.9020000   2.2020000  -0.0360000
   2.1150000  -1.5230000   0.8520000   2.7910000   1.2280000   0.0470000
   4.5540000  -1.8470000   0.7980000   4.7780000  -0.2410000   0.0810000
   4.1310000  -0.3940000   1.7190000   1.6580000  -1.6170000  -1.6090000
   3.1150000  -2.5300000  -1.2060000   3.2470000  -0.9230000  -1.9410000
  -1.2930000  -2.6860000  -0.7860000  -1.2970000  -2.6170000   0.9820000
  -3.2650000  -0.7920000  -0.0060000  -3.7350000  -3.1330000   1.0000000
  -3.7330000  -3.2050000  -0.7670000  -2.8000000  -4.3890000   0.1670000
