androstenedione_GMX.gro created by acpype (v: 2023.10.27) on Mon Feb  9 17:28:54 2026
 47
    1  UNL    O    1  -0.494  -0.107  -0.088
    1  UNL   O1    2   0.556   0.015  -0.104
    1  UNL    C    3  -0.063   0.078   0.036
    1  UNL   C1    4   0.020  -0.045  -0.015
    1  UNL   C2    5  -0.202   0.071  -0.028
    1  UNL   C3    6  -0.278  -0.057   0.011
    1  UNL   C4    7   0.167  -0.047   0.042
    1  UNL   C5    8  -0.057  -0.179   0.004
    1  UNL   C6    9  -0.202  -0.176  -0.048
    1  UNL   C7   10   0.009   0.208   0.001
    1  UNL   C8   11  -0.303   0.183  -0.003
    1  UNL   C9   12   0.231   0.091   0.022
    1  UNL  C10   13  -0.412  -0.024  -0.052
    1  UNL  C11   14   0.149   0.211   0.062
    1  UNL  C12   15  -0.432   0.126  -0.062
    1  UNL  C13   16   0.248  -0.155  -0.035
    1  UNL  C14   17  -0.304  -0.076   0.162
    1  UNL  C15   18   0.170  -0.080   0.193
    1  UNL  C16   19   0.398  -0.143  -0.017
    1  UNL  C17   20   0.355   0.110  -0.026
    1  UNL  C18   21   0.445  -0.005  -0.056
    1  UNL    H   22  -0.074   0.073   0.145
    1  UNL   H1   23   0.029  -0.032  -0.124
    1  UNL   H2   24  -0.186   0.070  -0.138
    1  UNL   H3   25  -0.058  -0.208   0.109
    1  UNL   H4   26  -0.005  -0.259  -0.050
    1  UNL   H5   27  -0.202  -0.170  -0.157
    1  UNL   H6   28  -0.252  -0.270  -0.023
    1  UNL   H7   29  -0.047   0.294   0.039
    1  UNL   H8   30   0.016   0.220  -0.108
    1  UNL   H9   31  -0.275   0.277  -0.052
    1  UNL  H10   32  -0.314   0.204   0.104
    1  UNL  H11   33   0.141   0.214   0.172
    1  UNL  H12   34   0.198   0.305   0.033
    1  UNL  H13   35  -0.443   0.153  -0.168
    1  UNL  H14   36  -0.520   0.158  -0.005
    1  UNL  H15   37   0.226  -0.148  -0.142
    1  UNL  H16   38   0.217  -0.256  -0.003
    1  UNL  H17   39  -0.364   0.005   0.205
    1  UNL  H18   40  -0.360  -0.169   0.179
    1  UNL  H19   41  -0.212  -0.083   0.220
    1  UNL  H20   42   0.103  -0.015   0.251
    1  UNL  H21   43   0.140  -0.183   0.213
    1  UNL  H22   44   0.270  -0.067   0.235
    1  UNL  H23   45   0.448  -0.216  -0.082
    1  UNL  H24   46   0.429  -0.163   0.086
    1  UNL  H25   47   0.397   0.209  -0.041
   21.51800    11.49200     8.38200
