6128
    47
  -4.9440000  -1.0690000  -0.8760000   5.5580000   0.1500000  -1.0390000
  -0.6330000   0.7750000   0.3580000   0.1970000  -0.4490000  -0.1470000
  -2.0220000   0.7140000  -0.2840000  -2.7780000  -0.5710000   0.1120000
   1.6680000  -0.4670000   0.4230000  -0.5680000  -1.7900000   0.0360000
  -2.0200000  -1.7560000  -0.4760000   0.0930000   2.0810000   0.0130000
  -3.0270000   1.8320000  -0.0310000   2.3120000   0.9100000   0.2200000
  -4.1180000  -0.2400000  -0.5190000   1.4890000   2.1110000   0.6220000
  -4.3240000   1.2620000  -0.6240000   2.4770000  -1.5510000  -0.3460000
  -3.0370000  -0.7620000   1.6180000   1.6980000  -0.7960000   1.9330000
   3.9820000  -1.4290000  -0.1690000   3.5520000   1.0950000  -0.2640000
   4.4450000  -0.0500000  -0.5570000  -0.7370000   0.7300000   1.4470000
   0.2900000  -0.3160000  -1.2380000  -1.8640000   0.7050000  -1.3770000
  -0.5770000  -2.0770000   1.0930000  -0.0470000  -2.5940000  -0.4960000
  -2.0150000  -1.6980000  -1.5730000  -2.5210000  -2.6990000  -0.2270000
  -0.4740000   2.9390000   0.3920000   0.1610000   2.2000000  -1.0760000
  -2.7500000   2.7680000  -0.5240000  -3.1410000   2.0390000   1.0390000
   1.4110000   2.1380000   1.7160000   1.9790000   3.0470000   0.3270000
  -4.4270000   1.5310000  -1.6790000  -5.2010000   1.5780000  -0.0540000
   2.2560000  -1.4790000  -1.4210000   2.1720000  -2.5570000  -0.0340000
  -3.6370000   0.0480000   2.0450000  -3.6020000  -1.6870000   1.7900000
  -2.1160000  -0.8310000   2.2030000   1.0320000  -0.1490000   2.5120000
   1.4010000  -1.8320000   2.1260000   2.7040000  -0.6700000   2.3510000
   4.4800000  -2.1580000  -0.8180000   4.2890000  -1.6260000   0.8630000
   3.9700000   2.0860000  -0.4060000
