%VERSION  VERSION_STAMP = V0001.000  DATE = 02/09/26  17:29:07                  
%FLAG TITLE                                                                     
%FORMAT(20a4)                                                                   
6128                                                                            
%FLAG POINTERS                                                                  
%FORMAT(10I8)                                                                   
      47       5      26      24      63      39     120      81       0       0
     318       1      24      39      81      15      35      25       9       0
       0       0       0       0       0       0       0       0      47       0
       0
%FLAG ATOM_NAME                                                                 
%FORMAT(20a4)                                                                   
O   O1  C   C1  C2  C3  C4  C5  C6  C7  C8  C9  C10 C11 C12 C13 C14 C15 C16 C17 
C18 H   H1  H2  H3  H4  H5  H6  H7  H8  H9  H10 H11 H12 H13 H14 H15 H16 H17 H18 
H19 H20 H21 H22 H23 H24 H25 
%FLAG CHARGE                                                                    
%FORMAT(5E16.8)                                                                 
 -9.42275133E+00 -9.73253043E+00 -8.87426010E-01 -8.87426010E-01 -1.17898281E+00
 -2.78801190E+00 -2.69690040E-01 -1.39218372E+00 -1.02773772E+00 -1.31929452E+00
 -1.31929452E+00 -5.53957920E-01  1.05160893E+01 -9.87648660E-01 -3.43308132E+00
 -1.28284992E+00 -1.51427313E+00 -1.56894003E+00 -3.32374752E+00 -4.79610936E+00
  1.03739554E+01  1.05142671E+00  9.60315210E-01  9.78537510E-01  8.14536810E-01
  8.14536810E-01  9.69426360E-01  9.69426360E-01  8.69203710E-01  8.69203710E-01
  9.14759460E-01  9.14759460E-01  1.03320441E+00  1.03320441E+00  1.37942811E+00
  1.37942811E+00  9.32981760E-01  9.32981760E-01  7.96314510E-01  7.96314510E-01
  7.96314510E-01  7.41647610E-01  7.41647610E-01  7.41647610E-01  1.31565006E+00
  1.31565006E+00  2.69690040E+00
%FLAG ATOMIC_NUMBER                                                             
%FORMAT(10I8)                                                                   
       8       8       6       6       6       6       6       6       6       6
       6       6       6       6       6       6       6       6       6       6
       6       1       1       1       1       1       1       1       1       1
       1       1       1       1       1       1       1       1       1       1
       1       1       1       1       1       1       1
%FLAG MASS                                                                      
%FORMAT(5E16.8)                                                                 
  1.60000000E+01  1.60000000E+01  1.20100000E+01  1.20100000E+01  1.20100000E+01
  1.20100000E+01  1.20100000E+01  1.20100000E+01  1.20100000E+01  1.20100000E+01
  1.20100000E+01  1.20100000E+01  1.20100000E+01  1.20100000E+01  1.20100000E+01
  1.20100000E+01  1.20100000E+01  1.20100000E+01  1.20100000E+01  1.20100000E+01
  1.20100000E+01  1.00800000E+00  1.00800000E+00  1.00800000E+00  1.00800000E+00
  1.00800000E+00  1.00800000E+00  1.00800000E+00  1.00800000E+00  1.00800000E+00
  1.00800000E+00  1.00800000E+00  1.00800000E+00  1.00800000E+00  1.00800000E+00
  1.00800000E+00  1.00800000E+00  1.00800000E+00  1.00800000E+00  1.00800000E+00
  1.00800000E+00  1.00800000E+00  1.00800000E+00  1.00800000E+00  1.00800000E+00
  1.00800000E+00  1.00800000E+00
%FLAG ATOM_TYPE_INDEX                                                           
%FORMAT(10I8)                                                                   
       1       1       2       2       2       2       2       2       2       2
       2       3       3       2       2       2       2       2       2       3
       3       4       4       4       4       4       4       4       4       4
       4       4       4       4       4       4       4       4       4       4
       4       4       4       4       4       4       5
%FLAG NUMBER_EXCLUDED_ATOMS                                                     
%FORMAT(10I8)                                                                   
       9       8      26      27      24      20      24      13      13      11
       9      17      12      10       6      12       6       8       7       6
       5       4       2       2       3       2       1       1       3       2
       3       2       1       1       1       1       3       2       2       1
       1       2       1       1       1       1       1
%FLAG NONBONDED_PARM_INDEX                                                      
%FORMAT(10I8)                                                                   
       1       2       4       7      11       2       3       5       8      12
       4       5       6       9      13       7       8       9      10      14
      11      12      13      14      15
%FLAG RESIDUE_LABEL                                                             
%FORMAT(20a4)                                                                   
UNL 
%FLAG RESIDUE_POINTER                                                           
%FORMAT(10I8)                                                                   
       1
%FLAG BOND_FORCE_CONSTANT                                                       
%FORMAT(5E16.8)                                                                 
  5.90600000E+02  2.26810000E+02  2.26470000E+02  3.42750000E+02  2.20100000E+02
  3.46430000E+02  2.29450000E+02  2.27640000E+02  2.44960000E+02  2.23800000E+02
  4.24300000E+02  3.45250000E+02  2.33630000E+02  2.67760000E+02  3.57590000E+02
%FLAG BOND_EQUIL_VALUE                                                          
%FORMAT(5E16.8)                                                                 
  1.21900000E+00  1.53840000E+00  1.53890000E+00  1.09790000E+00  1.54830000E+00
  1.09540000E+00  1.53460000E+00  1.53720000E+00  1.51330000E+00  1.54280000E+00
  1.34570000E+00  1.09620000E+00  1.52870000E+00  1.48480000E+00  1.08800000E+00
%FLAG ANGLE_FORCE_CONSTANT                                                      
%FORMAT(5E16.8)                                                                 
  7.53100000E+01  7.65600000E+01  7.79900000E+01  6.01800000E+01  4.32300000E+01
  5.92600000E+01  4.38400000E+01  6.01700000E+01  6.05700000E+01  5.99900000E+01
  4.32400000E+01  6.09400000E+01  5.93300000E+01  6.18400000E+01  4.26500000E+01
  6.10700000E+01  4.30600000E+01  5.98700000E+01  6.12000000E+01  4.28900000E+01
  5.97500000E+01  6.03300000E+01  6.09300000E+01  4.39000000E+01  6.21100000E+01
  4.62400000E+01  6.03900000E+01  4.35000000E+01  6.02700000E+01  6.00600000E+01
  4.38400000E+01  4.33100000E+01  3.59300000E+01  3.59100000E+01  3.58000000E+01
%FLAG ANGLE_EQUIL_VALUE                                                         
%FORMAT(5E16.8)                                                                 
  2.19335621E+00  2.13523672E+00  2.15094469E+00  1.93836350E+00  1.91026369E+00
  1.98531288E+00  1.85738019E+00  1.93801443E+00  1.94447215E+00  1.94482122E+00
  1.90834382E+00  1.88251294E+00  1.98269488E+00  1.81217614E+00  1.94028336E+00
  1.89141412E+00  1.92911325E+00  2.02388467E+00  2.14064725E+00  1.93085858E+00
  1.97012850E+00  1.92963685E+00  1.91584874E+00  1.90782022E+00  2.12930260E+00
  2.09439600E+00  1.93120765E+00  1.89612651E+00  1.94482122E+00  2.02720080E+00
  1.87919681E+00  2.03173865E+00  1.86087085E+00  1.87134283E+00  1.88024401E+00
%FLAG DIHEDRAL_FORCE_CONSTANT                                                   
%FORMAT(5E16.8)                                                                 
  6.80000000E-01  2.00000000E-01  4.40000000E-01  4.03000000E+00  3.66000000E+00
  1.17400000E+01  1.10000000E-01  8.00000000E-02  2.17500000E+00  1.55555556E-01
  5.20000000E-01  1.30000000E-01  4.60000000E-01  4.00000000E-02  0.00000000E+00
  0.00000000E+00  2.62000000E-01  0.00000000E+00  1.50000000E-01  6.65000000E+00
  2.90000000E+00  0.00000000E+00  1.20000000E-01  1.10000000E+00  1.05000000E+01
%FLAG DIHEDRAL_PERIODICITY                                                      
%FORMAT(5E16.8)                                                                 
  1.00000000E+00  2.00000000E+00  3.00000000E+00  1.00000000E+00  2.00000000E+00
  1.00000000E+00  2.00000000E+00  3.00000000E+00  2.00000000E+00  3.00000000E+00
  3.00000000E+00  3.00000000E+00  1.00000000E+00  2.00000000E+00  3.00000000E+00
  2.00000000E+00  2.00000000E+00  3.00000000E+00  3.00000000E+00  2.00000000E+00
  2.00000000E+00  2.00000000E+00  3.00000000E+00  2.00000000E+00  2.00000000E+00
%FLAG DIHEDRAL_PHASE                                                            
%FORMAT(5E16.8)                                                                 
  0.00000000E+00  3.14159400E+00  3.14159400E+00  0.00000000E+00  3.14159400E+00
  0.00000000E+00  0.00000000E+00  3.14159400E+00  3.14159400E+00  0.00000000E+00
  0.00000000E+00  0.00000000E+00  3.14159400E+00  0.00000000E+00  0.00000000E+00
  0.00000000E+00  3.14159400E+00  3.14159400E+00  0.00000000E+00  3.14159400E+00
  0.00000000E+00  3.14159400E+00  0.00000000E+00  3.14159400E+00  3.14159400E+00
%FLAG SCEE_SCALE_FACTOR                                                         
%FORMAT(5E16.8)                                                                 
  1.20000000E+00  1.20000000E+00  1.20000000E+00  1.20000000E+00  1.20000000E+00
  1.20000000E+00  1.20000000E+00  1.20000000E+00  1.20000000E+00  1.20000000E+00
  1.20000000E+00  1.20000000E+00  1.20000000E+00  1.20000000E+00  1.20000000E+00
  1.20000000E+00  1.20000000E+00  1.20000000E+00  1.20000000E+00  1.20000000E+00
  1.20000000E+00  1.20000000E+00  1.20000000E+00  0.00000000E+00  0.00000000E+00
%FLAG SCNB_SCALE_FACTOR                                                         
%FORMAT(5E16.8)                                                                 
  2.00000000E+00  2.00000000E+00  2.00000000E+00  2.00000000E+00  2.00000000E+00
  2.00000000E+00  2.00000000E+00  2.00000000E+00  2.00000000E+00  2.00000000E+00
  2.00000000E+00  2.00000000E+00  2.00000000E+00  2.00000000E+00  2.00000000E+00
  2.00000000E+00  2.00000000E+00  2.00000000E+00  2.00000000E+00  2.00000000E+00
  2.00000000E+00  2.00000000E+00  2.00000000E+00  0.00000000E+00  0.00000000E+00
%FLAG SOLTY                                                                     
%FORMAT(5E16.8)                                                                 
  0.00000000E+00  0.00000000E+00  0.00000000E+00  0.00000000E+00  0.00000000E+00
  0.00000000E+00  0.00000000E+00  0.00000000E+00  0.00000000E+00
%FLAG LENNARD_JONES_ACOEF                                                       
%FORMAT(5E16.8)                                                                 
  3.76435470E+05  6.30925504E+05  1.02073671E+06  5.17507491E+05  8.43969952E+05
  6.96551276E+05  5.68021765E+04  1.00235148E+05  8.12662403E+04  7.94617769E+03
  5.27277400E+04  9.27554496E+04  7.52549148E+04  7.41026906E+03  6.90855956E+03
%FLAG LENNARD_JONES_BCOEF                                                       
%FORMAT(5E16.8)                                                                 
  4.69350655E+02  5.62969425E+02  6.63431737E+02  4.98871431E+02  5.90251928E+02
  5.24668528E+02  1.11953944E+02  1.37787728E+02  1.21392023E+02  2.57122925E+01
  1.01173582E+02  1.24325688E+02  1.09570372E+02  2.32899892E+01  2.10929191E+01
%FLAG BONDS_INC_HYDROGEN                                                        
%FORMAT(10I8)                                                                   
       6      63       4       9      66       4      12      69       6      21
      72       4      21      75       4      24      78       4      24      81
       4      27      84       4      27      87       4      30      90       6
      30      93       6      39      96       4      39      99       4      42
     102       6      42     105       6      45     108       4      45     111
       4      48     114      12      48     117      12      48     120      12
      51     123      12      51     126      12      51     129      12      54
     132       4      54     135       4      57     138      15
%FLAG BONDS_WITHOUT_HYDROGEN                                                    
%FORMAT(10I8)                                                                   
       0      36       1       3      60       1       6       9       2       6
      12       3       6      27       2       9      18       2       9      21
       2      12      15       5      12      30       5      15      24       3
      15      36       7      15      48       8      18      33       9      18
      45       2      18      51      10      21      24       2      27      39
       2      30      42       5      33      39       9      33      57      11
      36      42       7      45      54       2      54      60      13      57
      60      14
%FLAG ANGLES_INC_HYDROGEN                                                       
%FORMAT(10I8)                                                                   
       6       9      66       5       6      12      69       7       6      27
      84       5       6      27      87       5       9       6      63       5
       9      21      72       5       9      21      75       5      12       6
      63      11      12      30      90      15      12      30      93      15
      15      12      69      15      15      24      78      11      15      24
      81      11      15      48     114      17      15      48     117      17
      15      48     120      17      18       9      66       5      18      45
     108       5      18      45     111       5      18      51     123      20
      18      51     126      20      18      51     129      20      21       9
      66       5      21      24      78       5      21      24      81       5
      24      21      72       5      24      21      75       5      27       6
      63       5      27      39      96       5      27      39      99       5
      30      12      69      15      30      42     102      15      30      42
     105      15      33      39      96      24      33      39      99      24
      33      57     138      26      36      42     102      28      36      42
     105      28      39      27      84       5      39      27      87       5
      42      30      90      15      42      30      93      15      45      54
     132       5      45      54     135       5      54      45     108       5
      54      45     111       5      60      54     132      31      60      54
     135      31      60      57     138      32      72      21      75      33
      78      24      81      33      84      27      87      33      90      30
      93      34      96      39      99      33     102      42     105      34
     108      45     111      33     114      48     117      35     114      48
     120      35     117      48     120      35     123      51     126      35
     123      51     129      35     126      51     129      35     132      54
     135      33
%FLAG ANGLES_WITHOUT_HYDROGEN                                                   
%FORMAT(10I8)                                                                   
       0      36      15       1       0      36      42       1       3      60
      54       2       3      60      57       3       6       9      18       4
       6       9      21       4       6      12      15       6       6      12
      30       6       6      27      39       4       9       6      12       8
       9       6      27       4       9      18      33       9       9      18
      45       4       9      18      51      10       9      21      24       4
      12       6      27       8      12      15      24       6      12      15
      36      12      12      15      48      13      12      30      42      14
      15      12      30      14      15      24      21       8      15      36
      42      16      18       9      21       4      18      33      39      18
      18      33      57      19      18      45      54       4      24      15
      36      21      24      15      48      22      27      39      33       9
      30      42      36      12      33      18      45       9      33      18
      51      23      33      57      60      25      36      15      48      27
      39      33      57      19      45      18      51      10      45      54
      60      29      54      60      57      30
%FLAG DIHEDRALS_INC_HYDROGEN                                                    
%FORMAT(10I8)                                                                   
       0      36      42     102       4       0      36     -42     102       5
       0      36      42     105       4       0      36     -42     105       5
       3      60      54     132       4       3      60     -54     132       5
       3      60      54     135       4       3      60     -54     135       5
       3      60      57     138       9       6       9      21      72      12
       6       9      21      75      12       6      12      30      90      12
       6      12      30      93      12       6      27      39      96      12
       6      27      39      99      12       9       6      12      69      12
       9       6      27      84      12       9       6      27      87      12
       9      18      45     108      12       9      18      45     111      12
       9      18      51     123      12       9      18      51     126      12
       9      18      51     129      12       9      21      24      78      12
       9      21      24      81      12      12       6       9      66      12
      12       6      27      84      12      12       6      27      87      12
      12      15      24      78      12      12      15      24      81      12
      12      15      48     114      12      12      15      48     117      12
      12      15      48     120      12      12      30      42     102      12
      12      30      42     105      12      15      12       6      63      12
      15      12      30      90      12      15      12      30      93      12
      15      24      21      72      12      15      24      21      75      12
      15      36      42     102      18      15      36      42     105      18
      18       9       6      63      12      18       9      21      72      12
      18       9      21      75      12      18      33      39      96      19
      18      33      39      99      19      18      33      57     138      20
      18      45      54     132      12      18      45      54     135      12
      21       9       6      63      12      24      15      12      69      12
      24      15      48     114      12      24      15      48     117      12
      24      15      48     120      12      24      21       9      66      12
      27       6       9      66      12      27       6      12      69      12
      30      12       6      63      12      33      18       9      66      10
      33      18      45     108      10      33      18      45     111      10
      33      18      51     123      10      33      18      51     126      10
      33      18      51     129      10      33      39      27      84      10
      33      39      27      87      10      36      15      12      69      10
      36      15      24      78      10      36      15      24      81      10
      36      15      48     114      10      36      15      48     117      10
      36      15      48     120      10      36      42      30      90      10
      36      42      30      93      10      39      27       6      63      12
      39      33      57     138      20      42      30      12      69      12
      45      18       9      66      12      45      18      51     123      12
      45      18      51     126      12      45      18      51     129      12
      48      15      12      69      12      48      15      24      78      12
      48      15      24      81      12      51      18       9      66      12
      51      18      45     108      12      51      18      45     111      12
      54      60      57     138       9      57      33      39      96      16
      57      33      39      99      16      57      60      54     132      22
      57      60      54     135      22      60      54      45     108      10
      60      54      45     111      10      63       6       9      66      23
      63       6      12      69      23      63       6      27      84      23
      63       6      27      87      23      66       9      21      72      23
      66       9      21      75      23      69      12      30      90      23
      69      12      30      93      23      72      21      24      78      23
      72      21      24      81      23      75      21      24      78      23
      75      21      24      81      23      84      27      39      96      23
      84      27      39      99      23      87      27      39      96      23
      87      27      39      99      23      90      30      42     102      23
      90      30      42     105      23      93      30      42     102      23
      93      30      42     105      23     108      45      54     132      23
     108      45      54     135      23     111      45      54     132      23
     111      45      54     135      23      60      33     -57    -138      24
%FLAG DIHEDRALS_WITHOUT_HYDROGEN                                                
%FORMAT(10I8)                                                                   
       0      36      15      12       1       0      36     -15      12       2
       0      36     -15      12       3       0      36      15      24       1
       0      36     -15      24       2       0      36     -15      24       3
       0      36      15      48       1       0      36     -15      48       2
       0      36     -15      48       3       0      36      42      30       1
       0      36     -42      30       2       0      36     -42      30       3
       3      60      54      45       6       3      60     -54      45       7
       3      60     -54      45       8       3      60      57      33       9
       6       9      18      33      10       6       9      18      45      11
       6       9      18      51      11       6       9      21      24      11
       6      12     -15      24      11       6      12      15      36      13
       6      12     -15      36      14       6      12     -15      36      15
       6      12      15      48      11       6      12      30      42      11
       6      27     -39      33      10       9       6      12      15      11
       9       6      12      30      11       9       6      27      39      11
       9      18     -33      39      16       9      18      33      57      16
       9      18      45      54      11       9      21     -24      15      11
      12       6       9      18      11      12       6       9      21      11
      12       6      27      39      11      12      15     -24      21      11
      12      15     -36      42      17      12      30     -42      36      13
      12      30     -42      36      14      12      30     -42      36      15
      15      12       6      27      11      15      12     -30      42      11
      15      36     -42      30      17      18       9       6      27      11
      18       9      21      24      11      18      33     -39      27      16
      18      33      57      60      20      18      45     -54      60      13
      18      45     -54      60      14      18      45     -54      60      15
      21       9       6      27      11      21       9      18      33      10
      21       9      18      45      11      21       9      18      51      11
      21      24      15      36      13      21      24     -15      36      14
      21      24     -15      36      15      21      24      15      48      11
      24      15      12      30      11      24      15      36      42      17
      27       6      12      30      11      27      39      33      57      16
      30      12     -15      36      13      30      12     -15      36      14
      30      12     -15      36      15      30      12      15      48      11
      33      18      45      54      10      33      57     -60      54      21
      39      33      18      45      16      39      33      18      51      16
      39      33      57      60      20      42      36      15      48      17
      45      18      33      57      16      45      54     -60      57      22
      51      18      33      57      16      51      18      45      54      11
      18      39     -33     -57      24       0      36     -42     -15      25
      54      57     -60      -3      25
%FLAG EXCLUDED_ATOMS_LIST                                                       
%FORMAT(10I8)                                                                   
       5       6       9      11      13      15      17      35      36      12
      16      19      20      21      45      46      47       4       5       6
       7       8       9      10      11      12      13      14      15      16
      17      18      22      23      24      25      26      29      30      31
      32      33      34       5       6       7       8       9      10      11
      12      14      16      18      19      20      22      23      24      25
      26      27      28      29      30      37      38      42      43      44
       6       7       8       9      10      11      13      14      15      17
      22      23      24      27      28      29      30      31      32      35
      36      39      40      41       8       9      10      11      13      15
      17      22      24      25      26      27      28      31      32      35
      36      39      40      41       8       9      10      12      14      16
      18      19      20      21      22      23      25      26      33      34
      37      38      42      43      44      45      46      47       9      10
      12      13      16      17      18      22      23      25      26      27
      28      11      13      15      17      23      24      25      26      27
      28      39      40      41      11      12      14      20      22      23
      24      29      30      33      34      13      15      17      22      24
      31      32      35      36      14      16      18      19      20      21
      23      29      30      33      34      37      38      42      43      44
      47      15      17      24      27      28      31      32      35      36
      39      40      41      16      18      20      21      22      29      30
      33      34      47      17      24      31      32      35      36      18
      19      20      21      23      37      38      42      43      44      45
      46      24      27      28      39      40      41      19      20      23
      37      38      42      43      44      20      21      37      38      45
      46      47      21      33      34      45      46      47      37      38
      45      46      47      23      24      29      30      25      26      31
      32      26      27      28      27      28      28       0      30      33
      34      33      34      32      35      36      35      36      34       0
      36       0      38      45      46      45      46      40      41      41
       0      43      44      44       0      46       0       0
%FLAG HBOND_ACOEF                                                               
%FORMAT(5E16.8)                                                                 

%FLAG HBOND_BCOEF                                                               
%FORMAT(5E16.8)                                                                 

%FLAG HBCUT                                                                     
%FORMAT(5E16.8)                                                                 

%FLAG AMBER_ATOM_TYPE                                                           
%FORMAT(20a4)                                                                   
o   o   c6  c6  c5  c5  c6  c6  c6  c6  c5  c2  c   c6  c5  c6  c3  c3  c6  ce  
c   hc  hc  hc  hc  hc  hc  hc  hc  hc  hc  hc  hc  hc  hc  hc  hc  hc  hc  hc  
hc  hc  hc  hc  hc  hc  ha  
%FLAG TREE_CHAIN_CLASSIFICATION                                                 
%FORMAT(20a4)                                                                   
BLA BLA BLA BLA BLA BLA BLA BLA BLA BLA BLA BLA BLA BLA BLA BLA BLA BLA BLA BLA 
BLA BLA BLA BLA BLA BLA BLA BLA BLA BLA BLA BLA BLA BLA BLA BLA BLA BLA BLA BLA 
BLA BLA BLA BLA BLA BLA BLA 
%FLAG JOIN_ARRAY                                                                
%FORMAT(10I8)                                                                   
       0       0       0       0       0       0       0       0       0       0
       0       0       0       0       0       0       0       0       0       0
       0       0       0       0       0       0       0       0       0       0
       0       0       0       0       0       0       0       0       0       0
       0       0       0       0       0       0       0
%FLAG IROTAT                                                                    
%FORMAT(10I8)                                                                   
       0       0       0       0       0       0       0       0       0       0
       0       0       0       0       0       0       0       0       0       0
       0       0       0       0       0       0       0       0       0       0
       0       0       0       0       0       0       0       0       0       0
       0       0       0       0       0       0       0
%FLAG RADIUS_SET                                                                
%FORMAT(1a80)                                                                   
modified Bondi radii (mbondi)                                                   
%FLAG RADII                                                                     
%FORMAT(5E16.8)                                                                 
  1.50000000E+00  1.50000000E+00  1.50000000E+00  1.50000000E+00  1.70000000E+00
  1.70000000E+00  1.50000000E+00  1.50000000E+00  1.50000000E+00  1.50000000E+00
  1.70000000E+00  1.70000000E+00  1.70000000E+00  1.50000000E+00  1.70000000E+00
  1.50000000E+00  1.70000000E+00  1.70000000E+00  1.50000000E+00  1.70000000E+00
  1.70000000E+00  1.30000000E+00  1.30000000E+00  1.30000000E+00  1.30000000E+00
  1.30000000E+00  1.30000000E+00  1.30000000E+00  1.30000000E+00  1.30000000E+00
  1.30000000E+00  1.30000000E+00  1.30000000E+00  1.30000000E+00  1.30000000E+00
  1.30000000E+00  1.30000000E+00  1.30000000E+00  1.30000000E+00  1.30000000E+00
  1.30000000E+00  1.30000000E+00  1.30000000E+00  1.30000000E+00  1.30000000E+00
  1.30000000E+00  1.30000000E+00
%FLAG SCREEN                                                                    
%FORMAT(5E16.8)                                                                 
  8.50000000E-01  8.50000000E-01  8.00000000E-01  8.00000000E-01  7.20000000E-01
  7.20000000E-01  8.00000000E-01  8.00000000E-01  8.00000000E-01  8.00000000E-01
  7.20000000E-01  7.20000000E-01  7.20000000E-01  8.00000000E-01  7.20000000E-01
  8.00000000E-01  7.20000000E-01  7.20000000E-01  8.00000000E-01  7.20000000E-01
  7.20000000E-01  8.50000000E-01  8.50000000E-01  8.50000000E-01  8.50000000E-01
  8.50000000E-01  8.50000000E-01  8.50000000E-01  8.50000000E-01  8.50000000E-01
  8.50000000E-01  8.50000000E-01  8.50000000E-01  8.50000000E-01  8.50000000E-01
  8.50000000E-01  8.50000000E-01  8.50000000E-01  8.50000000E-01  8.50000000E-01
  8.50000000E-01  8.50000000E-01  8.50000000E-01  8.50000000E-01  8.50000000E-01
  8.50000000E-01  8.50000000E-01
%FLAG IPOL                                                                      
%FORMAT(1I8)                                                                    
       0
