; androstenedione_GMX.itp created by acpype (v: 2023.10.27) on Mon Feb  9 17:28:54 2026

[ atomtypes ]
;name   bond_type     mass     charge   ptype   sigma         epsilon       Amb
 o        o           0.00000  0.00000   A     3.04812e-01   6.12119e-01 ; 1.71  0.1463
 c6       c6          0.00000  0.00000   A     3.39771e-01   4.51035e-01 ; 1.91  0.1078
 c5       c5          0.00000  0.00000   A     3.39771e-01   4.51035e-01 ; 1.91  0.1078
 c2       c2          0.00000  0.00000   A     3.31521e-01   4.13379e-01 ; 1.86  0.0988
 c        c           0.00000  0.00000   A     3.31521e-01   4.13379e-01 ; 1.86  0.0988
 c3       c3          0.00000  0.00000   A     3.39771e-01   4.51035e-01 ; 1.91  0.1078
 ce       ce          0.00000  0.00000   A     3.31521e-01   4.13379e-01 ; 1.86  0.0988
 hc       hc          0.00000  0.00000   A     2.60018e-01   8.70272e-02 ; 1.46  0.0208
 ha       ha          0.00000  0.00000   A     2.62548e-01   6.73624e-02 ; 1.47  0.0161

[ moleculetype ]
;name            nrexcl
 androstenedione  3

[ atoms ]
;   nr  type  resi  res  atom  cgnr     charge      mass       ; qtot   bond_type
     1    o     1   UNL     O    1    -0.517100     16.00000 ; qtot -0.517
     2    o     1   UNL    O1    2    -0.534100     16.00000 ; qtot -1.051
     3   c6     1   UNL     C    3    -0.048700     12.01000 ; qtot -1.100
     4   c6     1   UNL    C1    4    -0.048700     12.01000 ; qtot -1.149
     5   c5     1   UNL    C2    5    -0.064700     12.01000 ; qtot -1.213
     6   c5     1   UNL    C3    6    -0.153000     12.01000 ; qtot -1.366
     7   c6     1   UNL    C4    7    -0.014800     12.01000 ; qtot -1.381
     8   c6     1   UNL    C5    8    -0.076400     12.01000 ; qtot -1.458
     9   c6     1   UNL    C6    9    -0.056400     12.01000 ; qtot -1.514
    10   c6     1   UNL    C7   10    -0.072400     12.01000 ; qtot -1.586
    11   c5     1   UNL    C8   11    -0.072400     12.01000 ; qtot -1.659
    12   c2     1   UNL    C9   12    -0.030400     12.01000 ; qtot -1.689
    13    c     1   UNL   C10   13     0.579100     12.01000 ; qtot -1.110
    14   c6     1   UNL   C11   14    -0.054200     12.01000 ; qtot -1.164
    15   c5     1   UNL   C12   15    -0.188400     12.01000 ; qtot -1.353
    16   c6     1   UNL   C13   16    -0.070400     12.01000 ; qtot -1.423
    17   c3     1   UNL   C14   17    -0.083100     12.01000 ; qtot -1.506
    18   c3     1   UNL   C15   18    -0.086100     12.01000 ; qtot -1.592
    19   c6     1   UNL   C16   19    -0.182400     12.01000 ; qtot -1.775
    20   ce     1   UNL   C17   20    -0.263200     12.01000 ; qtot -2.038
    21    c     1   UNL   C18   21     0.569300     12.01000 ; qtot -1.469
    22   hc     1   UNL     H   22     0.057700      1.00800 ; qtot -1.411
    23   hc     1   UNL    H1   23     0.052700      1.00800 ; qtot -1.358
    24   hc     1   UNL    H2   24     0.053700      1.00800 ; qtot -1.304
    25   hc     1   UNL    H3   25     0.044700      1.00800 ; qtot -1.260
    26   hc     1   UNL    H4   26     0.044700      1.00800 ; qtot -1.215
    27   hc     1   UNL    H5   27     0.053200      1.00800 ; qtot -1.162
    28   hc     1   UNL    H6   28     0.053200      1.00800 ; qtot -1.109
    29   hc     1   UNL    H7   29     0.047700      1.00800 ; qtot -1.061
    30   hc     1   UNL    H8   30     0.047700      1.00800 ; qtot -1.013
    31   hc     1   UNL    H9   31     0.050200      1.00800 ; qtot -0.963
    32   hc     1   UNL   H10   32     0.050200      1.00800 ; qtot -0.913
    33   hc     1   UNL   H11   33     0.056700      1.00800 ; qtot -0.856
    34   hc     1   UNL   H12   34     0.056700      1.00800 ; qtot -0.799
    35   hc     1   UNL   H13   35     0.075700      1.00800 ; qtot -0.724
    36   hc     1   UNL   H14   36     0.075700      1.00800 ; qtot -0.648
    37   hc     1   UNL   H15   37     0.051200      1.00800 ; qtot -0.597
    38   hc     1   UNL   H16   38     0.051200      1.00800 ; qtot -0.546
    39   hc     1   UNL   H17   39     0.043700      1.00800 ; qtot -0.502
    40   hc     1   UNL   H18   40     0.043700      1.00800 ; qtot -0.458
    41   hc     1   UNL   H19   41     0.043700      1.00800 ; qtot -0.415
    42   hc     1   UNL   H20   42     0.040700      1.00800 ; qtot -0.374
    43   hc     1   UNL   H21   43     0.040700      1.00800 ; qtot -0.333
    44   hc     1   UNL   H22   44     0.040700      1.00800 ; qtot -0.292
    45   hc     1   UNL   H23   45     0.072200      1.00800 ; qtot -0.220
    46   hc     1   UNL   H24   46     0.072200      1.00800 ; qtot -0.148
    47   ha     1   UNL   H25   47     0.148000      1.00800 ; qtot -0.000

[ bonds ]
;   ai     aj funct   r             k
     1     13   1    1.2190e-01    4.9421e+05 ;      O - C10   
     2     21   1    1.2190e-01    4.9421e+05 ;     O1 - C18   
     3      4   1    1.5384e-01    1.8979e+05 ;      C - C1    
     3      5   1    1.5389e-01    1.8951e+05 ;      C - C2    
     3     10   1    1.5384e-01    1.8979e+05 ;      C - C7    
     3     22   1    1.0979e-01    2.8681e+05 ;      C - H     
     4      7   1    1.5384e-01    1.8979e+05 ;     C1 - C4    
     4      8   1    1.5384e-01    1.8979e+05 ;     C1 - C5    
     4     23   1    1.0979e-01    2.8681e+05 ;     C1 - H1    
     5      6   1    1.5483e-01    1.8418e+05 ;     C2 - C3    
     5     11   1    1.5483e-01    1.8418e+05 ;     C2 - C8    
     5     24   1    1.0954e-01    2.8989e+05 ;     C2 - H2    
     6      9   1    1.5389e-01    1.8951e+05 ;     C3 - C6    
     6     13   1    1.5346e-01    1.9200e+05 ;     C3 - C10   
     6     17   1    1.5372e-01    1.9049e+05 ;     C3 - C14   
     7     12   1    1.5133e-01    2.0498e+05 ;     C4 - C9    
     7     16   1    1.5384e-01    1.8979e+05 ;     C4 - C13   
     7     18   1    1.5428e-01    1.8728e+05 ;     C4 - C15   
     8      9   1    1.5384e-01    1.8979e+05 ;     C5 - C6    
     8     25   1    1.0979e-01    2.8681e+05 ;     C5 - H3    
     8     26   1    1.0979e-01    2.8681e+05 ;     C5 - H4    
     9     27   1    1.0979e-01    2.8681e+05 ;     C6 - H5    
     9     28   1    1.0979e-01    2.8681e+05 ;     C6 - H6    
    10     14   1    1.5384e-01    1.8979e+05 ;     C7 - C11   
    10     29   1    1.0979e-01    2.8681e+05 ;     C7 - H7    
    10     30   1    1.0979e-01    2.8681e+05 ;     C7 - H8    
    11     15   1    1.5483e-01    1.8418e+05 ;     C8 - C12   
    11     31   1    1.0954e-01    2.8989e+05 ;     C8 - H9    
    11     32   1    1.0954e-01    2.8989e+05 ;     C8 - H10   
    12     14   1    1.5133e-01    2.0498e+05 ;     C9 - C11   
    12     20   1    1.3457e-01    3.5505e+05 ;     C9 - C17   
    13     15   1    1.5346e-01    1.9200e+05 ;    C10 - C12   
    14     33   1    1.0979e-01    2.8681e+05 ;    C11 - H11   
    14     34   1    1.0979e-01    2.8681e+05 ;    C11 - H12   
    15     35   1    1.0954e-01    2.8989e+05 ;    C12 - H13   
    15     36   1    1.0954e-01    2.8989e+05 ;    C12 - H14   
    16     19   1    1.5384e-01    1.8979e+05 ;    C13 - C16   
    16     37   1    1.0979e-01    2.8681e+05 ;    C13 - H15   
    16     38   1    1.0979e-01    2.8681e+05 ;    C13 - H16   
    17     39   1    1.0962e-01    2.8891e+05 ;    C14 - H17   
    17     40   1    1.0962e-01    2.8891e+05 ;    C14 - H18   
    17     41   1    1.0962e-01    2.8891e+05 ;    C14 - H19   
    18     42   1    1.0962e-01    2.8891e+05 ;    C15 - H20   
    18     43   1    1.0962e-01    2.8891e+05 ;    C15 - H21   
    18     44   1    1.0962e-01    2.8891e+05 ;    C15 - H22   
    19     21   1    1.5287e-01    1.9550e+05 ;    C16 - C18   
    19     45   1    1.0979e-01    2.8681e+05 ;    C16 - H23   
    19     46   1    1.0979e-01    2.8681e+05 ;    C16 - H24   
    20     21   1    1.4848e-01    2.2406e+05 ;    C17 - C18   
    20     47   1    1.0880e-01    2.9923e+05 ;    C17 - H25   

[ pairs ]
;   ai     aj    funct
     1      5      1 ;      O - C2    
     1      9      1 ;      O - C6    
     1     11      1 ;      O - C8    
     1     17      1 ;      O - C14   
     1     35      1 ;      O - H13   
     1     36      1 ;      O - H14   
     2     12      1 ;     O1 - C9    
     2     16      1 ;     O1 - C13   
     2     45      1 ;     O1 - H23   
     2     46      1 ;     O1 - H24   
     2     47      1 ;     O1 - H25   
     3      9      1 ;      C - C6    
     3     12      1 ;      C - C9    
     3     13      1 ;      C - C10   
     3     15      1 ;      C - C12   
     3     16      1 ;      C - C13   
     3     17      1 ;      C - C14   
     3     18      1 ;      C - C15   
     3     25      1 ;      C - H3    
     3     26      1 ;      C - H4    
     3     31      1 ;      C - H9    
     3     32      1 ;      C - H10   
     3     33      1 ;      C - H11   
     3     34      1 ;      C - H12   
     4      6      1 ;     C1 - C3    
     4     11      1 ;     C1 - C8    
     4     14      1 ;     C1 - C11   
     4     19      1 ;     C1 - C16   
     4     20      1 ;     C1 - C17   
     4     24      1 ;     C1 - H2    
     4     27      1 ;     C1 - H5    
     4     28      1 ;     C1 - H6    
     4     29      1 ;     C1 - H7    
     4     30      1 ;     C1 - H8    
     4     37      1 ;     C1 - H15   
     4     38      1 ;     C1 - H16   
     4     42      1 ;     C1 - H20   
     4     43      1 ;     C1 - H21   
     4     44      1 ;     C1 - H22   
     5      7      1 ;     C2 - C4    
     5      8      1 ;     C2 - C5    
     5     14      1 ;     C2 - C11   
     5     23      1 ;     C2 - H1    
     5     27      1 ;     C2 - H5    
     5     28      1 ;     C2 - H6    
     5     29      1 ;     C2 - H7    
     5     30      1 ;     C2 - H8    
     5     35      1 ;     C2 - H13   
     5     36      1 ;     C2 - H14   
     5     39      1 ;     C2 - H17   
     5     40      1 ;     C2 - H18   
     5     41      1 ;     C2 - H19   
     6     10      1 ;     C3 - C7    
     6     22      1 ;     C3 - H     
     6     25      1 ;     C3 - H3    
     6     26      1 ;     C3 - H4    
     6     31      1 ;     C3 - H9    
     6     32      1 ;     C3 - H10   
     6     35      1 ;     C3 - H13   
     6     36      1 ;     C3 - H14   
     7      9      1 ;     C4 - C6    
     7     10      1 ;     C4 - C7    
     7     21      1 ;     C4 - C18   
     7     22      1 ;     C4 - H     
     7     25      1 ;     C4 - H3    
     7     26      1 ;     C4 - H4    
     7     33      1 ;     C4 - H11   
     7     34      1 ;     C4 - H12   
     7     45      1 ;     C4 - H23   
     7     46      1 ;     C4 - H24   
     7     47      1 ;     C4 - H25   
     8     10      1 ;     C5 - C7    
     8     12      1 ;     C5 - C9    
     8     13      1 ;     C5 - C10   
     8     16      1 ;     C5 - C13   
     8     17      1 ;     C5 - C14   
     8     18      1 ;     C5 - C15   
     8     22      1 ;     C5 - H     
     9     11      1 ;     C6 - C8    
     9     15      1 ;     C6 - C12   
     9     23      1 ;     C6 - H1    
     9     24      1 ;     C6 - H2    
     9     39      1 ;     C6 - H17   
     9     40      1 ;     C6 - H18   
     9     41      1 ;     C6 - H19   
    10     11      1 ;     C7 - C8    
    10     20      1 ;     C7 - C17   
    10     23      1 ;     C7 - H1    
    10     24      1 ;     C7 - H2    
    11     17      1 ;     C8 - C14   
    11     22      1 ;     C8 - H     
    12     19      1 ;     C9 - C16   
    12     23      1 ;     C9 - H1    
    12     29      1 ;     C9 - H7    
    12     30      1 ;     C9 - H8    
    12     37      1 ;     C9 - H15   
    12     38      1 ;     C9 - H16   
    12     42      1 ;     C9 - H20   
    12     43      1 ;     C9 - H21   
    12     44      1 ;     C9 - H22   
    13     24      1 ;    C10 - H2    
    13     27      1 ;    C10 - H5    
    13     28      1 ;    C10 - H6    
    13     31      1 ;    C10 - H9    
    13     32      1 ;    C10 - H10   
    13     39      1 ;    C10 - H17   
    13     40      1 ;    C10 - H18   
    13     41      1 ;    C10 - H19   
    14     16      1 ;    C11 - C13   
    14     18      1 ;    C11 - C15   
    14     21      1 ;    C11 - C18   
    14     22      1 ;    C11 - H     
    14     47      1 ;    C11 - H25   
    15     17      1 ;    C12 - C14   
    15     24      1 ;    C12 - H2    
    16     20      1 ;    C13 - C17   
    16     23      1 ;    C13 - H1    
    16     42      1 ;    C13 - H20   
    16     43      1 ;    C13 - H21   
    16     44      1 ;    C13 - H22   
    17     24      1 ;    C14 - H2    
    17     27      1 ;    C14 - H5    
    17     28      1 ;    C14 - H6    
    18     19      1 ;    C15 - C16   
    18     20      1 ;    C15 - C17   
    18     23      1 ;    C15 - H1    
    18     37      1 ;    C15 - H15   
    18     38      1 ;    C15 - H16   
    19     47      1 ;    C16 - H25   
    20     33      1 ;    C17 - H11   
    20     34      1 ;    C17 - H12   
    20     45      1 ;    C17 - H23   
    20     46      1 ;    C17 - H24   
    21     37      1 ;    C18 - H15   
    21     38      1 ;    C18 - H16   
    22     23      1 ;      H - H1    
    22     24      1 ;      H - H2    
    22     29      1 ;      H - H7    
    22     30      1 ;      H - H8    
    23     25      1 ;     H1 - H3    
    23     26      1 ;     H1 - H4    
    24     31      1 ;     H2 - H9    
    24     32      1 ;     H2 - H10   
    25     27      1 ;     H3 - H5    
    25     28      1 ;     H3 - H6    
    26     27      1 ;     H4 - H5    
    26     28      1 ;     H4 - H6    
    29     33      1 ;     H7 - H11   
    29     34      1 ;     H7 - H12   
    30     33      1 ;     H8 - H11   
    30     34      1 ;     H8 - H12   
    31     35      1 ;     H9 - H13   
    31     36      1 ;     H9 - H14   
    32     35      1 ;    H10 - H13   
    32     36      1 ;    H10 - H14   
    37     45      1 ;    H15 - H23   
    37     46      1 ;    H15 - H24   
    38     45      1 ;    H16 - H23   
    38     46      1 ;    H16 - H24   

[ angles ]
;   ai     aj     ak    funct   theta         cth
     1     13      6      1    1.2567e+02    6.3019e+02 ;      O - C10    - C3    
     1     13     15      1    1.2567e+02    6.3019e+02 ;      O - C10    - C12   
     2     21     19      1    1.2234e+02    6.4065e+02 ;     O1 - C18    - C16   
     2     21     20      1    1.2324e+02    6.5262e+02 ;     O1 - C18    - C17   
     3      4      7      1    1.1106e+02    5.0359e+02 ;      C - C1     - C4    
     3      4      8      1    1.1106e+02    5.0359e+02 ;      C - C1     - C5    
     3      4     23      1    1.0945e+02    3.6175e+02 ;      C - C1     - H1    
     3      5      6      1    1.1375e+02    4.9589e+02 ;      C - C2     - C3    
     3      5     11      1    1.1375e+02    4.9589e+02 ;      C - C2     - C8    
     3      5     24      1    1.0642e+02    3.6685e+02 ;      C - C2     - H2    
     3     10     14      1    1.1106e+02    5.0359e+02 ;      C - C7     - C11   
     3     10     29      1    1.0945e+02    3.6175e+02 ;      C - C7     - H7    
     3     10     30      1    1.0945e+02    3.6175e+02 ;      C - C7     - H8    
     4      3      5      1    1.1104e+02    5.0350e+02 ;     C1 - C      - C2    
     4      3     10      1    1.1106e+02    5.0359e+02 ;     C1 - C      - C7    
     4      3     22      1    1.0945e+02    3.6175e+02 ;     C1 - C      - H     
     4      7     12      1    1.1141e+02    5.0685e+02 ;     C1 - C4     - C9    
     4      7     16      1    1.1106e+02    5.0359e+02 ;     C1 - C4     - C13   
     4      7     18      1    1.1143e+02    5.0200e+02 ;     C1 - C4     - C15   
     4      8      9      1    1.1106e+02    5.0359e+02 ;     C1 - C5     - C6    
     4      8     25      1    1.0945e+02    3.6175e+02 ;     C1 - C5     - H3    
     4      8     26      1    1.0945e+02    3.6175e+02 ;     C1 - C5     - H4    
     5      3     10      1    1.1104e+02    5.0350e+02 ;     C2 - C      - C7    
     5      3     22      1    1.0934e+02    3.6183e+02 ;     C2 - C      - H     
     5      6      9      1    1.1375e+02    4.9589e+02 ;     C2 - C3     - C6    
     5      6     13      1    1.0786e+02    5.0995e+02 ;     C2 - C3     - C10   
     5      6     17      1    1.1360e+02    4.9647e+02 ;     C2 - C3     - C14   
     5     11     15      1    1.0383e+02    5.1748e+02 ;     C2 - C8     - C12   
     5     11     31      1    1.1117e+02    3.5690e+02 ;     C2 - C8     - H9    
     5     11     32      1    1.1117e+02    3.5690e+02 ;     C2 - C8     - H10   
     6      5     11      1    1.0383e+02    5.1748e+02 ;     C3 - C2     - C8    
     6      5     24      1    1.1117e+02    3.5690e+02 ;     C3 - C2     - H2    
     6      9      8      1    1.1104e+02    5.0350e+02 ;     C3 - C6     - C5    
     6      9     27      1    1.0934e+02    3.6183e+02 ;     C3 - C6     - H5    
     6      9     28      1    1.0934e+02    3.6183e+02 ;     C3 - C6     - H6    
     6     13     15      1    1.0837e+02    5.1103e+02 ;     C3 - C10    - C12   
     6     17     39      1    1.1053e+02    3.6033e+02 ;     C3 - C14    - H17   
     6     17     40      1    1.1053e+02    3.6033e+02 ;     C3 - C14    - H18   
     6     17     41      1    1.1053e+02    3.6033e+02 ;     C3 - C14    - H19   
     7      4      8      1    1.1106e+02    5.0359e+02 ;     C4 - C1     - C5    
     7      4     23      1    1.0945e+02    3.6175e+02 ;     C4 - C1     - H1    
     7     12     14      1    1.1596e+02    5.0099e+02 ;     C4 - C9     - C11   
     7     12     20      1    1.2265e+02    5.1212e+02 ;     C4 - C9     - C17   
     7     16     19      1    1.1106e+02    5.0359e+02 ;     C4 - C13    - C16   
     7     16     37      1    1.0945e+02    3.6175e+02 ;     C4 - C13    - H15   
     7     16     38      1    1.0945e+02    3.6175e+02 ;     C4 - C13    - H16   
     7     18     42      1    1.1063e+02    3.5890e+02 ;     C4 - C15    - H20   
     7     18     43      1    1.1063e+02    3.5890e+02 ;     C4 - C15    - H21   
     7     18     44      1    1.1063e+02    3.5890e+02 ;     C4 - C15    - H22   
     8      4     23      1    1.0945e+02    3.6175e+02 ;     C5 - C1     - H1    
     8      9     27      1    1.0945e+02    3.6175e+02 ;     C5 - C6     - H5    
     8      9     28      1    1.0945e+02    3.6175e+02 ;     C5 - C6     - H6    
     9      6     13      1    1.1288e+02    4.9999e+02 ;     C6 - C3     - C10   
     9      6     17      1    1.1056e+02    5.0484e+02 ;     C6 - C3     - C14   
     9      8     25      1    1.0945e+02    3.6175e+02 ;     C6 - C5     - H3    
     9      8     26      1    1.0945e+02    3.6175e+02 ;     C6 - C5     - H4    
    10      3     22      1    1.0945e+02    3.6175e+02 ;     C7 - C      - H     
    10     14     12      1    1.1141e+02    5.0685e+02 ;     C7 - C11    - C9    
    10     14     33      1    1.0945e+02    3.6175e+02 ;     C7 - C11    - H11   
    10     14     34      1    1.0945e+02    3.6175e+02 ;     C7 - C11    - H12   
    11      5     24      1    1.1117e+02    3.5690e+02 ;     C8 - C2     - H2    
    11     15     13      1    1.0786e+02    5.0995e+02 ;     C8 - C12    - C10   
    11     15     35      1    1.1117e+02    3.5690e+02 ;     C8 - C12    - H13   
    11     15     36      1    1.1117e+02    3.5690e+02 ;     C8 - C12    - H14   
    12      7     16      1    1.1141e+02    5.0685e+02 ;     C9 - C4     - C13   
    12      7     18      1    1.0977e+02    5.0986e+02 ;     C9 - C4     - C15   
    12     14     33      1    1.0931e+02    3.6736e+02 ;     C9 - C11    - H11   
    12     14     34      1    1.0931e+02    3.6736e+02 ;     C9 - C11    - H12   
    12     20     21      1    1.2200e+02    5.1974e+02 ;     C9 - C17    - C18   
    12     20     47      1    1.2000e+02    3.8694e+02 ;     C9 - C17    - H25   
    13      6     17      1    1.1065e+02    5.0534e+02 ;    C10 - C3     - C14   
    13     15     35      1    1.0864e+02    3.6401e+02 ;    C10 - C12    - H13   
    13     15     36      1    1.0864e+02    3.6401e+02 ;    C10 - C12    - H14   
    14     10     29      1    1.0945e+02    3.6175e+02 ;    C11 - C7     - H7    
    14     10     30      1    1.0945e+02    3.6175e+02 ;    C11 - C7     - H8    
    14     12     20      1    1.2265e+02    5.1212e+02 ;    C11 - C9     - C17   
    15     11     31      1    1.1117e+02    3.5690e+02 ;    C12 - C8     - H9    
    15     11     32      1    1.1117e+02    3.5690e+02 ;    C12 - C8     - H10   
    16      7     18      1    1.1143e+02    5.0200e+02 ;    C13 - C4     - C15   
    16     19     21      1    1.1143e+02    5.0434e+02 ;    C13 - C16    - C18   
    16     19     45      1    1.0945e+02    3.6175e+02 ;    C13 - C16    - H23   
    16     19     46      1    1.0945e+02    3.6175e+02 ;    C13 - C16    - H24   
    19     16     37      1    1.0945e+02    3.6175e+02 ;    C16 - C13    - H15   
    19     16     38      1    1.0945e+02    3.6175e+02 ;    C16 - C13    - H16   
    19     21     20      1    1.1615e+02    5.0258e+02 ;    C16 - C18    - C17   
    21     19     45      1    1.0767e+02    3.6685e+02 ;    C18 - C16    - H23   
    21     19     46      1    1.0767e+02    3.6685e+02 ;    C18 - C16    - H24   
    21     20     47      1    1.1641e+02    3.6242e+02 ;    C18 - C17    - H25   
    25      8     26      1    1.0662e+02    3.0066e+02 ;     H3 - C5     - H4    
    27      9     28      1    1.0662e+02    3.0066e+02 ;     H5 - C6     - H6    
    29     10     30      1    1.0662e+02    3.0066e+02 ;     H7 - C7     - H8    
    31     11     32      1    1.0722e+02    3.0049e+02 ;     H9 - C8     - H10   
    33     14     34      1    1.0662e+02    3.0066e+02 ;    H11 - C11    - H12   
    35     15     36      1    1.0722e+02    3.0049e+02 ;    H13 - C12    - H14   
    37     16     38      1    1.0662e+02    3.0066e+02 ;    H15 - C13    - H16   
    39     17     40      1    1.0773e+02    2.9957e+02 ;    H17 - C14    - H18   
    39     17     41      1    1.0773e+02    2.9957e+02 ;    H17 - C14    - H19   
    40     17     41      1    1.0773e+02    2.9957e+02 ;    H18 - C14    - H19   
    42     18     43      1    1.0773e+02    2.9957e+02 ;    H20 - C15    - H21   
    42     18     44      1    1.0773e+02    2.9957e+02 ;    H20 - C15    - H22   
    43     18     44      1    1.0773e+02    2.9957e+02 ;    H21 - C15    - H22   
    45     19     46      1    1.0662e+02    3.0066e+02 ;    H23 - C16    - H24   

[ dihedrals ] ; propers
; for gromacs 4.5 or higher, using funct 9
;    i      j      k      l   func   phase     kd      pn
     1     13      6      5      9     0.00   2.84512   1 ;      O-   C10-    C3-    C2
     1     13      6      5      9   180.00   0.83680   2 ;      O-   C10-    C3-    C2
     1     13      6      5      9   180.00   1.84096   3 ;      O-   C10-    C3-    C2
     1     13      6      9      9     0.00   2.84512   1 ;      O-   C10-    C3-    C6
     1     13      6      9      9   180.00   0.83680   2 ;      O-   C10-    C3-    C6
     1     13      6      9      9   180.00   1.84096   3 ;      O-   C10-    C3-    C6
     1     13      6     17      9     0.00   2.84512   1 ;      O-   C10-    C3-   C14
     1     13      6     17      9   180.00   0.83680   2 ;      O-   C10-    C3-   C14
     1     13      6     17      9   180.00   1.84096   3 ;      O-   C10-    C3-   C14
     1     13     15     11      9     0.00   2.84512   1 ;      O-   C10-   C12-    C8
     1     13     15     11      9   180.00   0.83680   2 ;      O-   C10-   C12-    C8
     1     13     15     11      9   180.00   1.84096   3 ;      O-   C10-   C12-    C8
     1     13     15     35      9     0.00  16.86152   1 ;      O-   C10-   C12-   H13
     1     13     15     35      9   180.00  15.31344   2 ;      O-   C10-   C12-   H13
     1     13     15     36      9     0.00  16.86152   1 ;      O-   C10-   C12-   H14
     1     13     15     36      9   180.00  15.31344   2 ;      O-   C10-   C12-   H14
     2     21     19     16      9     0.00   0.46024   2 ;     O1-   C18-   C16-   C13
     2     21     19     16      9     0.00  49.12016   1 ;     O1-   C18-   C16-   C13
     2     21     19     16      9   180.00   0.33472   3 ;     O1-   C18-   C16-   C13
     2     21     19     45      9     0.00  16.86152   1 ;     O1-   C18-   C16-   H23
     2     21     19     45      9   180.00  15.31344   2 ;     O1-   C18-   C16-   H23
     2     21     19     46      9     0.00  16.86152   1 ;     O1-   C18-   C16-   H24
     2     21     19     46      9   180.00  15.31344   2 ;     O1-   C18-   C16-   H24
     2     21     20     12      9   180.00   9.10020   2 ;     O1-   C18-   C17-    C9
     2     21     20     47      9   180.00   9.10020   2 ;     O1-   C18-   C17-   H25
     3      4      7     12      9     0.00   0.65084   3 ;      C-    C1-    C4-    C9
     3      4      7     16      9     0.00   2.17568   3 ;      C-    C1-    C4-   C13
     3      4      7     18      9     0.00   2.17568   3 ;      C-    C1-    C4-   C15
     3      4      8      9      9     0.00   2.17568   3 ;      C-    C1-    C5-    C6
     3      4      8     25      9     0.00   0.54392   3 ;      C-    C1-    C5-    H3
     3      4      8     26      9     0.00   0.54392   3 ;      C-    C1-    C5-    H4
     3      5      6      9      9     0.00   2.17568   3 ;      C-    C2-    C3-    C6
     3      5      6     13      9     0.00   0.00000   0 ;      C-    C2-    C3-   C10
     3      5      6     13      9     0.00   0.16736   2 ;      C-    C2-    C3-   C10
     3      5      6     13      9   180.00   1.92464   1 ;      C-    C2-    C3-   C10
     3      5      6     17      9     0.00   2.17568   3 ;      C-    C2-    C3-   C14
     3      5     11     15      9     0.00   2.17568   3 ;      C-    C2-    C8-   C12
     3      5     11     31      9     0.00   0.54392   3 ;      C-    C2-    C8-    H9
     3      5     11     32      9     0.00   0.54392   3 ;      C-    C2-    C8-   H10
     3     10     14     12      9     0.00   0.65084   3 ;      C-    C7-   C11-    C9
     3     10     14     33      9     0.00   0.54392   3 ;      C-    C7-   C11-   H11
     3     10     14     34      9     0.00   0.54392   3 ;      C-    C7-   C11-   H12
     4      3      5      6      9     0.00   2.17568   3 ;     C1-     C-    C2-    C3
     4      3      5     11      9     0.00   2.17568   3 ;     C1-     C-    C2-    C8
     4      3      5     24      9     0.00   0.54392   3 ;     C1-     C-    C2-    H2
     4      3     10     14      9     0.00   2.17568   3 ;     C1-     C-    C7-   C11
     4      3     10     29      9     0.00   0.54392   3 ;     C1-     C-    C7-    H7
     4      3     10     30      9     0.00   0.54392   3 ;     C1-     C-    C7-    H8
     4      7     12     14      9     0.00   0.00000   0 ;     C1-    C4-    C9-   C11
     4      7     12     20      9     0.00   0.00000   0 ;     C1-    C4-    C9-   C17
     4      7     16     19      9     0.00   2.17568   3 ;     C1-    C4-   C13-   C16
     4      7     16     37      9     0.00   0.54392   3 ;     C1-    C4-   C13-   H15
     4      7     16     38      9     0.00   0.54392   3 ;     C1-    C4-   C13-   H16
     4      7     18     42      9     0.00   0.54392   3 ;     C1-    C4-   C15-   H20
     4      7     18     43      9     0.00   0.54392   3 ;     C1-    C4-   C15-   H21
     4      7     18     44      9     0.00   0.54392   3 ;     C1-    C4-   C15-   H22
     4      8      9      6      9     0.00   2.17568   3 ;     C1-    C5-    C6-    C3
     4      8      9     27      9     0.00   0.54392   3 ;     C1-    C5-    C6-    H5
     4      8      9     28      9     0.00   0.54392   3 ;     C1-    C5-    C6-    H6
     5      3      4      7      9     0.00   2.17568   3 ;     C2-     C-    C1-    C4
     5      3      4      8      9     0.00   2.17568   3 ;     C2-     C-    C1-    C5
     5      3      4     23      9     0.00   0.54392   3 ;     C2-     C-    C1-    H1
     5      3     10     14      9     0.00   2.17568   3 ;     C2-     C-    C7-   C11
     5      3     10     29      9     0.00   0.54392   3 ;     C2-     C-    C7-    H7
     5      3     10     30      9     0.00   0.54392   3 ;     C2-     C-    C7-    H8
     5      6      9      8      9     0.00   2.17568   3 ;     C2-    C3-    C6-    C5
     5      6      9     27      9     0.00   0.54392   3 ;     C2-    C3-    C6-    H5
     5      6      9     28      9     0.00   0.54392   3 ;     C2-    C3-    C6-    H6
     5      6     13     15      9   180.00   1.09621   2 ;     C2-    C3-   C10-   C12
     5      6     17     39      9     0.00   0.54392   3 ;     C2-    C3-   C14-   H17
     5      6     17     40      9     0.00   0.54392   3 ;     C2-    C3-   C14-   H18
     5      6     17     41      9     0.00   0.54392   3 ;     C2-    C3-   C14-   H19
     5     11     15     13      9     0.00   0.00000   0 ;     C2-    C8-   C12-   C10
     5     11     15     13      9     0.00   0.16736   2 ;     C2-    C8-   C12-   C10
     5     11     15     13      9   180.00   1.92464   1 ;     C2-    C8-   C12-   C10
     5     11     15     35      9     0.00   0.54392   3 ;     C2-    C8-   C12-   H13
     5     11     15     36      9     0.00   0.54392   3 ;     C2-    C8-   C12-   H14
     6      5      3     10      9     0.00   2.17568   3 ;     C3-    C2-     C-    C7
     6      5      3     22      9     0.00   0.54392   3 ;     C3-    C2-     C-     H
     6      5     11     15      9     0.00   2.17568   3 ;     C3-    C2-    C8-   C12
     6      5     11     31      9     0.00   0.54392   3 ;     C3-    C2-    C8-    H9
     6      5     11     32      9     0.00   0.54392   3 ;     C3-    C2-    C8-   H10
     6      9      8     25      9     0.00   0.54392   3 ;     C3-    C6-    C5-    H3
     6      9      8     26      9     0.00   0.54392   3 ;     C3-    C6-    C5-    H4
     6     13     15     11      9   180.00   1.09621   2 ;     C3-   C10-   C12-    C8
     6     13     15     35      9   180.00   0.00000   3 ;     C3-   C10-   C12-   H13
     6     13     15     36      9   180.00   0.00000   3 ;     C3-   C10-   C12-   H14
     7      4      3     10      9     0.00   2.17568   3 ;     C4-    C1-     C-    C7
     7      4      3     22      9     0.00   0.54392   3 ;     C4-    C1-     C-     H
     7      4      8      9      9     0.00   2.17568   3 ;     C4-    C1-    C5-    C6
     7      4      8     25      9     0.00   0.54392   3 ;     C4-    C1-    C5-    H3
     7      4      8     26      9     0.00   0.54392   3 ;     C4-    C1-    C5-    H4
     7     12     14     10      9     0.00   0.00000   0 ;     C4-    C9-   C11-    C7
     7     12     14     33      9     0.00   0.62760   3 ;     C4-    C9-   C11-   H11
     7     12     14     34      9     0.00   0.62760   3 ;     C4-    C9-   C11-   H12
     7     12     20     21      9   180.00  27.82360   2 ;     C4-    C9-   C17-   C18
     7     12     20     47      9   180.00  27.82360   2 ;     C4-    C9-   C17-   H25
     7     16     19     21      9     0.00   0.00000   0 ;     C4-   C13-   C16-   C18
     7     16     19     21      9     0.00   0.16736   2 ;     C4-   C13-   C16-   C18
     7     16     19     21      9   180.00   1.92464   1 ;     C4-   C13-   C16-   C18
     7     16     19     45      9     0.00   0.54392   3 ;     C4-   C13-   C16-   H23
     7     16     19     46      9     0.00   0.54392   3 ;     C4-   C13-   C16-   H24
     8      4      3     10      9     0.00   2.17568   3 ;     C5-    C1-     C-    C7
     8      4      3     22      9     0.00   0.54392   3 ;     C5-    C1-     C-     H
     8      4      7     12      9     0.00   0.65084   3 ;     C5-    C1-    C4-    C9
     8      4      7     16      9     0.00   2.17568   3 ;     C5-    C1-    C4-   C13
     8      4      7     18      9     0.00   2.17568   3 ;     C5-    C1-    C4-   C15
     8      9      6     13      9     0.00   0.00000   0 ;     C5-    C6-    C3-   C10
     8      9      6     13      9     0.00   0.16736   2 ;     C5-    C6-    C3-   C10
     8      9      6     13      9   180.00   1.92464   1 ;     C5-    C6-    C3-   C10
     8      9      6     17      9     0.00   2.17568   3 ;     C5-    C6-    C3-   C14
     9      6      5     11      9     0.00   2.17568   3 ;     C6-    C3-    C2-    C8
     9      6      5     24      9     0.00   0.54392   3 ;     C6-    C3-    C2-    H2
     9      6     13     15      9   180.00   1.09621   2 ;     C6-    C3-   C10-   C12
     9      6     17     39      9     0.00   0.54392   3 ;     C6-    C3-   C14-   H17
     9      6     17     40      9     0.00   0.54392   3 ;     C6-    C3-   C14-   H18
     9      6     17     41      9     0.00   0.54392   3 ;     C6-    C3-   C14-   H19
     9      8      4     23      9     0.00   0.54392   3 ;     C6-    C5-    C1-    H1
    10      3      4     23      9     0.00   0.54392   3 ;     C7-     C-    C1-    H1
    10      3      5     11      9     0.00   2.17568   3 ;     C7-     C-    C2-    C8
    10      3      5     24      9     0.00   0.54392   3 ;     C7-     C-    C2-    H2
    10     14     12     20      9     0.00   0.00000   0 ;     C7-   C11-    C9-   C17
    11      5      3     22      9     0.00   0.54392   3 ;     C8-    C2-     C-     H
    11      5      6     13      9     0.00   0.00000   0 ;     C8-    C2-    C3-   C10
    11      5      6     13      9     0.00   0.16736   2 ;     C8-    C2-    C3-   C10
    11      5      6     13      9   180.00   1.92464   1 ;     C8-    C2-    C3-   C10
    11      5      6     17      9     0.00   2.17568   3 ;     C8-    C2-    C3-   C14
    12      7      4     23      9     0.00   0.65084   3 ;     C9-    C4-    C1-    H1
    12      7     16     19      9     0.00   0.65084   3 ;     C9-    C4-   C13-   C16
    12      7     16     37      9     0.00   0.65084   3 ;     C9-    C4-   C13-   H15
    12      7     16     38      9     0.00   0.65084   3 ;     C9-    C4-   C13-   H16
    12      7     18     42      9     0.00   0.65084   3 ;     C9-    C4-   C15-   H20
    12      7     18     43      9     0.00   0.65084   3 ;     C9-    C4-   C15-   H21
    12      7     18     44      9     0.00   0.65084   3 ;     C9-    C4-   C15-   H22
    12     14     10     29      9     0.00   0.65084   3 ;     C9-   C11-    C7-    H7
    12     14     10     30      9     0.00   0.65084   3 ;     C9-   C11-    C7-    H8
    12     20     21     19      9     0.00  12.13360   2 ;     C9-   C17-   C18-   C16
    13      6      5     24      9     0.00   0.65084   3 ;    C10-    C3-    C2-    H2
    13      6      9     27      9     0.00   0.65084   3 ;    C10-    C3-    C6-    H5
    13      6      9     28      9     0.00   0.65084   3 ;    C10-    C3-    C6-    H6
    13      6     17     39      9     0.00   0.65084   3 ;    C10-    C3-   C14-   H17
    13      6     17     40      9     0.00   0.65084   3 ;    C10-    C3-   C14-   H18
    13      6     17     41      9     0.00   0.65084   3 ;    C10-    C3-   C14-   H19
    13     15     11     31      9     0.00   0.65084   3 ;    C10-   C12-    C8-    H9
    13     15     11     32      9     0.00   0.65084   3 ;    C10-   C12-    C8-   H10
    14     10      3     22      9     0.00   0.54392   3 ;    C11-    C7-     C-     H
    14     12      7     16      9     0.00   0.00000   0 ;    C11-    C9-    C4-   C13
    14     12      7     18      9     0.00   0.00000   0 ;    C11-    C9-    C4-   C15
    14     12     20     21      9   180.00  27.82360   2 ;    C11-    C9-   C17-   C18
    14     12     20     47      9   180.00  27.82360   2 ;    C11-    C9-   C17-   H25
    15     11      5     24      9     0.00   0.54392   3 ;    C12-    C8-    C2-    H2
    15     13      6     17      9   180.00   1.09621   2 ;    C12-   C10-    C3-   C14
    16      7      4     23      9     0.00   0.54392   3 ;    C13-    C4-    C1-    H1
    16      7     12     20      9     0.00   0.00000   0 ;    C13-    C4-    C9-   C17
    16      7     18     42      9     0.00   0.54392   3 ;    C13-    C4-   C15-   H20
    16      7     18     43      9     0.00   0.54392   3 ;    C13-    C4-   C15-   H21
    16      7     18     44      9     0.00   0.54392   3 ;    C13-    C4-   C15-   H22
    16     19     21     20      9   180.00   0.00000   2 ;    C13-   C16-   C18-   C17
    17      6      5     24      9     0.00   0.54392   3 ;    C14-    C3-    C2-    H2
    17      6      9     27      9     0.00   0.54392   3 ;    C14-    C3-    C6-    H5
    17      6      9     28      9     0.00   0.54392   3 ;    C14-    C3-    C6-    H6
    18      7      4     23      9     0.00   0.54392   3 ;    C15-    C4-    C1-    H1
    18      7     12     20      9     0.00   0.00000   0 ;    C15-    C4-    C9-   C17
    18      7     16     19      9     0.00   2.17568   3 ;    C15-    C4-   C13-   C16
    18      7     16     37      9     0.00   0.54392   3 ;    C15-    C4-   C13-   H15
    18      7     16     38      9     0.00   0.54392   3 ;    C15-    C4-   C13-   H16
    19     21     20     47      9   180.00   9.10020   2 ;    C16-   C18-   C17-   H25
    20     12     14     33      9     0.00   0.00000   0 ;    C17-    C9-   C11-   H11
    20     12     14     34      9     0.00   0.00000   0 ;    C17-    C9-   C11-   H12
    20     21     19     45      9   180.00   0.00000   2 ;    C17-   C18-   C16-   H23
    20     21     19     46      9   180.00   0.00000   2 ;    C17-   C18-   C16-   H24
    21     19     16     37      9     0.00   0.65084   3 ;    C18-   C16-   C13-   H15
    21     19     16     38      9     0.00   0.65084   3 ;    C18-   C16-   C13-   H16
    22      3      4     23      9     0.00   0.50208   3 ;      H-     C-    C1-    H1
    22      3      5     24      9     0.00   0.50208   3 ;      H-     C-    C2-    H2
    22      3     10     29      9     0.00   0.50208   3 ;      H-     C-    C7-    H7
    22      3     10     30      9     0.00   0.50208   3 ;      H-     C-    C7-    H8
    23      4      8     25      9     0.00   0.50208   3 ;     H1-    C1-    C5-    H3
    23      4      8     26      9     0.00   0.50208   3 ;     H1-    C1-    C5-    H4
    24      5     11     31      9     0.00   0.50208   3 ;     H2-    C2-    C8-    H9
    24      5     11     32      9     0.00   0.50208   3 ;     H2-    C2-    C8-   H10
    25      8      9     27      9     0.00   0.50208   3 ;     H3-    C5-    C6-    H5
    25      8      9     28      9     0.00   0.50208   3 ;     H3-    C5-    C6-    H6
    26      8      9     27      9     0.00   0.50208   3 ;     H4-    C5-    C6-    H5
    26      8      9     28      9     0.00   0.50208   3 ;     H4-    C5-    C6-    H6
    29     10     14     33      9     0.00   0.50208   3 ;     H7-    C7-   C11-   H11
    29     10     14     34      9     0.00   0.50208   3 ;     H7-    C7-   C11-   H12
    30     10     14     33      9     0.00   0.50208   3 ;     H8-    C7-   C11-   H11
    30     10     14     34      9     0.00   0.50208   3 ;     H8-    C7-   C11-   H12
    31     11     15     35      9     0.00   0.50208   3 ;     H9-    C8-   C12-   H13
    31     11     15     36      9     0.00   0.50208   3 ;     H9-    C8-   C12-   H14
    32     11     15     35      9     0.00   0.50208   3 ;    H10-    C8-   C12-   H13
    32     11     15     36      9     0.00   0.50208   3 ;    H10-    C8-   C12-   H14
    37     16     19     45      9     0.00   0.50208   3 ;    H15-   C13-   C16-   H23
    37     16     19     46      9     0.00   0.50208   3 ;    H15-   C13-   C16-   H24
    38     16     19     45      9     0.00   0.50208   3 ;    H16-   C13-   C16-   H23
    38     16     19     46      9     0.00   0.50208   3 ;    H16-   C13-   C16-   H24

[ dihedrals ] ; impropers
; treated as propers in GROMACS to use correct AMBER analytical function
;    i      j      k      l   func   phase     kd      pn
     1     13     15      6      4   180.00  43.93200   2 ;      O-   C10-   C12-    C3
     7     14     12     20      4   180.00   4.60240   2 ;     C4-   C11-    C9-   C17
    19     20     21      2      4   180.00  43.93200   2 ;    C16-   C17-   C18-    O1
    21     12     20     47      4   180.00   4.60240   2 ;    C18-    C9-   C17-   H25
