lysine_GMX.gro created by acpype (v: 2023.10.27) on Mon Feb  9 17:54:09 2026
 24
    1  LYS    O    1  -0.279  -0.162  -0.033
    1  LYS  OXT    2  -0.356   0.026   0.066
    1  LYS    N    3  -0.150   0.177  -0.007
    1  LYS   NZ    4   0.486  -0.039   0.029
    1  LYS   CG    5   0.117   0.033  -0.030
    1  LYS   CB    6  -0.015  -0.030   0.016
    1  LYS   CD    7   0.241  -0.038   0.024
    1  LYS   CA    8  -0.141   0.035  -0.043
    1  LYS   CE    9   0.369   0.030  -0.023
    1  LYS    C   10  -0.269  -0.032   0.002
    1  LYS  HG1   11   0.120   0.138   0.000
    1  LYS  HG2   12   0.120   0.032  -0.140
    1  LYS  HB1   13  -0.020  -0.026   0.126
    1  LYS  HB2   14  -0.015  -0.136  -0.011
    1  LYS  HD1   15   0.240  -0.143  -0.008
    1  LYS  HD2   16   0.237  -0.038   0.134
    1  LYS   HA   17  -0.138   0.029  -0.153
    1  LYS  HE1   18   0.371   0.135   0.010
    1  LYS  HE2   19   0.373   0.030  -0.133
    1  LYS   H1   20  -0.157   0.187   0.094
    1  LYS   H2   21  -0.235   0.217  -0.046
    1  LYS  HZ1   22   0.484  -0.037   0.131
    1  LYS  HZ2   23   0.570   0.010   0.001
    1  LYS    H   24  -0.363  -0.203  -0.002
   18.65600     8.40400     5.73200
