5962
    24
  -2.7910000  -1.6230000  -0.3320000  -3.5640000   0.2620000   0.6610000
  -1.5030000   1.7690000  -0.0720000   4.8580000  -0.3940000   0.2920000
   1.1670000   0.3290000  -0.3050000  -0.1550000  -0.2960000   0.1590000
   2.4070000  -0.3830000   0.2430000  -1.4130000   0.3530000  -0.4320000
   3.6880000   0.3010000  -0.2330000  -2.6940000  -0.3180000   0.0190000
   1.2000000   1.3820000   0.0010000   1.2020000   0.3160000  -1.4020000
  -0.2040000  -0.2620000   1.2550000  -0.1480000  -1.3610000  -0.1050000
   2.3980000  -1.4310000  -0.0810000   2.3690000  -0.3830000   1.3400000
  -1.3830000   0.2890000  -1.5260000   3.7080000   1.3450000   0.0990000
   3.7330000   0.2970000  -1.3270000  -1.5670000   1.8680000   0.9410000
  -2.3530000   2.1750000  -0.4610000   4.8420000  -0.3720000   1.3110000
   5.7010000   0.1030000   0.0090000  -3.6270000  -2.0270000  -0.0160000
