; lysine_GMX.top created by acpype (v: 2023.10.27) on Mon Feb  9 17:54:09 2026

[ defaults ]
; nbfunc        comb-rule       gen-pairs       fudgeLJ fudgeQQ
1               2               yes             0.5     0.8333333333

; Include lysine_GMX.itp topology
#include "lysine_GMX.itp"

; Ligand position restraints
#ifdef POSRES_LIG
#include "posre_lysine.itp"
#endif

[ system ]
 lysine

[ molecules ]
; Compound        nmols
 lysine           1     
