; fructose_GMX.top created by acpype (v: 2023.10.27) on Mon Feb  9 17:46:09 2026

[ defaults ]
; nbfunc        comb-rule       gen-pairs       fudgeLJ fudgeQQ
1               2               yes             0.5     0.8333333333

; Include fructose_GMX.itp topology
#include "fructose_GMX.itp"

; Ligand position restraints
#ifdef POSRES_LIG
#include "posre_fructose.itp"
#endif

[ system ]
 fructose

[ molecules ]
; Compound        nmols
 fructose         1     
