; fructose_GMX_OPLS.itp created by acpype (v: 2023.10.27) on Mon Feb  9 17:46:09 2026

; For OPLS atomtypes manual fine tuning
; AC_at:OPLS_at:OPLScode: Possible_Alternatives (see ffoplsaa.atp and ffoplsaanb.itp)
; os:x:opls_x: []
; oh:OH:opls_154: ['167']
; c6:x:opls_x: []
; c3:CT:opls_135: ['136', '137', '149', '157', '158', '206', '209', '210', '223B', '224B', '245', '246', '274', '283', '284', '285', '292', '292B', '293B', '296', '307', '308', '505']
; h1:HC:opls_140: []
; ho:HO:opls_155: ['168']

[ moleculetype ]
;name            nrexcl
 fructose         3

[ atoms ]
;   nr  type  resi  res  atom  cgnr     charge      mass       ; qtot   bond_type
     1 opls_x     1   UNL     O    1    -0.439600      0.00000 ; qtot -0.440  x   
     2 opls_154     1   UNL    O1    2    -0.596800     15.99940 ; qtot -1.036  OH  
     3 opls_154     1   UNL    O2    3    -0.632800     15.99940 ; qtot -1.669  OH  
     4 opls_154     1   UNL    O3    4    -0.607800     15.99940 ; qtot -2.277  OH  
     5 opls_154     1   UNL    O4    5    -0.593800     15.99940 ; qtot -2.871  OH  
     6 opls_154     1   UNL    O5    6    -0.599800     15.99940 ; qtot -3.471  OH  
     7 opls_x     1   UNL     C    7     0.105100      0.00000 ; qtot -3.365  x   
     8 opls_x     1   UNL    C1    8     0.271600      0.00000 ; qtot -3.094  x   
     9 opls_x     1   UNL    C2    9     0.079100      0.00000 ; qtot -3.015  x   
    10 opls_x     1   UNL    C3   10     0.121100      0.00000 ; qtot -2.894  x   
    11 opls_x     1   UNL    C4   11     0.140400      0.00000 ; qtot -2.753  x   
    12 opls_135     1   UNL    C5   12     0.118400     12.01100 ; qtot -2.635  CT  
    13 opls_140     1   UNL     H   13     0.107700      1.00800 ; qtot -2.527  HC  
    14 opls_140     1   UNL    H1   14     0.061700      1.00800 ; qtot -2.466  HC  
    15 opls_140     1   UNL    H2   15     0.055700      1.00800 ; qtot -2.410  HC  
    16 opls_140     1   UNL    H3   16     0.068700      1.00800 ; qtot -2.341  HC  
    17 opls_140     1   UNL    H4   17     0.068700      1.00800 ; qtot -2.272  HC  
    18 opls_140     1   UNL    H5   18     0.074700      1.00800 ; qtot -2.198  HC  
    19 opls_140     1   UNL    H6   19     0.074700      1.00800 ; qtot -2.123  HC  
    20 opls_155     1   UNL    H7   20     0.422000      1.00800 ; qtot -1.701  HO  
    21 opls_155     1   UNL    H8   21     0.436000      1.00800 ; qtot -1.265  HO  
    22 opls_155     1   UNL    H9   22     0.425000      1.00800 ; qtot -0.840  HO  
    23 opls_155     1   UNL   H10   23     0.422000      1.00800 ; qtot -0.418  HO  
    24 opls_155     1   UNL   H11   24     0.418000      1.00800 ; qtot  0.000  HO  

[ bonds ]
;   ai     aj funct   r             k
     1      8   1 ;    1.4300e-01    2.3412e+05 ;      O - C1          x - x     
     1     11   1 ;    1.4300e-01    2.3412e+05 ;      O - C4          x - x     
     2      7   1 ;    1.4241e-01    2.3870e+05 ;     O1 - C          OH - x     
     2     20   1 ;    9.7250e-02    4.4811e+05 ;     O1 - H7         OH - HO    
     3      8   1 ;    1.4241e-01    2.3870e+05 ;     O2 - C1         OH - x     
     3     21   1 ;    9.7250e-02    4.4811e+05 ;     O2 - H8         OH - HO    
     4      9   1 ;    1.4241e-01    2.3870e+05 ;     O3 - C2         OH - x     
     4     22   1 ;    9.7250e-02    4.4811e+05 ;     O3 - H9         OH - HO    
     5     10   1 ;    1.4241e-01    2.3870e+05 ;     O4 - C3         OH - x     
     5     23   1 ;    9.7250e-02    4.4811e+05 ;     O4 - H10        OH - HO    
     6     12   1 ;    1.4242e-01    2.3861e+05 ;     O5 - C5         OH - CT    
     6     24   1 ;    9.7250e-02    4.4811e+05 ;     O5 - H11        OH - HO    
     7      8   1 ;    1.5384e-01    1.8979e+05 ;      C - C1          x - x     
     7      9   1 ;    1.5384e-01    1.8979e+05 ;      C - C2          x - x     
     7     13   1 ;    1.0984e-01    2.8620e+05 ;      C - H           x - HC    
     8     12   1 ;    1.5428e-01    1.8728e+05 ;     C1 - C5          x - CT    
     9     10   1 ;    1.5384e-01    1.8979e+05 ;     C2 - C3          x - x     
     9     14   1 ;    1.0984e-01    2.8620e+05 ;     C2 - H1          x - HC    
    10     11   1 ;    1.5384e-01    1.8979e+05 ;     C3 - C4          x - x     
    10     15   1 ;    1.0984e-01    2.8620e+05 ;     C3 - H2          x - HC    
    11     16   1 ;    1.0984e-01    2.8620e+05 ;     C4 - H3          x - HC    
    11     17   1 ;    1.0984e-01    2.8620e+05 ;     C4 - H4          x - HC    
    12     18   1 ;    1.0969e-01    2.8804e+05 ;     C5 - H5         CT - HC    
    12     19   1 ;    1.0969e-01    2.8804e+05 ;     C5 - H6         CT - HC    

[ pairs ]
;   ai     aj    funct
     1      2      1 ;      O - O1    
     1      5      1 ;      O - O4    
     1      6      1 ;      O - O5    
     1      9      1 ;      O - C2    
     1     13      1 ;      O - H     
     1     15      1 ;      O - H2    
     1     18      1 ;      O - H5    
     1     19      1 ;      O - H6    
     1     21      1 ;      O - H8    
     2      3      1 ;     O1 - O2    
     2      4      1 ;     O1 - O3    
     2     10      1 ;     O1 - C3    
     2     12      1 ;     O1 - C5    
     2     14      1 ;     O1 - H1    
     3      6      1 ;     O2 - O5    
     3      9      1 ;     O2 - C2    
     3     13      1 ;     O2 - H     
     3     18      1 ;     O2 - H5    
     3     19      1 ;     O2 - H6    
     4      5      1 ;     O3 - O4    
     4      8      1 ;     O3 - C1    
     4     11      1 ;     O3 - C4    
     4     13      1 ;     O3 - H     
     4     15      1 ;     O3 - H2    
     5      7      1 ;     O4 - C     
     5     14      1 ;     O4 - H1    
     5     16      1 ;     O4 - H3    
     5     17      1 ;     O4 - H4    
     6      7      1 ;     O5 - C     
     7     15      1 ;      C - H2    
     7     18      1 ;      C - H5    
     7     19      1 ;      C - H6    
     7     21      1 ;      C - H8    
     7     22      1 ;      C - H9    
     8     10      1 ;     C1 - C3    
     8     14      1 ;     C1 - H1    
     8     16      1 ;     C1 - H3    
     8     17      1 ;     C1 - H4    
     8     20      1 ;     C1 - H7    
     8     24      1 ;     C1 - H11   
     9     12      1 ;     C2 - C5    
     9     16      1 ;     C2 - H3    
     9     17      1 ;     C2 - H4    
     9     20      1 ;     C2 - H7    
     9     23      1 ;     C2 - H10   
    10     13      1 ;     C3 - H     
    10     22      1 ;     C3 - H9    
    11      3      1 ;     C4 - O2    
    11      7      1 ;     C4 - C     
    11     12      1 ;     C4 - C5    
    11     14      1 ;     C4 - H1    
    11     23      1 ;     C4 - H10   
    12     13      1 ;     C5 - H     
    12     21      1 ;     C5 - H8    
    13     14      1 ;      H - H1    
    13     20      1 ;      H - H7    
    14     15      1 ;     H1 - H2    
    14     22      1 ;     H1 - H9    
    15     16      1 ;     H2 - H3    
    15     17      1 ;     H2 - H4    
    15     23      1 ;     H2 - H10   
    18     24      1 ;     H5 - H11   
    19     24      1 ;     H6 - H11   

[ angles ]
;   ai     aj     ak    funct   theta         cth
     1      8      3      1 ;    1.0868e+02    8.2090e+02 ;      O - C1   - O2        x -    x - OH  
     1      8      7      1 ;    1.1009e+02    6.3948e+02 ;      O - C1   - C         x -    x - x   
     1      8     12      1 ;    1.0683e+02    6.4810e+02 ;      O - C1   - C5        x -    x - CT  
     1     11     10      1 ;    1.1009e+02    6.3948e+02 ;      O - C4   - C3        x -    x - x   
     1     11     16      1 ;    1.0808e+02    4.7430e+02 ;      O - C4   - H3        x -    x - HC  
     1     11     17      1 ;    1.0808e+02    4.7430e+02 ;      O - C4   - H4        x -    x - HC  
     2      7      8      1 ;    1.1005e+02    6.4065e+02 ;     O1 - C    - C1       OH -    x - x   
     2      7      9      1 ;    1.1005e+02    6.4065e+02 ;     O1 - C    - C2       OH -    x - x   
     2      7     13      1 ;    1.0996e+02    4.7187e+02 ;     O1 - C    - H        OH -    x - HC  
     3      8      7      1 ;    1.1005e+02    6.4065e+02 ;     O2 - C1   - C        OH -    x - x   
     3      8     12      1 ;    1.0896e+02    6.4275e+02 ;     O2 - C1   - C5       OH -    x - CT  
     4      9      7      1 ;    1.1005e+02    6.4065e+02 ;     O3 - C2   - C        OH -    x - x   
     4      9     10      1 ;    1.1005e+02    6.4065e+02 ;     O3 - C2   - C3       OH -    x - x   
     4      9     14      1 ;    1.0996e+02    4.7187e+02 ;     O3 - C2   - H1       OH -    x - HC  
     5     10      9      1 ;    1.1005e+02    6.4065e+02 ;     O4 - C3   - C2       OH -    x - x   
     5     10     11      1 ;    1.1005e+02    6.4065e+02 ;     O4 - C3   - C4       OH -    x - x   
     5     10     15      1 ;    1.0996e+02    4.7187e+02 ;     O4 - C3   - H2       OH -    x - HC  
     6     12      8      1 ;    1.1145e+02    6.3555e+02 ;     O5 - C5   - C1       OH -   CT - x   
     6     12     18      1 ;    1.1038e+02    4.7103e+02 ;     O5 - C5   - H5       OH -   CT - HC  
     6     12     19      1 ;    1.1038e+02    4.7103e+02 ;     O5 - C5   - H6       OH -   CT - HC  
     7      2     20      1 ;    1.0707e+02    5.4584e+02 ;      C - O1   - H7        x -   OH - HO  
     7      8     12      1 ;    1.1143e+02    5.0200e+02 ;      C - C1   - C5        x -    x - CT  
     7      9     10      1 ;    1.1106e+02    5.0359e+02 ;      C - C2   - C3        x -    x - x   
     7      9     14      1 ;    1.0918e+02    3.6217e+02 ;      C - C2   - H1        x -    x - HC  
     8      1     11      1 ;    1.1330e+02    7.3873e+02 ;     C1 - O    - C4        x -    x - x   
     8      3     21      1 ;    1.0707e+02    5.4584e+02 ;     C1 - O2   - H8        x -   OH - HO  
     8      7      9      1 ;    1.1106e+02    5.0359e+02 ;     C1 - C    - C2        x -    x - x   
     8      7     13      1 ;    1.0918e+02    3.6217e+02 ;     C1 - C    - H         x -    x - HC  
     8     12     18      1 ;    1.0913e+02    3.6141e+02 ;     C1 - C5   - H5        x -   CT - HC  
     8     12     19      1 ;    1.0913e+02    3.6141e+02 ;     C1 - C5   - H6        x -   CT - HC  
     9      4     22      1 ;    1.0707e+02    5.4584e+02 ;     C2 - O3   - H9        x -   OH - HO  
     9      7     13      1 ;    1.0918e+02    3.6217e+02 ;     C2 - C    - H         x -    x - HC  
     9     10     11      1 ;    1.1106e+02    5.0359e+02 ;     C2 - C3   - C4        x -    x - x   
     9     10     15      1 ;    1.0918e+02    3.6217e+02 ;     C2 - C3   - H2        x -    x - HC  
    10      5     23      1 ;    1.0707e+02    5.4584e+02 ;     C3 - O4   - H10       x -   OH - HO  
    10      9     14      1 ;    1.0918e+02    3.6217e+02 ;     C3 - C2   - H1        x -    x - HC  
    10     11     16      1 ;    1.0918e+02    3.6217e+02 ;     C3 - C4   - H3        x -    x - HC  
    10     11     17      1 ;    1.0918e+02    3.6217e+02 ;     C3 - C4   - H4        x -    x - HC  
    11     10     15      1 ;    1.0918e+02    3.6217e+02 ;     C4 - C3   - H2        x -    x - HC  
    12      6     24      1 ;    1.0739e+02    5.4501e+02 ;     C5 - O5   - H11      CT -   OH - HO  
    16     11     17      1 ;    1.0750e+02    2.9932e+02 ;     H3 - C4   - H4       HC -    x - HC  
    18     12     19      1 ;    1.0855e+02    2.9824e+02 ;     H5 - C5   - H6       HC -   CT - HC  

[ dihedrals ] ; propers
; for gromacs 4.5 or higher, using funct 9
;    i      j      k      l   func   phase     kd      pn
     1      8      3     21      9 ;     0.00   0.69733   3 ;      O-    C1-    O2-    H8
     1      8      7      2      9 ;     0.00   4.47688   3 ;      O-    C1-     C-    O1
     1      8      7      2      9 ;   180.00   2.80328   1 ;      O-    C1-     C-    O1
     1      8      7      2      9 ;   180.00   3.05432   2 ;      O-    C1-     C-    O1
     1      8      7      9      9 ;     0.00   0.65084   3 ;      O-    C1-     C-    C2
     1      8      7     13      9 ;     0.00   0.00000   0 ;      O-    C1-     C-     H
     1      8      7     13      9 ;     0.00   1.04600   1 ;      O-    C1-     C-     H
     1      8     12      6      9 ;     0.00   4.47688   3 ;      O-    C1-    C5-    O5
     1      8     12      6      9 ;   180.00   2.80328   1 ;      O-    C1-    C5-    O5
     1      8     12      6      9 ;   180.00   3.05432   2 ;      O-    C1-    C5-    O5
     1      8     12     18      9 ;     0.00   0.00000   0 ;      O-    C1-    C5-    H5
     1      8     12     18      9 ;     0.00   1.04600   1 ;      O-    C1-    C5-    H5
     1      8     12     19      9 ;     0.00   0.00000   0 ;      O-    C1-    C5-    H6
     1      8     12     19      9 ;     0.00   1.04600   1 ;      O-    C1-    C5-    H6
     1     11     10      5      9 ;     0.00   4.47688   3 ;      O-    C4-    C3-    O4
     1     11     10      5      9 ;   180.00   2.80328   1 ;      O-    C4-    C3-    O4
     1     11     10      5      9 ;   180.00   3.05432   2 ;      O-    C4-    C3-    O4
     1     11     10      9      9 ;     0.00   0.65084   3 ;      O-    C4-    C3-    C2
     1     11     10     15      9 ;     0.00   0.00000   0 ;      O-    C4-    C3-    H2
     1     11     10     15      9 ;     0.00   1.04600   1 ;      O-    C4-    C3-    H2
     2      7      8      3      9 ;     0.00   4.18400   1 ;     O1-     C-    C1-    O2
     2      7      8      3      9 ;     0.00   6.02496   3 ;     O1-     C-    C1-    O2
     2      7      8     12      9 ;     0.00   0.75312   3 ;     O1-     C-    C1-    C5
     2      7      9      4      9 ;     0.00   4.18400   1 ;     O1-     C-    C2-    O3
     2      7      9      4      9 ;     0.00   6.02496   3 ;     O1-     C-    C2-    O3
     2      7      9     10      9 ;     0.00   0.75312   3 ;     O1-     C-    C2-    C3
     2      7      9     14      9 ;     0.00   0.00000   0 ;     O1-     C-    C2-    H1
     2      7      9     14      9 ;     0.00   1.04600   1 ;     O1-     C-    C2-    H1
     3      8      7      9      9 ;     0.00   0.75312   3 ;     O2-    C1-     C-    C2
     3      8      7     13      9 ;     0.00   0.00000   0 ;     O2-    C1-     C-     H
     3      8      7     13      9 ;     0.00   1.04600   1 ;     O2-    C1-     C-     H
     3      8     12      6      9 ;     0.00   4.18400   1 ;     O2-    C1-    C5-    O5
     3      8     12      6      9 ;     0.00   6.02496   3 ;     O2-    C1-    C5-    O5
     3      8     12     18      9 ;     0.00   0.00000   0 ;     O2-    C1-    C5-    H5
     3      8     12     18      9 ;     0.00   1.04600   1 ;     O2-    C1-    C5-    H5
     3      8     12     19      9 ;     0.00   0.00000   0 ;     O2-    C1-    C5-    H6
     3      8     12     19      9 ;     0.00   1.04600   1 ;     O2-    C1-    C5-    H6
     4      9      7      8      9 ;     0.00   0.75312   3 ;     O3-    C2-     C-    C1
     4      9      7     13      9 ;     0.00   0.00000   0 ;     O3-    C2-     C-     H
     4      9      7     13      9 ;     0.00   1.04600   1 ;     O3-    C2-     C-     H
     4      9     10      5      9 ;     0.00   4.18400   1 ;     O3-    C2-    C3-    O4
     4      9     10      5      9 ;     0.00   6.02496   3 ;     O3-    C2-    C3-    O4
     4      9     10     11      9 ;     0.00   0.75312   3 ;     O3-    C2-    C3-    C4
     4      9     10     15      9 ;     0.00   0.00000   0 ;     O3-    C2-    C3-    H2
     4      9     10     15      9 ;     0.00   1.04600   1 ;     O3-    C2-    C3-    H2
     5     10      9      7      9 ;     0.00   0.75312   3 ;     O4-    C3-    C2-     C
     5     10      9     14      9 ;     0.00   0.00000   0 ;     O4-    C3-    C2-    H1
     5     10      9     14      9 ;     0.00   1.04600   1 ;     O4-    C3-    C2-    H1
     5     10     11     16      9 ;     0.00   0.00000   0 ;     O4-    C3-    C4-    H3
     5     10     11     16      9 ;     0.00   1.04600   1 ;     O4-    C3-    C4-    H3
     5     10     11     17      9 ;     0.00   0.00000   0 ;     O4-    C3-    C4-    H4
     5     10     11     17      9 ;     0.00   1.04600   1 ;     O4-    C3-    C4-    H4
     6     12      8      7      9 ;     0.00   0.75312   3 ;     O5-    C5-    C1-     C
     7      8      3     21      9 ;     0.00   0.25104   3 ;      C-    C1-    O2-    H8
     7      8     12     18      9 ;     0.00   0.65084   3 ;      C-    C1-    C5-    H5
     7      8     12     19      9 ;     0.00   0.65084   3 ;      C-    C1-    C5-    H6
     7      9      4     22      9 ;     0.00   0.25104   3 ;      C-    C2-    O3-    H9
     7      9     10     11      9 ;     0.00   2.17568   3 ;      C-    C2-    C3-    C4
     7      9     10     15      9 ;     0.00   0.65084   3 ;      C-    C2-    C3-    H2
     8      1     11     10      9 ;     0.00   4.85344   3 ;     C1-     O-    C4-    C3
     8      1     11     10      9 ;     0.00   5.77392   2 ;     C1-     O-    C4-    C3
     8      1     11     10      9 ;   180.00   1.46440   1 ;     C1-     O-    C4-    C3
     8      1     11     16      9 ;     0.00   1.41001   3 ;     C1-     O-    C4-    H3
     8      1     11     17      9 ;     0.00   1.41001   3 ;     C1-     O-    C4-    H4
     8      7      2     20      9 ;     0.00   0.25104   3 ;     C1-     C-    O1-    H7
     8      7      9     10      9 ;     0.00   2.17568   3 ;     C1-     C-    C2-    C3
     8      7      9     14      9 ;     0.00   0.65084   3 ;     C1-     C-    C2-    H1
     8     12      6     24      9 ;     0.00   0.25104   3 ;     C1-    C5-    O5-   H11
     9      7      2     20      9 ;     0.00   0.25104   3 ;     C2-     C-    O1-    H7
     9      7      8     12      9 ;     0.00   2.17568   3 ;     C2-     C-    C1-    C5
     9     10      5     23      9 ;     0.00   0.25104   3 ;     C2-    C3-    O4-   H10
     9     10     11     16      9 ;     0.00   0.65084   3 ;     C2-    C3-    C4-    H3
     9     10     11     17      9 ;     0.00   0.65084   3 ;     C2-    C3-    C4-    H4
    10      9      4     22      9 ;     0.00   0.25104   3 ;     C3-    C2-    O3-    H9
    10      9      7     13      9 ;     0.00   0.65084   3 ;     C3-    C2-     C-     H
    11      1      8      3      9 ;     0.00   2.66381   3 ;     C4-     O-    C1-    O2
    11      1      8      3      9 ;     0.00   3.59824   2 ;     C4-     O-    C1-    O2
    11      1      8      3      9 ;   180.00   6.52704   1 ;     C4-     O-    C1-    O2
    11      1      8      7      9 ;     0.00   4.85344   3 ;     C4-     O-    C1-     C
    11      1      8      7      9 ;     0.00   5.77392   2 ;     C4-     O-    C1-     C
    11      1      8      7      9 ;   180.00   1.46440   1 ;     C4-     O-    C1-     C
    11      1      8     12      9 ;     0.00   0.33472   2 ;     C4-     O-    C1-    C5
    11      1      8     12      9 ;     0.00   3.13800   3 ;     C4-     O-    C1-    C5
    11      1      8     12      9 ;   180.00   3.68192   1 ;     C4-     O-    C1-    C5
    11     10      5     23      9 ;     0.00   0.25104   3 ;     C4-    C3-    O4-   H10
    11     10      9     14      9 ;     0.00   0.65084   3 ;     C4-    C3-    C2-    H1
    12      8      3     21      9 ;     0.00   0.25104   3 ;     C5-    C1-    O2-    H8
    12      8      7     13      9 ;     0.00   0.65084   3 ;     C5-    C1-     C-     H
    13      7      2     20      9 ;     0.00   0.51463   3 ;      H-     C-    O1-    H7
    13      7      9     14      9 ;     0.00   0.65084   3 ;      H-     C-    C2-    H1
    14      9      4     22      9 ;     0.00   0.51463   3 ;     H1-    C2-    O3-    H9
    14      9     10     15      9 ;     0.00   0.65084   3 ;     H1-    C2-    C3-    H2
    15     10      5     23      9 ;     0.00   0.51463   3 ;     H2-    C3-    O4-   H10
    15     10     11     16      9 ;     0.00   0.65084   3 ;     H2-    C3-    C4-    H3
    15     10     11     17      9 ;     0.00   0.65084   3 ;     H2-    C3-    C4-    H4
    18     12      6     24      9 ;     0.00   0.51463   3 ;     H5-    C5-    O5-   H11
    19     12      6     24      9 ;     0.00   0.51463   3 ;     H6-    C5-    O5-   H11
