%VERSION  VERSION_STAMP = V0001.000  DATE = 02/09/26  17:46:11                  
%FLAG TITLE                                                                     
%FORMAT(20a4)                                                                   
2723872                                                                         
%FLAG POINTERS                                                                  
%FORMAT(10I8)                                                                   
      24       5      12      12      24      18      56      41       0       0
     135       1      12      18      41       8      18      23       6       0
       0       0       0       0       0       0       0       0      24       0
       0
%FLAG ATOM_NAME                                                                 
%FORMAT(20a4)                                                                   
O   O1  O2  O3  O4  O5  C   C1  C2  C3  C4  C5  H   H1  H2  H3  H4  H5  H6  H7  
H8  H9  H10 H11 
%FLAG CHARGE                                                                    
%FORMAT(5E16.8)                                                                 
 -8.01052308E+00 -1.08750686E+01 -1.15128491E+01 -1.10755139E+01 -1.08204017E+01
 -1.09297355E+01  1.91516373E+00  4.94917668E+00  1.44138393E+00  2.20672053E+00
  2.55841092E+00  2.15752032E+00  1.96254171E+00  1.12431591E+00  1.01498211E+00
  1.25187201E+00  1.25187201E+00  1.36120581E+00  1.36120581E+00  7.68981060E+00
  7.94492280E+00  7.74447750E+00  7.68981060E+00  7.61692140E+00
%FLAG ATOMIC_NUMBER                                                             
%FORMAT(10I8)                                                                   
       8       8       8       8       8       8       6       6       6       6
       6       6       1       1       1       1       1       1       1       1
       1       1       1       1
%FLAG MASS                                                                      
%FORMAT(5E16.8)                                                                 
  1.60000000E+01  1.60000000E+01  1.60000000E+01  1.60000000E+01  1.60000000E+01
  1.60000000E+01  1.20100000E+01  1.20100000E+01  1.20100000E+01  1.20100000E+01
  1.20100000E+01  1.20100000E+01  1.00800000E+00  1.00800000E+00  1.00800000E+00
  1.00800000E+00  1.00800000E+00  1.00800000E+00  1.00800000E+00  1.00800000E+00
  1.00800000E+00  1.00800000E+00  1.00800000E+00  1.00800000E+00
%FLAG ATOM_TYPE_INDEX                                                           
%FORMAT(10I8)                                                                   
       1       2       2       2       2       2       3       3       3       3
       3       3       4       4       4       4       4       4       4       5
       5       5       5       5
%FLAG NUMBER_EXCLUDED_ATOMS                                                     
%FORMAT(10I8)                                                                   
      17      10      10      10       9       6      13      13      11       8
       6       5       2       2       3       1       1       2       1       1
       1       1       1       1
%FLAG NONBONDED_PARM_INDEX                                                      
%FORMAT(10I8)                                                                   
       1       2       4       7      11       2       3       5       8      12
       4       5       6       9      13       7       8       9      10      14
      11      12      13      14      15
%FLAG RESIDUE_LABEL                                                             
%FORMAT(20a4)                                                                   
UNL 
%FLAG RESIDUE_POINTER                                                           
%FORMAT(10I8)                                                                   
       1
%FLAG BOND_FORCE_CONSTANT                                                       
%FORMAT(5E16.8)                                                                 
  2.79780000E+02  2.85250000E+02  5.35510000E+02  2.85150000E+02  2.26810000E+02
  3.42020000E+02  2.23800000E+02  3.44220000E+02
%FLAG BOND_EQUIL_VALUE                                                          
%FORMAT(5E16.8)                                                                 
  1.43000000E+00  1.42410000E+00  9.72500000E-01  1.42420000E+00  1.53840000E+00
  1.09840000E+00  1.54280000E+00  1.09690000E+00
%FLAG ANGLE_FORCE_CONSTANT                                                      
%FORMAT(5E16.8)                                                                 
  9.81000000E+01  7.64200000E+01  7.74500000E+01  5.66800000E+01  7.65600000E+01
  5.63900000E+01  7.68100000E+01  7.59500000E+01  5.62900000E+01  6.52300000E+01
  5.99900000E+01  6.01800000E+01  4.32800000E+01  8.82800000E+01  4.31900000E+01
  6.51300000E+01  3.57700000E+01  3.56400000E+01
%FLAG ANGLE_EQUIL_VALUE                                                         
%FORMAT(5E16.8)                                                                 
  1.89682464E+00  1.92143380E+00  1.86453604E+00  1.88635266E+00  1.92073567E+00
  1.91916487E+00  1.90171157E+00  1.94517029E+00  1.92649525E+00  1.86872483E+00
  1.94482122E+00  1.93836350E+00  1.90555129E+00  1.97745889E+00  1.90467863E+00
  1.87430989E+00  1.87622975E+00  1.89455572E+00
%FLAG DIHEDRAL_FORCE_CONSTANT                                                   
%FORMAT(5E16.8)                                                                 
  1.66666667E-01  6.70000000E-01  7.30000000E-01  1.07000000E+00  1.55555556E-01
  2.50000000E-01  0.00000000E+00  1.00000000E+00  1.44000000E+00  1.80000000E-01
  1.56000000E+00  8.60000000E-01  6.36666667E-01  3.50000000E-01  1.38000000E+00
  1.16000000E+00  6.00000000E-02  5.20000000E-01  3.37000000E-01  8.80000000E-01
  8.00000000E-02  7.50000000E-01  1.23000000E-01
%FLAG DIHEDRAL_PERIODICITY                                                      
%FORMAT(5E16.8)                                                                 
  3.00000000E+00  1.00000000E+00  2.00000000E+00  3.00000000E+00  3.00000000E+00
  1.00000000E+00  3.00000000E+00  1.00000000E+00  3.00000000E+00  3.00000000E+00
  1.00000000E+00  2.00000000E+00  3.00000000E+00  1.00000000E+00  2.00000000E+00
  3.00000000E+00  3.00000000E+00  3.00000000E+00  3.00000000E+00  1.00000000E+00
  2.00000000E+00  3.00000000E+00  3.00000000E+00
%FLAG DIHEDRAL_PHASE                                                            
%FORMAT(5E16.8)                                                                 
  0.00000000E+00  3.14159400E+00  3.14159400E+00  0.00000000E+00  0.00000000E+00
  0.00000000E+00  0.00000000E+00  0.00000000E+00  0.00000000E+00  0.00000000E+00
  3.14159400E+00  0.00000000E+00  0.00000000E+00  3.14159400E+00  0.00000000E+00
  0.00000000E+00  0.00000000E+00  0.00000000E+00  0.00000000E+00  3.14159400E+00
  0.00000000E+00  0.00000000E+00  0.00000000E+00
%FLAG SCEE_SCALE_FACTOR                                                         
%FORMAT(5E16.8)                                                                 
  1.20000000E+00  1.20000000E+00  1.20000000E+00  1.20000000E+00  1.20000000E+00
  1.20000000E+00  1.20000000E+00  1.20000000E+00  1.20000000E+00  1.20000000E+00
  1.20000000E+00  1.20000000E+00  1.20000000E+00  1.20000000E+00  1.20000000E+00
  1.20000000E+00  1.20000000E+00  1.20000000E+00  1.20000000E+00  1.20000000E+00
  1.20000000E+00  1.20000000E+00  1.20000000E+00
%FLAG SCNB_SCALE_FACTOR                                                         
%FORMAT(5E16.8)                                                                 
  2.00000000E+00  2.00000000E+00  2.00000000E+00  2.00000000E+00  2.00000000E+00
  2.00000000E+00  2.00000000E+00  2.00000000E+00  2.00000000E+00  2.00000000E+00
  2.00000000E+00  2.00000000E+00  2.00000000E+00  2.00000000E+00  2.00000000E+00
  2.00000000E+00  2.00000000E+00  2.00000000E+00  2.00000000E+00  2.00000000E+00
  2.00000000E+00  2.00000000E+00  2.00000000E+00
%FLAG SOLTY                                                                     
%FORMAT(5E16.8)                                                                 
  0.00000000E+00  0.00000000E+00  0.00000000E+00  0.00000000E+00  0.00000000E+00
  0.00000000E+00
%FLAG LENNARD_JONES_ACOEF                                                       
%FORMAT(5E16.8)                                                                 
  2.83662575E+05  3.78207390E+05  5.03152404E+05  5.42502534E+05  7.18991463E+05
  1.02073671E+06  3.44374471E+04  4.69084694E+04  6.97998263E+04  3.39005767E+03
  1.16469347E+02  1.74176419E+02  3.03553352E+02  4.36660257E+00  1.10360882E-05
%FLAG LENNARD_JONES_BCOEF                                                       
%FORMAT(5E16.8)                                                                 
  2.87011518E+02  3.52573684E+02  4.32634597E+02  4.38146883E+02  5.36620538E+02
  6.63431737E+02  7.31636661E+01  9.08431526E+01  1.14981426E+02  1.67944276E+01
  2.93355636E+00  3.81654050E+00  5.22789272E+00  4.15568027E-01  4.55498033E-04
%FLAG BONDS_INC_HYDROGEN                                                        
%FORMAT(10I8)                                                                   
       3      57       3       6      60       3       9      63       3      12
      66       3      15      69       3      18      36       6      24      39
       6      27      42       6      30      45       6      30      48       6
      33      51       8      33      54       8
%FLAG BONDS_WITHOUT_HYDROGEN                                                    
%FORMAT(10I8)                                                                   
       0      21       1       0      30       1       3      18       2       6
      21       2       9      24       2      12      27       2      15      33
       4      18      21       5      18      24       5      21      33       7
      24      27       5      27      30       5
%FLAG ANGLES_INC_HYDROGEN                                                       
%FORMAT(10I8)                                                                   
       0      30      45       4       0      30      48       4       3      18
      36       6       9      24      39       6      12      27      42       6
      15      33      51       9      15      33      54       9      18       3
      57      10      18      24      39      13      21       6      60      10
      21      18      36      13      21      33      51      15      21      33
      54      15      24       9      63      10      24      18      36      13
      24      27      42      13      27      12      66      10      27      24
      39      13      27      30      45      13      27      30      48      13
      30      27      42      13      33      15      69      16      45      30
      48      17      51      33      54      18
%FLAG ANGLES_WITHOUT_HYDROGEN                                                   
%FORMAT(10I8)                                                                   
       0      21       6       1       0      21      18       2       0      21
      33       3       0      30      27       2       3      18      21       5
       3      18      24       5       6      21      18       5       6      21
      33       7       9      24      18       5       9      24      27       5
      12      27      24       5      12      27      30       5      15      33
      21       8      18      21      33      11      18      24      27      12
      21       0      30      14      21      18      24      12      24      27
      30      12
%FLAG DIHEDRALS_INC_HYDROGEN                                                    
%FORMAT(10I8)                                                                   
       0      21       6      60       1       0      21      18      36       6
       0      21     -18      36       7       0      21      33      51       6
       0      21     -33      51       7       0      21      33      54       6
       0      21     -33      54       7       0      30      27      42       6
       0      30     -27      42       7       3      18      24      39       6
       3      18     -24      39       7       6      21      18      36       6
       6      21     -18      36       7       6      21      33      51       6
       6      21     -33      51       7       6      21      33      54       6
       6      21     -33      54       7       9      24      18      36       6
       9      24     -18      36       7       9      24      27      42       6
       9      24     -27      42       7      12      27      24      39       6
      12      27     -24      39       7      12      27      30      45       6
      12      27     -30      45       7      12      27      30      48       6
      12      27     -30      48       7      18      21       6      60      17
      18      21      33      51       5      18      21      33      54       5
      18      24       9      63      17      18      24      27      42       5
      21       0      30      45      19      21       0      30      48      19
      21      18       3      57      17      21      18      24      39       5
      21      33      15      69      17      24      18       3      57      17
      24      27      12      66      17      24      27      30      45       5
      24      27      30      48       5      27      24       9      63      17
      27      24      18      36       5      30      27      12      66      17
      30      27      24      39       5      33      21       6      60      17
      33      21      18      36       5      36      18       3      57      23
      36      18      24      39       5      39      24       9      63      23
      39      24      27      42       5      42      27      12      66      23
      42      27      30      45       5      42      27      30      48       5
      51      33      15      69      23      54      33      15      69      23
%FLAG DIHEDRALS_WITHOUT_HYDROGEN                                                
%FORMAT(10I8)                                                                   
       0      21      18       3       2       0      21     -18       3       3
       0      21     -18       3       4       0      21      18      24       5
       0      21      33      15       2       0      21     -33      15       3
       0      21     -33      15       4       0      30      27      12       2
       0      30     -27      12       3       0      30     -27      12       4
       0      30     -27      24       5       3      18      21       6       8
       3      18     -21       6       9       3      18      21      33      10
       3      18      24       9       8       3      18     -24       9       9
       3      18      24      27      10      30       0      21       6      11
      30       0     -21       6      12      30       0     -21       6      13
       6      21      18      24      10       6      21      33      15       8
       6      21     -33      15       9       9      24      18      21      10
       9      24      27      12       8       9      24     -27      12       9
       9      24      27      30      10      12      27      24      18      10
      15      33      21      18      10      30       0      21      18      14
      30       0     -21      18      15      30       0     -21      18      16
      18      24     -27      30      18      21       0      30      27      14
      21       0     -30      27      15      21       0     -30      27      16
      21      18     -24      27      18      24      18      21      33      18
      30       0      21      33      20      30       0     -21      33      21
      30       0     -21      33      22
%FLAG EXCLUDED_ATOMS_LIST                                                       
%FORMAT(10I8)                                                                   
       2       3       5       6       7       8       9      10      11      12
      13      15      16      17      18      19      21       3       4       7
       8       9      10      12      13      14      20       6       7       8
       9      11      12      13      18      19      21       5       7       8
       9      10      11      13      14      15      22       7       9      10
      11      14      15      16      17      23       7       8      12      18
      19      24       8       9      10      11      12      13      14      15
      18      19      20      21      22       9      10      11      12      13
      14      16      17      18      19      20      21      24      10      11
      12      13      14      15      16      17      20      22      23      11
      13      14      15      16      17      22      23      12      14      15
      16      17      23      13      18      19      21      24      14      20
      15      22      16      17      23      17       0      19      24      24
       0       0       0       0       0
%FLAG HBOND_ACOEF                                                               
%FORMAT(5E16.8)                                                                 

%FLAG HBOND_BCOEF                                                               
%FORMAT(5E16.8)                                                                 

%FLAG HBCUT                                                                     
%FORMAT(5E16.8)                                                                 

%FLAG AMBER_ATOM_TYPE                                                           
%FORMAT(20a4)                                                                   
os  oh  oh  oh  oh  oh  c6  c6  c6  c6  c6  c3  h1  h1  h1  h1  h1  h1  h1  ho  
ho  ho  ho  ho  
%FLAG TREE_CHAIN_CLASSIFICATION                                                 
%FORMAT(20a4)                                                                   
BLA BLA BLA BLA BLA BLA BLA BLA BLA BLA BLA BLA BLA BLA BLA BLA BLA BLA BLA BLA 
BLA BLA BLA BLA 
%FLAG JOIN_ARRAY                                                                
%FORMAT(10I8)                                                                   
       0       0       0       0       0       0       0       0       0       0
       0       0       0       0       0       0       0       0       0       0
       0       0       0       0
%FLAG IROTAT                                                                    
%FORMAT(10I8)                                                                   
       0       0       0       0       0       0       0       0       0       0
       0       0       0       0       0       0       0       0       0       0
       0       0       0       0
%FLAG RADIUS_SET                                                                
%FORMAT(1a80)                                                                   
modified Bondi radii (mbondi)                                                   
%FLAG RADII                                                                     
%FORMAT(5E16.8)                                                                 
  1.50000000E+00  1.50000000E+00  1.50000000E+00  1.50000000E+00  1.50000000E+00
  1.50000000E+00  1.50000000E+00  1.50000000E+00  1.50000000E+00  1.50000000E+00
  1.50000000E+00  1.70000000E+00  1.30000000E+00  1.30000000E+00  1.30000000E+00
  1.30000000E+00  1.30000000E+00  1.30000000E+00  1.30000000E+00  8.00000000E-01
  8.00000000E-01  8.00000000E-01  8.00000000E-01  8.00000000E-01
%FLAG SCREEN                                                                    
%FORMAT(5E16.8)                                                                 
  8.50000000E-01  8.50000000E-01  8.50000000E-01  8.50000000E-01  8.50000000E-01
  8.50000000E-01  8.00000000E-01  8.00000000E-01  8.00000000E-01  8.00000000E-01
  8.00000000E-01  7.20000000E-01  8.50000000E-01  8.50000000E-01  8.50000000E-01
  8.50000000E-01  8.50000000E-01  8.50000000E-01  8.50000000E-01  8.50000000E-01
  8.50000000E-01  8.50000000E-01  8.50000000E-01  8.50000000E-01
%FLAG IPOL                                                                      
%FORMAT(1I8)                                                                    
       0
