fructose_GMX.gro created by acpype (v: 2023.10.27) on Mon Feb  9 17:46:09 2026
 24
    1  UNL    O    1   0.066   0.132  -0.010
    1  UNL   O1    2   0.009  -0.231  -0.011
    1  UNL   O2    3   0.132  -0.035   0.144
    1  UNL   O3    4  -0.261  -0.124  -0.009
    1  UNL   O4    5  -0.206   0.127  -0.107
    1  UNL   O5    6   0.327   0.048  -0.037
    1  UNL    C    7  -0.021  -0.094  -0.035
    1  UNL   C1    8   0.099  -0.006   0.007
    1  UNL   C2    9  -0.147  -0.054   0.042
    1  UNL   C3   10  -0.172   0.097   0.029
    1  UNL   C4   11  -0.047   0.175   0.066
    1  UNL   C5   12   0.221  -0.036  -0.080
    1  UNL    H   13  -0.040  -0.083  -0.143
    1  UNL   H1   14  -0.137  -0.081   0.147
    1  UNL   H2   15  -0.257   0.128   0.091
    1  UNL   H3   16  -0.061   0.282   0.044
    1  UNL   H4   17  -0.025   0.167   0.173
    1  UNL   H5   18   0.202  -0.015  -0.185
    1  UNL   H6   19   0.255  -0.139  -0.069
    1  UNL   H7   20   0.074  -0.260  -0.077
    1  UNL   H8   21   0.226  -0.013   0.157
    1  UNL   H9   22  -0.262  -0.114  -0.105
    1  UNL  H10   23  -0.293   0.088  -0.125
    1  UNL  H11   24   0.298   0.140  -0.046
   12.40000    10.82400     7.16800
