2723872
    24
   0.6620000   1.3230000  -0.0990000   0.0900000  -2.3090000  -0.1070000
   1.3200000  -0.3530000   1.4360000  -2.6060000  -1.2360000  -0.0850000
  -2.0590000   1.2720000  -1.0690000   3.2710000   0.4760000  -0.3700000
  -0.2100000  -0.9370000  -0.3510000   0.9860000  -0.0640000   0.0750000
  -1.4720000  -0.5350000   0.4180000  -1.7210000   0.9670000   0.2860000
  -0.4710000   1.7540000   0.6620000   2.2100000  -0.3570000  -0.7960000
  -0.4000000  -0.8300000  -1.4270000  -1.3730000  -0.8120000   1.4740000
  -2.5690000   1.2770000   0.9060000  -0.6140000   2.8160000   0.4360000
  -0.2480000   1.6650000   1.7310000   2.0170000  -0.1490000  -1.8530000
   2.5520000  -1.3910000  -0.6880000   0.7360000  -2.5960000  -0.7740000
   2.2560000  -0.1280000   1.5720000  -2.6220000  -1.1370000  -1.0510000
  -2.9290000   0.8790000  -1.2480000   2.9750000   1.3980000  -0.4590000
