444679
    73
   8.2910000  -0.1010000   0.2590000  -0.4090000   0.3340000  -0.1000000
   0.3530000  -0.8640000   0.5000000  -1.8280000   0.0420000   0.4460000
   2.5560000   0.4480000   0.4290000   0.2260000   1.6160000   0.4650000
   1.8190000  -0.8660000   0.1500000  -0.5550000  -2.0550000   0.1830000
   4.0350000   0.5100000  -0.1710000  -1.9810000  -1.4870000   0.2830000
   1.7120000   1.7120000   0.0860000  -0.3890000   0.3550000  -1.6480000
  -2.9710000   0.8220000  -0.1890000   4.6680000  -0.8830000  -0.2860000
   4.8860000   1.4070000   0.7760000   2.4830000  -1.9690000  -0.2260000
   4.0530000   1.1090000  -1.5990000   3.9180000  -1.9960000  -0.3220000
   6.1690000  -0.9700000  -0.4300000   6.3880000   1.3560000   0.5070000
   6.9020000  -0.0800000   0.5690000  -2.7710000   2.3280000  -0.0020000
  -4.2910000   0.4000000   0.4080000  -5.2920000  -0.1430000  -0.3020000
  -6.6100000  -0.5790000   0.2990000  -7.8030000   0.1970000  -0.3280000
  -6.7370000  -2.0960000   0.1180000  -7.6750000   1.7130000  -0.1310000
  -9.1480000  -0.2620000   0.2550000   0.3350000  -0.7650000   1.5990000
  -1.8280000   0.2470000   1.5280000   2.6500000   0.4530000   1.5270000
   0.1370000   1.6390000   1.5580000  -0.2470000   2.5250000   0.0950000
  -0.4040000  -2.8810000   0.8870000  -0.3790000  -2.4450000  -0.8260000
  -2.5430000  -1.7580000  -0.6180000  -2.5100000  -1.9160000   1.1420000
   1.7540000   1.9310000  -0.9850000   2.1460000   2.5840000   0.5910000
   0.6250000   0.2720000  -2.0510000  -0.9630000  -0.4690000  -2.0840000
  -0.8100000   1.2870000  -2.0410000  -3.0080000   0.6260000  -1.2680000
   4.7290000   1.0970000   1.8180000   4.5520000   2.4500000   0.7120000
   1.9760000  -2.9170000  -0.3690000   5.0340000   1.0230000  -2.0780000
   3.3330000   0.6010000  -2.2520000   3.8150000   2.1790000  -1.5930000
   4.3750000  -2.9740000  -0.4330000   6.5240000  -2.0020000  -0.3100000
   6.4530000  -0.6890000  -1.4520000   6.6260000   1.8030000  -0.4660000
   6.9180000   1.9680000   1.2470000   6.7790000  -0.4800000   1.5830000
  -2.4270000   2.5820000   1.0060000  -3.7160000   2.8640000  -0.1600000
  -2.0830000   2.7370000  -0.7460000  -4.4190000   0.5490000   1.4780000
  -5.1660000  -0.2930000  -1.3720000   8.7450000   0.4660000   0.9060000
  -6.5990000  -0.3780000   1.3800000  -7.8270000   0.0040000  -1.4090000
  -7.5770000  -2.4970000   0.6930000  -5.8370000  -2.6130000   0.4710000
  -6.8860000  -2.3630000  -0.9350000  -8.5440000   2.2340000  -0.5480000
  -7.6060000   1.9690000   0.9310000  -6.7900000   2.1110000  -0.6370000
  -9.1570000  -0.1750000   1.3460000  -9.9700000   0.3450000  -0.1390000
  -9.3650000  -1.3010000  -0.0110000
