%VERSION  VERSION_STAMP = V0001.000  DATE = 02/09/26  17:45:57                  
%FLAG TITLE                                                                     
%FORMAT(20a4)                                                                   
444679                                                                          
%FLAG POINTERS                                                                  
%FORMAT(10I8)                                                                   
      73       7      44      32     101      50     177      75       0       0
     467       1      32      50      75      20      41      18      10       0
       0       0       0       0       0       0       0       0      73       0
       0
%FLAG ATOM_NAME                                                                 
%FORMAT(20a4)                                                                   
O   C   C1  C2  C3  C4  C5  C6  C7  C8  C9  C10 C11 C12 C13 C14 C15 C16 C17 C18 
C19 C20 C21 C22 C23 C24 C25 C26 C27 H   H1  H2  H3  H4  H5  H6  H7  H8  H9  H10 
H11 H12 H13 H14 H15 H16 H17 H18 H19 H20 H21 H22 H23 H24 H25 H26 H27 H28 H29 H30 
H31 H32 H33 H34 H35 H36 H37 H38 H39 H40 H41 H42 H43 
%FLAG CHARGE                                                                    
%FORMAT(5E16.8)                                                                 
 -1.09661801E+01 -7.65336600E-01 -6.10447050E-01 -9.42092910E-01 -2.82445650E-01
 -1.22818302E+00 -1.48329522E+00 -1.31929452E+00  5.83113600E-02 -1.42862832E+00
 -1.33751682E+00 -1.49605083E+00 -4.82890950E-01 -1.92063042E+00 -1.22818302E+00
 -2.66045580E+00 -1.56894003E+00 -2.40534360E+00 -6.96091860E-01 -2.06640882E+00
  2.64405573E+00 -1.58716233E+00 -3.06499086E+00 -3.02854626E+00 -5.74002450E-01
 -1.10609361E+00 -1.58716233E+00 -1.65094038E+00 -1.65094038E+00  9.96759810E-01
  8.50981410E-01  9.60315210E-01  7.68981060E-01  7.68981060E-01  8.23647960E-01
  8.23647960E-01  8.14536810E-01  8.14536810E-01  7.96314510E-01  7.96314510E-01
  6.93048736E-01  6.93048736E-01  6.93048736E-01  9.96759810E-01  7.96314510E-01
  7.96314510E-01  2.38712130E+00  7.17357284E-01  7.17357284E-01  7.17357284E-01
  2.33245440E+00  1.13342706E+00  1.13342706E+00  8.69203710E-01  8.69203710E-01
  6.68758410E-01  6.50536110E-01  6.50536110E-01  6.50536110E-01  2.20489830E+00
  2.20489830E+00  7.27069770E+00  9.23870610E-01  8.32759110E-01  6.38381836E-01
  6.38381836E-01  6.38381836E-01  6.23202660E-01  6.23202660E-01  6.23202660E-01
  6.23202660E-01  6.23202660E-01  6.23202660E-01
%FLAG ATOMIC_NUMBER                                                             
%FORMAT(10I8)                                                                   
       8       6       6       6       6       6       6       6       6       6
       6       6       6       6       6       6       6       6       6       6
       6       6       6       6       6       6       6       6       6       1
       1       1       1       1       1       1       1       1       1       1
       1       1       1       1       1       1       1       1       1       1
       1       1       1       1       1       1       1       1       1       1
       1       1       1       1       1       1       1       1       1       1
       1       1       1
%FLAG MASS                                                                      
%FORMAT(5E16.8)                                                                 
  1.60000000E+01  1.20100000E+01  1.20100000E+01  1.20100000E+01  1.20100000E+01
  1.20100000E+01  1.20100000E+01  1.20100000E+01  1.20100000E+01  1.20100000E+01
  1.20100000E+01  1.20100000E+01  1.20100000E+01  1.20100000E+01  1.20100000E+01
  1.20100000E+01  1.20100000E+01  1.20100000E+01  1.20100000E+01  1.20100000E+01
  1.20100000E+01  1.20100000E+01  1.20100000E+01  1.20100000E+01  1.20100000E+01
  1.20100000E+01  1.20100000E+01  1.20100000E+01  1.20100000E+01  1.00800000E+00
  1.00800000E+00  1.00800000E+00  1.00800000E+00  1.00800000E+00  1.00800000E+00
  1.00800000E+00  1.00800000E+00  1.00800000E+00  1.00800000E+00  1.00800000E+00
  1.00800000E+00  1.00800000E+00  1.00800000E+00  1.00800000E+00  1.00800000E+00
  1.00800000E+00  1.00800000E+00  1.00800000E+00  1.00800000E+00  1.00800000E+00
  1.00800000E+00  1.00800000E+00  1.00800000E+00  1.00800000E+00  1.00800000E+00
  1.00800000E+00  1.00800000E+00  1.00800000E+00  1.00800000E+00  1.00800000E+00
  1.00800000E+00  1.00800000E+00  1.00800000E+00  1.00800000E+00  1.00800000E+00
  1.00800000E+00  1.00800000E+00  1.00800000E+00  1.00800000E+00  1.00800000E+00
  1.00800000E+00  1.00800000E+00  1.00800000E+00
%FLAG ATOM_TYPE_INDEX                                                           
%FORMAT(10I8)                                                                   
       1       2       2       2       2       2       3       2       2       2
       2       2       2       3       2       3       2       3       2       2
       2       2       3       3       2       2       2       2       2       4
       4       4       4       4       4       4       4       4       4       4
       4       4       4       4       4       4       5       4       4       4
       5       4       4       4       4       6       4       4       4       5
       5       7       4       4       4       4       4       4       4       4
       4       4       4
%FLAG NUMBER_EXCLUDED_ATOMS                                                     
%FORMAT(10I8)                                                                   
      11      27      25      26      24      17      18      10      22      11
      10       8      13      18      14       6       9       6       9       9
       8       8      12      13      17      15       8       9       8       2
       3       2       3       2       3       2       1       1       1       1
       2       1       1       4       3       2       1       2       1       1
       1       2       1       2       1       1       2       1       1       1
       1       1       4       6       2       1       1       2       1       1
       2       1       1
%FLAG NONBONDED_PARM_INDEX                                                      
%FORMAT(10I8)                                                                   
       1       2       4       7      11      16      22       2       3       5
       8      12      17      23       4       5       6       9      13      18
      24       7       8       9      10      14      19      25      11      12
      13      14      15      20      26      16      17      18      19      20
      21      27      22      23      24      25      26      27      28
%FLAG RESIDUE_LABEL                                                             
%FORMAT(20a4)                                                                   
UNL 
%FLAG RESIDUE_POINTER                                                           
%FORMAT(10I8)                                                                   
       1
%FLAG BOND_FORCE_CONSTANT                                                       
%FORMAT(5E16.8)                                                                 
  2.85250000E+02  5.35510000E+02  2.20100000E+02  2.26470000E+02  2.27640000E+02
  2.43380000E+02  3.46430000E+02  2.44960000E+02  2.26810000E+02  3.42750000E+02
  4.24300000E+02  2.23800000E+02  3.45250000E+02  2.28890000E+02  2.48400000E+02
  2.88330000E+02  3.57590000E+02  3.42020000E+02  4.36000000E+02  3.57290000E+02
%FLAG BOND_EQUIL_VALUE                                                          
%FORMAT(5E16.8)                                                                 
  1.42410000E+00  9.72500000E-01  1.54830000E+00  1.53890000E+00  1.53720000E+00
  1.51540000E+00  1.09540000E+00  1.51330000E+00  1.53840000E+00  1.09790000E+00
  1.34570000E+00  1.54280000E+00  1.09620000E+00  1.53540000E+00  1.50880000E+00
  1.46150000E+00  1.08800000E+00  1.09840000E+00  1.33790000E+00  1.08820000E+00
%FLAG ANGLE_FORCE_CONSTANT                                                      
%FORMAT(5E16.8)                                                                 
  7.65600000E+01  5.63900000E+01  6.12900000E+01  6.18400000E+01  4.26500000E+01
  5.93300000E+01  6.01700000E+01  4.32400000E+01  4.30600000E+01  5.92600000E+01
  5.90600000E+01  6.36800000E+01  5.95600000E+01  6.00200000E+01  6.12000000E+01
  6.05700000E+01  6.01800000E+01  5.99900000E+01  4.32300000E+01  6.03300000E+01
  4.35800000E+01  4.39000000E+01  6.24000000E+01  4.62400000E+01  5.98700000E+01
  4.28900000E+01  4.36000000E+01  4.32700000E+01  6.08800000E+01  4.29500000E+01
  6.09300000E+01  4.38700000E+01  4.32800000E+01  6.52300000E+01  6.04000000E+01
  4.37600000E+01  4.63700000E+01  5.98700000E+01  3.59300000E+01  3.59100000E+01
  3.58000000E+01
%FLAG ANGLE_EQUIL_VALUE                                                         
%FORMAT(5E16.8)                                                                 
  1.92073567E+00  1.91916487E+00  1.88390920E+00  1.81217614E+00  1.94028336E+00
  1.98269488E+00  1.93801443E+00  1.90834382E+00  1.92911325E+00  1.98531288E+00
  2.07711723E+00  1.97396823E+00  1.98444021E+00  1.98758180E+00  2.14064725E+00
  1.94447215E+00  1.93836350E+00  1.94482122E+00  1.91026369E+00  1.92963685E+00
  1.93242938E+00  1.90782022E+00  2.15077016E+00  2.09439600E+00  2.02388467E+00
  1.93085858E+00  1.88129121E+00  1.91427794E+00  2.18078984E+00  2.00800217E+00
  1.91584874E+00  2.03540385E+00  1.90555129E+00  1.86872483E+00  1.96489251E+00
  1.93120765E+00  2.10120279E+00  1.96576518E+00  1.86087085E+00  1.87134283E+00
  1.88024401E+00
%FLAG DIHEDRAL_FORCE_CONSTANT                                                   
%FORMAT(5E16.8)                                                                 
  1.55555556E-01  9.00000000E-02  1.80000000E-01  0.00000000E+00  5.20000000E-01
  1.30000000E-01  1.50000000E-01  6.65000000E+00  7.40000000E-01  1.00000000E+00
  1.50000000E-01  5.78000000E+00  1.33000000E+00  6.00000000E-02  2.60000000E-01
  1.20000000E-01  1.23000000E-01  1.10000000E+00
%FLAG DIHEDRAL_PERIODICITY                                                      
%FORMAT(5E16.8)                                                                 
  3.00000000E+00  3.00000000E+00  3.00000000E+00  2.00000000E+00  3.00000000E+00
  3.00000000E+00  3.00000000E+00  2.00000000E+00  3.00000000E+00  2.00000000E+00
  1.00000000E+00  2.00000000E+00  3.00000000E+00  3.00000000E+00  3.00000000E+00
  3.00000000E+00  3.00000000E+00  2.00000000E+00
%FLAG DIHEDRAL_PHASE                                                            
%FORMAT(5E16.8)                                                                 
  0.00000000E+00  0.00000000E+00  0.00000000E+00  0.00000000E+00  0.00000000E+00
  0.00000000E+00  0.00000000E+00  3.14159400E+00  0.00000000E+00  3.14159400E+00
  0.00000000E+00  3.14159400E+00  3.14159400E+00  0.00000000E+00  3.14159400E+00
  0.00000000E+00  0.00000000E+00  3.14159400E+00
%FLAG SCEE_SCALE_FACTOR                                                         
%FORMAT(5E16.8)                                                                 
  1.20000000E+00  1.20000000E+00  1.20000000E+00  1.20000000E+00  1.20000000E+00
  1.20000000E+00  1.20000000E+00  1.20000000E+00  1.20000000E+00  1.20000000E+00
  1.20000000E+00  1.20000000E+00  1.20000000E+00  1.20000000E+00  1.20000000E+00
  1.20000000E+00  1.20000000E+00  0.00000000E+00
%FLAG SCNB_SCALE_FACTOR                                                         
%FORMAT(5E16.8)                                                                 
  2.00000000E+00  2.00000000E+00  2.00000000E+00  2.00000000E+00  2.00000000E+00
  2.00000000E+00  2.00000000E+00  2.00000000E+00  2.00000000E+00  2.00000000E+00
  2.00000000E+00  2.00000000E+00  2.00000000E+00  2.00000000E+00  2.00000000E+00
  2.00000000E+00  2.00000000E+00  0.00000000E+00
%FLAG SOLTY                                                                     
%FORMAT(5E16.8)                                                                 
  0.00000000E+00  0.00000000E+00  0.00000000E+00  0.00000000E+00  0.00000000E+00
  0.00000000E+00  0.00000000E+00  0.00000000E+00  0.00000000E+00  0.00000000E+00
%FLAG LENNARD_JONES_ACOEF                                                       
%FORMAT(5E16.8)                                                                 
  5.03152404E+05  7.18991463E+05  1.02073671E+06  5.92438683E+05  8.43969952E+05
  6.96551276E+05  6.80216136E+04  1.00235148E+05  8.12662403E+04  7.94617769E+03
  6.30298721E+04  9.27554496E+04  7.52549148E+04  7.41026906E+03  6.90855956E+03
  4.69084694E+04  6.97998263E+04  5.63013422E+04  5.22955465E+03  4.88692384E+03
  3.39005767E+03  1.74176419E+02  3.03553352E+02  2.25372434E+02  8.80612241E+00
  8.53132435E+00  4.36660257E+00  1.10360882E-05
%FLAG LENNARD_JONES_BCOEF                                                       
%FORMAT(5E16.8)                                                                 
  4.32634597E+02  5.36620538E+02  6.63431737E+02  4.76608379E+02  5.90251928E+02
  5.24668528E+02  1.09393126E+02  1.37787728E+02  1.21392023E+02  2.57122925E+01
  9.87712192E+01  1.24325688E+02  1.09570372E+02  2.32899892E+01  2.10929191E+01
  9.08431526E+01  1.14981426E+02  1.01040256E+02  2.08590256E+01  1.89134207E+01
  1.67944276E+01  3.81654050E+00  5.22789272E+00  4.40751799E+00  5.90150328E-01
  5.44840215E-01  4.15568027E-01  4.55498033E-04
%FLAG BONDS_INC_HYDROGEN                                                        
%FORMAT(10I8)                                                                   
       0     183       2       6      87       7       9      90       7      12
      93      10      15      96      10      15      99      10      21     102
       7      21     105       7      27     108       7      27     111       7
      30     114      10      30     117      10      33     120      13      33
     123      13      33     126      13      36     129      13      42     132
      10      42     135      10      45     138      17      48     141      13
      48     144      13      48     147      13      51     150      17      54
     153      10      54     156      10      57     159      10      57     162
      10      60     165      18      63     168      13      63     171      13
      63     174      13      66     177      20      69     180      20      72
     186      13      75     189      13      78     192      13      78     195
      13      78     198      13      81     201      13      81     204      13
      81     207      13      84     210      13      84     213      13      84
     216      13
%FLAG BONDS_WITHOUT_HYDROGEN                                                    
%FORMAT(10I8)                                                                   
       0      60       1       3       6       3       3       9       3       3
      15       4       3      33       5       6      18       6       6      21
       3       9      27       3       9      36       5      12      18       8
      12      24       9      12      30       9      15      30       9      18
      45      11      21      27       3      24      39       8      24      42
       9      24      48      12      36      63      14      36      66      15
      39      51      11      39      54       8      42      57       9      45
      51      16      54      60       9      57      60       9      66      69
      19      69      72      15      72      75      14      72      78      14
      75      81      14      75      84      14
%FLAG ANGLES_INC_HYDROGEN                                                       
%FORMAT(10I8)                                                                   
       0      60     165       2       3       6      87       5       3       9
      90       5       3      15      96       8       3      15      99       8
       3      33     120       9       3      33     123       9       3      33
     126       9       6      21     102       5       6      21     105       5
       9      27     108       5       9      27     111       5       9      36
     129       9      12      30     114      19      12      30     117      19
      15      30     114      19      15      30     117      19      18       6
      87      21      18      12      93      22      18      45     138      24
      21       6      87       5      21      27     108       5      21      27
     111       5      24      12      93      19      24      42     132      19
      24      42     135      19      24      48     141      26      24      48
     144      26      24      48     147      26      27       9      90       5
      27      21     102       5      27      21     105       5      30      12
      93      19      30      15      96      19      30      15      99      19
      36       9      90      27      36      63     168      28      36      63
     171      28      36      63     174      28      36      66     177      30
      39      51     150      24      39      54     153      22      39      54
     156      22      42      57     159      19      42      57     162      19
      45      51     150      32      51      45     138      32      54      60
     165      33      57      42     132      19      57      42     135      19
      57      60     165      33      60       0     183      34      60      54
     153      19      60      54     156      19      60      57     159      19
      60      57     162      19      63      36     129      28      66      36
     129      36      66      69     180      37      69      66     177      37
      69      72     186      36      72      69     180      30      72      75
     189      28      72      78     192      28      72      78     195      28
      72      78     198      28      75      72     186      28      75      81
     201      28      75      81     204      28      75      81     207      28
      75      84     210      28      75      84     213      28      75      84
     216      28      78      72     186      28      81      75     189      28
      84      75     189      28      96      15      99      39     102      21
     105      40     108      27     111      40     114      30     117      39
     120      33     123      41     120      33     126      41     123      33
     126      41     132      42     135      39     141      48     144      41
     141      48     147      41     144      48     147      41     153      54
     156      39     159      57     162      39     168      63     171      41
     168      63     174      41     171      63     174      41     192      78
     195      41     192      78     198      41     195      78     198      41
     201      81     204      41     201      81     207      41     204      81
     207      41     210      84     213      41     210      84     216      41
     213      84     216      41
%FLAG ANGLES_WITHOUT_HYDROGEN                                                   
%FORMAT(10I8)                                                                   
       0      60      54       1       0      60      57       1       3       6
      18       3       3       6      21       4       3       9      27       4
       3       9      36       6       3      15      30       7       6       3
       9       4       6       3      15      10       6       3      33       6
       6      18      12      11       6      18      45      12       6      21
      27       4       9       3      15      10       9       3      33       6
       9      27      21       4       9      36      63      13       9      36
      66      14      12      18      45      15      12      24      39      16
      12      24      42      17      12      24      48      18      12      30
      15      17      15       3      33      20      18       6      21       3
      18      12      24      16      18      12      30      16      18      45
      51      23      24      12      30      17      24      39      51      15
      24      39      54      25      24      42      57      17      27       9
      36       6      36      66      69      29      39      24      42      16
      39      24      48      31      39      51      45      23      39      54
      60      16      42      24      48      18      42      57      60      17
      51      39      54      15      54      60      57      17      63      36
      66      35      66      69      72      29      69      72      75      35
      69      72      78      35      72      75      81      38      72      75
      84      38      75      72      78      38      81      75      84      38
%FLAG DIHEDRALS_INC_HYDROGEN                                                    
%FORMAT(10I8)                                                                   
       0      60      54     153       2       0      60      54     156       2
       0      60      57     159       2       0      60      57     162       2
       3       6      21     102       6       3       6      21     105       6
       3       9      27     108       6       3       9      27     111       6
       3       9      36     129       6       3      15      30     114       6
       3      15      30     117       6       6       3       9      90       6
       6       3      15      96       6       6       3      15      99       6
       6       3      33     120       6       6       3      33     123       6
       6       3      33     126       6       6      18      12      93       7
       6      18      45     138       8       6      21      27     108       6
       6      21      27     111       6       9       3       6      87       6
       9       3      15      96       6       9       3      15      99       6
       9       3      33     120       6       9       3      33     123       6
       9       3      33     126       6       9      27      21     102       6
       9      27      21     105       6       9      36      63     168       6
       9      36      63     171       6       9      36      63     174       6
       9      36      66     177       4      12      18       6      87       7
      12      18      45     138       8      12      24      42     132       6
      12      24      42     135       6      12      24      48     141       6
      12      24      48     144       6      12      24      48     147       6
      12      30      15      96       6      12      30      15      99       6
      15       3       6      87       6      15       3       9      90       6
      15       3      33     120       6      15       3      33     123       6
      15       3      33     126       6      15      30      12      93       6
      18       6      21     102       1      18       6      21     105       1
      18      12      30     114       1      18      12      30     117       1
      18      45      51     150      10      21      27       9      90       6
      24      12      30     114       6      24      12      30     117       6
      24      39      51     150       8      24      39      54     153       7
      24      39      54     156       7      24      42      57     159       6
      24      42      57     162       6      27       9      36     129       6
      27      21       6      87       6      33       3       6      87       6
      33       3       9      90       6      33       3      15      96       6
      33       3      15      99       6      36       9      27     108       6
      36       9      27     111       6      36      66      69     180       8
      39      24      12      93       1      39      24      42     132       1
      39      24      42     135       1      39      24      48     141       1
      39      24      48     144       1      39      24      48     147       1
      39      51      45     138      10      39      54      60     165       1
      42      24      12      93       6      42      24      48     141       6
      42      24      48     144       6      42      24      48     147       6
      42      57      60     165       1      45      18       6      87       4
      45      18      12      93       4      48      24      12      93       6
      48      24      42     132       6      48      24      42     135       6
      51      39      54     153       4      51      39      54     156       4
      54      39      51     150       8     183       0      60      54      14
      54      60      57     159       6      54      60      57     162       6
     183       0      60      57      14      57      60      54     153       6
      57      60      54     156       6      60      57      42     132       6
      60      57      42     135       6      63      36       9      90       6
      63      36      66     177       4      66      36       9      90       1
      66      36      63     168       1      66      36      63     171       1
      66      36      63     174       1      66      69      72     186      15
      69      66      36     129      15      69      72      75     189       1
      69      72      78     192       1      69      72      78     195       1
      69      72      78     198       1      72      69      66     177       8
      72      75      81     201       6      72      75      81     204       6
      72      75      81     207       6      72      75      84     210       6
      72      75      84     213       6      72      75      84     216       6
      75      72      69     180       4      75      72      78     192       6
      75      72      78     195       6      75      72      78     198       6
      78      72      69     180       4      78      72      75     189       6
      81      75      72     186       6      81      75      84     210       6
      81      75      84     213       6      81      75      84     216       6
      84      75      72     186       6      84      75      81     201       6
      84      75      81     204       6      84      75      81     207       6
      87       6      21     102      16      87       6      21     105      16
      90       9      27     108      16      90       9      27     111      16
      90       9      36     129      16      93      12      30     114      16
      93      12      30     117      16      96      15      30     114      16
      96      15      30     117      16      99      15      30     114      16
      99      15      30     117      16     102      21      27     108      16
     102      21      27     111      16     105      21      27     108      16
     105      21      27     111      16     129      36      63     168      16
     129      36      63     171      16     129      36      63     174      16
     129      36      66     177       4     132      42      57     159      16
     132      42      57     162      16     135      42      57     159      16
     135      42      57     162      16     138      45      51     150      10
     153      54      60     165       1     156      54      60     165       1
     159      57      60     165       1     162      57      60     165       1
     183       0      60     165      17     177      66      69     180       8
     180      69      72     186       4     186      72      75     189      16
     186      72      78     192      16     186      72      78     195      16
     186      72      78     198      16     189      75      81     201      16
     189      75      81     204      16     189      75      81     207      16
     189      75      84     210      16     189      75      84     213      16
     189      75      84     216      16      18      51     -45    -138      18
      39      45     -51    -150      18      69      36     -66    -177      18
      66      72     -69    -180      18
%FLAG DIHEDRALS_WITHOUT_HYDROGEN                                                
%FORMAT(10I8)                                                                   
       0      60      54      39       1       0      60      57      42       3
       3       6      18      12       4       3       6      18      45       4
       3       6     -21      27       5       3       9     -27      21       5
       3       9      36      63       5       3       9      36      66       1
       3      15     -30      12       5       6       3      -9      27       5
       6       3       9      36       5       6       3      15      30       5
       6      18      12      24       4       6      18     -12      30       4
       6      18      45      51       8       6      21     -27       9       5
       9       3       6      18       1       9       3      -6      21       5
       9       3      15      30       5       9      36      66      69       4
      12      18       6      21       4      12      18      45      51       8
      12      24     -39      51       4      12      24      39      54       4
      12      24      42      57       5      15       3       6      18       1
      15       3       6      21       5      15       3       9      27       5
      15       3       9      36       5      15      30     -12      18       1
      15      30      12      24       5      18       6       3      33       1
      18       6      21      27       1      18      12      24      39       1
      18      12      24      42       1      18      12      24      48       1
      18      45     -51      39       9      21       6       3      33       5
      21       6      18      45       4      21      27       9      36       5
      24      12      18      45       4      24      39     -51      45       8
      24      39      54      60       4      24      42     -57      60       5
      27       9       3      33       5      27       9      36      63       5
      27       9      36      66       1      30      12      18      45       4
      30      12      24      39       1      30      12      24      42       5
      30      12      24      48       5      30      15       3      33       5
      33       3       9      36       5      36      66      69      72      11
      36      66     -69      72      12      36      66     -69      72      13
      39      24      42      57       1      39      54     -60      57       1
      42      24      39      51       4      42      24      39      54       4
      42      57     -60      54       5      45      51      39      54       8
      48      24      39      51       4      48      24      39      54       4
      48      24      42      57       5      51      39      54      60       4
      63      36      66      69       4      66      69      72      75       4
      66      69      72      78       4      69      72      75      81       1
      69      72      75      84       1      78      72      75      81       5
      78      72      75      84       5       6      12     -18     -45      18
      24      54     -39     -51      18
%FLAG EXCLUDED_ATOMS_LIST                                                       
%FORMAT(10I8)                                                                   
      14      15      19      20      21      52      53      54      55      56
      62       3       4       5       6       7       8      10      11      12
      13      16      22      23      30      31      33      34      35      36
      37      38      39      40      41      42      43      44       4       5
       6       7       8       9      10      11      12      13      16      18
      30      31      32      33      34      35      36      37      38      41
      42      43      47       6       7       8      10      11      12      13
      22      23      24      30      31      33      34      35      36      37
      38      41      42      43      44      57      58      59      60       6
       7       8       9      11      14      15      16      17      18      19
      20      30      32      33      34      39      40      45      46      47
      48      49      50       7       8       9      10      11      12      13
      30      31      32      33      34      39      40      41      42      43
       8       9      10      11      12      14      15      16      17      18
      30      32      35      36      39      40      47      51      10      12
      13      16      30      31      35      36      37      38      11      14
      15      16      17      18      19      20      21      32      39      40
      45      46      48      49      50      51      52      53      54      55
      12      13      22      23      30      31      35      36      37      38
      44      12      14      15      16      17      32      33      34      39
      40      13      30      31      33      34      41      42      43      22
      23      24      25      31      37      38      44      57      58      59
      60      61      15      16      17      18      19      20      21      32
      45      46      47      48      49      50      51      52      53      56
      17      18      19      20      21      32      45      46      48      49
      50      54      55      56      18      19      30      32      47      51
      18      19      20      32      45      46      48      49      50      19
      21      47      51      52      53      20      21      51      52      53
      54      55      56      62      21      45      46      52      53      54
      55      56      62      45      46      52      53      54      55      56
      62      23      24      31      44      57      58      59      60      24
      25      26      27      31      44      57      58      59      60      61
      63      25      26      27      28      29      44      60      61      63
      64      65      66      67      26      27      28      29      60      61
      63      64      65      66      67      68      69      70      71      72
      73      27      28      29      61      63      64      65      66      67
      68      69      70      71      72      73      28      29      61      63
      64      65      66      67      29      63      64      68      69      70
      71      72      73      63      64      68      69      70      71      72
      73      35      36      37      38      44      39      40      34      39
      40      39      40      36      37      38      37      38      38       0
      40       0      42      43      43       0      57      58      59      60
      46      54      55      54      55      51      49      50      50       0
       0      53      56      56      55      56      56      62      58      59
      59       0      61      63       0      64      65      66      67      68
      69      70      71      72      73      66      67      67       0      69
      70      70       0      72      73      73       0
%FLAG HBOND_ACOEF                                                               
%FORMAT(5E16.8)                                                                 

%FLAG HBOND_BCOEF                                                               
%FORMAT(5E16.8)                                                                 

%FLAG HBCUT                                                                     
%FORMAT(5E16.8)                                                                 

%FLAG AMBER_ATOM_TYPE                                                           
%FORMAT(20a4)                                                                   
oh  c5  c5  c5  c6  c6  c2  c5  c6  c5  c6  c3  c3  c2  c6  ce  c3  ce  c6  c6  
c6  c3  c2  c2  c3  c3  c3  c3  c3  hc  hc  hc  hc  hc  hc  hc  hc  hc  hc  hc  
hc  hc  hc  hc  hc  hc  ha  hc  hc  hc  ha  hc  hc  hc  hc  h1  hc  hc  hc  ha  
ha  ho  hc  hc  hc  hc  hc  hc  hc  hc  hc  hc  hc  
%FLAG TREE_CHAIN_CLASSIFICATION                                                 
%FORMAT(20a4)                                                                   
BLA BLA BLA BLA BLA BLA BLA BLA BLA BLA BLA BLA BLA BLA BLA BLA BLA BLA BLA BLA 
BLA BLA BLA BLA BLA BLA BLA BLA BLA BLA BLA BLA BLA BLA BLA BLA BLA BLA BLA BLA 
BLA BLA BLA BLA BLA BLA BLA BLA BLA BLA BLA BLA BLA BLA BLA BLA BLA BLA BLA BLA 
BLA BLA BLA BLA BLA BLA BLA BLA BLA BLA BLA BLA BLA 
%FLAG JOIN_ARRAY                                                                
%FORMAT(10I8)                                                                   
       0       0       0       0       0       0       0       0       0       0
       0       0       0       0       0       0       0       0       0       0
       0       0       0       0       0       0       0       0       0       0
       0       0       0       0       0       0       0       0       0       0
       0       0       0       0       0       0       0       0       0       0
       0       0       0       0       0       0       0       0       0       0
       0       0       0       0       0       0       0       0       0       0
       0       0       0
%FLAG IROTAT                                                                    
%FORMAT(10I8)                                                                   
       0       0       0       0       0       0       0       0       0       0
       0       0       0       0       0       0       0       0       0       0
       0       0       0       0       0       0       0       0       0       0
       0       0       0       0       0       0       0       0       0       0
       0       0       0       0       0       0       0       0       0       0
       0       0       0       0       0       0       0       0       0       0
       0       0       0       0       0       0       0       0       0       0
       0       0       0
%FLAG RADIUS_SET                                                                
%FORMAT(1a80)                                                                   
modified Bondi radii (mbondi)                                                   
%FLAG RADII                                                                     
%FORMAT(5E16.8)                                                                 
  1.50000000E+00  1.70000000E+00  1.70000000E+00  1.70000000E+00  1.50000000E+00
  1.50000000E+00  1.70000000E+00  1.70000000E+00  1.50000000E+00  1.70000000E+00
  1.50000000E+00  1.70000000E+00  1.70000000E+00  1.70000000E+00  1.50000000E+00
  1.70000000E+00  1.70000000E+00  1.70000000E+00  1.50000000E+00  1.50000000E+00
  1.50000000E+00  1.70000000E+00  1.70000000E+00  1.70000000E+00  1.70000000E+00
  1.70000000E+00  1.70000000E+00  1.70000000E+00  1.70000000E+00  1.30000000E+00
  1.30000000E+00  1.30000000E+00  1.30000000E+00  1.30000000E+00  1.30000000E+00
  1.30000000E+00  1.30000000E+00  1.30000000E+00  1.30000000E+00  1.30000000E+00
  1.30000000E+00  1.30000000E+00  1.30000000E+00  1.30000000E+00  1.30000000E+00
  1.30000000E+00  1.30000000E+00  1.30000000E+00  1.30000000E+00  1.30000000E+00
  1.30000000E+00  1.30000000E+00  1.30000000E+00  1.30000000E+00  1.30000000E+00
  1.30000000E+00  1.30000000E+00  1.30000000E+00  1.30000000E+00  1.30000000E+00
  1.30000000E+00  8.00000000E-01  1.30000000E+00  1.30000000E+00  1.30000000E+00
  1.30000000E+00  1.30000000E+00  1.30000000E+00  1.30000000E+00  1.30000000E+00
  1.30000000E+00  1.30000000E+00  1.30000000E+00
%FLAG SCREEN                                                                    
%FORMAT(5E16.8)                                                                 
  8.50000000E-01  7.20000000E-01  7.20000000E-01  7.20000000E-01  8.00000000E-01
  8.00000000E-01  7.20000000E-01  7.20000000E-01  8.00000000E-01  7.20000000E-01
  8.00000000E-01  7.20000000E-01  7.20000000E-01  7.20000000E-01  8.00000000E-01
  7.20000000E-01  7.20000000E-01  7.20000000E-01  8.00000000E-01  8.00000000E-01
  8.00000000E-01  7.20000000E-01  7.20000000E-01  7.20000000E-01  7.20000000E-01
  7.20000000E-01  7.20000000E-01  7.20000000E-01  7.20000000E-01  8.50000000E-01
  8.50000000E-01  8.50000000E-01  8.50000000E-01  8.50000000E-01  8.50000000E-01
  8.50000000E-01  8.50000000E-01  8.50000000E-01  8.50000000E-01  8.50000000E-01
  8.50000000E-01  8.50000000E-01  8.50000000E-01  8.50000000E-01  8.50000000E-01
  8.50000000E-01  8.50000000E-01  8.50000000E-01  8.50000000E-01  8.50000000E-01
  8.50000000E-01  8.50000000E-01  8.50000000E-01  8.50000000E-01  8.50000000E-01
  8.50000000E-01  8.50000000E-01  8.50000000E-01  8.50000000E-01  8.50000000E-01
  8.50000000E-01  8.50000000E-01  8.50000000E-01  8.50000000E-01  8.50000000E-01
  8.50000000E-01  8.50000000E-01  8.50000000E-01  8.50000000E-01  8.50000000E-01
  8.50000000E-01  8.50000000E-01  8.50000000E-01
%FLAG IPOL                                                                      
%FORMAT(1I8)                                                                    
       0
