; ergosterol_GMX_OPLS.top created by acpype (v: 2023.10.27) on Mon Feb  9 17:44:17 2026

; Include forcefield parameters
#include "ffoplsaa.itp"

; Include ergosterol_GMX.itp topology
#include "ergosterol_GMX.itp"

; Ligand position restraints
#ifdef POSRES_LIG
#include "posre_ergosterol.itp"
#endif

[ system ]
 ergosterol

[ molecules ]
; Compound        nmols
 ergosterol       1     
