; ergosterol_GMX.itp created by acpype (v: 2023.10.27) on Mon Feb  9 17:44:17 2026

[ atomtypes ]
;name   bond_type     mass     charge   ptype   sigma         epsilon       Amb
 oh       oh          0.00000  0.00000   A     3.24287e-01   3.89112e-01 ; 1.82  0.0930
 c5       c5          0.00000  0.00000   A     3.39771e-01   4.51035e-01 ; 1.91  0.1078
 c6       c6          0.00000  0.00000   A     3.39771e-01   4.51035e-01 ; 1.91  0.1078
 c2       c2          0.00000  0.00000   A     3.31521e-01   4.13379e-01 ; 1.86  0.0988
 c3       c3          0.00000  0.00000   A     3.39771e-01   4.51035e-01 ; 1.91  0.1078
 ce       ce          0.00000  0.00000   A     3.31521e-01   4.13379e-01 ; 1.86  0.0988
 hc       hc          0.00000  0.00000   A     2.60018e-01   8.70272e-02 ; 1.46  0.0208
 ha       ha          0.00000  0.00000   A     2.62548e-01   6.73624e-02 ; 1.47  0.0161
 h1       h1          0.00000  0.00000   A     2.42200e-01   8.70272e-02 ; 1.36  0.0208
 ho       ho          0.00000  0.00000   A     5.37925e-02   1.96648e-02 ; 0.30  0.0047

[ moleculetype ]
;name            nrexcl
 ergosterol       3

[ atoms ]
;   nr  type  resi  res  atom  cgnr     charge      mass       ; qtot   bond_type
     1   oh     1   UNL     O    1    -0.603799     16.00000 ; qtot -0.604
     2   c5     1   UNL     C    2    -0.042000     12.01000 ; qtot -0.646
     3   c5     1   UNL    C1    3    -0.033500     12.01000 ; qtot -0.679
     4   c5     1   UNL    C2    4    -0.051700     12.01000 ; qtot -0.731
     5   c6     1   UNL    C3    5    -0.015500     12.01000 ; qtot -0.746
     6   c6     1   UNL    C4    6    -0.067400     12.01000 ; qtot -0.814
     7   c2     1   UNL    C5    7    -0.081400     12.01000 ; qtot -0.895
     8   c5     1   UNL    C6    8    -0.072400     12.01000 ; qtot -0.968
     9   c6     1   UNL    C7    9     0.003200     12.01000 ; qtot -0.964
    10   c5     1   UNL    C8   10    -0.078400     12.01000 ; qtot -1.043
    11   c6     1   UNL    C9   11    -0.073400     12.01000 ; qtot -1.116
    12   c3     1   UNL   C10   12    -0.082100     12.01000 ; qtot -1.198
    13   c3     1   UNL   C11   13    -0.026500     12.01000 ; qtot -1.225
    14   c2     1   UNL   C12   14    -0.105400     12.01000 ; qtot -1.330
    15   c6     1   UNL   C13   15    -0.067400     12.01000 ; qtot -1.398
    16   ce     1   UNL   C14   16    -0.146000     12.01000 ; qtot -1.544
    17   c3     1   UNL   C15   17    -0.086100     12.01000 ; qtot -1.630
    18   ce     1   UNL   C16   18    -0.132000     12.01000 ; qtot -1.762
    19   c6     1   UNL   C17   19    -0.038200     12.01000 ; qtot -1.800
    20   c6     1   UNL   C18   20    -0.113400     12.01000 ; qtot -1.913
    21   c6     1   UNL   C19   21     0.145100     12.01000 ; qtot -1.768
    22   c3     1   UNL   C20   22    -0.087100     12.01000 ; qtot -1.855
    23   c2     1   UNL   C21   23    -0.168200     12.01000 ; qtot -2.024
    24   c2     1   UNL   C22   24    -0.166200     12.01000 ; qtot -2.190
    25   c3     1   UNL   C23   25    -0.031500     12.01000 ; qtot -2.221
    26   c3     1   UNL   C24   26    -0.060700     12.01000 ; qtot -2.282
    27   c3     1   UNL   C25   27    -0.087100     12.01000 ; qtot -2.369
    28   c3     1   UNL   C26   28    -0.090600     12.01000 ; qtot -2.460
    29   c3     1   UNL   C27   29    -0.090600     12.01000 ; qtot -2.550
    30   hc     1   UNL     H   30     0.054700      1.00800 ; qtot -2.496
    31   hc     1   UNL    H1   31     0.046700      1.00800 ; qtot -2.449
    32   hc     1   UNL    H2   32     0.052700      1.00800 ; qtot -2.396
    33   hc     1   UNL    H3   33     0.042200      1.00800 ; qtot -2.354
    34   hc     1   UNL    H4   34     0.042200      1.00800 ; qtot -2.312
    35   hc     1   UNL    H5   35     0.045200      1.00800 ; qtot -2.267
    36   hc     1   UNL    H6   36     0.045200      1.00800 ; qtot -2.221
    37   hc     1   UNL    H7   37     0.044700      1.00800 ; qtot -2.177
    38   hc     1   UNL    H8   38     0.044700      1.00800 ; qtot -2.132
    39   hc     1   UNL    H9   39     0.043700      1.00800 ; qtot -2.088
    40   hc     1   UNL   H10   40     0.043700      1.00800 ; qtot -2.045
    41   hc     1   UNL   H11   41     0.038033      1.00800 ; qtot -2.007
    42   hc     1   UNL   H12   42     0.038033      1.00800 ; qtot -1.969
    43   hc     1   UNL   H13   43     0.038033      1.00800 ; qtot -1.930
    44   hc     1   UNL   H14   44     0.054700      1.00800 ; qtot -1.876
    45   hc     1   UNL   H15   45     0.043700      1.00800 ; qtot -1.832
    46   hc     1   UNL   H16   46     0.043700      1.00800 ; qtot -1.788
    47   ha     1   UNL   H17   47     0.131000      1.00800 ; qtot -1.657
    48   hc     1   UNL   H18   48     0.039367      1.00800 ; qtot -1.618
    49   hc     1   UNL   H19   49     0.039367      1.00800 ; qtot -1.579
    50   hc     1   UNL   H20   50     0.039367      1.00800 ; qtot -1.539
    51   ha     1   UNL   H21   51     0.128000      1.00800 ; qtot -1.411
    52   hc     1   UNL   H22   52     0.062200      1.00800 ; qtot -1.349
    53   hc     1   UNL   H23   53     0.062200      1.00800 ; qtot -1.287
    54   hc     1   UNL   H24   54     0.047700      1.00800 ; qtot -1.239
    55   hc     1   UNL   H25   55     0.047700      1.00800 ; qtot -1.191
    56   h1     1   UNL   H26   56     0.036700      1.00800 ; qtot -1.155
    57   hc     1   UNL   H27   57     0.035700      1.00800 ; qtot -1.119
    58   hc     1   UNL   H28   58     0.035700      1.00800 ; qtot -1.083
    59   hc     1   UNL   H29   59     0.035700      1.00800 ; qtot -1.048
    60   ha     1   UNL   H30   60     0.121000      1.00800 ; qtot -0.927
    61   ha     1   UNL   H31   61     0.121000      1.00800 ; qtot -0.806
    62   ho     1   UNL   H32   62     0.399000      1.00800 ; qtot -0.407
    63   hc     1   UNL   H33   63     0.050700      1.00800 ; qtot -0.356
    64   hc     1   UNL   H34   64     0.045700      1.00800 ; qtot -0.310
    65   hc     1   UNL   H35   65     0.035033      1.00800 ; qtot -0.275
    66   hc     1   UNL   H36   66     0.035033      1.00800 ; qtot -0.240
    67   hc     1   UNL   H37   67     0.035033      1.00800 ; qtot -0.205
    68   hc     1   UNL   H38   68     0.034200      1.00800 ; qtot -0.171
    69   hc     1   UNL   H39   69     0.034200      1.00800 ; qtot -0.137
    70   hc     1   UNL   H40   70     0.034200      1.00800 ; qtot -0.103
    71   hc     1   UNL   H41   71     0.034200      1.00800 ; qtot -0.068
    72   hc     1   UNL   H42   72     0.034200      1.00800 ; qtot -0.034
    73   hc     1   UNL   H43   73     0.034200      1.00800 ; qtot 0.000

[ bonds ]
;   ai     aj funct   r             k
     1     21   1    1.4241e-01    2.3870e+05 ;      O - C19   
     1     62   1    9.7250e-02    4.4811e+05 ;      O - H32   
     2      3   1    1.5483e-01    1.8418e+05 ;      C - C1    
     2      4   1    1.5483e-01    1.8418e+05 ;      C - C2    
     2      6   1    1.5389e-01    1.8951e+05 ;      C - C4    
     2     12   1    1.5372e-01    1.9049e+05 ;      C - C10   
     3      7   1    1.5154e-01    2.0366e+05 ;     C1 - C5    
     3      8   1    1.5483e-01    1.8418e+05 ;     C1 - C6    
     3     30   1    1.0954e-01    2.8989e+05 ;     C1 - H     
     4     10   1    1.5483e-01    1.8418e+05 ;     C2 - C8    
     4     13   1    1.5372e-01    1.9049e+05 ;     C2 - C11   
     4     31   1    1.0954e-01    2.8989e+05 ;     C2 - H1    
     5      7   1    1.5133e-01    2.0498e+05 ;     C3 - C5    
     5      9   1    1.5384e-01    1.8979e+05 ;     C3 - C7    
     5     11   1    1.5384e-01    1.8979e+05 ;     C3 - C9    
     5     32   1    1.0979e-01    2.8681e+05 ;     C3 - H2    
     6     11   1    1.5384e-01    1.8979e+05 ;     C4 - C9    
     6     33   1    1.0979e-01    2.8681e+05 ;     C4 - H3    
     6     34   1    1.0979e-01    2.8681e+05 ;     C4 - H4    
     7     16   1    1.3457e-01    3.5505e+05 ;     C5 - C14   
     8     10   1    1.5483e-01    1.8418e+05 ;     C6 - C8    
     8     35   1    1.0954e-01    2.8989e+05 ;     C6 - H5    
     8     36   1    1.0954e-01    2.8989e+05 ;     C6 - H6    
     9     14   1    1.5133e-01    2.0498e+05 ;     C7 - C12   
     9     15   1    1.5384e-01    1.8979e+05 ;     C7 - C13   
     9     17   1    1.5428e-01    1.8728e+05 ;     C7 - C15   
    10     37   1    1.0954e-01    2.8989e+05 ;     C8 - H7    
    10     38   1    1.0954e-01    2.8989e+05 ;     C8 - H8    
    11     39   1    1.0979e-01    2.8681e+05 ;     C9 - H9    
    11     40   1    1.0979e-01    2.8681e+05 ;     C9 - H10   
    12     41   1    1.0962e-01    2.8891e+05 ;    C10 - H11   
    12     42   1    1.0962e-01    2.8891e+05 ;    C10 - H12   
    12     43   1    1.0962e-01    2.8891e+05 ;    C10 - H13   
    13     22   1    1.5354e-01    1.9154e+05 ;    C11 - C20   
    13     23   1    1.5088e-01    2.0786e+05 ;    C11 - C21   
    13     44   1    1.0962e-01    2.8891e+05 ;    C11 - H14   
    14     18   1    1.3457e-01    3.5505e+05 ;    C12 - C16   
    14     19   1    1.5133e-01    2.0498e+05 ;    C12 - C17   
    15     20   1    1.5384e-01    1.8979e+05 ;    C13 - C18   
    15     45   1    1.0979e-01    2.8681e+05 ;    C13 - H15   
    15     46   1    1.0979e-01    2.8681e+05 ;    C13 - H16   
    16     18   1    1.4615e-01    2.4127e+05 ;    C14 - C16   
    16     47   1    1.0880e-01    2.9923e+05 ;    C14 - H17   
    17     48   1    1.0962e-01    2.8891e+05 ;    C15 - H18   
    17     49   1    1.0962e-01    2.8891e+05 ;    C15 - H19   
    17     50   1    1.0962e-01    2.8891e+05 ;    C15 - H20   
    18     51   1    1.0880e-01    2.9923e+05 ;    C16 - H21   
    19     21   1    1.5384e-01    1.8979e+05 ;    C17 - C19   
    19     52   1    1.0979e-01    2.8681e+05 ;    C17 - H22   
    19     53   1    1.0979e-01    2.8681e+05 ;    C17 - H23   
    20     21   1    1.5384e-01    1.8979e+05 ;    C18 - C19   
    20     54   1    1.0979e-01    2.8681e+05 ;    C18 - H24   
    20     55   1    1.0979e-01    2.8681e+05 ;    C18 - H25   
    21     56   1    1.0984e-01    2.8620e+05 ;    C19 - H26   
    22     57   1    1.0962e-01    2.8891e+05 ;    C20 - H27   
    22     58   1    1.0962e-01    2.8891e+05 ;    C20 - H28   
    22     59   1    1.0962e-01    2.8891e+05 ;    C20 - H29   
    23     24   1    1.3379e-01    3.6484e+05 ;    C21 - C22   
    23     60   1    1.0882e-01    2.9898e+05 ;    C21 - H30   
    24     25   1    1.5088e-01    2.0786e+05 ;    C22 - C23   
    24     61   1    1.0882e-01    2.9898e+05 ;    C22 - H31   
    25     26   1    1.5354e-01    1.9154e+05 ;    C23 - C24   
    25     27   1    1.5354e-01    1.9154e+05 ;    C23 - C25   
    25     63   1    1.0962e-01    2.8891e+05 ;    C23 - H33   
    26     28   1    1.5354e-01    1.9154e+05 ;    C24 - C26   
    26     29   1    1.5354e-01    1.9154e+05 ;    C24 - C27   
    26     64   1    1.0962e-01    2.8891e+05 ;    C24 - H34   
    27     65   1    1.0962e-01    2.8891e+05 ;    C25 - H35   
    27     66   1    1.0962e-01    2.8891e+05 ;    C25 - H36   
    27     67   1    1.0962e-01    2.8891e+05 ;    C25 - H37   
    28     68   1    1.0962e-01    2.8891e+05 ;    C26 - H38   
    28     69   1    1.0962e-01    2.8891e+05 ;    C26 - H39   
    28     70   1    1.0962e-01    2.8891e+05 ;    C26 - H40   
    29     71   1    1.0962e-01    2.8891e+05 ;    C27 - H41   
    29     72   1    1.0962e-01    2.8891e+05 ;    C27 - H42   
    29     73   1    1.0962e-01    2.8891e+05 ;    C27 - H43   

[ pairs ]
;   ai     aj    funct
     1     14      1 ;      O - C12   
     1     15      1 ;      O - C13   
     1     52      1 ;      O - H22   
     1     53      1 ;      O - H23   
     1     54      1 ;      O - H24   
     1     55      1 ;      O - H25   
     2      5      1 ;      C - C3    
     2     16      1 ;      C - C14   
     2     22      1 ;      C - C20   
     2     23      1 ;      C - C21   
     2     35      1 ;      C - H5    
     2     36      1 ;      C - H6    
     2     37      1 ;      C - H7    
     2     38      1 ;      C - H8    
     2     39      1 ;      C - H9    
     2     40      1 ;      C - H10   
     2     44      1 ;      C - H14   
     3      9      1 ;     C1 - C7    
     3     11      1 ;     C1 - C9    
     3     13      1 ;     C1 - C11   
     3     18      1 ;     C1 - C16   
     3     31      1 ;     C1 - H1    
     3     32      1 ;     C1 - H2    
     3     33      1 ;     C1 - H3    
     3     34      1 ;     C1 - H4    
     3     37      1 ;     C1 - H7    
     3     38      1 ;     C1 - H8    
     3     41      1 ;     C1 - H11   
     3     42      1 ;     C1 - H12   
     3     43      1 ;     C1 - H13   
     3     47      1 ;     C1 - H17   
     4      7      1 ;     C2 - C5    
     4     11      1 ;     C2 - C9    
     4     24      1 ;     C2 - C22   
     4     30      1 ;     C2 - H     
     4     33      1 ;     C2 - H3    
     4     34      1 ;     C2 - H4    
     4     35      1 ;     C2 - H5    
     4     36      1 ;     C2 - H6    
     4     41      1 ;     C2 - H11   
     4     42      1 ;     C2 - H12   
     4     43      1 ;     C2 - H13   
     4     57      1 ;     C2 - H27   
     4     58      1 ;     C2 - H28   
     4     59      1 ;     C2 - H29   
     4     60      1 ;     C2 - H30   
     5      8      1 ;     C3 - C6    
     5     18      1 ;     C3 - C16   
     5     19      1 ;     C3 - C17   
     5     20      1 ;     C3 - C18   
     5     30      1 ;     C3 - H     
     5     33      1 ;     C3 - H3    
     5     34      1 ;     C3 - H4    
     5     45      1 ;     C3 - H15   
     5     46      1 ;     C3 - H16   
     5     47      1 ;     C3 - H17   
     5     48      1 ;     C3 - H18   
     5     49      1 ;     C3 - H19   
     5     50      1 ;     C3 - H20   
     6      7      1 ;     C4 - C5    
     6      8      1 ;     C4 - C6    
     6      9      1 ;     C4 - C7    
     6     10      1 ;     C4 - C8    
     6     13      1 ;     C4 - C11   
     6     30      1 ;     C4 - H     
     6     31      1 ;     C4 - H1    
     6     32      1 ;     C4 - H2    
     6     41      1 ;     C4 - H11   
     6     42      1 ;     C4 - H12   
     6     43      1 ;     C4 - H13   
     7     10      1 ;     C5 - C8    
     7     12      1 ;     C5 - C10   
     7     14      1 ;     C5 - C12   
     7     15      1 ;     C5 - C13   
     7     17      1 ;     C5 - C15   
     7     35      1 ;     C5 - H5    
     7     36      1 ;     C5 - H6    
     7     39      1 ;     C5 - H9    
     7     40      1 ;     C5 - H10   
     7     51      1 ;     C5 - H21   
     8     12      1 ;     C6 - C10   
     8     13      1 ;     C6 - C11   
     8     16      1 ;     C6 - C14   
     8     31      1 ;     C6 - H1    
     9     16      1 ;     C7 - C14   
     9     21      1 ;     C7 - C19   
     9     39      1 ;     C7 - H9    
     9     40      1 ;     C7 - H10   
     9     51      1 ;     C7 - H21   
     9     52      1 ;     C7 - H22   
     9     53      1 ;     C7 - H23   
     9     54      1 ;     C7 - H24   
     9     55      1 ;     C7 - H25   
    10     12      1 ;     C8 - C10   
    10     22      1 ;     C8 - C20   
    10     23      1 ;     C8 - C21   
    10     30      1 ;     C8 - H     
    10     44      1 ;     C8 - H14   
    11     12      1 ;     C9 - C10   
    11     14      1 ;     C9 - C12   
    11     15      1 ;     C9 - C13   
    11     16      1 ;     C9 - C14   
    11     17      1 ;     C9 - C15   
    12     13      1 ;    C10 - C11   
    12     30      1 ;    C10 - H     
    12     31      1 ;    C10 - H1    
    12     33      1 ;    C10 - H3    
    12     34      1 ;    C10 - H4    
    13     25      1 ;    C11 - C23   
    13     37      1 ;    C11 - H7    
    13     38      1 ;    C11 - H8    
    13     61      1 ;    C11 - H31   
    14     20      1 ;    C12 - C18   
    14     32      1 ;    C12 - H2    
    14     45      1 ;    C12 - H15   
    14     46      1 ;    C12 - H16   
    14     47      1 ;    C12 - H17   
    14     48      1 ;    C12 - H18   
    14     49      1 ;    C12 - H19   
    14     50      1 ;    C12 - H20   
    14     56      1 ;    C12 - H26   
    15     18      1 ;    C13 - C16   
    15     19      1 ;    C13 - C17   
    15     32      1 ;    C13 - H2    
    15     48      1 ;    C13 - H18   
    15     49      1 ;    C13 - H19   
    15     50      1 ;    C13 - H20   
    15     56      1 ;    C13 - H26   
    16     19      1 ;    C14 - C17   
    16     30      1 ;    C14 - H     
    16     32      1 ;    C14 - H2    
    17     18      1 ;    C15 - C16   
    17     19      1 ;    C15 - C17   
    17     20      1 ;    C15 - C18   
    17     32      1 ;    C15 - H2    
    17     45      1 ;    C15 - H15   
    17     46      1 ;    C15 - H16   
    18     21      1 ;    C16 - C19   
    18     52      1 ;    C16 - H22   
    18     53      1 ;    C16 - H23   
    19     51      1 ;    C17 - H21   
    19     54      1 ;    C17 - H24   
    19     55      1 ;    C17 - H25   
    20     52      1 ;    C18 - H22   
    20     53      1 ;    C18 - H23   
    21     45      1 ;    C19 - H15   
    21     46      1 ;    C19 - H16   
    22     24      1 ;    C20 - C22   
    22     31      1 ;    C20 - H1    
    22     60      1 ;    C20 - H30   
    23     26      1 ;    C21 - C24   
    23     27      1 ;    C21 - C25   
    23     31      1 ;    C21 - H1    
    23     57      1 ;    C21 - H27   
    23     58      1 ;    C21 - H28   
    23     59      1 ;    C21 - H29   
    23     63      1 ;    C21 - H33   
    24     28      1 ;    C22 - C26   
    24     29      1 ;    C22 - C27   
    24     44      1 ;    C22 - H14   
    24     64      1 ;    C22 - H34   
    24     65      1 ;    C22 - H35   
    24     66      1 ;    C22 - H36   
    24     67      1 ;    C22 - H37   
    25     60      1 ;    C23 - H30   
    25     68      1 ;    C23 - H38   
    25     69      1 ;    C23 - H39   
    25     70      1 ;    C23 - H40   
    25     71      1 ;    C23 - H41   
    25     72      1 ;    C23 - H42   
    25     73      1 ;    C23 - H43   
    26     61      1 ;    C24 - H31   
    26     65      1 ;    C24 - H35   
    26     66      1 ;    C24 - H36   
    26     67      1 ;    C24 - H37   
    27     28      1 ;    C25 - C26   
    27     29      1 ;    C25 - C27   
    27     61      1 ;    C25 - H31   
    27     64      1 ;    C25 - H34   
    28     63      1 ;    C26 - H33   
    28     71      1 ;    C26 - H41   
    28     72      1 ;    C26 - H42   
    28     73      1 ;    C26 - H43   
    29     63      1 ;    C27 - H33   
    29     68      1 ;    C27 - H38   
    29     69      1 ;    C27 - H39   
    29     70      1 ;    C27 - H40   
    30     35      1 ;      H - H5    
    30     36      1 ;      H - H6    
    31     37      1 ;     H1 - H7    
    31     38      1 ;     H1 - H8    
    31     44      1 ;     H1 - H14   
    32     39      1 ;     H2 - H9    
    32     40      1 ;     H2 - H10   
    33     39      1 ;     H3 - H9    
    33     40      1 ;     H3 - H10   
    34     39      1 ;     H4 - H9    
    34     40      1 ;     H4 - H10   
    35     37      1 ;     H5 - H7    
    35     38      1 ;     H5 - H8    
    36     37      1 ;     H6 - H7    
    36     38      1 ;     H6 - H8    
    44     57      1 ;    H14 - H27   
    44     58      1 ;    H14 - H28   
    44     59      1 ;    H14 - H29   
    44     60      1 ;    H14 - H30   
    45     54      1 ;    H15 - H24   
    45     55      1 ;    H15 - H25   
    46     54      1 ;    H16 - H24   
    46     55      1 ;    H16 - H25   
    47     51      1 ;    H17 - H21   
    52     56      1 ;    H22 - H26   
    53     56      1 ;    H23 - H26   
    54     56      1 ;    H24 - H26   
    55     56      1 ;    H25 - H26   
    60     61      1 ;    H30 - H31   
    61     63      1 ;    H31 - H33   
    62     19      1 ;    H32 - C17   
    62     20      1 ;    H32 - C18   
    62     56      1 ;    H32 - H26   
    63     64      1 ;    H33 - H34   
    63     65      1 ;    H33 - H35   
    63     66      1 ;    H33 - H36   
    63     67      1 ;    H33 - H37   
    64     68      1 ;    H34 - H38   
    64     69      1 ;    H34 - H39   
    64     70      1 ;    H34 - H40   
    64     71      1 ;    H34 - H41   
    64     72      1 ;    H34 - H42   
    64     73      1 ;    H34 - H43   

[ angles ]
;   ai     aj     ak    funct   theta         cth
     1     21     19      1    1.1005e+02    6.4065e+02 ;      O - C19    - C17   
     1     21     20      1    1.1005e+02    6.4065e+02 ;      O - C19    - C18   
     1     21     56      1    1.0996e+02    4.7187e+02 ;      O - C19    - H26   
     2      3      7      1    1.0794e+02    5.1287e+02 ;      C - C1     - C5    
     2      3      8      1    1.0383e+02    5.1748e+02 ;      C - C1     - C6    
     2      3     30      1    1.1117e+02    3.5690e+02 ;      C - C1     - H     
     2      4     10      1    1.0383e+02    5.1748e+02 ;      C - C2     - C8    
     2      4     13      1    1.1360e+02    4.9647e+02 ;      C - C2     - C11   
     2      4     31      1    1.1117e+02    3.5690e+02 ;      C - C2     - H1    
     2      6     11      1    1.1104e+02    5.0350e+02 ;      C - C4     - C9    
     2      6     33      1    1.0934e+02    3.6183e+02 ;      C - C4     - H3    
     2      6     34      1    1.0934e+02    3.6183e+02 ;      C - C4     - H4    
     2     12     41      1    1.1053e+02    3.6033e+02 ;      C - C10    - H11   
     2     12     42      1    1.1053e+02    3.6033e+02 ;      C - C10    - H12   
     2     12     43      1    1.1053e+02    3.6033e+02 ;      C - C10    - H13   
     3      2      4      1    1.0383e+02    5.1748e+02 ;     C1 - C      - C2    
     3      2      6      1    1.1375e+02    4.9589e+02 ;     C1 - C      - C4    
     3      2     12      1    1.1360e+02    4.9647e+02 ;     C1 - C      - C10   
     3      7      5      1    1.1901e+02    4.9421e+02 ;     C1 - C5     - C3    
     3      7     16      1    1.1310e+02    5.3287e+02 ;     C1 - C5     - C14   
     3      8     10      1    1.0383e+02    5.1748e+02 ;     C1 - C6     - C8    
     3      8     35      1    1.1117e+02    3.5690e+02 ;     C1 - C6     - H5    
     3      8     36      1    1.1117e+02    3.5690e+02 ;     C1 - C6     - H6    
     4      2      6      1    1.1375e+02    4.9589e+02 ;     C2 - C      - C4    
     4      2     12      1    1.1360e+02    4.9647e+02 ;     C2 - C      - C10   
     4     10      8      1    1.0383e+02    5.1748e+02 ;     C2 - C8     - C6    
     4     10     37      1    1.1117e+02    3.5690e+02 ;     C2 - C8     - H7    
     4     10     38      1    1.1117e+02    3.5690e+02 ;     C2 - C8     - H8    
     4     13     22      1    1.1370e+02    4.9840e+02 ;     C2 - C11    - C20   
     4     13     23      1    1.1388e+02    5.0225e+02 ;     C2 - C11    - C21   
     4     13     44      1    1.1053e+02    3.6033e+02 ;     C2 - C11    - H14   
     5      7     16      1    1.2265e+02    5.1212e+02 ;     C3 - C5     - C14   
     5      9     14      1    1.1141e+02    5.0685e+02 ;     C3 - C7     - C12   
     5      9     15      1    1.1106e+02    5.0359e+02 ;     C3 - C7     - C13   
     5      9     17      1    1.1143e+02    5.0200e+02 ;     C3 - C7     - C15   
     5     11      6      1    1.1106e+02    5.0359e+02 ;     C3 - C9     - C4    
     5     11     39      1    1.0945e+02    3.6175e+02 ;     C3 - C9     - H9    
     5     11     40      1    1.0945e+02    3.6175e+02 ;     C3 - C9     - H10   
     6      2     12      1    1.1056e+02    5.0484e+02 ;     C4 - C      - C10   
     6     11     39      1    1.0945e+02    3.6175e+02 ;     C4 - C9     - H9    
     6     11     40      1    1.0945e+02    3.6175e+02 ;     C4 - C9     - H10   
     7      3      8      1    1.0794e+02    5.1287e+02 ;     C5 - C1     - C6    
     7      3     30      1    1.1072e+02    3.6468e+02 ;     C5 - C1     - H     
     7      5      9      1    1.1141e+02    5.0685e+02 ;     C5 - C3     - C7    
     7      5     11      1    1.1141e+02    5.0685e+02 ;     C5 - C3     - C9    
     7      5     32      1    1.0931e+02    3.6736e+02 ;     C5 - C3     - H2    
     7     16     18      1    1.2323e+02    5.2216e+02 ;     C5 - C14    - C16   
     7     16     47      1    1.2000e+02    3.8694e+02 ;     C5 - C14    - H17   
     8      3     30      1    1.1117e+02    3.5690e+02 ;     C6 - C1     - H     
     8     10     37      1    1.1117e+02    3.5690e+02 ;     C6 - C8     - H7    
     8     10     38      1    1.1117e+02    3.5690e+02 ;     C6 - C8     - H8    
     9      5     11      1    1.1106e+02    5.0359e+02 ;     C7 - C3     - C9    
     9      5     32      1    1.0945e+02    3.6175e+02 ;     C7 - C3     - H2    
     9     14     18      1    1.2265e+02    5.1212e+02 ;     C7 - C12    - C16   
     9     14     19      1    1.1596e+02    5.0099e+02 ;     C7 - C12    - C17   
     9     15     20      1    1.1106e+02    5.0359e+02 ;     C7 - C13    - C18   
     9     15     45      1    1.0945e+02    3.6175e+02 ;     C7 - C13    - H15   
     9     15     46      1    1.0945e+02    3.6175e+02 ;     C7 - C13    - H16   
     9     17     48      1    1.1063e+02    3.5890e+02 ;     C7 - C15    - H18   
     9     17     49      1    1.1063e+02    3.5890e+02 ;     C7 - C15    - H19   
     9     17     50      1    1.1063e+02    3.5890e+02 ;     C7 - C15    - H20   
    10      4     13      1    1.1360e+02    4.9647e+02 ;     C8 - C2     - C11   
    10      4     31      1    1.1117e+02    3.5690e+02 ;     C8 - C2     - H1    
    10      8     35      1    1.1117e+02    3.5690e+02 ;     C8 - C6     - H5    
    10      8     36      1    1.1117e+02    3.5690e+02 ;     C8 - C6     - H6    
    11      5     32      1    1.0945e+02    3.6175e+02 ;     C9 - C3     - H2    
    11      6     33      1    1.0945e+02    3.6175e+02 ;     C9 - C4     - H3    
    11      6     34      1    1.0945e+02    3.6175e+02 ;     C9 - C4     - H4    
    13      4     31      1    1.0779e+02    3.6484e+02 ;    C11 - C2     - H1    
    13     22     57      1    1.0968e+02    3.6208e+02 ;    C11 - C20    - H27   
    13     22     58      1    1.0968e+02    3.6208e+02 ;    C11 - C20    - H28   
    13     22     59      1    1.0968e+02    3.6208e+02 ;    C11 - C20    - H29   
    13     23     24      1    1.2495e+02    5.0944e+02 ;    C11 - C21    - C22   
    13     23     60      1    1.1505e+02    3.5941e+02 ;    C11 - C21    - H30   
    14      9     15      1    1.1141e+02    5.0685e+02 ;    C12 - C7     - C13   
    14      9     17      1    1.0977e+02    5.0986e+02 ;    C12 - C7     - C15   
    14     18     16      1    1.2323e+02    5.2216e+02 ;    C12 - C16    - C14   
    14     18     51      1    1.2000e+02    3.8694e+02 ;    C12 - C16    - H21   
    14     19     21      1    1.1141e+02    5.0685e+02 ;    C12 - C17    - C19   
    14     19     52      1    1.0931e+02    3.6736e+02 ;    C12 - C17    - H22   
    14     19     53      1    1.0931e+02    3.6736e+02 ;    C12 - C17    - H23   
    15      9     17      1    1.1143e+02    5.0200e+02 ;    C13 - C7     - C15   
    15     20     21      1    1.1106e+02    5.0359e+02 ;    C13 - C18    - C19   
    15     20     54      1    1.0945e+02    3.6175e+02 ;    C13 - C18    - H24   
    15     20     55      1    1.0945e+02    3.6175e+02 ;    C13 - C18    - H25   
    16     18     51      1    1.1662e+02    3.6710e+02 ;    C14 - C16    - H21   
    18     14     19      1    1.2265e+02    5.1212e+02 ;    C16 - C12    - C17   
    18     16     47      1    1.1662e+02    3.6710e+02 ;    C16 - C14    - H17   
    19     21     20      1    1.1106e+02    5.0359e+02 ;    C17 - C19    - C18   
    19     21     56      1    1.0918e+02    3.6217e+02 ;    C17 - C19    - H26   
    20     15     45      1    1.0945e+02    3.6175e+02 ;    C18 - C13    - H15   
    20     15     46      1    1.0945e+02    3.6175e+02 ;    C18 - C13    - H16   
    20     21     56      1    1.0918e+02    3.6217e+02 ;    C18 - C19    - H26   
    21      1     62      1    1.0707e+02    5.4584e+02 ;    C19 - O      - H32   
    21     19     52      1    1.0945e+02    3.6175e+02 ;    C19 - C17    - H22   
    21     19     53      1    1.0945e+02    3.6175e+02 ;    C19 - C17    - H23   
    21     20     54      1    1.0945e+02    3.6175e+02 ;    C19 - C18    - H24   
    21     20     55      1    1.0945e+02    3.6175e+02 ;    C19 - C18    - H25   
    22     13     23      1    1.1258e+02    5.0543e+02 ;    C20 - C11    - C21   
    22     13     44      1    1.0968e+02    3.6208e+02 ;    C20 - C11    - H14   
    23     13     44      1    1.1065e+02    3.6618e+02 ;    C21 - C11    - H14   
    23     24     25      1    1.2495e+02    5.0944e+02 ;    C21 - C22    - C23   
    23     24     61      1    1.2039e+02    3.8802e+02 ;    C21 - C22    - H31   
    24     23     60      1    1.2039e+02    3.8802e+02 ;    C22 - C21    - H30   
    24     25     26      1    1.1258e+02    5.0543e+02 ;    C22 - C23    - C24   
    24     25     27      1    1.1258e+02    5.0543e+02 ;    C22 - C23    - C25   
    24     25     63      1    1.1065e+02    3.6618e+02 ;    C22 - C23    - H33   
    25     24     61      1    1.1505e+02    3.5941e+02 ;    C23 - C22    - H31   
    25     26     28      1    1.1263e+02    5.0099e+02 ;    C23 - C24    - C26   
    25     26     29      1    1.1263e+02    5.0099e+02 ;    C23 - C24    - C27   
    25     26     64      1    1.0968e+02    3.6208e+02 ;    C23 - C24    - H34   
    25     27     65      1    1.0968e+02    3.6208e+02 ;    C23 - C25    - H35   
    25     27     66      1    1.0968e+02    3.6208e+02 ;    C23 - C25    - H36   
    25     27     67      1    1.0968e+02    3.6208e+02 ;    C23 - C25    - H37   
    26     25     27      1    1.1263e+02    5.0099e+02 ;    C24 - C23    - C25   
    26     25     63      1    1.0968e+02    3.6208e+02 ;    C24 - C23    - H33   
    26     28     68      1    1.0968e+02    3.6208e+02 ;    C24 - C26    - H38   
    26     28     69      1    1.0968e+02    3.6208e+02 ;    C24 - C26    - H39   
    26     28     70      1    1.0968e+02    3.6208e+02 ;    C24 - C26    - H40   
    26     29     71      1    1.0968e+02    3.6208e+02 ;    C24 - C27    - H41   
    26     29     72      1    1.0968e+02    3.6208e+02 ;    C24 - C27    - H42   
    26     29     73      1    1.0968e+02    3.6208e+02 ;    C24 - C27    - H43   
    27     25     63      1    1.0968e+02    3.6208e+02 ;    C25 - C23    - H33   
    28     26     29      1    1.1263e+02    5.0099e+02 ;    C26 - C24    - C27   
    28     26     64      1    1.0968e+02    3.6208e+02 ;    C26 - C24    - H34   
    29     26     64      1    1.0968e+02    3.6208e+02 ;    C27 - C24    - H34   
    33      6     34      1    1.0662e+02    3.0066e+02 ;     H3 - C4     - H4    
    35      8     36      1    1.0722e+02    3.0049e+02 ;     H5 - C6     - H6    
    37     10     38      1    1.0722e+02    3.0049e+02 ;     H7 - C8     - H8    
    39     11     40      1    1.0662e+02    3.0066e+02 ;     H9 - C9     - H10   
    41     12     42      1    1.0773e+02    2.9957e+02 ;    H11 - C10    - H12   
    41     12     43      1    1.0773e+02    2.9957e+02 ;    H11 - C10    - H13   
    42     12     43      1    1.0773e+02    2.9957e+02 ;    H12 - C10    - H13   
    45     15     46      1    1.0662e+02    3.0066e+02 ;    H15 - C13    - H16   
    48     17     49      1    1.0773e+02    2.9957e+02 ;    H18 - C15    - H19   
    48     17     50      1    1.0773e+02    2.9957e+02 ;    H18 - C15    - H20   
    49     17     50      1    1.0773e+02    2.9957e+02 ;    H19 - C15    - H20   
    52     19     53      1    1.0662e+02    3.0066e+02 ;    H22 - C17    - H23   
    54     20     55      1    1.0662e+02    3.0066e+02 ;    H24 - C18    - H25   
    57     22     58      1    1.0773e+02    2.9957e+02 ;    H27 - C20    - H28   
    57     22     59      1    1.0773e+02    2.9957e+02 ;    H27 - C20    - H29   
    58     22     59      1    1.0773e+02    2.9957e+02 ;    H28 - C20    - H29   
    65     27     66      1    1.0773e+02    2.9957e+02 ;    H35 - C25    - H36   
    65     27     67      1    1.0773e+02    2.9957e+02 ;    H35 - C25    - H37   
    66     27     67      1    1.0773e+02    2.9957e+02 ;    H36 - C25    - H37   
    68     28     69      1    1.0773e+02    2.9957e+02 ;    H38 - C26    - H39   
    68     28     70      1    1.0773e+02    2.9957e+02 ;    H38 - C26    - H40   
    69     28     70      1    1.0773e+02    2.9957e+02 ;    H39 - C26    - H40   
    71     29     72      1    1.0773e+02    2.9957e+02 ;    H41 - C27    - H42   
    71     29     73      1    1.0773e+02    2.9957e+02 ;    H41 - C27    - H43   
    72     29     73      1    1.0773e+02    2.9957e+02 ;    H42 - C27    - H43   

[ dihedrals ] ; propers
; for gromacs 4.5 or higher, using funct 9
;    i      j      k      l   func   phase     kd      pn
     1     21     19     14      9     0.00   0.65084   3 ;      O-   C19-   C17-   C12
     1     21     19     52      9     0.00   0.37656   3 ;      O-   C19-   C17-   H22
     1     21     19     53      9     0.00   0.37656   3 ;      O-   C19-   C17-   H23
     1     21     20     15      9     0.00   0.75312   3 ;      O-   C19-   C18-   C13
     1     21     20     54      9     0.00   0.37656   3 ;      O-   C19-   C18-   H24
     1     21     20     55      9     0.00   0.37656   3 ;      O-   C19-   C18-   H25
     2      3      7      5      9     0.00   0.00000   0 ;      C-    C1-    C5-    C3
     2      3      7     16      9     0.00   0.00000   0 ;      C-    C1-    C5-   C14
     2      3      8     10      9     0.00   2.17568   3 ;      C-    C1-    C6-    C8
     2      3      8     35      9     0.00   0.54392   3 ;      C-    C1-    C6-    H5
     2      3      8     36      9     0.00   0.54392   3 ;      C-    C1-    C6-    H6
     2      4     10      8      9     0.00   2.17568   3 ;      C-    C2-    C8-    C6
     2      4     10     37      9     0.00   0.54392   3 ;      C-    C2-    C8-    H7
     2      4     10     38      9     0.00   0.54392   3 ;      C-    C2-    C8-    H8
     2      4     13     22      9     0.00   2.17568   3 ;      C-    C2-   C11-   C20
     2      4     13     23      9     0.00   0.65084   3 ;      C-    C2-   C11-   C21
     2      4     13     44      9     0.00   0.54392   3 ;      C-    C2-   C11-   H14
     2      6     11      5      9     0.00   2.17568   3 ;      C-    C4-    C9-    C3
     2      6     11     39      9     0.00   0.54392   3 ;      C-    C4-    C9-    H9
     2      6     11     40      9     0.00   0.54392   3 ;      C-    C4-    C9-   H10
     3      2      4     10      9     0.00   2.17568   3 ;     C1-     C-    C2-    C8
     3      2      4     13      9     0.00   2.17568   3 ;     C1-     C-    C2-   C11
     3      2      4     31      9     0.00   0.54392   3 ;     C1-     C-    C2-    H1
     3      2      6     11      9     0.00   2.17568   3 ;     C1-     C-    C4-    C9
     3      2      6     33      9     0.00   0.54392   3 ;     C1-     C-    C4-    H3
     3      2      6     34      9     0.00   0.54392   3 ;     C1-     C-    C4-    H4
     3      2     12     41      9     0.00   0.54392   3 ;     C1-     C-   C10-   H11
     3      2     12     42      9     0.00   0.54392   3 ;     C1-     C-   C10-   H12
     3      2     12     43      9     0.00   0.54392   3 ;     C1-     C-   C10-   H13
     3      7      5      9      9     0.00   0.00000   0 ;     C1-    C5-    C3-    C7
     3      7      5     11      9     0.00   0.00000   0 ;     C1-    C5-    C3-    C9
     3      7      5     32      9     0.00   0.62760   3 ;     C1-    C5-    C3-    H2
     3      7     16     18      9   180.00  27.82360   2 ;     C1-    C5-   C14-   C16
     3      7     16     47      9   180.00  27.82360   2 ;     C1-    C5-   C14-   H17
     3      8     10      4      9     0.00   2.17568   3 ;     C1-    C6-    C8-    C2
     3      8     10     37      9     0.00   0.54392   3 ;     C1-    C6-    C8-    H7
     3      8     10     38      9     0.00   0.54392   3 ;     C1-    C6-    C8-    H8
     4      2      3      7      9     0.00   0.65084   3 ;     C2-     C-    C1-    C5
     4      2      3      8      9     0.00   2.17568   3 ;     C2-     C-    C1-    C6
     4      2      3     30      9     0.00   0.54392   3 ;     C2-     C-    C1-     H
     4      2      6     11      9     0.00   2.17568   3 ;     C2-     C-    C4-    C9
     4      2      6     33      9     0.00   0.54392   3 ;     C2-     C-    C4-    H3
     4      2      6     34      9     0.00   0.54392   3 ;     C2-     C-    C4-    H4
     4      2     12     41      9     0.00   0.54392   3 ;     C2-     C-   C10-   H11
     4      2     12     42      9     0.00   0.54392   3 ;     C2-     C-   C10-   H12
     4      2     12     43      9     0.00   0.54392   3 ;     C2-     C-   C10-   H13
     4     10      8     35      9     0.00   0.54392   3 ;     C2-    C8-    C6-    H5
     4     10      8     36      9     0.00   0.54392   3 ;     C2-    C8-    C6-    H6
     4     13     22     57      9     0.00   0.54392   3 ;     C2-   C11-   C20-   H27
     4     13     22     58      9     0.00   0.54392   3 ;     C2-   C11-   C20-   H28
     4     13     22     59      9     0.00   0.54392   3 ;     C2-   C11-   C20-   H29
     4     13     23     24      9     0.00   0.00000   0 ;     C2-   C11-   C21-   C22
     4     13     23     60      9     0.00   0.00000   0 ;     C2-   C11-   C21-   H30
     5      7      3      8      9     0.00   0.00000   0 ;     C3-    C5-    C1-    C6
     5      7      3     30      9     0.00   0.62760   3 ;     C3-    C5-    C1-     H
     5      7     16     18      9   180.00  27.82360   2 ;     C3-    C5-   C14-   C16
     5      7     16     47      9   180.00  27.82360   2 ;     C3-    C5-   C14-   H17
     5      9     14     18      9     0.00   0.00000   0 ;     C3-    C7-   C12-   C16
     5      9     14     19      9     0.00   0.00000   0 ;     C3-    C7-   C12-   C17
     5      9     15     20      9     0.00   2.17568   3 ;     C3-    C7-   C13-   C18
     5      9     15     45      9     0.00   0.54392   3 ;     C3-    C7-   C13-   H15
     5      9     15     46      9     0.00   0.54392   3 ;     C3-    C7-   C13-   H16
     5      9     17     48      9     0.00   0.54392   3 ;     C3-    C7-   C15-   H18
     5      9     17     49      9     0.00   0.54392   3 ;     C3-    C7-   C15-   H19
     5      9     17     50      9     0.00   0.54392   3 ;     C3-    C7-   C15-   H20
     5     11      6     33      9     0.00   0.54392   3 ;     C3-    C9-    C4-    H3
     5     11      6     34      9     0.00   0.54392   3 ;     C3-    C9-    C4-    H4
     6      2      3      7      9     0.00   0.65084   3 ;     C4-     C-    C1-    C5
     6      2      3      8      9     0.00   2.17568   3 ;     C4-     C-    C1-    C6
     6      2      3     30      9     0.00   0.54392   3 ;     C4-     C-    C1-     H
     6      2      4     10      9     0.00   2.17568   3 ;     C4-     C-    C2-    C8
     6      2      4     13      9     0.00   2.17568   3 ;     C4-     C-    C2-   C11
     6      2      4     31      9     0.00   0.54392   3 ;     C4-     C-    C2-    H1
     6      2     12     41      9     0.00   0.54392   3 ;     C4-     C-   C10-   H11
     6      2     12     42      9     0.00   0.54392   3 ;     C4-     C-   C10-   H12
     6      2     12     43      9     0.00   0.54392   3 ;     C4-     C-   C10-   H13
     6     11      5      7      9     0.00   0.65084   3 ;     C4-    C9-    C3-    C5
     6     11      5      9      9     0.00   2.17568   3 ;     C4-    C9-    C3-    C7
     6     11      5     32      9     0.00   0.54392   3 ;     C4-    C9-    C3-    H2
     7      3      2     12      9     0.00   0.65084   3 ;     C5-    C1-     C-   C10
     7      3      8     10      9     0.00   0.65084   3 ;     C5-    C1-    C6-    C8
     7      3      8     35      9     0.00   0.65084   3 ;     C5-    C1-    C6-    H5
     7      3      8     36      9     0.00   0.65084   3 ;     C5-    C1-    C6-    H6
     7      5      9     14      9     0.00   0.65084   3 ;     C5-    C3-    C7-   C12
     7      5      9     15      9     0.00   0.65084   3 ;     C5-    C3-    C7-   C13
     7      5      9     17      9     0.00   0.65084   3 ;     C5-    C3-    C7-   C15
     7      5     11     39      9     0.00   0.65084   3 ;     C5-    C3-    C9-    H9
     7      5     11     40      9     0.00   0.65084   3 ;     C5-    C3-    C9-   H10
     7     16     18     14      9     0.00   3.09616   3 ;     C5-   C14-   C16-   C12
     7     16     18     51      9   180.00   4.18400   2 ;     C5-   C14-   C16-   H21
     8      3      2     12      9     0.00   2.17568   3 ;     C6-    C1-     C-   C10
     8      3      7     16      9     0.00   0.00000   0 ;     C6-    C1-    C5-   C14
     8     10      4     13      9     0.00   2.17568   3 ;     C6-    C8-    C2-   C11
     8     10      4     31      9     0.00   0.54392   3 ;     C6-    C8-    C2-    H1
     9      5      7     16      9     0.00   0.00000   0 ;     C7-    C3-    C5-   C14
     9      5     11     39      9     0.00   0.54392   3 ;     C7-    C3-    C9-    H9
     9      5     11     40      9     0.00   0.54392   3 ;     C7-    C3-    C9-   H10
     9     14     18     16      9   180.00  27.82360   2 ;     C7-   C12-   C16-   C14
     9     14     18     51      9   180.00  27.82360   2 ;     C7-   C12-   C16-   H21
     9     14     19     21      9     0.00   0.00000   0 ;     C7-   C12-   C17-   C19
     9     14     19     52      9     0.00   0.62760   3 ;     C7-   C12-   C17-   H22
     9     14     19     53      9     0.00   0.62760   3 ;     C7-   C12-   C17-   H23
     9     15     20     21      9     0.00   2.17568   3 ;     C7-   C13-   C18-   C19
     9     15     20     54      9     0.00   0.54392   3 ;     C7-   C13-   C18-   H24
     9     15     20     55      9     0.00   0.54392   3 ;     C7-   C13-   C18-   H25
    10      4      2     12      9     0.00   2.17568   3 ;     C8-    C2-     C-   C10
    10      4     13     22      9     0.00   2.17568   3 ;     C8-    C2-   C11-   C20
    10      4     13     23      9     0.00   0.65084   3 ;     C8-    C2-   C11-   C21
    10      4     13     44      9     0.00   0.54392   3 ;     C8-    C2-   C11-   H14
    10      8      3     30      9     0.00   0.54392   3 ;     C8-    C6-    C1-     H
    11      5      7     16      9     0.00   0.00000   0 ;     C9-    C3-    C5-   C14
    11      5      9     14      9     0.00   0.65084   3 ;     C9-    C3-    C7-   C12
    11      5      9     15      9     0.00   2.17568   3 ;     C9-    C3-    C7-   C13
    11      5      9     17      9     0.00   2.17568   3 ;     C9-    C3-    C7-   C15
    11      6      2     12      9     0.00   2.17568   3 ;     C9-    C4-     C-   C10
    12      2      3     30      9     0.00   0.54392   3 ;    C10-     C-    C1-     H
    12      2      4     13      9     0.00   2.17568   3 ;    C10-     C-    C2-   C11
    12      2      4     31      9     0.00   0.54392   3 ;    C10-     C-    C2-    H1
    12      2      6     33      9     0.00   0.54392   3 ;    C10-     C-    C4-    H3
    12      2      6     34      9     0.00   0.54392   3 ;    C10-     C-    C4-    H4
    13      4     10     37      9     0.00   0.54392   3 ;    C11-    C2-    C8-    H7
    13      4     10     38      9     0.00   0.54392   3 ;    C11-    C2-    C8-    H8
    13     23     24     25      9     0.00   0.62760   1 ;    C11-   C21-   C22-   C23
    13     23     24     25      9   180.00   5.56472   3 ;    C11-   C21-   C22-   C23
    13     23     24     25      9   180.00  24.18352   2 ;    C11-   C21-   C22-   C23
    13     23     24     61      9   180.00  27.82360   2 ;    C11-   C21-   C22-   H31
    14      9      5     32      9     0.00   0.65084   3 ;    C12-    C7-    C3-    H2
    14      9     15     20      9     0.00   0.65084   3 ;    C12-    C7-   C13-   C18
    14      9     15     45      9     0.00   0.65084   3 ;    C12-    C7-   C13-   H15
    14      9     15     46      9     0.00   0.65084   3 ;    C12-    C7-   C13-   H16
    14      9     17     48      9     0.00   0.65084   3 ;    C12-    C7-   C15-   H18
    14      9     17     49      9     0.00   0.65084   3 ;    C12-    C7-   C15-   H19
    14      9     17     50      9     0.00   0.65084   3 ;    C12-    C7-   C15-   H20
    14     18     16     47      9   180.00   4.18400   2 ;    C12-   C16-   C14-   H17
    14     19     21     20      9     0.00   0.65084   3 ;    C12-   C17-   C19-   C18
    14     19     21     56      9     0.00   0.65084   3 ;    C12-   C17-   C19-   H26
    15      9      5     32      9     0.00   0.54392   3 ;    C13-    C7-    C3-    H2
    15      9     14     18      9     0.00   0.00000   0 ;    C13-    C7-   C12-   C16
    15      9     14     19      9     0.00   0.00000   0 ;    C13-    C7-   C12-   C17
    15      9     17     48      9     0.00   0.54392   3 ;    C13-    C7-   C15-   H18
    15      9     17     49      9     0.00   0.54392   3 ;    C13-    C7-   C15-   H19
    15      9     17     50      9     0.00   0.54392   3 ;    C13-    C7-   C15-   H20
    15     20     21     19      9     0.00   2.17568   3 ;    C13-   C18-   C19-   C17
    15     20     21     56      9     0.00   0.65084   3 ;    C13-   C18-   C19-   H26
    16      7      3     30      9     0.00   0.00000   0 ;    C14-    C5-    C1-     H
    16      7      5     32      9     0.00   0.00000   0 ;    C14-    C5-    C3-    H2
    16     18     14     19      9   180.00  27.82360   2 ;    C14-   C16-   C12-   C17
    17      9      5     32      9     0.00   0.54392   3 ;    C15-    C7-    C3-    H2
    17      9     14     18      9     0.00   0.00000   0 ;    C15-    C7-   C12-   C16
    17      9     14     19      9     0.00   0.00000   0 ;    C15-    C7-   C12-   C17
    17      9     15     20      9     0.00   2.17568   3 ;    C15-    C7-   C13-   C18
    17      9     15     45      9     0.00   0.54392   3 ;    C15-    C7-   C13-   H15
    17      9     15     46      9     0.00   0.54392   3 ;    C15-    C7-   C13-   H16
    18     14     19     21      9     0.00   0.00000   0 ;    C16-   C12-   C17-   C19
    18     14     19     52      9     0.00   0.00000   0 ;    C16-   C12-   C17-   H22
    18     14     19     53      9     0.00   0.00000   0 ;    C16-   C12-   C17-   H23
    19     14     18     51      9   180.00  27.82360   2 ;    C17-   C12-   C16-   H21
    19     21     20     54      9     0.00   0.54392   3 ;    C17-   C19-   C18-   H24
    19     21     20     55      9     0.00   0.54392   3 ;    C17-   C19-   C18-   H25
    20     21     19     52      9     0.00   0.54392   3 ;    C18-   C19-   C17-   H22
    20     21     19     53      9     0.00   0.54392   3 ;    C18-   C19-   C17-   H23
    21     20     15     45      9     0.00   0.54392   3 ;    C19-   C18-   C13-   H15
    21     20     15     46      9     0.00   0.54392   3 ;    C19-   C18-   C13-   H16
    22     13      4     31      9     0.00   0.54392   3 ;    C20-   C11-    C2-    H1
    22     13     23     24      9     0.00   0.00000   0 ;    C20-   C11-   C21-   C22
    22     13     23     60      9     0.00   0.00000   0 ;    C20-   C11-   C21-   H30
    23     13      4     31      9     0.00   0.65084   3 ;    C21-   C11-    C2-    H1
    23     13     22     57      9     0.00   0.65084   3 ;    C21-   C11-   C20-   H27
    23     13     22     58      9     0.00   0.65084   3 ;    C21-   C11-   C20-   H28
    23     13     22     59      9     0.00   0.65084   3 ;    C21-   C11-   C20-   H29
    23     24     25     26      9     0.00   0.00000   0 ;    C21-   C22-   C23-   C24
    23     24     25     27      9     0.00   0.00000   0 ;    C21-   C22-   C23-   C25
    23     24     25     63      9   180.00   1.08784   3 ;    C21-   C22-   C23-   H33
    24     23     13     44      9   180.00   1.08784   3 ;    C22-   C21-   C11-   H14
    24     25     26     28      9     0.00   0.65084   3 ;    C22-   C23-   C24-   C26
    24     25     26     29      9     0.00   0.65084   3 ;    C22-   C23-   C24-   C27
    24     25     26     64      9     0.00   0.65084   3 ;    C22-   C23-   C24-   H34
    24     25     27     65      9     0.00   0.65084   3 ;    C22-   C23-   C25-   H35
    24     25     27     66      9     0.00   0.65084   3 ;    C22-   C23-   C25-   H36
    24     25     27     67      9     0.00   0.65084   3 ;    C22-   C23-   C25-   H37
    25     24     23     60      9   180.00  27.82360   2 ;    C23-   C22-   C21-   H30
    25     26     28     68      9     0.00   0.54392   3 ;    C23-   C24-   C26-   H38
    25     26     28     69      9     0.00   0.54392   3 ;    C23-   C24-   C26-   H39
    25     26     28     70      9     0.00   0.54392   3 ;    C23-   C24-   C26-   H40
    25     26     29     71      9     0.00   0.54392   3 ;    C23-   C24-   C27-   H41
    25     26     29     72      9     0.00   0.54392   3 ;    C23-   C24-   C27-   H42
    25     26     29     73      9     0.00   0.54392   3 ;    C23-   C24-   C27-   H43
    26     25     24     61      9     0.00   0.00000   0 ;    C24-   C23-   C22-   H31
    26     25     27     65      9     0.00   0.54392   3 ;    C24-   C23-   C25-   H35
    26     25     27     66      9     0.00   0.54392   3 ;    C24-   C23-   C25-   H36
    26     25     27     67      9     0.00   0.54392   3 ;    C24-   C23-   C25-   H37
    27     25     24     61      9     0.00   0.00000   0 ;    C25-   C23-   C22-   H31
    27     25     26     28      9     0.00   2.17568   3 ;    C25-   C23-   C24-   C26
    27     25     26     29      9     0.00   2.17568   3 ;    C25-   C23-   C24-   C27
    27     25     26     64      9     0.00   0.54392   3 ;    C25-   C23-   C24-   H34
    28     26     25     63      9     0.00   0.54392   3 ;    C26-   C24-   C23-   H33
    28     26     29     71      9     0.00   0.54392   3 ;    C26-   C24-   C27-   H41
    28     26     29     72      9     0.00   0.54392   3 ;    C26-   C24-   C27-   H42
    28     26     29     73      9     0.00   0.54392   3 ;    C26-   C24-   C27-   H43
    29     26     25     63      9     0.00   0.54392   3 ;    C27-   C24-   C23-   H33
    29     26     28     68      9     0.00   0.54392   3 ;    C27-   C24-   C26-   H38
    29     26     28     69      9     0.00   0.54392   3 ;    C27-   C24-   C26-   H39
    29     26     28     70      9     0.00   0.54392   3 ;    C27-   C24-   C26-   H40
    30      3      8     35      9     0.00   0.50208   3 ;      H-    C1-    C6-    H5
    30      3      8     36      9     0.00   0.50208   3 ;      H-    C1-    C6-    H6
    31      4     10     37      9     0.00   0.50208   3 ;     H1-    C2-    C8-    H7
    31      4     10     38      9     0.00   0.50208   3 ;     H1-    C2-    C8-    H8
    31      4     13     44      9     0.00   0.50208   3 ;     H1-    C2-   C11-   H14
    32      5     11     39      9     0.00   0.50208   3 ;     H2-    C3-    C9-    H9
    32      5     11     40      9     0.00   0.50208   3 ;     H2-    C3-    C9-   H10
    33      6     11     39      9     0.00   0.50208   3 ;     H3-    C4-    C9-    H9
    33      6     11     40      9     0.00   0.50208   3 ;     H3-    C4-    C9-   H10
    34      6     11     39      9     0.00   0.50208   3 ;     H4-    C4-    C9-    H9
    34      6     11     40      9     0.00   0.50208   3 ;     H4-    C4-    C9-   H10
    35      8     10     37      9     0.00   0.50208   3 ;     H5-    C6-    C8-    H7
    35      8     10     38      9     0.00   0.50208   3 ;     H5-    C6-    C8-    H8
    36      8     10     37      9     0.00   0.50208   3 ;     H6-    C6-    C8-    H7
    36      8     10     38      9     0.00   0.50208   3 ;     H6-    C6-    C8-    H8
    44     13     22     57      9     0.00   0.50208   3 ;    H14-   C11-   C20-   H27
    44     13     22     58      9     0.00   0.50208   3 ;    H14-   C11-   C20-   H28
    44     13     22     59      9     0.00   0.50208   3 ;    H14-   C11-   C20-   H29
    44     13     23     60      9     0.00   0.00000   0 ;    H14-   C11-   C21-   H30
    45     15     20     54      9     0.00   0.50208   3 ;    H15-   C13-   C18-   H24
    45     15     20     55      9     0.00   0.50208   3 ;    H15-   C13-   C18-   H25
    46     15     20     54      9     0.00   0.50208   3 ;    H16-   C13-   C18-   H24
    46     15     20     55      9     0.00   0.50208   3 ;    H16-   C13-   C18-   H25
    47     16     18     51      9   180.00   4.18400   2 ;    H17-   C14-   C16-   H21
    52     19     21     56      9     0.00   0.65084   3 ;    H22-   C17-   C19-   H26
    53     19     21     56      9     0.00   0.65084   3 ;    H23-   C17-   C19-   H26
    54     20     21     56      9     0.00   0.65084   3 ;    H24-   C18-   C19-   H26
    55     20     21     56      9     0.00   0.65084   3 ;    H25-   C18-   C19-   H26
    60     23     24     61      9   180.00  27.82360   2 ;    H30-   C21-   C22-   H31
    61     24     25     63      9     0.00   0.00000   0 ;    H31-   C22-   C23-   H33
    62      1     21     19      9     0.00   0.25104   3 ;    H32-     O-   C19-   C17
    62      1     21     20      9     0.00   0.25104   3 ;    H32-     O-   C19-   C18
    62      1     21     56      9     0.00   0.51463   3 ;    H32-     O-   C19-   H26
    63     25     26     64      9     0.00   0.50208   3 ;    H33-   C23-   C24-   H34
    63     25     27     65      9     0.00   0.50208   3 ;    H33-   C23-   C25-   H35
    63     25     27     66      9     0.00   0.50208   3 ;    H33-   C23-   C25-   H36
    63     25     27     67      9     0.00   0.50208   3 ;    H33-   C23-   C25-   H37
    64     26     28     68      9     0.00   0.50208   3 ;    H34-   C24-   C26-   H38
    64     26     28     69      9     0.00   0.50208   3 ;    H34-   C24-   C26-   H39
    64     26     28     70      9     0.00   0.50208   3 ;    H34-   C24-   C26-   H40
    64     26     29     71      9     0.00   0.50208   3 ;    H34-   C24-   C27-   H41
    64     26     29     72      9     0.00   0.50208   3 ;    H34-   C24-   C27-   H42
    64     26     29     73      9     0.00   0.50208   3 ;    H34-   C24-   C27-   H43

[ dihedrals ] ; impropers
; treated as propers in GROMACS to use correct AMBER analytical function
;    i      j      k      l   func   phase     kd      pn
     3      5      7     16      4   180.00   4.60240   2 ;     C1-    C3-    C5-   C14
     7     18     16     47      4   180.00   4.60240   2 ;     C5-   C16-   C14-   H17
     9     19     14     18      4   180.00   4.60240   2 ;     C7-   C17-   C12-   C16
    14     16     18     51      4   180.00   4.60240   2 ;    C12-   C14-   C16-   H21
    23     25     24     61      4   180.00   4.60240   2 ;    C21-   C23-   C22-   H31
    24     13     23     60      4   180.00   4.60240   2 ;    C22-   C11-   C21-   H30
