; ergosterol_GMX_OPLS.itp created by acpype (v: 2023.10.27) on Mon Feb  9 17:44:17 2026

; For OPLS atomtypes manual fine tuning
; AC_at:OPLS_at:OPLScode: Possible_Alternatives (see ffoplsaa.atp and ffoplsaanb.itp)
; oh:OH:opls_154: ['167']
; c5:x:opls_x: []
; c6:x:opls_x: []
; c2:CR:opls_509: ['510']
; c3:CT:opls_135: ['136', '137', '149', '157', '158', '206', '209', '210', '223B', '224B', '245', '246', '274', '283', '284', '285', '292', '292B', '293B', '296', '307', '308', '505']
; ce:x:opls_x: []
; hc:HC:opls_140: []
; ha:HA:opls_146: []
; h1:HC:opls_140: []
; ho:HO:opls_155: ['168']

[ moleculetype ]
;name            nrexcl
 ergosterol       3

[ atoms ]
;   nr  type  resi  res  atom  cgnr     charge      mass       ; qtot   bond_type
     1 opls_154     1   UNL     O    1    -0.603799     15.99940 ; qtot -0.604  OH  
     2 opls_x     1   UNL     C    2    -0.042000      0.00000 ; qtot -0.646  x   
     3 opls_x     1   UNL    C1    3    -0.033500      0.00000 ; qtot -0.679  x   
     4 opls_x     1   UNL    C2    4    -0.051700      0.00000 ; qtot -0.731  x   
     5 opls_x     1   UNL    C3    5    -0.015500      0.00000 ; qtot -0.746  x   
     6 opls_x     1   UNL    C4    6    -0.067400      0.00000 ; qtot -0.814  x   
     7 opls_509     1   UNL    C5    7    -0.081400     12.01100 ; qtot -0.895  CR  
     8 opls_x     1   UNL    C6    8    -0.072400      0.00000 ; qtot -0.968  x   
     9 opls_x     1   UNL    C7    9     0.003200      0.00000 ; qtot -0.964  x   
    10 opls_x     1   UNL    C8   10    -0.078400      0.00000 ; qtot -1.043  x   
    11 opls_x     1   UNL    C9   11    -0.073400      0.00000 ; qtot -1.116  x   
    12 opls_135     1   UNL   C10   12    -0.082100     12.01100 ; qtot -1.198  CT  
    13 opls_135     1   UNL   C11   13    -0.026500     12.01100 ; qtot -1.225  CT  
    14 opls_509     1   UNL   C12   14    -0.105400     12.01100 ; qtot -1.330  CR  
    15 opls_x     1   UNL   C13   15    -0.067400      0.00000 ; qtot -1.398  x   
    16 opls_x     1   UNL   C14   16    -0.146000      0.00000 ; qtot -1.544  x   
    17 opls_135     1   UNL   C15   17    -0.086100     12.01100 ; qtot -1.630  CT  
    18 opls_x     1   UNL   C16   18    -0.132000      0.00000 ; qtot -1.762  x   
    19 opls_x     1   UNL   C17   19    -0.038200      0.00000 ; qtot -1.800  x   
    20 opls_x     1   UNL   C18   20    -0.113400      0.00000 ; qtot -1.913  x   
    21 opls_x     1   UNL   C19   21     0.145100      0.00000 ; qtot -1.768  x   
    22 opls_135     1   UNL   C20   22    -0.087100     12.01100 ; qtot -1.855  CT  
    23 opls_509     1   UNL   C21   23    -0.168200     12.01100 ; qtot -2.024  CR  
    24 opls_509     1   UNL   C22   24    -0.166200     12.01100 ; qtot -2.190  CR  
    25 opls_135     1   UNL   C23   25    -0.031500     12.01100 ; qtot -2.221  CT  
    26 opls_135     1   UNL   C24   26    -0.060700     12.01100 ; qtot -2.282  CT  
    27 opls_135     1   UNL   C25   27    -0.087100     12.01100 ; qtot -2.369  CT  
    28 opls_135     1   UNL   C26   28    -0.090600     12.01100 ; qtot -2.460  CT  
    29 opls_135     1   UNL   C27   29    -0.090600     12.01100 ; qtot -2.550  CT  
    30 opls_140     1   UNL     H   30     0.054700      1.00800 ; qtot -2.496  HC  
    31 opls_140     1   UNL    H1   31     0.046700      1.00800 ; qtot -2.449  HC  
    32 opls_140     1   UNL    H2   32     0.052700      1.00800 ; qtot -2.396  HC  
    33 opls_140     1   UNL    H3   33     0.042200      1.00800 ; qtot -2.354  HC  
    34 opls_140     1   UNL    H4   34     0.042200      1.00800 ; qtot -2.312  HC  
    35 opls_140     1   UNL    H5   35     0.045200      1.00800 ; qtot -2.267  HC  
    36 opls_140     1   UNL    H6   36     0.045200      1.00800 ; qtot -2.221  HC  
    37 opls_140     1   UNL    H7   37     0.044700      1.00800 ; qtot -2.177  HC  
    38 opls_140     1   UNL    H8   38     0.044700      1.00800 ; qtot -2.132  HC  
    39 opls_140     1   UNL    H9   39     0.043700      1.00800 ; qtot -2.088  HC  
    40 opls_140     1   UNL   H10   40     0.043700      1.00800 ; qtot -2.045  HC  
    41 opls_140     1   UNL   H11   41     0.038033      1.00800 ; qtot -2.007  HC  
    42 opls_140     1   UNL   H12   42     0.038033      1.00800 ; qtot -1.969  HC  
    43 opls_140     1   UNL   H13   43     0.038033      1.00800 ; qtot -1.930  HC  
    44 opls_140     1   UNL   H14   44     0.054700      1.00800 ; qtot -1.876  HC  
    45 opls_140     1   UNL   H15   45     0.043700      1.00800 ; qtot -1.832  HC  
    46 opls_140     1   UNL   H16   46     0.043700      1.00800 ; qtot -1.788  HC  
    47 opls_146     1   UNL   H17   47     0.131000      1.00800 ; qtot -1.657  HA  
    48 opls_140     1   UNL   H18   48     0.039367      1.00800 ; qtot -1.618  HC  
    49 opls_140     1   UNL   H19   49     0.039367      1.00800 ; qtot -1.579  HC  
    50 opls_140     1   UNL   H20   50     0.039367      1.00800 ; qtot -1.539  HC  
    51 opls_146     1   UNL   H21   51     0.128000      1.00800 ; qtot -1.411  HA  
    52 opls_140     1   UNL   H22   52     0.062200      1.00800 ; qtot -1.349  HC  
    53 opls_140     1   UNL   H23   53     0.062200      1.00800 ; qtot -1.287  HC  
    54 opls_140     1   UNL   H24   54     0.047700      1.00800 ; qtot -1.239  HC  
    55 opls_140     1   UNL   H25   55     0.047700      1.00800 ; qtot -1.191  HC  
    56 opls_140     1   UNL   H26   56     0.036700      1.00800 ; qtot -1.155  HC  
    57 opls_140     1   UNL   H27   57     0.035700      1.00800 ; qtot -1.119  HC  
    58 opls_140     1   UNL   H28   58     0.035700      1.00800 ; qtot -1.083  HC  
    59 opls_140     1   UNL   H29   59     0.035700      1.00800 ; qtot -1.048  HC  
    60 opls_146     1   UNL   H30   60     0.121000      1.00800 ; qtot -0.927  HA  
    61 opls_146     1   UNL   H31   61     0.121000      1.00800 ; qtot -0.806  HA  
    62 opls_155     1   UNL   H32   62     0.399000      1.00800 ; qtot -0.407  HO  
    63 opls_140     1   UNL   H33   63     0.050700      1.00800 ; qtot -0.356  HC  
    64 opls_140     1   UNL   H34   64     0.045700      1.00800 ; qtot -0.310  HC  
    65 opls_140     1   UNL   H35   65     0.035033      1.00800 ; qtot -0.275  HC  
    66 opls_140     1   UNL   H36   66     0.035033      1.00800 ; qtot -0.240  HC  
    67 opls_140     1   UNL   H37   67     0.035033      1.00800 ; qtot -0.205  HC  
    68 opls_140     1   UNL   H38   68     0.034200      1.00800 ; qtot -0.171  HC  
    69 opls_140     1   UNL   H39   69     0.034200      1.00800 ; qtot -0.137  HC  
    70 opls_140     1   UNL   H40   70     0.034200      1.00800 ; qtot -0.103  HC  
    71 opls_140     1   UNL   H41   71     0.034200      1.00800 ; qtot -0.068  HC  
    72 opls_140     1   UNL   H42   72     0.034200      1.00800 ; qtot -0.034  HC  
    73 opls_140     1   UNL   H43   73     0.034200      1.00800 ; qtot  0.000  HC  

[ bonds ]
;   ai     aj funct   r             k
     1     21   1 ;    1.4241e-01    2.3870e+05 ;      O - C19        OH - x     
     1     62   1 ;    9.7250e-02    4.4811e+05 ;      O - H32        OH - HO    
     2      3   1 ;    1.5483e-01    1.8418e+05 ;      C - C1          x - x     
     2      4   1 ;    1.5483e-01    1.8418e+05 ;      C - C2          x - x     
     2      6   1 ;    1.5389e-01    1.8951e+05 ;      C - C4          x - x     
     2     12   1 ;    1.5372e-01    1.9049e+05 ;      C - C10         x - CT    
     3      7   1 ;    1.5154e-01    2.0366e+05 ;     C1 - C5          x - CR    
     3      8   1 ;    1.5483e-01    1.8418e+05 ;     C1 - C6          x - x     
     3     30   1 ;    1.0954e-01    2.8989e+05 ;     C1 - H           x - HC    
     4     10   1 ;    1.5483e-01    1.8418e+05 ;     C2 - C8          x - x     
     4     13   1 ;    1.5372e-01    1.9049e+05 ;     C2 - C11         x - CT    
     4     31   1 ;    1.0954e-01    2.8989e+05 ;     C2 - H1          x - HC    
     5      7   1 ;    1.5133e-01    2.0498e+05 ;     C3 - C5          x - CR    
     5      9   1 ;    1.5384e-01    1.8979e+05 ;     C3 - C7          x - x     
     5     11   1 ;    1.5384e-01    1.8979e+05 ;     C3 - C9          x - x     
     5     32   1 ;    1.0979e-01    2.8681e+05 ;     C3 - H2          x - HC    
     6     11   1 ;    1.5384e-01    1.8979e+05 ;     C4 - C9          x - x     
     6     33   1 ;    1.0979e-01    2.8681e+05 ;     C4 - H3          x - HC    
     6     34   1 ;    1.0979e-01    2.8681e+05 ;     C4 - H4          x - HC    
     7     16   1 ;    1.3457e-01    3.5505e+05 ;     C5 - C14        CR - x     
     8     10   1 ;    1.5483e-01    1.8418e+05 ;     C6 - C8          x - x     
     8     35   1 ;    1.0954e-01    2.8989e+05 ;     C6 - H5          x - HC    
     8     36   1 ;    1.0954e-01    2.8989e+05 ;     C6 - H6          x - HC    
     9     14   1 ;    1.5133e-01    2.0498e+05 ;     C7 - C12         x - CR    
     9     15   1 ;    1.5384e-01    1.8979e+05 ;     C7 - C13         x - x     
     9     17   1 ;    1.5428e-01    1.8728e+05 ;     C7 - C15         x - CT    
    10     37   1 ;    1.0954e-01    2.8989e+05 ;     C8 - H7          x - HC    
    10     38   1 ;    1.0954e-01    2.8989e+05 ;     C8 - H8          x - HC    
    11     39   1 ;    1.0979e-01    2.8681e+05 ;     C9 - H9          x - HC    
    11     40   1 ;    1.0979e-01    2.8681e+05 ;     C9 - H10         x - HC    
    12     41   1 ;    1.0962e-01    2.8891e+05 ;    C10 - H11        CT - HC    
    12     42   1 ;    1.0962e-01    2.8891e+05 ;    C10 - H12        CT - HC    
    12     43   1 ;    1.0962e-01    2.8891e+05 ;    C10 - H13        CT - HC    
    13     22   1 ;    1.5354e-01    1.9154e+05 ;    C11 - C20        CT - CT    
    13     23   1 ;    1.5088e-01    2.0786e+05 ;    C11 - C21        CT - CR    
    13     44   1 ;    1.0962e-01    2.8891e+05 ;    C11 - H14        CT - HC    
    14     18   1 ;    1.3457e-01    3.5505e+05 ;    C12 - C16        CR - x     
    14     19   1 ;    1.5133e-01    2.0498e+05 ;    C12 - C17        CR - x     
    15     20   1 ;    1.5384e-01    1.8979e+05 ;    C13 - C18         x - x     
    15     45   1 ;    1.0979e-01    2.8681e+05 ;    C13 - H15         x - HC    
    15     46   1 ;    1.0979e-01    2.8681e+05 ;    C13 - H16         x - HC    
    16     18   1 ;    1.4615e-01    2.4127e+05 ;    C14 - C16         x - x     
    16     47   1 ;    1.0880e-01    2.9923e+05 ;    C14 - H17         x - HA    
    17     48   1 ;    1.0962e-01    2.8891e+05 ;    C15 - H18        CT - HC    
    17     49   1 ;    1.0962e-01    2.8891e+05 ;    C15 - H19        CT - HC    
    17     50   1 ;    1.0962e-01    2.8891e+05 ;    C15 - H20        CT - HC    
    18     51   1 ;    1.0880e-01    2.9923e+05 ;    C16 - H21         x - HA    
    19     21   1 ;    1.5384e-01    1.8979e+05 ;    C17 - C19         x - x     
    19     52   1 ;    1.0979e-01    2.8681e+05 ;    C17 - H22         x - HC    
    19     53   1 ;    1.0979e-01    2.8681e+05 ;    C17 - H23         x - HC    
    20     21   1 ;    1.5384e-01    1.8979e+05 ;    C18 - C19         x - x     
    20     54   1 ;    1.0979e-01    2.8681e+05 ;    C18 - H24         x - HC    
    20     55   1 ;    1.0979e-01    2.8681e+05 ;    C18 - H25         x - HC    
    21     56   1 ;    1.0984e-01    2.8620e+05 ;    C19 - H26         x - HC    
    22     57   1 ;    1.0962e-01    2.8891e+05 ;    C20 - H27        CT - HC    
    22     58   1 ;    1.0962e-01    2.8891e+05 ;    C20 - H28        CT - HC    
    22     59   1 ;    1.0962e-01    2.8891e+05 ;    C20 - H29        CT - HC    
    23     24   1 ;    1.3379e-01    3.6484e+05 ;    C21 - C22        CR - CR    
    23     60   1 ;    1.0882e-01    2.9898e+05 ;    C21 - H30        CR - HA    
    24     25   1 ;    1.5088e-01    2.0786e+05 ;    C22 - C23        CR - CT    
    24     61   1 ;    1.0882e-01    2.9898e+05 ;    C22 - H31        CR - HA    
    25     26   1 ;    1.5354e-01    1.9154e+05 ;    C23 - C24        CT - CT    
    25     27   1 ;    1.5354e-01    1.9154e+05 ;    C23 - C25        CT - CT    
    25     63   1 ;    1.0962e-01    2.8891e+05 ;    C23 - H33        CT - HC    
    26     28   1 ;    1.5354e-01    1.9154e+05 ;    C24 - C26        CT - CT    
    26     29   1 ;    1.5354e-01    1.9154e+05 ;    C24 - C27        CT - CT    
    26     64   1 ;    1.0962e-01    2.8891e+05 ;    C24 - H34        CT - HC    
    27     65   1 ;    1.0962e-01    2.8891e+05 ;    C25 - H35        CT - HC    
    27     66   1 ;    1.0962e-01    2.8891e+05 ;    C25 - H36        CT - HC    
    27     67   1 ;    1.0962e-01    2.8891e+05 ;    C25 - H37        CT - HC    
    28     68   1 ;    1.0962e-01    2.8891e+05 ;    C26 - H38        CT - HC    
    28     69   1 ;    1.0962e-01    2.8891e+05 ;    C26 - H39        CT - HC    
    28     70   1 ;    1.0962e-01    2.8891e+05 ;    C26 - H40        CT - HC    
    29     71   1 ;    1.0962e-01    2.8891e+05 ;    C27 - H41        CT - HC    
    29     72   1 ;    1.0962e-01    2.8891e+05 ;    C27 - H42        CT - HC    
    29     73   1 ;    1.0962e-01    2.8891e+05 ;    C27 - H43        CT - HC    

[ pairs ]
;   ai     aj    funct
     1     14      1 ;      O - C12   
     1     15      1 ;      O - C13   
     1     52      1 ;      O - H22   
     1     53      1 ;      O - H23   
     1     54      1 ;      O - H24   
     1     55      1 ;      O - H25   
     2      5      1 ;      C - C3    
     2     16      1 ;      C - C14   
     2     22      1 ;      C - C20   
     2     23      1 ;      C - C21   
     2     35      1 ;      C - H5    
     2     36      1 ;      C - H6    
     2     37      1 ;      C - H7    
     2     38      1 ;      C - H8    
     2     39      1 ;      C - H9    
     2     40      1 ;      C - H10   
     2     44      1 ;      C - H14   
     3      9      1 ;     C1 - C7    
     3     11      1 ;     C1 - C9    
     3     13      1 ;     C1 - C11   
     3     18      1 ;     C1 - C16   
     3     31      1 ;     C1 - H1    
     3     32      1 ;     C1 - H2    
     3     33      1 ;     C1 - H3    
     3     34      1 ;     C1 - H4    
     3     37      1 ;     C1 - H7    
     3     38      1 ;     C1 - H8    
     3     41      1 ;     C1 - H11   
     3     42      1 ;     C1 - H12   
     3     43      1 ;     C1 - H13   
     3     47      1 ;     C1 - H17   
     4      7      1 ;     C2 - C5    
     4     11      1 ;     C2 - C9    
     4     24      1 ;     C2 - C22   
     4     30      1 ;     C2 - H     
     4     33      1 ;     C2 - H3    
     4     34      1 ;     C2 - H4    
     4     35      1 ;     C2 - H5    
     4     36      1 ;     C2 - H6    
     4     41      1 ;     C2 - H11   
     4     42      1 ;     C2 - H12   
     4     43      1 ;     C2 - H13   
     4     57      1 ;     C2 - H27   
     4     58      1 ;     C2 - H28   
     4     59      1 ;     C2 - H29   
     4     60      1 ;     C2 - H30   
     5      8      1 ;     C3 - C6    
     5     18      1 ;     C3 - C16   
     5     19      1 ;     C3 - C17   
     5     20      1 ;     C3 - C18   
     5     30      1 ;     C3 - H     
     5     33      1 ;     C3 - H3    
     5     34      1 ;     C3 - H4    
     5     45      1 ;     C3 - H15   
     5     46      1 ;     C3 - H16   
     5     47      1 ;     C3 - H17   
     5     48      1 ;     C3 - H18   
     5     49      1 ;     C3 - H19   
     5     50      1 ;     C3 - H20   
     6      7      1 ;     C4 - C5    
     6      8      1 ;     C4 - C6    
     6      9      1 ;     C4 - C7    
     6     10      1 ;     C4 - C8    
     6     13      1 ;     C4 - C11   
     6     30      1 ;     C4 - H     
     6     31      1 ;     C4 - H1    
     6     32      1 ;     C4 - H2    
     6     41      1 ;     C4 - H11   
     6     42      1 ;     C4 - H12   
     6     43      1 ;     C4 - H13   
     7     10      1 ;     C5 - C8    
     7     12      1 ;     C5 - C10   
     7     14      1 ;     C5 - C12   
     7     15      1 ;     C5 - C13   
     7     17      1 ;     C5 - C15   
     7     35      1 ;     C5 - H5    
     7     36      1 ;     C5 - H6    
     7     39      1 ;     C5 - H9    
     7     40      1 ;     C5 - H10   
     7     51      1 ;     C5 - H21   
     8     12      1 ;     C6 - C10   
     8     13      1 ;     C6 - C11   
     8     16      1 ;     C6 - C14   
     8     31      1 ;     C6 - H1    
     9     16      1 ;     C7 - C14   
     9     21      1 ;     C7 - C19   
     9     39      1 ;     C7 - H9    
     9     40      1 ;     C7 - H10   
     9     51      1 ;     C7 - H21   
     9     52      1 ;     C7 - H22   
     9     53      1 ;     C7 - H23   
     9     54      1 ;     C7 - H24   
     9     55      1 ;     C7 - H25   
    10     12      1 ;     C8 - C10   
    10     22      1 ;     C8 - C20   
    10     23      1 ;     C8 - C21   
    10     30      1 ;     C8 - H     
    10     44      1 ;     C8 - H14   
    11     12      1 ;     C9 - C10   
    11     14      1 ;     C9 - C12   
    11     15      1 ;     C9 - C13   
    11     16      1 ;     C9 - C14   
    11     17      1 ;     C9 - C15   
    12     13      1 ;    C10 - C11   
    12     30      1 ;    C10 - H     
    12     31      1 ;    C10 - H1    
    12     33      1 ;    C10 - H3    
    12     34      1 ;    C10 - H4    
    13     25      1 ;    C11 - C23   
    13     37      1 ;    C11 - H7    
    13     38      1 ;    C11 - H8    
    13     61      1 ;    C11 - H31   
    14     20      1 ;    C12 - C18   
    14     32      1 ;    C12 - H2    
    14     45      1 ;    C12 - H15   
    14     46      1 ;    C12 - H16   
    14     47      1 ;    C12 - H17   
    14     48      1 ;    C12 - H18   
    14     49      1 ;    C12 - H19   
    14     50      1 ;    C12 - H20   
    14     56      1 ;    C12 - H26   
    15     18      1 ;    C13 - C16   
    15     19      1 ;    C13 - C17   
    15     32      1 ;    C13 - H2    
    15     48      1 ;    C13 - H18   
    15     49      1 ;    C13 - H19   
    15     50      1 ;    C13 - H20   
    15     56      1 ;    C13 - H26   
    16     19      1 ;    C14 - C17   
    16     30      1 ;    C14 - H     
    16     32      1 ;    C14 - H2    
    17     18      1 ;    C15 - C16   
    17     19      1 ;    C15 - C17   
    17     20      1 ;    C15 - C18   
    17     32      1 ;    C15 - H2    
    17     45      1 ;    C15 - H15   
    17     46      1 ;    C15 - H16   
    18     21      1 ;    C16 - C19   
    18     52      1 ;    C16 - H22   
    18     53      1 ;    C16 - H23   
    19     51      1 ;    C17 - H21   
    19     54      1 ;    C17 - H24   
    19     55      1 ;    C17 - H25   
    20     52      1 ;    C18 - H22   
    20     53      1 ;    C18 - H23   
    21     45      1 ;    C19 - H15   
    21     46      1 ;    C19 - H16   
    22     24      1 ;    C20 - C22   
    22     31      1 ;    C20 - H1    
    22     60      1 ;    C20 - H30   
    23     26      1 ;    C21 - C24   
    23     27      1 ;    C21 - C25   
    23     31      1 ;    C21 - H1    
    23     57      1 ;    C21 - H27   
    23     58      1 ;    C21 - H28   
    23     59      1 ;    C21 - H29   
    23     63      1 ;    C21 - H33   
    24     28      1 ;    C22 - C26   
    24     29      1 ;    C22 - C27   
    24     44      1 ;    C22 - H14   
    24     64      1 ;    C22 - H34   
    24     65      1 ;    C22 - H35   
    24     66      1 ;    C22 - H36   
    24     67      1 ;    C22 - H37   
    25     60      1 ;    C23 - H30   
    25     68      1 ;    C23 - H38   
    25     69      1 ;    C23 - H39   
    25     70      1 ;    C23 - H40   
    25     71      1 ;    C23 - H41   
    25     72      1 ;    C23 - H42   
    25     73      1 ;    C23 - H43   
    26     61      1 ;    C24 - H31   
    26     65      1 ;    C24 - H35   
    26     66      1 ;    C24 - H36   
    26     67      1 ;    C24 - H37   
    27     28      1 ;    C25 - C26   
    27     29      1 ;    C25 - C27   
    27     61      1 ;    C25 - H31   
    27     64      1 ;    C25 - H34   
    28     63      1 ;    C26 - H33   
    28     71      1 ;    C26 - H41   
    28     72      1 ;    C26 - H42   
    28     73      1 ;    C26 - H43   
    29     63      1 ;    C27 - H33   
    29     68      1 ;    C27 - H38   
    29     69      1 ;    C27 - H39   
    29     70      1 ;    C27 - H40   
    30     35      1 ;      H - H5    
    30     36      1 ;      H - H6    
    31     37      1 ;     H1 - H7    
    31     38      1 ;     H1 - H8    
    31     44      1 ;     H1 - H14   
    32     39      1 ;     H2 - H9    
    32     40      1 ;     H2 - H10   
    33     39      1 ;     H3 - H9    
    33     40      1 ;     H3 - H10   
    34     39      1 ;     H4 - H9    
    34     40      1 ;     H4 - H10   
    35     37      1 ;     H5 - H7    
    35     38      1 ;     H5 - H8    
    36     37      1 ;     H6 - H7    
    36     38      1 ;     H6 - H8    
    44     57      1 ;    H14 - H27   
    44     58      1 ;    H14 - H28   
    44     59      1 ;    H14 - H29   
    44     60      1 ;    H14 - H30   
    45     54      1 ;    H15 - H24   
    45     55      1 ;    H15 - H25   
    46     54      1 ;    H16 - H24   
    46     55      1 ;    H16 - H25   
    47     51      1 ;    H17 - H21   
    52     56      1 ;    H22 - H26   
    53     56      1 ;    H23 - H26   
    54     56      1 ;    H24 - H26   
    55     56      1 ;    H25 - H26   
    60     61      1 ;    H30 - H31   
    61     63      1 ;    H31 - H33   
    62     19      1 ;    H32 - C17   
    62     20      1 ;    H32 - C18   
    62     56      1 ;    H32 - H26   
    63     64      1 ;    H33 - H34   
    63     65      1 ;    H33 - H35   
    63     66      1 ;    H33 - H36   
    63     67      1 ;    H33 - H37   
    64     68      1 ;    H34 - H38   
    64     69      1 ;    H34 - H39   
    64     70      1 ;    H34 - H40   
    64     71      1 ;    H34 - H41   
    64     72      1 ;    H34 - H42   
    64     73      1 ;    H34 - H43   

[ angles ]
;   ai     aj     ak    funct   theta         cth
     1     21     19      1 ;    1.1005e+02    6.4065e+02 ;      O - C19  - C17      OH -    x - x   
     1     21     20      1 ;    1.1005e+02    6.4065e+02 ;      O - C19  - C18      OH -    x - x   
     1     21     56      1 ;    1.0996e+02    4.7187e+02 ;      O - C19  - H26      OH -    x - HC  
     2      3      7      1 ;    1.0794e+02    5.1287e+02 ;      C - C1   - C5        x -    x - CR  
     2      3      8      1 ;    1.0383e+02    5.1748e+02 ;      C - C1   - C6        x -    x - x   
     2      3     30      1 ;    1.1117e+02    3.5690e+02 ;      C - C1   - H         x -    x - HC  
     2      4     10      1 ;    1.0383e+02    5.1748e+02 ;      C - C2   - C8        x -    x - x   
     2      4     13      1 ;    1.1360e+02    4.9647e+02 ;      C - C2   - C11       x -    x - CT  
     2      4     31      1 ;    1.1117e+02    3.5690e+02 ;      C - C2   - H1        x -    x - HC  
     2      6     11      1 ;    1.1104e+02    5.0350e+02 ;      C - C4   - C9        x -    x - x   
     2      6     33      1 ;    1.0934e+02    3.6183e+02 ;      C - C4   - H3        x -    x - HC  
     2      6     34      1 ;    1.0934e+02    3.6183e+02 ;      C - C4   - H4        x -    x - HC  
     2     12     41      1 ;    1.1053e+02    3.6033e+02 ;      C - C10  - H11       x -   CT - HC  
     2     12     42      1 ;    1.1053e+02    3.6033e+02 ;      C - C10  - H12       x -   CT - HC  
     2     12     43      1 ;    1.1053e+02    3.6033e+02 ;      C - C10  - H13       x -   CT - HC  
     3      2      4      1 ;    1.0383e+02    5.1748e+02 ;     C1 - C    - C2        x -    x - x   
     3      2      6      1 ;    1.1375e+02    4.9589e+02 ;     C1 - C    - C4        x -    x - x   
     3      2     12      1 ;    1.1360e+02    4.9647e+02 ;     C1 - C    - C10       x -    x - CT  
     3      7      5      1 ;    1.1901e+02    4.9421e+02 ;     C1 - C5   - C3        x -   CR - x   
     3      7     16      1 ;    1.1310e+02    5.3287e+02 ;     C1 - C5   - C14       x -   CR - x   
     3      8     10      1 ;    1.0383e+02    5.1748e+02 ;     C1 - C6   - C8        x -    x - x   
     3      8     35      1 ;    1.1117e+02    3.5690e+02 ;     C1 - C6   - H5        x -    x - HC  
     3      8     36      1 ;    1.1117e+02    3.5690e+02 ;     C1 - C6   - H6        x -    x - HC  
     4      2      6      1 ;    1.1375e+02    4.9589e+02 ;     C2 - C    - C4        x -    x - x   
     4      2     12      1 ;    1.1360e+02    4.9647e+02 ;     C2 - C    - C10       x -    x - CT  
     4     10      8      1 ;    1.0383e+02    5.1748e+02 ;     C2 - C8   - C6        x -    x - x   
     4     10     37      1 ;    1.1117e+02    3.5690e+02 ;     C2 - C8   - H7        x -    x - HC  
     4     10     38      1 ;    1.1117e+02    3.5690e+02 ;     C2 - C8   - H8        x -    x - HC  
     4     13     22      1 ;    1.1370e+02    4.9840e+02 ;     C2 - C11  - C20       x -   CT - CT  
     4     13     23      1 ;    1.1388e+02    5.0225e+02 ;     C2 - C11  - C21       x -   CT - CR  
     4     13     44      1 ;    1.1053e+02    3.6033e+02 ;     C2 - C11  - H14       x -   CT - HC  
     5      7     16      1 ;    1.2265e+02    5.1212e+02 ;     C3 - C5   - C14       x -   CR - x   
     5      9     14      1 ;    1.1141e+02    5.0685e+02 ;     C3 - C7   - C12       x -    x - CR  
     5      9     15      1 ;    1.1106e+02    5.0359e+02 ;     C3 - C7   - C13       x -    x - x   
     5      9     17      1 ;    1.1143e+02    5.0200e+02 ;     C3 - C7   - C15       x -    x - CT  
     5     11      6      1 ;    1.1106e+02    5.0359e+02 ;     C3 - C9   - C4        x -    x - x   
     5     11     39      1 ;    1.0945e+02    3.6175e+02 ;     C3 - C9   - H9        x -    x - HC  
     5     11     40      1 ;    1.0945e+02    3.6175e+02 ;     C3 - C9   - H10       x -    x - HC  
     6      2     12      1 ;    1.1056e+02    5.0484e+02 ;     C4 - C    - C10       x -    x - CT  
     6     11     39      1 ;    1.0945e+02    3.6175e+02 ;     C4 - C9   - H9        x -    x - HC  
     6     11     40      1 ;    1.0945e+02    3.6175e+02 ;     C4 - C9   - H10       x -    x - HC  
     7      3      8      1 ;    1.0794e+02    5.1287e+02 ;     C5 - C1   - C6       CR -    x - x   
     7      3     30      1 ;    1.1072e+02    3.6468e+02 ;     C5 - C1   - H        CR -    x - HC  
     7      5      9      1 ;    1.1141e+02    5.0685e+02 ;     C5 - C3   - C7       CR -    x - x   
     7      5     11      1 ;    1.1141e+02    5.0685e+02 ;     C5 - C3   - C9       CR -    x - x   
     7      5     32      1 ;    1.0931e+02    3.6736e+02 ;     C5 - C3   - H2       CR -    x - HC  
     7     16     18      1 ;    1.2323e+02    5.2216e+02 ;     C5 - C14  - C16      CR -    x - x   
     7     16     47      1 ;    1.2000e+02    3.8694e+02 ;     C5 - C14  - H17      CR -    x - HA  
     8      3     30      1 ;    1.1117e+02    3.5690e+02 ;     C6 - C1   - H         x -    x - HC  
     8     10     37      1 ;    1.1117e+02    3.5690e+02 ;     C6 - C8   - H7        x -    x - HC  
     8     10     38      1 ;    1.1117e+02    3.5690e+02 ;     C6 - C8   - H8        x -    x - HC  
     9      5     11      1 ;    1.1106e+02    5.0359e+02 ;     C7 - C3   - C9        x -    x - x   
     9      5     32      1 ;    1.0945e+02    3.6175e+02 ;     C7 - C3   - H2        x -    x - HC  
     9     14     18      1 ;    1.2265e+02    5.1212e+02 ;     C7 - C12  - C16       x -   CR - x   
     9     14     19      1 ;    1.1596e+02    5.0099e+02 ;     C7 - C12  - C17       x -   CR - x   
     9     15     20      1 ;    1.1106e+02    5.0359e+02 ;     C7 - C13  - C18       x -    x - x   
     9     15     45      1 ;    1.0945e+02    3.6175e+02 ;     C7 - C13  - H15       x -    x - HC  
     9     15     46      1 ;    1.0945e+02    3.6175e+02 ;     C7 - C13  - H16       x -    x - HC  
     9     17     48      1 ;    1.1063e+02    3.5890e+02 ;     C7 - C15  - H18       x -   CT - HC  
     9     17     49      1 ;    1.1063e+02    3.5890e+02 ;     C7 - C15  - H19       x -   CT - HC  
     9     17     50      1 ;    1.1063e+02    3.5890e+02 ;     C7 - C15  - H20       x -   CT - HC  
    10      4     13      1 ;    1.1360e+02    4.9647e+02 ;     C8 - C2   - C11       x -    x - CT  
    10      4     31      1 ;    1.1117e+02    3.5690e+02 ;     C8 - C2   - H1        x -    x - HC  
    10      8     35      1 ;    1.1117e+02    3.5690e+02 ;     C8 - C6   - H5        x -    x - HC  
    10      8     36      1 ;    1.1117e+02    3.5690e+02 ;     C8 - C6   - H6        x -    x - HC  
    11      5     32      1 ;    1.0945e+02    3.6175e+02 ;     C9 - C3   - H2        x -    x - HC  
    11      6     33      1 ;    1.0945e+02    3.6175e+02 ;     C9 - C4   - H3        x -    x - HC  
    11      6     34      1 ;    1.0945e+02    3.6175e+02 ;     C9 - C4   - H4        x -    x - HC  
    13      4     31      1 ;    1.0779e+02    3.6484e+02 ;    C11 - C2   - H1       CT -    x - HC  
    13     22     57      1 ;    1.0968e+02    3.6208e+02 ;    C11 - C20  - H27      CT -   CT - HC  
    13     22     58      1 ;    1.0968e+02    3.6208e+02 ;    C11 - C20  - H28      CT -   CT - HC  
    13     22     59      1 ;    1.0968e+02    3.6208e+02 ;    C11 - C20  - H29      CT -   CT - HC  
    13     23     24      1 ;    1.2495e+02    5.0944e+02 ;    C11 - C21  - C22      CT -   CR - CR  
    13     23     60      1 ;    1.1505e+02    3.5941e+02 ;    C11 - C21  - H30      CT -   CR - HA  
    14      9     15      1 ;    1.1141e+02    5.0685e+02 ;    C12 - C7   - C13      CR -    x - x   
    14      9     17      1 ;    1.0977e+02    5.0986e+02 ;    C12 - C7   - C15      CR -    x - CT  
    14     18     16      1 ;    1.2323e+02    5.2216e+02 ;    C12 - C16  - C14      CR -    x - x   
    14     18     51      1 ;    1.2000e+02    3.8694e+02 ;    C12 - C16  - H21      CR -    x - HA  
    14     19     21      1 ;    1.1141e+02    5.0685e+02 ;    C12 - C17  - C19      CR -    x - x   
    14     19     52      1 ;    1.0931e+02    3.6736e+02 ;    C12 - C17  - H22      CR -    x - HC  
    14     19     53      1 ;    1.0931e+02    3.6736e+02 ;    C12 - C17  - H23      CR -    x - HC  
    15      9     17      1 ;    1.1143e+02    5.0200e+02 ;    C13 - C7   - C15       x -    x - CT  
    15     20     21      1 ;    1.1106e+02    5.0359e+02 ;    C13 - C18  - C19       x -    x - x   
    15     20     54      1 ;    1.0945e+02    3.6175e+02 ;    C13 - C18  - H24       x -    x - HC  
    15     20     55      1 ;    1.0945e+02    3.6175e+02 ;    C13 - C18  - H25       x -    x - HC  
    16     18     51      1 ;    1.1662e+02    3.6710e+02 ;    C14 - C16  - H21       x -    x - HA  
    18     14     19      1 ;    1.2265e+02    5.1212e+02 ;    C16 - C12  - C17       x -   CR - x   
    18     16     47      1 ;    1.1662e+02    3.6710e+02 ;    C16 - C14  - H17       x -    x - HA  
    19     21     20      1 ;    1.1106e+02    5.0359e+02 ;    C17 - C19  - C18       x -    x - x   
    19     21     56      1 ;    1.0918e+02    3.6217e+02 ;    C17 - C19  - H26       x -    x - HC  
    20     15     45      1 ;    1.0945e+02    3.6175e+02 ;    C18 - C13  - H15       x -    x - HC  
    20     15     46      1 ;    1.0945e+02    3.6175e+02 ;    C18 - C13  - H16       x -    x - HC  
    20     21     56      1 ;    1.0918e+02    3.6217e+02 ;    C18 - C19  - H26       x -    x - HC  
    21      1     62      1 ;    1.0707e+02    5.4584e+02 ;    C19 - O    - H32       x -   OH - HO  
    21     19     52      1 ;    1.0945e+02    3.6175e+02 ;    C19 - C17  - H22       x -    x - HC  
    21     19     53      1 ;    1.0945e+02    3.6175e+02 ;    C19 - C17  - H23       x -    x - HC  
    21     20     54      1 ;    1.0945e+02    3.6175e+02 ;    C19 - C18  - H24       x -    x - HC  
    21     20     55      1 ;    1.0945e+02    3.6175e+02 ;    C19 - C18  - H25       x -    x - HC  
    22     13     23      1 ;    1.1258e+02    5.0543e+02 ;    C20 - C11  - C21      CT -   CT - CR  
    22     13     44      1 ;    1.0968e+02    3.6208e+02 ;    C20 - C11  - H14      CT -   CT - HC  
    23     13     44      1 ;    1.1065e+02    3.6618e+02 ;    C21 - C11  - H14      CR -   CT - HC  
    23     24     25      1 ;    1.2495e+02    5.0944e+02 ;    C21 - C22  - C23      CR -   CR - CT  
    23     24     61      1 ;    1.2039e+02    3.8802e+02 ;    C21 - C22  - H31      CR -   CR - HA  
    24     23     60      1 ;    1.2039e+02    3.8802e+02 ;    C22 - C21  - H30      CR -   CR - HA  
    24     25     26      1 ;    1.1258e+02    5.0543e+02 ;    C22 - C23  - C24      CR -   CT - CT  
    24     25     27      1 ;    1.1258e+02    5.0543e+02 ;    C22 - C23  - C25      CR -   CT - CT  
    24     25     63      1 ;    1.1065e+02    3.6618e+02 ;    C22 - C23  - H33      CR -   CT - HC  
    25     24     61      1 ;    1.1505e+02    3.5941e+02 ;    C23 - C22  - H31      CT -   CR - HA  
    25     26     28      1 ;    1.1263e+02    5.0099e+02 ;    C23 - C24  - C26      CT -   CT - CT  
    25     26     29      1 ;    1.1263e+02    5.0099e+02 ;    C23 - C24  - C27      CT -   CT - CT  
    25     26     64      1 ;    1.0968e+02    3.6208e+02 ;    C23 - C24  - H34      CT -   CT - HC  
    25     27     65      1 ;    1.0968e+02    3.6208e+02 ;    C23 - C25  - H35      CT -   CT - HC  
    25     27     66      1 ;    1.0968e+02    3.6208e+02 ;    C23 - C25  - H36      CT -   CT - HC  
    25     27     67      1 ;    1.0968e+02    3.6208e+02 ;    C23 - C25  - H37      CT -   CT - HC  
    26     25     27      1 ;    1.1263e+02    5.0099e+02 ;    C24 - C23  - C25      CT -   CT - CT  
    26     25     63      1 ;    1.0968e+02    3.6208e+02 ;    C24 - C23  - H33      CT -   CT - HC  
    26     28     68      1 ;    1.0968e+02    3.6208e+02 ;    C24 - C26  - H38      CT -   CT - HC  
    26     28     69      1 ;    1.0968e+02    3.6208e+02 ;    C24 - C26  - H39      CT -   CT - HC  
    26     28     70      1 ;    1.0968e+02    3.6208e+02 ;    C24 - C26  - H40      CT -   CT - HC  
    26     29     71      1 ;    1.0968e+02    3.6208e+02 ;    C24 - C27  - H41      CT -   CT - HC  
    26     29     72      1 ;    1.0968e+02    3.6208e+02 ;    C24 - C27  - H42      CT -   CT - HC  
    26     29     73      1 ;    1.0968e+02    3.6208e+02 ;    C24 - C27  - H43      CT -   CT - HC  
    27     25     63      1 ;    1.0968e+02    3.6208e+02 ;    C25 - C23  - H33      CT -   CT - HC  
    28     26     29      1 ;    1.1263e+02    5.0099e+02 ;    C26 - C24  - C27      CT -   CT - CT  
    28     26     64      1 ;    1.0968e+02    3.6208e+02 ;    C26 - C24  - H34      CT -   CT - HC  
    29     26     64      1 ;    1.0968e+02    3.6208e+02 ;    C27 - C24  - H34      CT -   CT - HC  
    33      6     34      1 ;    1.0662e+02    3.0066e+02 ;     H3 - C4   - H4       HC -    x - HC  
    35      8     36      1 ;    1.0722e+02    3.0049e+02 ;     H5 - C6   - H6       HC -    x - HC  
    37     10     38      1 ;    1.0722e+02    3.0049e+02 ;     H7 - C8   - H8       HC -    x - HC  
    39     11     40      1 ;    1.0662e+02    3.0066e+02 ;     H9 - C9   - H10      HC -    x - HC  
    41     12     42      1 ;    1.0773e+02    2.9957e+02 ;    H11 - C10  - H12      HC -   CT - HC  
    41     12     43      1 ;    1.0773e+02    2.9957e+02 ;    H11 - C10  - H13      HC -   CT - HC  
    42     12     43      1 ;    1.0773e+02    2.9957e+02 ;    H12 - C10  - H13      HC -   CT - HC  
    45     15     46      1 ;    1.0662e+02    3.0066e+02 ;    H15 - C13  - H16      HC -    x - HC  
    48     17     49      1 ;    1.0773e+02    2.9957e+02 ;    H18 - C15  - H19      HC -   CT - HC  
    48     17     50      1 ;    1.0773e+02    2.9957e+02 ;    H18 - C15  - H20      HC -   CT - HC  
    49     17     50      1 ;    1.0773e+02    2.9957e+02 ;    H19 - C15  - H20      HC -   CT - HC  
    52     19     53      1 ;    1.0662e+02    3.0066e+02 ;    H22 - C17  - H23      HC -    x - HC  
    54     20     55      1 ;    1.0662e+02    3.0066e+02 ;    H24 - C18  - H25      HC -    x - HC  
    57     22     58      1 ;    1.0773e+02    2.9957e+02 ;    H27 - C20  - H28      HC -   CT - HC  
    57     22     59      1 ;    1.0773e+02    2.9957e+02 ;    H27 - C20  - H29      HC -   CT - HC  
    58     22     59      1 ;    1.0773e+02    2.9957e+02 ;    H28 - C20  - H29      HC -   CT - HC  
    65     27     66      1 ;    1.0773e+02    2.9957e+02 ;    H35 - C25  - H36      HC -   CT - HC  
    65     27     67      1 ;    1.0773e+02    2.9957e+02 ;    H35 - C25  - H37      HC -   CT - HC  
    66     27     67      1 ;    1.0773e+02    2.9957e+02 ;    H36 - C25  - H37      HC -   CT - HC  
    68     28     69      1 ;    1.0773e+02    2.9957e+02 ;    H38 - C26  - H39      HC -   CT - HC  
    68     28     70      1 ;    1.0773e+02    2.9957e+02 ;    H38 - C26  - H40      HC -   CT - HC  
    69     28     70      1 ;    1.0773e+02    2.9957e+02 ;    H39 - C26  - H40      HC -   CT - HC  
    71     29     72      1 ;    1.0773e+02    2.9957e+02 ;    H41 - C27  - H42      HC -   CT - HC  
    71     29     73      1 ;    1.0773e+02    2.9957e+02 ;    H41 - C27  - H43      HC -   CT - HC  
    72     29     73      1 ;    1.0773e+02    2.9957e+02 ;    H42 - C27  - H43      HC -   CT - HC  

[ dihedrals ] ; propers
; for gromacs 4.5 or higher, using funct 9
;    i      j      k      l   func   phase     kd      pn
     1     21     19     14      9 ;     0.00   0.65084   3 ;      O-   C19-   C17-   C12
     1     21     19     52      9 ;     0.00   0.37656   3 ;      O-   C19-   C17-   H22
     1     21     19     53      9 ;     0.00   0.37656   3 ;      O-   C19-   C17-   H23
     1     21     20     15      9 ;     0.00   0.75312   3 ;      O-   C19-   C18-   C13
     1     21     20     54      9 ;     0.00   0.37656   3 ;      O-   C19-   C18-   H24
     1     21     20     55      9 ;     0.00   0.37656   3 ;      O-   C19-   C18-   H25
     2      3      7      5      9 ;     0.00   0.00000   0 ;      C-    C1-    C5-    C3
     2      3      7     16      9 ;     0.00   0.00000   0 ;      C-    C1-    C5-   C14
     2      3      8     10      9 ;     0.00   2.17568   3 ;      C-    C1-    C6-    C8
     2      3      8     35      9 ;     0.00   0.54392   3 ;      C-    C1-    C6-    H5
     2      3      8     36      9 ;     0.00   0.54392   3 ;      C-    C1-    C6-    H6
     2      4     10      8      9 ;     0.00   2.17568   3 ;      C-    C2-    C8-    C6
     2      4     10     37      9 ;     0.00   0.54392   3 ;      C-    C2-    C8-    H7
     2      4     10     38      9 ;     0.00   0.54392   3 ;      C-    C2-    C8-    H8
     2      4     13     22      9 ;     0.00   2.17568   3 ;      C-    C2-   C11-   C20
     2      4     13     23      9 ;     0.00   0.65084   3 ;      C-    C2-   C11-   C21
     2      4     13     44      9 ;     0.00   0.54392   3 ;      C-    C2-   C11-   H14
     2      6     11      5      9 ;     0.00   2.17568   3 ;      C-    C4-    C9-    C3
     2      6     11     39      9 ;     0.00   0.54392   3 ;      C-    C4-    C9-    H9
     2      6     11     40      9 ;     0.00   0.54392   3 ;      C-    C4-    C9-   H10
     3      2      4     10      9 ;     0.00   2.17568   3 ;     C1-     C-    C2-    C8
     3      2      4     13      9 ;     0.00   2.17568   3 ;     C1-     C-    C2-   C11
     3      2      4     31      9 ;     0.00   0.54392   3 ;     C1-     C-    C2-    H1
     3      2      6     11      9 ;     0.00   2.17568   3 ;     C1-     C-    C4-    C9
     3      2      6     33      9 ;     0.00   0.54392   3 ;     C1-     C-    C4-    H3
     3      2      6     34      9 ;     0.00   0.54392   3 ;     C1-     C-    C4-    H4
     3      2     12     41      9 ;     0.00   0.54392   3 ;     C1-     C-   C10-   H11
     3      2     12     42      9 ;     0.00   0.54392   3 ;     C1-     C-   C10-   H12
     3      2     12     43      9 ;     0.00   0.54392   3 ;     C1-     C-   C10-   H13
     3      7      5      9      9 ;     0.00   0.00000   0 ;     C1-    C5-    C3-    C7
     3      7      5     11      9 ;     0.00   0.00000   0 ;     C1-    C5-    C3-    C9
     3      7      5     32      9 ;     0.00   0.62760   3 ;     C1-    C5-    C3-    H2
     3      7     16     18      9 ;   180.00  27.82360   2 ;     C1-    C5-   C14-   C16
     3      7     16     47      9 ;   180.00  27.82360   2 ;     C1-    C5-   C14-   H17
     3      8     10      4      9 ;     0.00   2.17568   3 ;     C1-    C6-    C8-    C2
     3      8     10     37      9 ;     0.00   0.54392   3 ;     C1-    C6-    C8-    H7
     3      8     10     38      9 ;     0.00   0.54392   3 ;     C1-    C6-    C8-    H8
     4      2      3      7      9 ;     0.00   0.65084   3 ;     C2-     C-    C1-    C5
     4      2      3      8      9 ;     0.00   2.17568   3 ;     C2-     C-    C1-    C6
     4      2      3     30      9 ;     0.00   0.54392   3 ;     C2-     C-    C1-     H
     4      2      6     11      9 ;     0.00   2.17568   3 ;     C2-     C-    C4-    C9
     4      2      6     33      9 ;     0.00   0.54392   3 ;     C2-     C-    C4-    H3
     4      2      6     34      9 ;     0.00   0.54392   3 ;     C2-     C-    C4-    H4
     4      2     12     41      9 ;     0.00   0.54392   3 ;     C2-     C-   C10-   H11
     4      2     12     42      9 ;     0.00   0.54392   3 ;     C2-     C-   C10-   H12
     4      2     12     43      9 ;     0.00   0.54392   3 ;     C2-     C-   C10-   H13
     4     10      8     35      9 ;     0.00   0.54392   3 ;     C2-    C8-    C6-    H5
     4     10      8     36      9 ;     0.00   0.54392   3 ;     C2-    C8-    C6-    H6
     4     13     22     57      9 ;     0.00   0.54392   3 ;     C2-   C11-   C20-   H27
     4     13     22     58      9 ;     0.00   0.54392   3 ;     C2-   C11-   C20-   H28
     4     13     22     59      9 ;     0.00   0.54392   3 ;     C2-   C11-   C20-   H29
     4     13     23     24      9 ;     0.00   0.00000   0 ;     C2-   C11-   C21-   C22
     4     13     23     60      9 ;     0.00   0.00000   0 ;     C2-   C11-   C21-   H30
     5      7      3      8      9 ;     0.00   0.00000   0 ;     C3-    C5-    C1-    C6
     5      7      3     30      9 ;     0.00   0.62760   3 ;     C3-    C5-    C1-     H
     5      7     16     18      9 ;   180.00  27.82360   2 ;     C3-    C5-   C14-   C16
     5      7     16     47      9 ;   180.00  27.82360   2 ;     C3-    C5-   C14-   H17
     5      9     14     18      9 ;     0.00   0.00000   0 ;     C3-    C7-   C12-   C16
     5      9     14     19      9 ;     0.00   0.00000   0 ;     C3-    C7-   C12-   C17
     5      9     15     20      9 ;     0.00   2.17568   3 ;     C3-    C7-   C13-   C18
     5      9     15     45      9 ;     0.00   0.54392   3 ;     C3-    C7-   C13-   H15
     5      9     15     46      9 ;     0.00   0.54392   3 ;     C3-    C7-   C13-   H16
     5      9     17     48      9 ;     0.00   0.54392   3 ;     C3-    C7-   C15-   H18
     5      9     17     49      9 ;     0.00   0.54392   3 ;     C3-    C7-   C15-   H19
     5      9     17     50      9 ;     0.00   0.54392   3 ;     C3-    C7-   C15-   H20
     5     11      6     33      9 ;     0.00   0.54392   3 ;     C3-    C9-    C4-    H3
     5     11      6     34      9 ;     0.00   0.54392   3 ;     C3-    C9-    C4-    H4
     6      2      3      7      9 ;     0.00   0.65084   3 ;     C4-     C-    C1-    C5
     6      2      3      8      9 ;     0.00   2.17568   3 ;     C4-     C-    C1-    C6
     6      2      3     30      9 ;     0.00   0.54392   3 ;     C4-     C-    C1-     H
     6      2      4     10      9 ;     0.00   2.17568   3 ;     C4-     C-    C2-    C8
     6      2      4     13      9 ;     0.00   2.17568   3 ;     C4-     C-    C2-   C11
     6      2      4     31      9 ;     0.00   0.54392   3 ;     C4-     C-    C2-    H1
     6      2     12     41      9 ;     0.00   0.54392   3 ;     C4-     C-   C10-   H11
     6      2     12     42      9 ;     0.00   0.54392   3 ;     C4-     C-   C10-   H12
     6      2     12     43      9 ;     0.00   0.54392   3 ;     C4-     C-   C10-   H13
     6     11      5      7      9 ;     0.00   0.65084   3 ;     C4-    C9-    C3-    C5
     6     11      5      9      9 ;     0.00   2.17568   3 ;     C4-    C9-    C3-    C7
     6     11      5     32      9 ;     0.00   0.54392   3 ;     C4-    C9-    C3-    H2
     7      3      2     12      9 ;     0.00   0.65084   3 ;     C5-    C1-     C-   C10
     7      3      8     10      9 ;     0.00   0.65084   3 ;     C5-    C1-    C6-    C8
     7      3      8     35      9 ;     0.00   0.65084   3 ;     C5-    C1-    C6-    H5
     7      3      8     36      9 ;     0.00   0.65084   3 ;     C5-    C1-    C6-    H6
     7      5      9     14      9 ;     0.00   0.65084   3 ;     C5-    C3-    C7-   C12
     7      5      9     15      9 ;     0.00   0.65084   3 ;     C5-    C3-    C7-   C13
     7      5      9     17      9 ;     0.00   0.65084   3 ;     C5-    C3-    C7-   C15
     7      5     11     39      9 ;     0.00   0.65084   3 ;     C5-    C3-    C9-    H9
     7      5     11     40      9 ;     0.00   0.65084   3 ;     C5-    C3-    C9-   H10
     7     16     18     14      9 ;     0.00   3.09616   3 ;     C5-   C14-   C16-   C12
     7     16     18     51      9 ;   180.00   4.18400   2 ;     C5-   C14-   C16-   H21
     8      3      2     12      9 ;     0.00   2.17568   3 ;     C6-    C1-     C-   C10
     8      3      7     16      9 ;     0.00   0.00000   0 ;     C6-    C1-    C5-   C14
     8     10      4     13      9 ;     0.00   2.17568   3 ;     C6-    C8-    C2-   C11
     8     10      4     31      9 ;     0.00   0.54392   3 ;     C6-    C8-    C2-    H1
     9      5      7     16      9 ;     0.00   0.00000   0 ;     C7-    C3-    C5-   C14
     9      5     11     39      9 ;     0.00   0.54392   3 ;     C7-    C3-    C9-    H9
     9      5     11     40      9 ;     0.00   0.54392   3 ;     C7-    C3-    C9-   H10
     9     14     18     16      9 ;   180.00  27.82360   2 ;     C7-   C12-   C16-   C14
     9     14     18     51      9 ;   180.00  27.82360   2 ;     C7-   C12-   C16-   H21
     9     14     19     21      9 ;     0.00   0.00000   0 ;     C7-   C12-   C17-   C19
     9     14     19     52      9 ;     0.00   0.62760   3 ;     C7-   C12-   C17-   H22
     9     14     19     53      9 ;     0.00   0.62760   3 ;     C7-   C12-   C17-   H23
     9     15     20     21      9 ;     0.00   2.17568   3 ;     C7-   C13-   C18-   C19
     9     15     20     54      9 ;     0.00   0.54392   3 ;     C7-   C13-   C18-   H24
     9     15     20     55      9 ;     0.00   0.54392   3 ;     C7-   C13-   C18-   H25
    10      4      2     12      9 ;     0.00   2.17568   3 ;     C8-    C2-     C-   C10
    10      4     13     22      9 ;     0.00   2.17568   3 ;     C8-    C2-   C11-   C20
    10      4     13     23      9 ;     0.00   0.65084   3 ;     C8-    C2-   C11-   C21
    10      4     13     44      9 ;     0.00   0.54392   3 ;     C8-    C2-   C11-   H14
    10      8      3     30      9 ;     0.00   0.54392   3 ;     C8-    C6-    C1-     H
    11      5      7     16      9 ;     0.00   0.00000   0 ;     C9-    C3-    C5-   C14
    11      5      9     14      9 ;     0.00   0.65084   3 ;     C9-    C3-    C7-   C12
    11      5      9     15      9 ;     0.00   2.17568   3 ;     C9-    C3-    C7-   C13
    11      5      9     17      9 ;     0.00   2.17568   3 ;     C9-    C3-    C7-   C15
    11      6      2     12      9 ;     0.00   2.17568   3 ;     C9-    C4-     C-   C10
    12      2      3     30      9 ;     0.00   0.54392   3 ;    C10-     C-    C1-     H
    12      2      4     13      9 ;     0.00   2.17568   3 ;    C10-     C-    C2-   C11
    12      2      4     31      9 ;     0.00   0.54392   3 ;    C10-     C-    C2-    H1
    12      2      6     33      9 ;     0.00   0.54392   3 ;    C10-     C-    C4-    H3
    12      2      6     34      9 ;     0.00   0.54392   3 ;    C10-     C-    C4-    H4
    13      4     10     37      9 ;     0.00   0.54392   3 ;    C11-    C2-    C8-    H7
    13      4     10     38      9 ;     0.00   0.54392   3 ;    C11-    C2-    C8-    H8
    13     23     24     25      9 ;     0.00   0.62760   1 ;    C11-   C21-   C22-   C23
    13     23     24     25      9 ;   180.00   5.56472   3 ;    C11-   C21-   C22-   C23
    13     23     24     25      9 ;   180.00  24.18352   2 ;    C11-   C21-   C22-   C23
    13     23     24     61      9 ;   180.00  27.82360   2 ;    C11-   C21-   C22-   H31
    14      9      5     32      9 ;     0.00   0.65084   3 ;    C12-    C7-    C3-    H2
    14      9     15     20      9 ;     0.00   0.65084   3 ;    C12-    C7-   C13-   C18
    14      9     15     45      9 ;     0.00   0.65084   3 ;    C12-    C7-   C13-   H15
    14      9     15     46      9 ;     0.00   0.65084   3 ;    C12-    C7-   C13-   H16
    14      9     17     48      9 ;     0.00   0.65084   3 ;    C12-    C7-   C15-   H18
    14      9     17     49      9 ;     0.00   0.65084   3 ;    C12-    C7-   C15-   H19
    14      9     17     50      9 ;     0.00   0.65084   3 ;    C12-    C7-   C15-   H20
    14     18     16     47      9 ;   180.00   4.18400   2 ;    C12-   C16-   C14-   H17
    14     19     21     20      9 ;     0.00   0.65084   3 ;    C12-   C17-   C19-   C18
    14     19     21     56      9 ;     0.00   0.65084   3 ;    C12-   C17-   C19-   H26
    15      9      5     32      9 ;     0.00   0.54392   3 ;    C13-    C7-    C3-    H2
    15      9     14     18      9 ;     0.00   0.00000   0 ;    C13-    C7-   C12-   C16
    15      9     14     19      9 ;     0.00   0.00000   0 ;    C13-    C7-   C12-   C17
    15      9     17     48      9 ;     0.00   0.54392   3 ;    C13-    C7-   C15-   H18
    15      9     17     49      9 ;     0.00   0.54392   3 ;    C13-    C7-   C15-   H19
    15      9     17     50      9 ;     0.00   0.54392   3 ;    C13-    C7-   C15-   H20
    15     20     21     19      9 ;     0.00   2.17568   3 ;    C13-   C18-   C19-   C17
    15     20     21     56      9 ;     0.00   0.65084   3 ;    C13-   C18-   C19-   H26
    16      7      3     30      9 ;     0.00   0.00000   0 ;    C14-    C5-    C1-     H
    16      7      5     32      9 ;     0.00   0.00000   0 ;    C14-    C5-    C3-    H2
    16     18     14     19      9 ;   180.00  27.82360   2 ;    C14-   C16-   C12-   C17
    17      9      5     32      9 ;     0.00   0.54392   3 ;    C15-    C7-    C3-    H2
    17      9     14     18      9 ;     0.00   0.00000   0 ;    C15-    C7-   C12-   C16
    17      9     14     19      9 ;     0.00   0.00000   0 ;    C15-    C7-   C12-   C17
    17      9     15     20      9 ;     0.00   2.17568   3 ;    C15-    C7-   C13-   C18
    17      9     15     45      9 ;     0.00   0.54392   3 ;    C15-    C7-   C13-   H15
    17      9     15     46      9 ;     0.00   0.54392   3 ;    C15-    C7-   C13-   H16
    18     14     19     21      9 ;     0.00   0.00000   0 ;    C16-   C12-   C17-   C19
    18     14     19     52      9 ;     0.00   0.00000   0 ;    C16-   C12-   C17-   H22
    18     14     19     53      9 ;     0.00   0.00000   0 ;    C16-   C12-   C17-   H23
    19     14     18     51      9 ;   180.00  27.82360   2 ;    C17-   C12-   C16-   H21
    19     21     20     54      9 ;     0.00   0.54392   3 ;    C17-   C19-   C18-   H24
    19     21     20     55      9 ;     0.00   0.54392   3 ;    C17-   C19-   C18-   H25
    20     21     19     52      9 ;     0.00   0.54392   3 ;    C18-   C19-   C17-   H22
    20     21     19     53      9 ;     0.00   0.54392   3 ;    C18-   C19-   C17-   H23
    21     20     15     45      9 ;     0.00   0.54392   3 ;    C19-   C18-   C13-   H15
    21     20     15     46      9 ;     0.00   0.54392   3 ;    C19-   C18-   C13-   H16
    22     13      4     31      9 ;     0.00   0.54392   3 ;    C20-   C11-    C2-    H1
    22     13     23     24      9 ;     0.00   0.00000   0 ;    C20-   C11-   C21-   C22
    22     13     23     60      9 ;     0.00   0.00000   0 ;    C20-   C11-   C21-   H30
    23     13      4     31      9 ;     0.00   0.65084   3 ;    C21-   C11-    C2-    H1
    23     13     22     57      9 ;     0.00   0.65084   3 ;    C21-   C11-   C20-   H27
    23     13     22     58      9 ;     0.00   0.65084   3 ;    C21-   C11-   C20-   H28
    23     13     22     59      9 ;     0.00   0.65084   3 ;    C21-   C11-   C20-   H29
    23     24     25     26      9 ;     0.00   0.00000   0 ;    C21-   C22-   C23-   C24
    23     24     25     27      9 ;     0.00   0.00000   0 ;    C21-   C22-   C23-   C25
    23     24     25     63      9 ;   180.00   1.08784   3 ;    C21-   C22-   C23-   H33
    24     23     13     44      9 ;   180.00   1.08784   3 ;    C22-   C21-   C11-   H14
    24     25     26     28      9 ;     0.00   0.65084   3 ;    C22-   C23-   C24-   C26
    24     25     26     29      9 ;     0.00   0.65084   3 ;    C22-   C23-   C24-   C27
    24     25     26     64      9 ;     0.00   0.65084   3 ;    C22-   C23-   C24-   H34
    24     25     27     65      9 ;     0.00   0.65084   3 ;    C22-   C23-   C25-   H35
    24     25     27     66      9 ;     0.00   0.65084   3 ;    C22-   C23-   C25-   H36
    24     25     27     67      9 ;     0.00   0.65084   3 ;    C22-   C23-   C25-   H37
    25     24     23     60      9 ;   180.00  27.82360   2 ;    C23-   C22-   C21-   H30
    25     26     28     68      9 ;     0.00   0.54392   3 ;    C23-   C24-   C26-   H38
    25     26     28     69      9 ;     0.00   0.54392   3 ;    C23-   C24-   C26-   H39
    25     26     28     70      9 ;     0.00   0.54392   3 ;    C23-   C24-   C26-   H40
    25     26     29     71      9 ;     0.00   0.54392   3 ;    C23-   C24-   C27-   H41
    25     26     29     72      9 ;     0.00   0.54392   3 ;    C23-   C24-   C27-   H42
    25     26     29     73      9 ;     0.00   0.54392   3 ;    C23-   C24-   C27-   H43
    26     25     24     61      9 ;     0.00   0.00000   0 ;    C24-   C23-   C22-   H31
    26     25     27     65      9 ;     0.00   0.54392   3 ;    C24-   C23-   C25-   H35
    26     25     27     66      9 ;     0.00   0.54392   3 ;    C24-   C23-   C25-   H36
    26     25     27     67      9 ;     0.00   0.54392   3 ;    C24-   C23-   C25-   H37
    27     25     24     61      9 ;     0.00   0.00000   0 ;    C25-   C23-   C22-   H31
    27     25     26     28      9 ;     0.00   2.17568   3 ;    C25-   C23-   C24-   C26
    27     25     26     29      9 ;     0.00   2.17568   3 ;    C25-   C23-   C24-   C27
    27     25     26     64      9 ;     0.00   0.54392   3 ;    C25-   C23-   C24-   H34
    28     26     25     63      9 ;     0.00   0.54392   3 ;    C26-   C24-   C23-   H33
    28     26     29     71      9 ;     0.00   0.54392   3 ;    C26-   C24-   C27-   H41
    28     26     29     72      9 ;     0.00   0.54392   3 ;    C26-   C24-   C27-   H42
    28     26     29     73      9 ;     0.00   0.54392   3 ;    C26-   C24-   C27-   H43
    29     26     25     63      9 ;     0.00   0.54392   3 ;    C27-   C24-   C23-   H33
    29     26     28     68      9 ;     0.00   0.54392   3 ;    C27-   C24-   C26-   H38
    29     26     28     69      9 ;     0.00   0.54392   3 ;    C27-   C24-   C26-   H39
    29     26     28     70      9 ;     0.00   0.54392   3 ;    C27-   C24-   C26-   H40
    30      3      8     35      9 ;     0.00   0.50208   3 ;      H-    C1-    C6-    H5
    30      3      8     36      9 ;     0.00   0.50208   3 ;      H-    C1-    C6-    H6
    31      4     10     37      9 ;     0.00   0.50208   3 ;     H1-    C2-    C8-    H7
    31      4     10     38      9 ;     0.00   0.50208   3 ;     H1-    C2-    C8-    H8
    31      4     13     44      9 ;     0.00   0.50208   3 ;     H1-    C2-   C11-   H14
    32      5     11     39      9 ;     0.00   0.50208   3 ;     H2-    C3-    C9-    H9
    32      5     11     40      9 ;     0.00   0.50208   3 ;     H2-    C3-    C9-   H10
    33      6     11     39      9 ;     0.00   0.50208   3 ;     H3-    C4-    C9-    H9
    33      6     11     40      9 ;     0.00   0.50208   3 ;     H3-    C4-    C9-   H10
    34      6     11     39      9 ;     0.00   0.50208   3 ;     H4-    C4-    C9-    H9
    34      6     11     40      9 ;     0.00   0.50208   3 ;     H4-    C4-    C9-   H10
    35      8     10     37      9 ;     0.00   0.50208   3 ;     H5-    C6-    C8-    H7
    35      8     10     38      9 ;     0.00   0.50208   3 ;     H5-    C6-    C8-    H8
    36      8     10     37      9 ;     0.00   0.50208   3 ;     H6-    C6-    C8-    H7
    36      8     10     38      9 ;     0.00   0.50208   3 ;     H6-    C6-    C8-    H8
    44     13     22     57      9 ;     0.00   0.50208   3 ;    H14-   C11-   C20-   H27
    44     13     22     58      9 ;     0.00   0.50208   3 ;    H14-   C11-   C20-   H28
    44     13     22     59      9 ;     0.00   0.50208   3 ;    H14-   C11-   C20-   H29
    44     13     23     60      9 ;     0.00   0.00000   0 ;    H14-   C11-   C21-   H30
    45     15     20     54      9 ;     0.00   0.50208   3 ;    H15-   C13-   C18-   H24
    45     15     20     55      9 ;     0.00   0.50208   3 ;    H15-   C13-   C18-   H25
    46     15     20     54      9 ;     0.00   0.50208   3 ;    H16-   C13-   C18-   H24
    46     15     20     55      9 ;     0.00   0.50208   3 ;    H16-   C13-   C18-   H25
    47     16     18     51      9 ;   180.00   4.18400   2 ;    H17-   C14-   C16-   H21
    52     19     21     56      9 ;     0.00   0.65084   3 ;    H22-   C17-   C19-   H26
    53     19     21     56      9 ;     0.00   0.65084   3 ;    H23-   C17-   C19-   H26
    54     20     21     56      9 ;     0.00   0.65084   3 ;    H24-   C18-   C19-   H26
    55     20     21     56      9 ;     0.00   0.65084   3 ;    H25-   C18-   C19-   H26
    60     23     24     61      9 ;   180.00  27.82360   2 ;    H30-   C21-   C22-   H31
    61     24     25     63      9 ;     0.00   0.00000   0 ;    H31-   C22-   C23-   H33
    62      1     21     19      9 ;     0.00   0.25104   3 ;    H32-     O-   C19-   C17
    62      1     21     20      9 ;     0.00   0.25104   3 ;    H32-     O-   C19-   C18
    62      1     21     56      9 ;     0.00   0.51463   3 ;    H32-     O-   C19-   H26
    63     25     26     64      9 ;     0.00   0.50208   3 ;    H33-   C23-   C24-   H34
    63     25     27     65      9 ;     0.00   0.50208   3 ;    H33-   C23-   C25-   H35
    63     25     27     66      9 ;     0.00   0.50208   3 ;    H33-   C23-   C25-   H36
    63     25     27     67      9 ;     0.00   0.50208   3 ;    H33-   C23-   C25-   H37
    64     26     28     68      9 ;     0.00   0.50208   3 ;    H34-   C24-   C26-   H38
    64     26     28     69      9 ;     0.00   0.50208   3 ;    H34-   C24-   C26-   H39
    64     26     28     70      9 ;     0.00   0.50208   3 ;    H34-   C24-   C26-   H40
    64     26     29     71      9 ;     0.00   0.50208   3 ;    H34-   C24-   C27-   H41
    64     26     29     72      9 ;     0.00   0.50208   3 ;    H34-   C24-   C27-   H42
    64     26     29     73      9 ;     0.00   0.50208   3 ;    H34-   C24-   C27-   H43

[ dihedrals ] ; impropers
; treated as propers in GROMACS to use correct AMBER analytical function
;    i      j      k      l   func   phase     kd      pn
     3      5      7     16      4 ;   180.00   4.60240   2 ;     C1-    C3-    C5-   C14
     7     18     16     47      4 ;   180.00   4.60240   2 ;     C5-   C16-   C14-   H17
     9     19     14     18      4 ;   180.00   4.60240   2 ;     C7-   C17-   C12-   C16
    14     16     18     51      4 ;   180.00   4.60240   2 ;    C12-   C14-   C16-   H21
    23     25     24     61      4 ;   180.00   4.60240   2 ;    C21-   C23-   C22-   H31
    24     13     23     60      4 ;   180.00   4.60240   2 ;    C22-   C11-   C21-   H30
