ergosterol_GMX.gro created by acpype (v: 2023.10.27) on Mon Feb  9 17:44:17 2026
 73
    1  UNL    O    1   0.829  -0.010   0.026
    1  UNL    C    2  -0.041   0.033  -0.010
    1  UNL   C1    3   0.035  -0.086   0.050
    1  UNL   C2    4  -0.183   0.004   0.045
    1  UNL   C3    5   0.256   0.045   0.043
    1  UNL   C4    6   0.023   0.162   0.047
    1  UNL   C5    7   0.182  -0.087   0.015
    1  UNL   C6    8  -0.056  -0.206   0.018
    1  UNL   C7    9   0.404   0.051  -0.017
    1  UNL   C8   10  -0.198  -0.149   0.028
    1  UNL   C9   11   0.171   0.171   0.009
    1  UNL  C10   12  -0.039   0.035  -0.165
    1  UNL  C11   13  -0.297   0.082  -0.019
    1  UNL  C12   14   0.467  -0.088  -0.029
    1  UNL  C13   15   0.489   0.141   0.078
    1  UNL  C14   16   0.248  -0.197  -0.023
    1  UNL  C15   17   0.405   0.111  -0.160
    1  UNL  C16   18   0.392  -0.200  -0.032
    1  UNL  C17   19   0.617  -0.097  -0.043
    1  UNL  C18   20   0.639   0.136   0.051
    1  UNL  C19   21   0.690  -0.008   0.057
    1  UNL  C20   22  -0.277   0.233  -0.000
    1  UNL  C21   23  -0.429   0.040   0.041
    1  UNL  C22   24  -0.529  -0.014  -0.030
    1  UNL  C23   25  -0.661  -0.058   0.030
    1  UNL  C24   26  -0.780   0.020  -0.033
    1  UNL  C25   27  -0.674  -0.210   0.012
    1  UNL  C26   28  -0.768   0.171  -0.013
    1  UNL  C27   29  -0.915  -0.026   0.026
    1  UNL    H   30   0.034  -0.077   0.160
    1  UNL   H1   31  -0.183   0.025   0.153
    1  UNL   H2   32   0.265   0.045   0.153
    1  UNL   H3   33   0.014   0.164   0.156
    1  UNL   H4   34  -0.025   0.253   0.010
    1  UNL   H5   35  -0.040  -0.288   0.089
    1  UNL   H6   36  -0.038  -0.244  -0.083
    1  UNL   H7   37  -0.254  -0.176  -0.062
    1  UNL   H8   38  -0.251  -0.192   0.114
    1  UNL   H9   39   0.175   0.193  -0.099
    1  UNL  H10   40   0.215   0.258   0.059
    1  UNL  H11   41   0.062   0.027  -0.205
    1  UNL  H12   42  -0.096  -0.047  -0.208
    1  UNL  H13   43  -0.081   0.129  -0.204
    1  UNL  H14   44  -0.301   0.063  -0.127
    1  UNL  H15   45   0.473   0.110   0.182
    1  UNL  H16   46   0.455   0.245   0.071
    1  UNL  H17   47   0.198  -0.292  -0.037
    1  UNL  H18   48   0.503   0.102  -0.208
    1  UNL  H19   49   0.333   0.060  -0.225
    1  UNL  H20   50   0.382   0.218  -0.159
    1  UNL  H21   51   0.438  -0.297  -0.043
    1  UNL  H22   52   0.652  -0.200  -0.031
    1  UNL  H23   53   0.645  -0.069  -0.145
    1  UNL  H24   54   0.663   0.180  -0.047
    1  UNL  H25   55   0.692   0.197   0.125
    1  UNL  H26   56   0.678  -0.048   0.158
    1  UNL  H27   57  -0.243   0.258   0.101
    1  UNL  H28   58  -0.372   0.286  -0.016
    1  UNL  H29   59  -0.208   0.274  -0.075
    1  UNL  H30   60  -0.442   0.055   0.148
    1  UNL  H31   61  -0.517  -0.029  -0.137
    1  UNL  H32   62   0.874   0.047   0.091
    1  UNL  H33   63  -0.660  -0.038   0.138
    1  UNL  H34   64  -0.783   0.000  -0.141
    1  UNL  H35   65  -0.758  -0.250   0.069
    1  UNL  H36   66  -0.584  -0.261   0.047
    1  UNL  H37   67  -0.689  -0.236  -0.094
    1  UNL  H38   68  -0.854   0.223  -0.055
    1  UNL  H39   69  -0.761   0.197   0.093
    1  UNL  H40   70  -0.679   0.211  -0.064
    1  UNL  H41   71  -0.916  -0.017   0.135
    1  UNL  H42   72  -0.997   0.034  -0.014
    1  UNL  H43   73  -0.937  -0.130  -0.001
   37.43000    11.67600     8.14000
