; aspirin_GMX_OPLS.itp created by acpype (v: 2023.10.27) on Mon Feb  9 17:29:16 2026

; For OPLS atomtypes manual fine tuning
; AC_at:OPLS_at:OPLScode: Possible_Alternatives (see ffoplsaa.atp and ffoplsaanb.itp)
; os:x:opls_x: []
; oh:OH:opls_154: ['167']
; o:O:opls_236: ['272']
; ca:CA:opls_145: ['166', '501', '502']
; c:C:opls_235: ['271']
; c3:CT:opls_135: ['136', '137', '149', '157', '158', '206', '209', '210', '223B', '224B', '245', '246', '274', '283', '284', '285', '292', '292B', '293B', '296', '307', '308', '505']
; ha:HA:opls_146: []
; hc:HC:opls_140: []
; ho:HO:opls_155: ['168']

[ moleculetype ]
;name            nrexcl
 aspirin          3

[ atoms ]
;   nr  type  resi  res  atom  cgnr     charge      mass       ; qtot   bond_type
     1 opls_x     1   UNL     O    1    -0.381200      0.00000 ; qtot -0.381  x   
     2 opls_154     1   UNL    O1    2    -0.605100     15.99940 ; qtot -0.986  OH  
     3 opls_236     1   UNL    O2    3    -0.565000     15.99940 ; qtot -1.551  O   
     4 opls_236     1   UNL    O3    4    -0.518000     15.99940 ; qtot -2.069  O   
     5 opls_145     1   UNL     C    5     0.180100     12.01100 ; qtot -1.889  CA  
     6 opls_145     1   UNL    C1    6    -0.147600     12.01100 ; qtot -2.037  CA  
     7 opls_145     1   UNL    C2    7    -0.147000     12.01100 ; qtot -2.184  CA  
     8 opls_145     1   UNL    C3    8    -0.057000     12.01100 ; qtot -2.241  CA  
     9 opls_145     1   UNL    C4    9    -0.082000     12.01100 ; qtot -2.323  CA  
    10 opls_145     1   UNL    C5   10    -0.154000     12.01100 ; qtot -2.477  CA  
    11 opls_235     1   UNL    C6   11     0.665700     12.01100 ; qtot -1.811  C   
    12 opls_235     1   UNL    C7   12     0.665100     12.01100 ; qtot -1.146  C   
    13 opls_135     1   UNL    C8   13    -0.147100     12.01100 ; qtot -1.293  CT  
    14 opls_146     1   UNL     H   14     0.154000      1.00800 ; qtot -1.139  HA  
    15 opls_146     1   UNL    H1   15     0.159000      1.00800 ; qtot -0.980  HA  
    16 opls_146     1   UNL    H2   16     0.141000      1.00800 ; qtot -0.839  HA  
    17 opls_146     1   UNL    H3   17     0.143000      1.00800 ; qtot -0.696  HA  
    18 opls_140     1   UNL    H4   18     0.082700      1.00800 ; qtot -0.613  HC  
    19 opls_140     1   UNL    H5   19     0.082700      1.00800 ; qtot -0.531  HC  
    20 opls_140     1   UNL    H6   20     0.082700      1.00800 ; qtot -0.448  HC  
    21 opls_155     1   UNL    H7   21     0.448000      1.00800 ; qtot  0.000  HO  

[ bonds ]
;   ai     aj funct   r             k
     1      5   1 ;    1.3688e-01    2.8731e+05 ;      O - C           x - CA    
     1     12   1 ;    1.3621e-01    2.9398e+05 ;      O - C7          x - C     
     2     11   1 ;    1.3556e-01    3.0064e+05 ;     O1 - C6         OH - C     
     2     21   1 ;    9.7250e-02    4.4811e+05 ;     O1 - H7         OH - HO    
     3     11   1 ;    1.2190e-01    4.9421e+05 ;     O2 - C6          O - C     
     4     12   1 ;    1.2190e-01    4.9421e+05 ;     O3 - C7          O - C     
     5      6   1 ;    1.3986e-01    2.9644e+05 ;      C - C1         CA - CA    
     5      7   1 ;    1.3986e-01    2.9644e+05 ;      C - C2         CA - CA    
     6      8   1 ;    1.3986e-01    2.9644e+05 ;     C1 - C3         CA - CA    
     6     11   1 ;    1.4907e-01    2.1994e+05 ;     C1 - C6         CA - C     
     7      9   1 ;    1.3986e-01    2.9644e+05 ;     C2 - C4         CA - CA    
     7     14   1 ;    1.0860e-01    3.0183e+05 ;     C2 - H          CA - HA    
     8     10   1 ;    1.3986e-01    2.9644e+05 ;     C3 - C5         CA - CA    
     8     15   1 ;    1.0860e-01    3.0183e+05 ;     C3 - H1         CA - HA    
     9     10   1 ;    1.3986e-01    2.9644e+05 ;     C4 - C5         CA - CA    
     9     16   1 ;    1.0860e-01    3.0183e+05 ;     C4 - H2         CA - HA    
    10     17   1 ;    1.0860e-01    3.0183e+05 ;     C5 - H3         CA - HA    
    12     13   1 ;    1.5270e-01    1.9652e+05 ;     C7 - C8          C - CT    
    13     18   1 ;    1.0962e-01    2.8891e+05 ;     C8 - H4         CT - HC    
    13     19   1 ;    1.0962e-01    2.8891e+05 ;     C8 - H5         CT - HC    
    13     20   1 ;    1.0962e-01    2.8891e+05 ;     C8 - H6         CT - HC    

[ pairs ]
;   ai     aj    funct
     1      8      1 ;      O - C3    
     1      9      1 ;      O - C4    
     1     11      1 ;      O - C6    
     1     14      1 ;      O - H     
     1     18      1 ;      O - H4    
     1     19      1 ;      O - H5    
     1     20      1 ;      O - H6    
     2      5      1 ;     O1 - C     
     2      8      1 ;     O1 - C3    
     3      5      1 ;     O2 - C     
     3      8      1 ;     O2 - C3    
     3     21      1 ;     O2 - H7    
     4     18      1 ;     O3 - H4    
     4     19      1 ;     O3 - H5    
     4     20      1 ;     O3 - H6    
     5      4      1 ;      C - O3    
     5     10      1 ;      C - C5    
     5     13      1 ;      C - C8    
     5     15      1 ;      C - H1    
     5     16      1 ;      C - H2    
     6      9      1 ;     C1 - C4    
     6     14      1 ;     C1 - H     
     6     17      1 ;     C1 - H3    
     6     21      1 ;     C1 - H7    
     7      8      1 ;     C2 - C3    
     7     11      1 ;     C2 - C6    
     7     17      1 ;     C2 - H3    
     8     16      1 ;     C3 - H2    
     9     15      1 ;     C4 - H1    
    10     11      1 ;     C5 - C6    
    10     14      1 ;     C5 - H     
    11     15      1 ;     C6 - H1    
    12      6      1 ;     C7 - C1    
    12      7      1 ;     C7 - C2    
    14     16      1 ;      H - H2    
    15     17      1 ;     H1 - H3    
    16     17      1 ;     H2 - H3    

[ angles ]
;   ai     aj     ak    funct   theta         cth
     1      5      6      1 ;    1.1911e+02    6.6107e+02 ;      O - C    - C1        x -   CA - CA  
     1      5      7      1 ;    1.1911e+02    6.6107e+02 ;      O - C    - C2        x -   CA - CA  
     1     12      4      1 ;    1.2320e+02    8.4734e+02 ;      O - C7   - O3        x -    C - O   
     1     12     13      1 ;    1.1080e+02    6.5245e+02 ;      O - C7   - C8        x -    C - CT  
     2     11      3      1 ;    1.2209e+02    8.5379e+02 ;     O1 - C6   - O2       OH -    C - O   
     2     11      6      1 ;    1.1345e+02    6.5580e+02 ;     O1 - C6   - C1       OH -    C - CA  
     3     11      6      1 ;    1.2260e+02    6.5237e+02 ;     O2 - C6   - C1        O -    C - CA  
     4     12     13      1 ;    1.2290e+02    6.3973e+02 ;     O3 - C7   - C8        O -    C - CT  
     5      1     12      1 ;    1.2129e+02    7.4776e+02 ;      C - O    - C7       CA -    x - C   
     5      6      8      1 ;    1.2002e+02    5.3279e+02 ;      C - C1   - C3       CA -   CA - CA  
     5      6     11      1 ;    1.2033e+02    5.1413e+02 ;      C - C1   - C6       CA -   CA - C   
     5      7      9      1 ;    1.2002e+02    5.3279e+02 ;      C - C2   - C4       CA -   CA - CA  
     5      7     14      1 ;    1.1988e+02    3.7572e+02 ;      C - C2   - H        CA -   CA - HA  
     6      5      7      1 ;    1.2002e+02    5.3279e+02 ;     C1 - C    - C2       CA -   CA - CA  
     6      8     10      1 ;    1.2002e+02    5.3279e+02 ;     C1 - C3   - C5       CA -   CA - CA  
     6      8     15      1 ;    1.1988e+02    3.7572e+02 ;     C1 - C3   - H1       CA -   CA - HA  
     7      9     10      1 ;    1.2002e+02    5.3279e+02 ;     C2 - C4   - C5       CA -   CA - CA  
     7      9     16      1 ;    1.1988e+02    3.7572e+02 ;     C2 - C4   - H2       CA -   CA - HA  
     8      6     11      1 ;    1.2033e+02    5.1413e+02 ;     C3 - C1   - C6       CA -   CA - C   
     8     10      9      1 ;    1.2002e+02    5.3279e+02 ;     C3 - C5   - C4       CA -   CA - CA  
     8     10     17      1 ;    1.1988e+02    3.7572e+02 ;     C3 - C5   - H3       CA -   CA - HA  
     9      7     14      1 ;    1.1988e+02    3.7572e+02 ;     C4 - C2   - H        CA -   CA - HA  
     9     10     17      1 ;    1.1988e+02    3.7572e+02 ;     C4 - C5   - H3       CA -   CA - HA  
    10      8     15      1 ;    1.1988e+02    3.7572e+02 ;     C5 - C3   - H1       CA -   CA - HA  
    10      9     16      1 ;    1.1988e+02    3.7572e+02 ;     C5 - C4   - H2       CA -   CA - HA  
    11      2     21      1 ;    1.0654e+02    5.7287e+02 ;     C6 - O1   - H7        C -   OH - HO  
    12     13     18      1 ;    1.0895e+02    3.6510e+02 ;     C7 - C8   - H4        C -   CT - HC  
    12     13     19      1 ;    1.0895e+02    3.6510e+02 ;     C7 - C8   - H5        C -   CT - HC  
    12     13     20      1 ;    1.0895e+02    3.6510e+02 ;     C7 - C8   - H6        C -   CT - HC  
    18     13     19      1 ;    1.0773e+02    2.9957e+02 ;     H4 - C8   - H5       HC -   CT - HC  
    18     13     20      1 ;    1.0773e+02    2.9957e+02 ;     H4 - C8   - H6       HC -   CT - HC  
    19     13     20      1 ;    1.0773e+02    2.9957e+02 ;     H5 - C8   - H6       HC -   CT - HC  

[ dihedrals ] ; propers
; for gromacs 4.5 or higher, using funct 9
;    i      j      k      l   func   phase     kd      pn
     1      5      6      8      9 ;   180.00  15.16700   2 ;      O-     C-    C1-    C3
     1      5      6     11      9 ;   180.00  15.16700   2 ;      O-     C-    C1-    C6
     1      5      7      9      9 ;   180.00  15.16700   2 ;      O-     C-    C2-    C4
     1      5      7     14      9 ;   180.00  15.16700   2 ;      O-     C-    C2-     H
     1     12     13     18      9 ;   180.00   0.00000   2 ;      O-    C7-    C8-    H4
     1     12     13     19      9 ;   180.00   0.00000   2 ;      O-    C7-    C8-    H5
     1     12     13     20      9 ;   180.00   0.00000   2 ;      O-    C7-    C8-    H6
     2     11      6      5      9 ;   180.00   4.18400   2 ;     O1-    C6-    C1-     C
     2     11      6      8      9 ;   180.00   4.18400   2 ;     O1-    C6-    C1-    C3
     3     11      2     21      9 ;     0.00   7.94960   1 ;     O2-    C6-    O1-    H7
     3     11      2     21      9 ;   180.00   9.62320   2 ;     O2-    C6-    O1-    H7
     3     11      6      5      9 ;   180.00   2.42672   2 ;     O2-    C6-    C1-     C
     3     11      6      8      9 ;   180.00   2.42672   2 ;     O2-    C6-    C1-    C3
     4     12     13     18      9 ;     0.00  16.86152   1 ;     O3-    C7-    C8-    H4
     4     12     13     18      9 ;   180.00  15.31344   2 ;     O3-    C7-    C8-    H4
     4     12     13     19      9 ;     0.00  16.86152   1 ;     O3-    C7-    C8-    H5
     4     12     13     19      9 ;   180.00  15.31344   2 ;     O3-    C7-    C8-    H5
     4     12     13     20      9 ;     0.00  16.86152   1 ;     O3-    C7-    C8-    H6
     4     12     13     20      9 ;   180.00  15.31344   2 ;     O3-    C7-    C8-    H6
     5      1     12      4      9 ;     0.00   0.33472   3 ;      C-     O-    C7-    O3
     5      1     12      4      9 ;     0.00   7.23832   1 ;      C-     O-    C7-    O3
     5      1     12      4      9 ;   180.00   8.99560   2 ;      C-     O-    C7-    O3
     5      1     12     13      9 ;   180.00  11.29680   2 ;      C-     O-    C7-    C8
     5      6      8     10      9 ;   180.00  15.16700   2 ;      C-    C1-    C3-    C5
     5      6      8     15      9 ;   180.00  15.16700   2 ;      C-    C1-    C3-    H1
     5      7      9     10      9 ;   180.00  15.16700   2 ;      C-    C2-    C4-    C5
     5      7      9     16      9 ;   180.00  15.16700   2 ;      C-    C2-    C4-    H2
     6      5      7      9      9 ;   180.00  15.16700   2 ;     C1-     C-    C2-    C4
     6      5      7     14      9 ;   180.00  15.16700   2 ;     C1-     C-    C2-     H
     6      8     10      9      9 ;   180.00  15.16700   2 ;     C1-    C3-    C5-    C4
     6      8     10     17      9 ;   180.00  15.16700   2 ;     C1-    C3-    C5-    H3
     6     11      2     21      9 ;   180.00   9.62320   2 ;     C1-    C6-    O1-    H7
     7      5      6      8      9 ;   180.00  15.16700   2 ;     C2-     C-    C1-    C3
     7      5      6     11      9 ;   180.00  15.16700   2 ;     C2-     C-    C1-    C6
     7      9     10      8      9 ;   180.00  15.16700   2 ;     C2-    C4-    C5-    C3
     7      9     10     17      9 ;   180.00  15.16700   2 ;     C2-    C4-    C5-    H3
     8     10      9     16      9 ;   180.00  15.16700   2 ;     C3-    C5-    C4-    H2
     9     10      8     15      9 ;   180.00  15.16700   2 ;     C4-    C5-    C3-    H1
    10      8      6     11      9 ;   180.00  15.16700   2 ;     C5-    C3-    C1-    C6
    10      9      7     14      9 ;   180.00  15.16700   2 ;     C5-    C4-    C2-     H
    11      6      8     15      9 ;   180.00  15.16700   2 ;     C6-    C1-    C3-    H1
    12      1      5      6      9 ;   180.00   4.10032   2 ;     C7-     O-     C-    C1
    12      1      5      7      9 ;   180.00   4.10032   2 ;     C7-     O-     C-    C2
    14      7      9     16      9 ;   180.00  15.16700   2 ;      H-    C2-    C4-    H2
    15      8     10     17      9 ;   180.00  15.16700   2 ;     H1-    C3-    C5-    H3
    16      9     10     17      9 ;   180.00  15.16700   2 ;     H2-    C4-    C5-    H3

[ dihedrals ] ; impropers
; treated as propers in GROMACS to use correct AMBER analytical function
;    i      j      k      l   func   phase     kd      pn
     1      5      7      6      4 ;   180.00   4.60240   2 ;      O-     C-    C2-    C1
     1     12      4     13      4 ;   180.00   4.60240   2 ;      O-    C7-    O3-    C8
     5      9      7     14      4 ;   180.00   4.60240   2 ;      C-    C4-    C2-     H
     6      3     11      2      4 ;   180.00   4.60240   2 ;     C1-    O2-    C6-    O1
     6     10      8     15      4 ;   180.00   4.60240   2 ;     C1-    C5-    C3-    H1
     7     10      9     16      4 ;   180.00   4.60240   2 ;     C2-    C5-    C4-    H2
     8      9     10     17      4 ;   180.00   4.60240   2 ;     C3-    C4-    C5-    H3
    11      5      6      8      4 ;   180.00   4.60240   2 ;     C6-     C-    C1-    C3
