; aspirin_GMX.top created by acpype (v: 2023.10.27) on Mon Feb  9 17:29:16 2026

[ defaults ]
; nbfunc        comb-rule       gen-pairs       fudgeLJ fudgeQQ
1               2               yes             0.5     0.8333333333

; Include aspirin_GMX.itp topology
#include "aspirin_GMX.itp"

; Ligand position restraints
#ifdef POSRES_LIG
#include "posre_aspirin.itp"
#endif

[ system ]
 aspirin

[ molecules ]
; Compound        nmols
 aspirin          1     
