2244
    21
   1.2330000   0.5540000   0.7790000  -0.6950000  -2.7150000  -0.7500000
   0.7960000  -2.1840000   0.8690000   1.7810000   0.8100000  -1.4820000
  -0.0860000   0.6090000   0.4400000  -0.7930000  -0.5510000   0.1240000
  -0.7290000   1.8460000   0.4130000  -2.1430000  -0.4740000  -0.2180000
  -2.0790000   1.9240000   0.0710000  -2.7850000   0.7640000  -0.2450000
  -0.1410000  -1.8540000   0.1480000   2.1090000   0.6710000  -0.3110000
   3.5300000   0.6000000   0.1640000  -0.1850000   2.7550000   0.6590000
  -2.7250000  -1.3610000  -0.4560000  -2.5800000   2.8870000   0.0510000
  -3.8370000   0.8240000  -0.5090000   3.7290000   1.4180000   0.8590000
   4.2050000   0.6970000  -0.6920000   3.7110000  -0.3660000   0.6430000
  -0.2560000  -3.5920000  -0.7340000
