aspirin_GMX.gro created by acpype (v: 2023.10.27) on Mon Feb  9 17:29:16 2026
 21
    1  UNL    O    1   0.123   0.055   0.078
    1  UNL   O1    2  -0.069  -0.272  -0.075
    1  UNL   O2    3   0.080  -0.218   0.087
    1  UNL   O3    4   0.178   0.081  -0.148
    1  UNL    C    5  -0.009   0.061   0.044
    1  UNL   C1    6  -0.079  -0.055   0.012
    1  UNL   C2    7  -0.073   0.185   0.041
    1  UNL   C3    8  -0.214  -0.047  -0.022
    1  UNL   C4    9  -0.208   0.192   0.007
    1  UNL   C5   10  -0.279   0.076  -0.025
    1  UNL   C6   11  -0.014  -0.185   0.015
    1  UNL   C7   12   0.211   0.067  -0.031
    1  UNL   C8   13   0.353   0.060   0.016
    1  UNL    H   14  -0.018   0.276   0.066
    1  UNL   H1   15  -0.273  -0.136  -0.046
    1  UNL   H2   16  -0.258   0.289   0.005
    1  UNL   H3   17  -0.384   0.082  -0.051
    1  UNL   H4   18   0.373   0.142   0.086
    1  UNL   H5   19   0.421   0.070  -0.069
    1  UNL   H6   20   0.371  -0.037   0.064
    1  UNL   H7   21  -0.026  -0.359  -0.073
   16.08400    12.95800     4.70200
