%VERSION  VERSION_STAMP = V0001.000  DATE = 02/09/26  17:44:16                  
%FLAG TITLE                                                                     
%FORMAT(20a4)                                                                   
448537                                                                          
%FLAG POINTERS                                                                  
%FORMAT(10I8)                                                                   
      40       6      20      21      40      28      66      44       0       0
     205       1      21      28      44      11      18      15       8       0
       0       0       0       0       0       0       0       0      40       0
       0
%FLAG ATOM_NAME                                                                 
%FORMAT(20a4)                                                                   
O   O1  C   C1  C2  C3  C4  C5  C6  C7  C8  C9  C10 C11 C12 C13 C14 C15 C16 C17 
H   H1  H2  H3  H4  H5  H6  H7  H8  H9  H10 H11 H12 H13 H14 H15 H16 H17 H18 H19 
%FLAG CHARGE                                                                    
%FORMAT(5E16.8)                                                                 
 -9.07652763E+00 -9.07652763E+00 -9.45737370E-01 -9.45737370E-01 -8.14536810E-01
 -8.14536810E-01 -1.54525104E+00 -1.54525104E+00 -1.59627348E+00 -1.59627348E+00
 -1.53978435E+00 -1.53978435E+00 -1.53978435E+00 -1.53978435E+00 -3.39845895E+00
 -3.39845895E+00 -3.39845895E+00 -3.39845895E+00  2.24316513E+00  2.24316513E+00
  9.23870610E-01  9.23870610E-01  9.23870610E-01  9.23870610E-01  6.38381836E-01
  6.38381836E-01  6.38381836E-01  6.38381836E-01  6.38381836E-01  6.38381836E-01
  2.51923298E+00  2.51923298E+00  2.51923298E+00  2.51923298E+00  2.59667775E+00
  2.59667775E+00  2.59667775E+00  2.59667775E+00  7.63514370E+00  7.63514370E+00
%FLAG ATOMIC_NUMBER                                                             
%FORMAT(10I8)                                                                   
       8       8       6       6       6       6       6       6       6       6
       6       6       6       6       6       6       6       6       6       6
       1       1       1       1       1       1       1       1       1       1
       1       1       1       1       1       1       1       1       1       1
%FLAG MASS                                                                      
%FORMAT(5E16.8)                                                                 
  1.60000000E+01  1.60000000E+01  1.20100000E+01  1.20100000E+01  1.20100000E+01
  1.20100000E+01  1.20100000E+01  1.20100000E+01  1.20100000E+01  1.20100000E+01
  1.20100000E+01  1.20100000E+01  1.20100000E+01  1.20100000E+01  1.20100000E+01
  1.20100000E+01  1.20100000E+01  1.20100000E+01  1.20100000E+01  1.20100000E+01
  1.00800000E+00  1.00800000E+00  1.00800000E+00  1.00800000E+00  1.00800000E+00
  1.00800000E+00  1.00800000E+00  1.00800000E+00  1.00800000E+00  1.00800000E+00
  1.00800000E+00  1.00800000E+00  1.00800000E+00  1.00800000E+00  1.00800000E+00
  1.00800000E+00  1.00800000E+00  1.00800000E+00  1.00800000E+00  1.00800000E+00
%FLAG ATOM_TYPE_INDEX                                                           
%FORMAT(10I8)                                                                   
       1       1       2       2       3       3       2       2       3       3
       2       2       2       2       2       2       2       2       2       2
       4       4       4       4       4       4       4       4       4       4
       5       5       5       5       5       5       5       5       6       6
%FLAG NUMBER_EXCLUDED_ATOMS                                                     
%FORMAT(10I8)                                                                   
       8       8      22      21      11      10      13      12       5       5
       7       7       6       6       6       6       5       5       5       5
       4       3       4       3       2       1       1       2       1       1
       1       1       1       1       1       1       1       1       1       1
%FLAG NONBONDED_PARM_INDEX                                                      
%FORMAT(10I8)                                                                   
       1       2       4       7      11      16       2       3       5       8
      12      17       4       5       6       9      13      18       7       8
       9      10      14      19      11      12      13      14      15      20
      16      17      18      19      20      21
%FLAG RESIDUE_LABEL                                                             
%FORMAT(20a4)                                                                   
UNL 
%FLAG RESIDUE_POINTER                                                           
%FORMAT(10I8)                                                                   
       1
%FLAG BOND_FORCE_CONSTANT                                                       
%FORMAT(5E16.8)                                                                 
  3.48550000E+02  5.35510000E+02  4.09280000E+02  2.46790000E+02  2.71850000E+02
  2.47020000E+02  2.85300000E+02  2.28890000E+02  3.45250000E+02  3.54250000E+02
  3.60690000E+02
%FLAG BOND_EQUIL_VALUE                                                          
%FORMAT(5E16.8)                                                                 
  1.36440000E+00  9.72500000E-01  1.35610000E+00  1.51090000E+00  1.48000000E+00
  1.51060000E+00  1.46480000E+00  1.53540000E+00  1.09620000E+00  1.39860000E+00
  1.08600000E+00
%FLAG ANGLE_FORCE_CONSTANT                                                      
%FORMAT(5E16.8)                                                                 
  7.88600000E+01  6.08400000E+01  6.10300000E+01  6.02400000E+01  4.36600000E+01
  6.15800000E+01  6.07700000E+01  6.07200000E+01  6.01900000E+01  4.36800000E+01
  6.19000000E+01  5.97700000E+01  4.32700000E+01  6.09900000E+01  6.36700000E+01
  4.49000000E+01  6.74100000E+01  3.58000000E+01
%FLAG ANGLE_EQUIL_VALUE                                                         
%FORMAT(5E16.8)                                                                 
  2.09265067E+00  2.15914774E+00  2.22913548E+00  1.97309557E+00  1.93522190E+00
  2.10818411E+00  2.16368560E+00  2.22389949E+00  1.97658623E+00  1.93452377E+00
  2.11062757E+00  2.07868803E+00  1.91427794E+00  2.01620522E+00  2.09474507E+00
  2.09230160E+00  1.89507931E+00  1.88024401E+00
%FLAG DIHEDRAL_FORCE_CONSTANT                                                   
%FORMAT(5E16.8)                                                                 
  3.62500000E+00  1.57000000E-01  2.60000000E-01  1.29000000E+00  1.55555556E-01
  3.72000000E-01  5.85000000E-01  6.65000000E+00  6.00000000E-01  1.00000000E-01
  6.80000000E+00  1.36000000E+00  8.55000000E-01  1.20000000E-01  1.10000000E+00
%FLAG DIHEDRAL_PERIODICITY                                                      
%FORMAT(5E16.8)                                                                 
  2.00000000E+00  3.00000000E+00  3.00000000E+00  2.00000000E+00  3.00000000E+00
  3.00000000E+00  2.00000000E+00  2.00000000E+00  2.00000000E+00  1.00000000E+00
  2.00000000E+00  3.00000000E+00  2.00000000E+00  3.00000000E+00  2.00000000E+00
%FLAG DIHEDRAL_PHASE                                                            
%FORMAT(5E16.8)                                                                 
  3.14159400E+00  3.14159400E+00  3.14159400E+00  3.14159400E+00  0.00000000E+00
  0.00000000E+00  3.14159400E+00  3.14159400E+00  3.14159400E+00  3.14159400E+00
  3.14159400E+00  0.00000000E+00  3.14159400E+00  0.00000000E+00  3.14159400E+00
%FLAG SCEE_SCALE_FACTOR                                                         
%FORMAT(5E16.8)                                                                 
  1.20000000E+00  1.20000000E+00  1.20000000E+00  1.20000000E+00  1.20000000E+00
  1.20000000E+00  1.20000000E+00  1.20000000E+00  1.20000000E+00  1.20000000E+00
  1.20000000E+00  1.20000000E+00  1.20000000E+00  1.20000000E+00  0.00000000E+00
%FLAG SCNB_SCALE_FACTOR                                                         
%FORMAT(5E16.8)                                                                 
  2.00000000E+00  2.00000000E+00  2.00000000E+00  2.00000000E+00  2.00000000E+00
  2.00000000E+00  2.00000000E+00  2.00000000E+00  2.00000000E+00  2.00000000E+00
  2.00000000E+00  2.00000000E+00  2.00000000E+00  2.00000000E+00  0.00000000E+00
%FLAG SOLTY                                                                     
%FORMAT(5E16.8)                                                                 
  0.00000000E+00  0.00000000E+00  0.00000000E+00  0.00000000E+00  0.00000000E+00
  0.00000000E+00  0.00000000E+00  0.00000000E+00
%FLAG LENNARD_JONES_ACOEF                                                       
%FORMAT(5E16.8)                                                                 
  5.03152404E+05  5.92438683E+05  6.96551276E+05  7.18991463E+05  8.43969952E+05
  1.02073671E+06  6.80216136E+04  8.12662403E+04  1.00235148E+05  7.94617769E+03
  6.30298721E+04  7.52549148E+04  9.27554496E+04  7.41026906E+03  6.90855956E+03
  1.74176419E+02  2.25372434E+02  3.03553352E+02  8.80612241E+00  8.53132435E+00
  1.10360882E-05
%FLAG LENNARD_JONES_BCOEF                                                       
%FORMAT(5E16.8)                                                                 
  4.32634597E+02  4.76608379E+02  5.24668528E+02  5.36620538E+02  5.90251928E+02
  6.63431737E+02  1.09393126E+02  1.21392023E+02  1.37787728E+02  2.57122925E+01
  9.87712192E+01  1.09570372E+02  1.24325688E+02  2.32899892E+01  2.10929191E+01
  3.81654050E+00  4.40751799E+00  5.22789272E+00  5.90150328E-01  5.44840215E-01
  4.55498033E-04
%FLAG BONDS_INC_HYDROGEN                                                        
%FORMAT(10I8)                                                                   
       0     114       2       3     117       2      12      60       9      12
      63       9      15      66       9      15      69       9      24      72
       9      24      75       9      24      78       9      27      81       9
      27      84       9      27      87       9      30      90      11      33
      93      11      36      96      11      39      99      11      42     102
      11      45     105      11      48     108      11      51     111      11
%FLAG BONDS_WITHOUT_HYDROGEN                                                    
%FORMAT(10I8)                                                                   
       0      54       1       3      57       1       6       9       3       6
      12       4       6      18       5       9      15       6       9      21
       7      12      24       8      15      27       8      18      30      10
      18      36      10      21      33      10      21      39      10      30
      42      10      33      45      10      36      48      10      39      51
      10      42      54      10      45      57      10      48      54      10
      51      57      10
%FLAG ANGLES_INC_HYDROGEN                                                       
%FORMAT(10I8)                                                                   
       6      12      60       5       6      12      63       5       9      15
      66      10       9      15      69      10      12      24      72      13
      12      24      75      13      12      24      78      13      15      27
      81      13      15      27      84      13      15      27      87      13
      18      30      90      16      18      36      96      16      21      33
      93      16      21      39      99      16      24      12      60      13
      24      12      63      13      27      15      66      13      27      15
      69      13      30      42     102      16      33      45     105      16
      36      48     108      16      39      51     111      16      42      30
      90      16      45      33      93      16      48      36      96      16
      51      39      99      16      54       0     114      17      54      42
     102      16      54      48     108      16      57       3     117      17
      57      45     105      16      57      51     111      16      60      12
      63      18      66      15      69      18      72      24      75      18
      72      24      78      18      75      24      78      18      81      27
      84      18      81      27      87      18      84      27      87      18
%FLAG ANGLES_WITHOUT_HYDROGEN                                                   
%FORMAT(10I8)                                                                   
       0      54      42       1       0      54      48       1       3      57
      45       1       3      57      51       1       6       9      15       2
       6       9      21       3       6      12      24       4       6      18
      30       6       6      18      36       6       9       6      12       7
       9       6      18       8       9      15      27       9       9      21
      33      11       9      21      39      11      12       6      18      12
      15       9      21      14      18      30      42      15      18      36
      48      15      21      33      45      15      21      39      51      15
      30      18      36      15      30      42      54      15      33      21
      39      15      33      45      57      15      36      48      54      15
      39      51      57      15      42      54      48      15      45      57
      51      15
%FLAG DIHEDRALS_INC_HYDROGEN                                                    
%FORMAT(10I8)                                                                   
       0      54      42     102       1       0      54      48     108       1
       3      57      45     105       1       3      57      51     111       1
       6       9      15      66       3       6       9      15      69       3
       6      12      24      72       5       6      12      24      75       5
       6      12      24      78       5       6      18      30      90       1
       6      18      36      96       1       9       6      12      60       3
       9       6      12      63       3       9      15      27      81       5
       9      15      27      84       5       9      15      27      87       5
       9      21      33      93       1       9      21      39      99       1
      18       6      12      60       3      18       6      12      63       3
      18      30      42     102       1      18      36      48     108       1
      21       9      15      66       3      21       9      15      69       3
      21      33      45     105       1      21      39      51     111       1
      30      18      36      96       1      33      21      39      99       1
      36      18      30      90       1      39      21      33      93       1
     114       0      54      42      13      42      54      48     108       1
      45      57       3     117      13      45      57      51     111       1
     114       0      54      48      13      48      54      42     102       1
      51      57       3     117      13      51      57      45     105       1
      54      42      30      90       1      54      48      36      96       1
      57      45      33      93       1      57      51      39      99       1
      60      12      24      72      14      60      12      24      75      14
      60      12      24      78      14      63      12      24      72      14
      63      12      24      75      14      63      12      24      78      14
      66      15      27      81      14      66      15      27      84      14
      66      15      27      87      14      69      15      27      81      14
      69      15      27      84      14      69      15      27      87      14
      90      30      42     102       1      93      33      45     105       1
      96      36      48     108       1      99      39      51     111       1
      18      42     -30     -90      15      21      45     -33     -93      15
      18      48     -36     -96      15      21      51     -39     -99      15
      30      54     -42    -102      15      33      57     -45    -105      15
      36      54     -48    -108      15      39      57     -51    -111      15
%FLAG DIHEDRALS_WITHOUT_HYDROGEN                                                
%FORMAT(10I8)                                                                   
       0      54      42      30       1       0      54      48      36       1
       3      57      45      33       1       3      57      51      39       1
       6       9      15      27       2       6       9      21      33       4
       6       9      21      39       4       6      18      30      42       1
       6      18      36      48       1       9       6      12      24       6
       9       6      18      30       7       9       6      18      36       7
       9      21      33      45       1       9      21      39      51       1
      12       6       9      15       8      12       6       9      21       8
      12       6      18      30       9      12       6      18      36       9
      15       9       6      18       8      15       9      21      33       9
      15       9      21      39       9      18       6       9      21      10
      18       6      -9      21      11      18       6      -9      21      12
      18       6      12      24       6      18      30      42      54       1
      18      36     -48      54       1      21       9      15      27       6
      21      33      45      57       1      21      39     -51      57       1
      30      18      36      48       1      30      42     -54      48       1
      33      21      39      51       1      33      45     -57      51       1
      36      18      30      42       1      36      48     -54      42       1
      39      21      33      45       1      39      51     -57      45       1
      12      18      -6      -9      15      15      21      -9      -6      15
      30      36     -18      -6      15      33      39     -21      -9      15
       0      54     -48     -42      15      45      51     -57      -3      15
%FLAG EXCLUDED_ATOMS_LIST                                                       
%FORMAT(10I8)                                                                   
      11      13      15      17      19      35      37      39      12      14
      16      18      20      36      38      40       4       5       6       7
       8       9      10      11      12      13      14      15      17      21
      22      23      24      25      26      27      31      33       5       6
       7       8       9      10      11      12      13      14      16      18
      21      22      23      24      28      29      30      32      34       6
       7       8       9      11      13      21      22      25      26      27
       7       8      10      12      14      23      24      28      29      30
       8       9      11      13      15      17      19      21      22      31
      33      35      37      10      12      14      16      18      20      23
      24      32      34      36      38      21      22      25      26      27
      23      24      28      29      30      13      15      17      19      31
      33      35      14      16      18      20      32      34      36      15
      17      19      31      33      37      16      18      20      32      34
      38      17      19      31      35      37      39      18      20      32
      36      38      40      19      33      35      37      39      20      34
      36      38      40      31      33      35      37      39      32      34
      36      38      40      22      25      26      27      25      26      27
      24      28      29      30      28      29      30      26      27      27
       0      29      30      30       0      35      36      37      38       0
       0       0       0       0       0
%FLAG HBOND_ACOEF                                                               
%FORMAT(5E16.8)                                                                 

%FLAG HBOND_BCOEF                                                               
%FORMAT(5E16.8)                                                                 

%FLAG HBCUT                                                                     
%FORMAT(5E16.8)                                                                 

%FLAG AMBER_ATOM_TYPE                                                           
%FORMAT(20a4)                                                                   
oh  oh  ce  cf  c3  c3  ca  ca  c3  c3  ca  ca  ca  ca  ca  ca  ca  ca  ca  ca  
hc  hc  hc  hc  hc  hc  hc  hc  hc  hc  ha  ha  ha  ha  ha  ha  ha  ha  ho  ho  
%FLAG TREE_CHAIN_CLASSIFICATION                                                 
%FORMAT(20a4)                                                                   
BLA BLA BLA BLA BLA BLA BLA BLA BLA BLA BLA BLA BLA BLA BLA BLA BLA BLA BLA BLA 
BLA BLA BLA BLA BLA BLA BLA BLA BLA BLA BLA BLA BLA BLA BLA BLA BLA BLA BLA BLA 
%FLAG JOIN_ARRAY                                                                
%FORMAT(10I8)                                                                   
       0       0       0       0       0       0       0       0       0       0
       0       0       0       0       0       0       0       0       0       0
       0       0       0       0       0       0       0       0       0       0
       0       0       0       0       0       0       0       0       0       0
%FLAG IROTAT                                                                    
%FORMAT(10I8)                                                                   
       0       0       0       0       0       0       0       0       0       0
       0       0       0       0       0       0       0       0       0       0
       0       0       0       0       0       0       0       0       0       0
       0       0       0       0       0       0       0       0       0       0
%FLAG RADIUS_SET                                                                
%FORMAT(1a80)                                                                   
modified Bondi radii (mbondi)                                                   
%FLAG RADII                                                                     
%FORMAT(5E16.8)                                                                 
  1.50000000E+00  1.50000000E+00  1.70000000E+00  1.70000000E+00  1.70000000E+00
  1.70000000E+00  1.70000000E+00  1.70000000E+00  1.70000000E+00  1.70000000E+00
  1.70000000E+00  1.70000000E+00  1.70000000E+00  1.70000000E+00  1.70000000E+00
  1.70000000E+00  1.70000000E+00  1.70000000E+00  1.70000000E+00  1.70000000E+00
  1.30000000E+00  1.30000000E+00  1.30000000E+00  1.30000000E+00  1.30000000E+00
  1.30000000E+00  1.30000000E+00  1.30000000E+00  1.30000000E+00  1.30000000E+00
  1.30000000E+00  1.30000000E+00  1.30000000E+00  1.30000000E+00  1.30000000E+00
  1.30000000E+00  1.30000000E+00  1.30000000E+00  8.00000000E-01  8.00000000E-01
%FLAG SCREEN                                                                    
%FORMAT(5E16.8)                                                                 
  8.50000000E-01  8.50000000E-01  7.20000000E-01  7.20000000E-01  7.20000000E-01
  7.20000000E-01  7.20000000E-01  7.20000000E-01  7.20000000E-01  7.20000000E-01
  7.20000000E-01  7.20000000E-01  7.20000000E-01  7.20000000E-01  7.20000000E-01
  7.20000000E-01  7.20000000E-01  7.20000000E-01  7.20000000E-01  7.20000000E-01
  8.50000000E-01  8.50000000E-01  8.50000000E-01  8.50000000E-01  8.50000000E-01
  8.50000000E-01  8.50000000E-01  8.50000000E-01  8.50000000E-01  8.50000000E-01
  8.50000000E-01  8.50000000E-01  8.50000000E-01  8.50000000E-01  8.50000000E-01
  8.50000000E-01  8.50000000E-01  8.50000000E-01  8.50000000E-01  8.50000000E-01
%FLAG IPOL                                                                      
%FORMAT(1I8)                                                                    
       0
