diethylstilbestrol_GMX.gro created by acpype (v: 2023.10.27) on Mon Feb  9 17:43:33 2026
 40
    1  UNL    O    1  -0.599   0.025  -0.013
    1  UNL   O1    2   0.599  -0.025  -0.013
    1  UNL    C    3  -0.043  -0.052  -0.013
    1  UNL   C1    4   0.043   0.052  -0.013
    1  UNL   C2    5  -0.002  -0.198  -0.018
    1  UNL   C3    6   0.002   0.198  -0.018
    1  UNL   C4    7  -0.190  -0.032  -0.013
    1  UNL   C5    8   0.190   0.032  -0.013
    1  UNL   C6    9   0.019  -0.257   0.121
    1  UNL   C7   10  -0.019   0.257   0.121
    1  UNL   C8   11  -0.257  -0.023  -0.134
    1  UNL   C9   12   0.257   0.022  -0.134
    1  UNL  C10   13  -0.257  -0.023   0.108
    1  UNL  C11   14   0.256   0.023   0.108
    1  UNL  C12   15  -0.395  -0.003  -0.134
    1  UNL  C13   16   0.395   0.003  -0.134
    1  UNL  C14   17  -0.395  -0.003   0.108
    1  UNL  C15   18   0.395   0.003   0.108
    1  UNL  C16   19  -0.464   0.006  -0.013
    1  UNL  C17   20   0.464  -0.006  -0.013
    1  UNL    H   21   0.091  -0.210  -0.076
    1  UNL   H1   22  -0.077  -0.257  -0.072
    1  UNL   H2   23   0.077   0.257  -0.072
    1  UNL   H3   24  -0.091   0.210  -0.076
    1  UNL   H4   25   0.052  -0.361   0.112
    1  UNL   H5   26  -0.074  -0.257   0.178
    1  UNL   H6   27   0.094  -0.203   0.178
    1  UNL   H7   28  -0.094   0.203   0.178
    1  UNL   H8   29  -0.052   0.361   0.112
    1  UNL   H9   30   0.074   0.257   0.178
    1  UNL  H10   31  -0.204  -0.030  -0.228
    1  UNL  H11   32   0.204   0.030  -0.228
    1  UNL  H12   33  -0.204  -0.030   0.203
    1  UNL  H13   34   0.204   0.030   0.203
    1  UNL  H14   35  -0.448   0.004  -0.228
    1  UNL  H15   36   0.448  -0.004  -0.228
    1  UNL  H16   37  -0.448   0.004   0.203
    1  UNL  H17   38   0.447  -0.004   0.203
    1  UNL  H18   39  -0.630   0.029  -0.105
    1  UNL  H19   40   0.630  -0.029   0.079
   25.19200    14.44800     8.62600
