448537
    40
  -5.9860000   0.2500000  -0.1270000   5.9860000  -0.2500000  -0.1270000
  -0.4340000  -0.5220000  -0.1290000   0.4340000   0.5210000  -0.1290000
  -0.0170000  -1.9790000  -0.1820000   0.0170000   1.9780000  -0.1830000
  -1.9020000  -0.3170000  -0.1290000   1.9020000   0.3170000  -0.1290000
   0.1890000  -2.5720000   1.2060000  -0.1880000   2.5720000   1.2050000
  -2.5660000  -0.2250000  -1.3360000   2.5660000   0.2240000  -1.3370000
  -2.5650000  -0.2250000   1.0800000   2.5640000   0.2260000   1.0790000
  -3.9480000  -0.0330000  -1.3350000   3.9480000   0.0320000  -1.3350000
  -3.9460000  -0.0330000   1.0810000   3.9460000   0.0340000   1.0810000
  -4.6380000   0.0630000  -0.1270000   4.6380000  -0.0630000  -0.1270000
   0.9050000  -2.1010000  -0.7620000  -0.7680000  -2.5720000  -0.7180000
   0.7680000   2.5720000  -0.7200000  -0.9050000   2.1010000  -0.7630000
   0.5210000  -3.6120000   1.1200000  -0.7420000  -2.5700000   1.7820000
   0.9430000  -2.0280000   1.7800000  -0.9420000   2.0290000   1.7800000
  -0.5210000   3.6120000   1.1190000   0.7430000   2.5710000   1.7810000
  -2.0390000  -0.2990000  -2.2830000   2.0390000   0.2970000  -2.2840000
  -2.0380000  -0.2990000   2.0270000   2.0370000   0.3000000   2.0260000
  -4.4750000   0.0400000  -2.2830000   4.4810000  -0.0430000  -2.2790000
  -4.4780000   0.0420000   2.0250000   4.4720000  -0.0390000   2.0290000
  -6.2980000   0.2930000  -1.0470000   6.2980000  -0.2930000   0.7940000
