; diethylstilbestrol_GMX.itp created by acpype (v: 2023.10.27) on Mon Feb  9 17:43:33 2026

[ atomtypes ]
;name   bond_type     mass     charge   ptype   sigma         epsilon       Amb
 oh       oh          0.00000  0.00000   A     3.24287e-01   3.89112e-01 ; 1.82  0.0930
 ce       ce          0.00000  0.00000   A     3.31521e-01   4.13379e-01 ; 1.86  0.0988
 cf       cf          0.00000  0.00000   A     3.31521e-01   4.13379e-01 ; 1.86  0.0988
 c3       c3          0.00000  0.00000   A     3.39771e-01   4.51035e-01 ; 1.91  0.1078
 ca       ca          0.00000  0.00000   A     3.31521e-01   4.13379e-01 ; 1.86  0.0988
 hc       hc          0.00000  0.00000   A     2.60018e-01   8.70272e-02 ; 1.46  0.0208
 ha       ha          0.00000  0.00000   A     2.62548e-01   6.73624e-02 ; 1.47  0.0161
 ho       ho          0.00000  0.00000   A     5.37925e-02   1.96648e-02 ; 0.30  0.0047

[ moleculetype ]
;name            nrexcl
 diethylstilbestrol 3

[ atoms ]
;   nr  type  resi  res  atom  cgnr     charge      mass       ; qtot   bond_type
     1   oh     1   UNL     O    1    -0.499099     16.00000 ; qtot -0.499
     2   oh     1   UNL    O1    2    -0.499099     16.00000 ; qtot -0.998
     3   ce     1   UNL     C    3    -0.051900     12.01000 ; qtot -1.050
     4   cf     1   UNL    C1    4    -0.051900     12.01000 ; qtot -1.102
     5   c3     1   UNL    C2    5    -0.044700     12.01000 ; qtot -1.147
     6   c3     1   UNL    C3    6    -0.044700     12.01000 ; qtot -1.191
     7   ca     1   UNL    C4    7    -0.084800     12.01000 ; qtot -1.276
     8   ca     1   UNL    C5    8    -0.084800     12.01000 ; qtot -1.361
     9   c3     1   UNL    C6    9    -0.087600     12.01000 ; qtot -1.449
    10   c3     1   UNL    C7   10    -0.087600     12.01000 ; qtot -1.536
    11   ca     1   UNL    C8   11    -0.084500     12.01000 ; qtot -1.621
    12   ca     1   UNL    C9   12    -0.084500     12.01000 ; qtot -1.705
    13   ca     1   UNL   C10   13    -0.084500     12.01000 ; qtot -1.790
    14   ca     1   UNL   C11   14    -0.084500     12.01000 ; qtot -1.874
    15   ca     1   UNL   C12   15    -0.186500     12.01000 ; qtot -2.061
    16   ca     1   UNL   C13   16    -0.186500     12.01000 ; qtot -2.247
    17   ca     1   UNL   C14   17    -0.186500     12.01000 ; qtot -2.434
    18   ca     1   UNL   C15   18    -0.186500     12.01000 ; qtot -2.620
    19   ca     1   UNL   C16   19     0.123100     12.01000 ; qtot -2.497
    20   ca     1   UNL   C17   20     0.123100     12.01000 ; qtot -2.374
    21   hc     1   UNL     H   21     0.050700      1.00800 ; qtot -2.323
    22   hc     1   UNL    H1   22     0.050700      1.00800 ; qtot -2.273
    23   hc     1   UNL    H2   23     0.050700      1.00800 ; qtot -2.222
    24   hc     1   UNL    H3   24     0.050700      1.00800 ; qtot -2.171
    25   hc     1   UNL    H4   25     0.035033      1.00800 ; qtot -2.136
    26   hc     1   UNL    H5   26     0.035033      1.00800 ; qtot -2.101
    27   hc     1   UNL    H6   27     0.035033      1.00800 ; qtot -2.066
    28   hc     1   UNL    H7   28     0.035033      1.00800 ; qtot -2.031
    29   hc     1   UNL    H8   29     0.035033      1.00800 ; qtot -1.996
    30   hc     1   UNL    H9   30     0.035033      1.00800 ; qtot -1.961
    31   ha     1   UNL   H10   31     0.138250      1.00800 ; qtot -1.823
    32   ha     1   UNL   H11   32     0.138250      1.00800 ; qtot -1.685
    33   ha     1   UNL   H12   33     0.138250      1.00800 ; qtot -1.546
    34   ha     1   UNL   H13   34     0.138250      1.00800 ; qtot -1.408
    35   ha     1   UNL   H14   35     0.142500      1.00800 ; qtot -1.265
    36   ha     1   UNL   H15   36     0.142500      1.00800 ; qtot -1.123
    37   ha     1   UNL   H16   37     0.142500      1.00800 ; qtot -0.980
    38   ha     1   UNL   H17   38     0.142500      1.00800 ; qtot -0.838
    39   ho     1   UNL   H18   39     0.419000      1.00800 ; qtot -0.419
    40   ho     1   UNL   H19   40     0.419000      1.00800 ; qtot 0.000

[ bonds ]
;   ai     aj funct   r             k
     1     19   1    1.3644e-01    2.9167e+05 ;      O - C16   
     1     39   1    9.7250e-02    4.4811e+05 ;      O - H18   
     2     20   1    1.3644e-01    2.9167e+05 ;     O1 - C17   
     2     40   1    9.7250e-02    4.4811e+05 ;     O1 - H19   
     3      4   1    1.3561e-01    3.4249e+05 ;      C - C1    
     3      5   1    1.5109e-01    2.0651e+05 ;      C - C2    
     3      7   1    1.4800e-01    2.2748e+05 ;      C - C4    
     4      6   1    1.5106e-01    2.0671e+05 ;     C1 - C3    
     4      8   1    1.4648e-01    2.3874e+05 ;     C1 - C5    
     5      9   1    1.5354e-01    1.9154e+05 ;     C2 - C6    
     5     21   1    1.0962e-01    2.8891e+05 ;     C2 - H     
     5     22   1    1.0962e-01    2.8891e+05 ;     C2 - H1    
     6     10   1    1.5354e-01    1.9154e+05 ;     C3 - C7    
     6     23   1    1.0962e-01    2.8891e+05 ;     C3 - H2    
     6     24   1    1.0962e-01    2.8891e+05 ;     C3 - H3    
     7     11   1    1.3986e-01    2.9644e+05 ;     C4 - C8    
     7     13   1    1.3986e-01    2.9644e+05 ;     C4 - C10   
     8     12   1    1.3986e-01    2.9644e+05 ;     C5 - C9    
     8     14   1    1.3986e-01    2.9644e+05 ;     C5 - C11   
     9     25   1    1.0962e-01    2.8891e+05 ;     C6 - H4    
     9     26   1    1.0962e-01    2.8891e+05 ;     C6 - H5    
     9     27   1    1.0962e-01    2.8891e+05 ;     C6 - H6    
    10     28   1    1.0962e-01    2.8891e+05 ;     C7 - H7    
    10     29   1    1.0962e-01    2.8891e+05 ;     C7 - H8    
    10     30   1    1.0962e-01    2.8891e+05 ;     C7 - H9    
    11     15   1    1.3986e-01    2.9644e+05 ;     C8 - C12   
    11     31   1    1.0860e-01    3.0183e+05 ;     C8 - H10   
    12     16   1    1.3986e-01    2.9644e+05 ;     C9 - C13   
    12     32   1    1.0860e-01    3.0183e+05 ;     C9 - H11   
    13     17   1    1.3986e-01    2.9644e+05 ;    C10 - C14   
    13     33   1    1.0860e-01    3.0183e+05 ;    C10 - H12   
    14     18   1    1.3986e-01    2.9644e+05 ;    C11 - C15   
    14     34   1    1.0860e-01    3.0183e+05 ;    C11 - H13   
    15     19   1    1.3986e-01    2.9644e+05 ;    C12 - C16   
    15     35   1    1.0860e-01    3.0183e+05 ;    C12 - H14   
    16     20   1    1.3986e-01    2.9644e+05 ;    C13 - C17   
    16     36   1    1.0860e-01    3.0183e+05 ;    C13 - H15   
    17     19   1    1.3986e-01    2.9644e+05 ;    C14 - C16   
    17     37   1    1.0860e-01    3.0183e+05 ;    C14 - H16   
    18     20   1    1.3986e-01    2.9644e+05 ;    C15 - C17   
    18     38   1    1.0860e-01    3.0183e+05 ;    C15 - H17   

[ pairs ]
;   ai     aj    funct
     1     11      1 ;      O - C8    
     1     13      1 ;      O - C10   
     1     35      1 ;      O - H14   
     1     37      1 ;      O - H16   
     2     12      1 ;     O1 - C9    
     2     14      1 ;     O1 - C11   
     2     36      1 ;     O1 - H15   
     2     38      1 ;     O1 - H17   
     3     10      1 ;      C - C7    
     3     12      1 ;      C - C9    
     3     14      1 ;      C - C11   
     3     15      1 ;      C - C12   
     3     17      1 ;      C - C14   
     3     23      1 ;      C - H2    
     3     24      1 ;      C - H3    
     3     25      1 ;      C - H4    
     3     26      1 ;      C - H5    
     3     27      1 ;      C - H6    
     3     31      1 ;      C - H10   
     3     33      1 ;      C - H12   
     4      9      1 ;     C1 - C6    
     4     11      1 ;     C1 - C8    
     4     13      1 ;     C1 - C10   
     4     16      1 ;     C1 - C13   
     4     18      1 ;     C1 - C15   
     4     21      1 ;     C1 - H     
     4     22      1 ;     C1 - H1    
     4     28      1 ;     C1 - H7    
     4     29      1 ;     C1 - H8    
     4     30      1 ;     C1 - H9    
     4     32      1 ;     C1 - H11   
     4     34      1 ;     C1 - H13   
     5      6      1 ;     C2 - C3    
     5      8      1 ;     C2 - C5    
     5     11      1 ;     C2 - C8    
     5     13      1 ;     C2 - C10   
     6      7      1 ;     C3 - C4    
     6     12      1 ;     C3 - C9    
     6     14      1 ;     C3 - C11   
     7      8      1 ;     C4 - C5    
     7      9      1 ;     C4 - C6    
     7     19      1 ;     C4 - C16   
     7     21      1 ;     C4 - H     
     7     22      1 ;     C4 - H1    
     7     35      1 ;     C4 - H14   
     7     37      1 ;     C4 - H16   
     8     10      1 ;     C5 - C7    
     8     20      1 ;     C5 - C17   
     8     23      1 ;     C5 - H2    
     8     24      1 ;     C5 - H3    
     8     36      1 ;     C5 - H15   
     8     38      1 ;     C5 - H17   
    11     17      1 ;     C8 - C14   
    11     33      1 ;     C8 - H12   
    12     18      1 ;     C9 - C15   
    12     34      1 ;     C9 - H13   
    13     15      1 ;    C10 - C12   
    13     31      1 ;    C10 - H10   
    14     16      1 ;    C11 - C13   
    14     32      1 ;    C11 - H11   
    15     37      1 ;    C12 - H16   
    16     38      1 ;    C13 - H17   
    16     40      1 ;    C13 - H19   
    17     35      1 ;    C14 - H14   
    18     36      1 ;    C15 - H15   
    18     40      1 ;    C15 - H19   
    19     31      1 ;    C16 - H10   
    19     33      1 ;    C16 - H12   
    20     32      1 ;    C17 - H11   
    20     34      1 ;    C17 - H13   
    21     25      1 ;      H - H4    
    21     26      1 ;      H - H5    
    21     27      1 ;      H - H6    
    22     25      1 ;     H1 - H4    
    22     26      1 ;     H1 - H5    
    22     27      1 ;     H1 - H6    
    23     28      1 ;     H2 - H7    
    23     29      1 ;     H2 - H8    
    23     30      1 ;     H2 - H9    
    24     28      1 ;     H3 - H7    
    24     29      1 ;     H3 - H8    
    24     30      1 ;     H3 - H9    
    31     35      1 ;    H10 - H14   
    32     36      1 ;    H11 - H15   
    33     37      1 ;    H12 - H16   
    34     38      1 ;    H13 - H17   
    39     15      1 ;    H18 - C12   
    39     17      1 ;    H18 - C14   

[ angles ]
;   ai     aj     ak    funct   theta         cth
     1     19     15      1    1.1990e+02    6.5990e+02 ;      O - C16    - C12   
     1     19     17      1    1.1990e+02    6.5990e+02 ;      O - C16    - C14   
     2     20     16      1    1.1990e+02    6.5990e+02 ;     O1 - C17    - C13   
     2     20     18      1    1.1990e+02    6.5990e+02 ;     O1 - C17    - C15   
     3      4      6      1    1.2371e+02    5.0911e+02 ;      C - C1     - C3    
     3      4      8      1    1.2772e+02    5.1070e+02 ;      C - C1     - C5    
     3      5      9      1    1.1305e+02    5.0409e+02 ;      C - C2     - C6    
     3      5     21      1    1.1088e+02    3.6535e+02 ;      C - C2     - H     
     3      5     22      1    1.1088e+02    3.6535e+02 ;      C - C2     - H1    
     3      7     11      1    1.2079e+02    5.1530e+02 ;      C - C4     - C8    
     3      7     13      1    1.2079e+02    5.1530e+02 ;      C - C4     - C10   
     4      3      5      1    1.2397e+02    5.0852e+02 ;     C1 - C      - C2    
     4      3      7      1    1.2742e+02    5.0810e+02 ;     C1 - C      - C4    
     4      6     10      1    1.1325e+02    5.0367e+02 ;     C1 - C3     - C7    
     4      6     23      1    1.1084e+02    3.6551e+02 ;     C1 - C3     - H2    
     4      6     24      1    1.1084e+02    3.6551e+02 ;     C1 - C3     - H3    
     4      8     12      1    1.2093e+02    5.1798e+02 ;     C1 - C5     - C9    
     4      8     14      1    1.2093e+02    5.1798e+02 ;     C1 - C5     - C11   
     5      3      7      1    1.1910e+02    5.0016e+02 ;     C2 - C      - C4    
     5      9     25      1    1.0968e+02    3.6208e+02 ;     C2 - C6     - H4    
     5      9     26      1    1.0968e+02    3.6208e+02 ;     C2 - C6     - H5    
     5      9     27      1    1.0968e+02    3.6208e+02 ;     C2 - C6     - H6    
     6      4      8      1    1.1552e+02    5.1036e+02 ;     C3 - C1     - C5    
     6     10     28      1    1.0968e+02    3.6208e+02 ;     C3 - C7     - H7    
     6     10     29      1    1.0968e+02    3.6208e+02 ;     C3 - C7     - H8    
     6     10     30      1    1.0968e+02    3.6208e+02 ;     C3 - C7     - H9    
     7     11     15      1    1.2002e+02    5.3279e+02 ;     C4 - C8     - C12   
     7     11     31      1    1.1988e+02    3.7572e+02 ;     C4 - C8     - H10   
     7     13     17      1    1.2002e+02    5.3279e+02 ;     C4 - C10    - C14   
     7     13     33      1    1.1988e+02    3.7572e+02 ;     C4 - C10    - H12   
     8     12     16      1    1.2002e+02    5.3279e+02 ;     C5 - C9     - C13   
     8     12     32      1    1.1988e+02    3.7572e+02 ;     C5 - C9     - H11   
     8     14     18      1    1.2002e+02    5.3279e+02 ;     C5 - C11    - C15   
     8     14     34      1    1.1988e+02    3.7572e+02 ;     C5 - C11    - H13   
     9      5     21      1    1.0968e+02    3.6208e+02 ;     C6 - C2     - H     
     9      5     22      1    1.0968e+02    3.6208e+02 ;     C6 - C2     - H1    
    10      6     23      1    1.0968e+02    3.6208e+02 ;     C7 - C3     - H2    
    10      6     24      1    1.0968e+02    3.6208e+02 ;     C7 - C3     - H3    
    11      7     13      1    1.2002e+02    5.3279e+02 ;     C8 - C4     - C10   
    11     15     19      1    1.2002e+02    5.3279e+02 ;     C8 - C12    - C16   
    11     15     35      1    1.1988e+02    3.7572e+02 ;     C8 - C12    - H14   
    12      8     14      1    1.2002e+02    5.3279e+02 ;     C9 - C5     - C11   
    12     16     20      1    1.2002e+02    5.3279e+02 ;     C9 - C13    - C17   
    12     16     36      1    1.1988e+02    3.7572e+02 ;     C9 - C13    - H15   
    13     17     19      1    1.2002e+02    5.3279e+02 ;    C10 - C14    - C16   
    13     17     37      1    1.1988e+02    3.7572e+02 ;    C10 - C14    - H16   
    14     18     20      1    1.2002e+02    5.3279e+02 ;    C11 - C15    - C17   
    14     18     38      1    1.1988e+02    3.7572e+02 ;    C11 - C15    - H17   
    15     11     31      1    1.1988e+02    3.7572e+02 ;    C12 - C8     - H10   
    15     19     17      1    1.2002e+02    5.3279e+02 ;    C12 - C16    - C14   
    16     12     32      1    1.1988e+02    3.7572e+02 ;    C13 - C9     - H11   
    16     20     18      1    1.2002e+02    5.3279e+02 ;    C13 - C17    - C15   
    17     13     33      1    1.1988e+02    3.7572e+02 ;    C14 - C10    - H12   
    18     14     34      1    1.1988e+02    3.7572e+02 ;    C15 - C11    - H13   
    19      1     39      1    1.0858e+02    5.6409e+02 ;    C16 - O      - H18   
    19     15     35      1    1.1988e+02    3.7572e+02 ;    C16 - C12    - H14   
    19     17     37      1    1.1988e+02    3.7572e+02 ;    C16 - C14    - H16   
    20      2     40      1    1.0858e+02    5.6409e+02 ;    C17 - O1     - H19   
    20     16     36      1    1.1988e+02    3.7572e+02 ;    C17 - C13    - H15   
    20     18     38      1    1.1988e+02    3.7572e+02 ;    C17 - C15    - H17   
    21      5     22      1    1.0773e+02    2.9957e+02 ;      H - C2     - H1    
    23      6     24      1    1.0773e+02    2.9957e+02 ;     H2 - C3     - H3    
    25      9     26      1    1.0773e+02    2.9957e+02 ;     H4 - C6     - H5    
    25      9     27      1    1.0773e+02    2.9957e+02 ;     H4 - C6     - H6    
    26      9     27      1    1.0773e+02    2.9957e+02 ;     H5 - C6     - H6    
    28     10     29      1    1.0773e+02    2.9957e+02 ;     H7 - C7     - H8    
    28     10     30      1    1.0773e+02    2.9957e+02 ;     H7 - C7     - H9    
    29     10     30      1    1.0773e+02    2.9957e+02 ;     H8 - C7     - H9    

[ dihedrals ] ; propers
; for gromacs 4.5 or higher, using funct 9
;    i      j      k      l   func   phase     kd      pn
     1     19     15     11      9   180.00  15.16700   2 ;      O-   C16-   C12-    C8
     1     19     15     35      9   180.00  15.16700   2 ;      O-   C16-   C12-   H14
     1     19     17     13      9   180.00  15.16700   2 ;      O-   C16-   C14-   C10
     1     19     17     37      9   180.00  15.16700   2 ;      O-   C16-   C14-   H16
     2     20     16     12      9   180.00  15.16700   2 ;     O1-   C17-   C13-    C9
     2     20     16     36      9   180.00  15.16700   2 ;     O1-   C17-   C13-   H15
     2     20     18     14      9   180.00  15.16700   2 ;     O1-   C17-   C15-   C11
     2     20     18     38      9   180.00  15.16700   2 ;     O1-   C17-   C15-   H17
     3      4      6     10      9   180.00   0.65689   3 ;      C-    C1-    C3-    C7
     3      4      6     23      9   180.00   1.08784   3 ;      C-    C1-    C3-    H2
     3      4      6     24      9   180.00   1.08784   3 ;      C-    C1-    C3-    H3
     3      4      8     12      9   180.00   5.39736   2 ;      C-    C1-    C5-    C9
     3      4      8     14      9   180.00   5.39736   2 ;      C-    C1-    C5-   C11
     3      5      9     25      9     0.00   0.65084   3 ;      C-    C2-    C6-    H4
     3      5      9     26      9     0.00   0.65084   3 ;      C-    C2-    C6-    H5
     3      5      9     27      9     0.00   0.65084   3 ;      C-    C2-    C6-    H6
     3      7     11     15      9   180.00  15.16700   2 ;      C-    C4-    C8-   C12
     3      7     11     31      9   180.00  15.16700   2 ;      C-    C4-    C8-   H10
     3      7     13     17      9   180.00  15.16700   2 ;      C-    C4-   C10-   C14
     3      7     13     33      9   180.00  15.16700   2 ;      C-    C4-   C10-   H12
     4      3      5      9      9     0.00   1.55645   3 ;     C1-     C-    C2-    C6
     4      3      5     21      9   180.00   1.08784   3 ;     C1-     C-    C2-     H
     4      3      5     22      9   180.00   1.08784   3 ;     C1-     C-    C2-    H1
     4      3      7     11      9   180.00   2.44764   2 ;     C1-     C-    C4-    C8
     4      3      7     13      9   180.00   2.44764   2 ;     C1-     C-    C4-   C10
     4      6     10     28      9     0.00   0.65084   3 ;     C1-    C3-    C7-    H7
     4      6     10     29      9     0.00   0.65084   3 ;     C1-    C3-    C7-    H8
     4      6     10     30      9     0.00   0.65084   3 ;     C1-    C3-    C7-    H9
     4      8     12     16      9   180.00  15.16700   2 ;     C1-    C5-    C9-   C13
     4      8     12     32      9   180.00  15.16700   2 ;     C1-    C5-    C9-   H11
     4      8     14     18      9   180.00  15.16700   2 ;     C1-    C5-   C11-   C15
     4      8     14     34      9   180.00  15.16700   2 ;     C1-    C5-   C11-   H13
     5      3      4      6      9   180.00  27.82360   2 ;     C2-     C-    C1-    C3
     5      3      4      8      9   180.00  27.82360   2 ;     C2-     C-    C1-    C5
     5      3      7     11      9   180.00   2.51040   2 ;     C2-     C-    C4-    C8
     5      3      7     13      9   180.00   2.51040   2 ;     C2-     C-    C4-   C10
     6      4      3      7      9   180.00  27.82360   2 ;     C3-    C1-     C-    C4
     6      4      8     12      9   180.00   2.51040   2 ;     C3-    C1-    C5-    C9
     6      4      8     14      9   180.00   2.51040   2 ;     C3-    C1-    C5-   C11
     7      3      4      8      9     0.00   5.69024   3 ;     C4-     C-    C1-    C5
     7      3      4      8      9   180.00   0.41840   1 ;     C4-     C-    C1-    C5
     7      3      4      8      9   180.00  28.45120   2 ;     C4-     C-    C1-    C5
     7      3      5      9      9     0.00   1.55645   3 ;     C4-     C-    C2-    C6
     7      3      5     21      9   180.00   1.08784   3 ;     C4-     C-    C2-     H
     7      3      5     22      9   180.00   1.08784   3 ;     C4-     C-    C2-    H1
     7     11     15     19      9   180.00  15.16700   2 ;     C4-    C8-   C12-   C16
     7     11     15     35      9   180.00  15.16700   2 ;     C4-    C8-   C12-   H14
     7     13     17     19      9   180.00  15.16700   2 ;     C4-   C10-   C14-   C16
     7     13     17     37      9   180.00  15.16700   2 ;     C4-   C10-   C14-   H16
     8      4      6     10      9     0.00   1.55645   3 ;     C5-    C1-    C3-    C7
     8      4      6     23      9   180.00   1.08784   3 ;     C5-    C1-    C3-    H2
     8      4      6     24      9   180.00   1.08784   3 ;     C5-    C1-    C3-    H3
     8     12     16     20      9   180.00  15.16700   2 ;     C5-    C9-   C13-   C17
     8     12     16     36      9   180.00  15.16700   2 ;     C5-    C9-   C13-   H15
     8     14     18     20      9   180.00  15.16700   2 ;     C5-   C11-   C15-   C17
     8     14     18     38      9   180.00  15.16700   2 ;     C5-   C11-   C15-   H17
    11      7     13     17      9   180.00  15.16700   2 ;     C8-    C4-   C10-   C14
    11      7     13     33      9   180.00  15.16700   2 ;     C8-    C4-   C10-   H12
    11     15     19     17      9   180.00  15.16700   2 ;     C8-   C12-   C16-   C14
    12      8     14     18      9   180.00  15.16700   2 ;     C9-    C5-   C11-   C15
    12      8     14     34      9   180.00  15.16700   2 ;     C9-    C5-   C11-   H13
    12     16     20     18      9   180.00  15.16700   2 ;     C9-   C13-   C17-   C15
    13      7     11     15      9   180.00  15.16700   2 ;    C10-    C4-    C8-   C12
    13      7     11     31      9   180.00  15.16700   2 ;    C10-    C4-    C8-   H10
    13     17     19     15      9   180.00  15.16700   2 ;    C10-   C14-   C16-   C12
    14      8     12     16      9   180.00  15.16700   2 ;    C11-    C5-    C9-   C13
    14      8     12     32      9   180.00  15.16700   2 ;    C11-    C5-    C9-   H11
    14     18     20     16      9   180.00  15.16700   2 ;    C11-   C15-   C17-   C13
    15     19     17     37      9   180.00  15.16700   2 ;    C12-   C16-   C14-   H16
    16     20      2     40      9   180.00   3.57732   2 ;    C13-   C17-    O1-   H19
    16     20     18     38      9   180.00  15.16700   2 ;    C13-   C17-   C15-   H17
    17     19     15     35      9   180.00  15.16700   2 ;    C14-   C16-   C12-   H14
    18     20      2     40      9   180.00   3.57732   2 ;    C15-   C17-    O1-   H19
    18     20     16     36      9   180.00  15.16700   2 ;    C15-   C17-   C13-   H15
    19     15     11     31      9   180.00  15.16700   2 ;    C16-   C12-    C8-   H10
    19     17     13     33      9   180.00  15.16700   2 ;    C16-   C14-   C10-   H12
    20     16     12     32      9   180.00  15.16700   2 ;    C17-   C13-    C9-   H11
    20     18     14     34      9   180.00  15.16700   2 ;    C17-   C15-   C11-   H13
    21      5      9     25      9     0.00   0.50208   3 ;      H-    C2-    C6-    H4
    21      5      9     26      9     0.00   0.50208   3 ;      H-    C2-    C6-    H5
    21      5      9     27      9     0.00   0.50208   3 ;      H-    C2-    C6-    H6
    22      5      9     25      9     0.00   0.50208   3 ;     H1-    C2-    C6-    H4
    22      5      9     26      9     0.00   0.50208   3 ;     H1-    C2-    C6-    H5
    22      5      9     27      9     0.00   0.50208   3 ;     H1-    C2-    C6-    H6
    23      6     10     28      9     0.00   0.50208   3 ;     H2-    C3-    C7-    H7
    23      6     10     29      9     0.00   0.50208   3 ;     H2-    C3-    C7-    H8
    23      6     10     30      9     0.00   0.50208   3 ;     H2-    C3-    C7-    H9
    24      6     10     28      9     0.00   0.50208   3 ;     H3-    C3-    C7-    H7
    24      6     10     29      9     0.00   0.50208   3 ;     H3-    C3-    C7-    H8
    24      6     10     30      9     0.00   0.50208   3 ;     H3-    C3-    C7-    H9
    31     11     15     35      9   180.00  15.16700   2 ;    H10-    C8-   C12-   H14
    32     12     16     36      9   180.00  15.16700   2 ;    H11-    C9-   C13-   H15
    33     13     17     37      9   180.00  15.16700   2 ;    H12-   C10-   C14-   H16
    34     14     18     38      9   180.00  15.16700   2 ;    H13-   C11-   C15-   H17
    39      1     19     15      9   180.00   3.57732   2 ;    H18-     O-   C16-   C12
    39      1     19     17      9   180.00   3.57732   2 ;    H18-     O-   C16-   C14

[ dihedrals ] ; impropers
; treated as propers in GROMACS to use correct AMBER analytical function
;    i      j      k      l   func   phase     kd      pn
     1     19     17     15      4   180.00   4.60240   2 ;      O-   C16-   C14-   C12
     5      7      3      4      4   180.00   4.60240   2 ;     C2-    C4-     C-    C1
     6      8      4      3      4   180.00   4.60240   2 ;     C3-    C5-    C1-     C
     7     15     11     31      4   180.00   4.60240   2 ;     C4-   C12-    C8-   H10
     7     17     13     33      4   180.00   4.60240   2 ;     C4-   C14-   C10-   H12
     8     16     12     32      4   180.00   4.60240   2 ;     C5-   C13-    C9-   H11
     8     18     14     34      4   180.00   4.60240   2 ;     C5-   C15-   C11-   H13
    11     13      7      3      4   180.00   4.60240   2 ;     C8-   C10-    C4-     C
    11     19     15     35      4   180.00   4.60240   2 ;     C8-   C16-   C12-   H14
    12     14      8      4      4   180.00   4.60240   2 ;     C9-   C11-    C5-    C1
    12     20     16     36      4   180.00   4.60240   2 ;     C9-   C17-   C13-   H15
    13     19     17     37      4   180.00   4.60240   2 ;    C10-   C16-   C14-   H16
    14     20     18     38      4   180.00   4.60240   2 ;    C11-   C17-   C15-   H17
    16     18     20      2      4   180.00   4.60240   2 ;    C13-   C15-   C17-    O1
