%VERSION  VERSION_STAMP = V0001.000  DATE = 02/09/26  17:57:30                  
%FLAG TITLE                                                                     
%FORMAT(20a4)                                                                   
10975657                                                                        
%FLAG POINTERS                                                                  
%FORMAT(10I8)                                                                   
      20       6      10      10      21      14      46      30       0       0
     111       1      10      14      30       6      13      21       6       0
       0       0       0       0       0       0       0       0      20       0
       0
%FLAG ATOM_NAME                                                                 
%FORMAT(20a4)                                                                   
O   O1  O2  O3  O4  C   C1  C2  C3  C4  H   H1  H2  H3  H4  H5  H6  H7  H8  H9  
%FLAG CHARGE                                                                    
%FORMAT(5E16.8)                                                                 
 -7.99230078E+00 -1.09479578E+01 -1.05106226E+01 -1.06381787E+01 -1.17679613E+01
  1.35027243E+00  1.89694143E+00  1.53249543E+00  5.30086707E+00  1.73840742E+00
  1.88965251E+00  1.76209641E+00  1.65276261E+00  1.63454031E+00  1.14253821E+00
  1.14253821E+00  7.63514370E+00  7.72625520E+00  7.56225450E+00  7.81736670E+00
%FLAG ATOMIC_NUMBER                                                             
%FORMAT(10I8)                                                                   
       8       8       8       8       8       6       6       6       6       6
       1       1       1       1       1       1       1       1       1       1
%FLAG MASS                                                                      
%FORMAT(5E16.8)                                                                 
  1.60000000E+01  1.60000000E+01  1.60000000E+01  1.60000000E+01  1.60000000E+01
  1.20100000E+01  1.20100000E+01  1.20100000E+01  1.20100000E+01  1.20100000E+01
  1.00800000E+00  1.00800000E+00  1.00800000E+00  1.00800000E+00  1.00800000E+00
  1.00800000E+00  1.00800000E+00  1.00800000E+00  1.00800000E+00  1.00800000E+00
%FLAG ATOM_TYPE_INDEX                                                           
%FORMAT(10I8)                                                                   
       1       2       2       2       2       3       3       3       3       3
       4       4       4       5       4       4       6       6       6       6
%FLAG NUMBER_EXCLUDED_ATOMS                                                     
%FORMAT(10I8)                                                                   
      14      11       9       9       7      13      10       9       8       6
       3       2       3       1       1       1       1       1       1       1
%FLAG NONBONDED_PARM_INDEX                                                      
%FORMAT(10I8)                                                                   
       1       2       4       7      11      16       2       3       5       8
      12      17       4       5       6       9      13      18       7       8
       9      10      14      19      11      12      13      14      15      20
      16      17      18      19      20      21
%FLAG RESIDUE_LABEL                                                             
%FORMAT(20a4)                                                                   
UNL 
%FLAG RESIDUE_POINTER                                                           
%FORMAT(10I8)                                                                   
       1
%FLAG BOND_FORCE_CONSTANT                                                       
%FORMAT(5E16.8)                                                                 
  2.79780000E+02  2.85250000E+02  5.35510000E+02  2.26810000E+02  3.42020000E+02
  3.41880000E+02
%FLAG BOND_EQUIL_VALUE                                                          
%FORMAT(5E16.8)                                                                 
  1.43000000E+00  1.42410000E+00  9.72500000E-01  1.53840000E+00  1.09840000E+00
  1.09850000E+00
%FLAG ANGLE_FORCE_CONSTANT                                                      
%FORMAT(5E16.8)                                                                 
  9.81000000E+01  7.64200000E+01  5.63300000E+01  5.66800000E+01  7.65600000E+01
  5.63900000E+01  5.64500000E+01  6.52300000E+01  6.01800000E+01  4.32800000E+01
  4.31200000E+01  8.82800000E+01  3.57700000E+01
%FLAG ANGLE_EQUIL_VALUE                                                         
%FORMAT(5E16.8)                                                                 
  1.89682464E+00  1.92143380E+00  1.91008915E+00  1.88635266E+00  1.92073567E+00
  1.91916487E+00  1.91480154E+00  1.86872483E+00  1.93836350E+00  1.90555129E+00
  1.91951393E+00  1.97745889E+00  1.87622975E+00
%FLAG DIHEDRAL_FORCE_CONSTANT                                                   
%FORMAT(5E16.8)                                                                 
  1.66666667E-01  6.70000000E-01  7.30000000E-01  1.07000000E+00  1.55555556E-01
  2.50000000E-01  0.00000000E+00  1.00000000E+00  1.44000000E+00  1.80000000E-01
  1.56000000E+00  8.60000000E-01  6.36666667E-01  6.00000000E-02  5.20000000E-01
  3.50000000E-01  1.38000000E+00  1.16000000E+00  3.37000000E-01  3.83333333E-01
  1.23000000E-01
%FLAG DIHEDRAL_PERIODICITY                                                      
%FORMAT(5E16.8)                                                                 
  3.00000000E+00  1.00000000E+00  2.00000000E+00  3.00000000E+00  3.00000000E+00
  1.00000000E+00  3.00000000E+00  1.00000000E+00  3.00000000E+00  3.00000000E+00
  1.00000000E+00  2.00000000E+00  3.00000000E+00  3.00000000E+00  3.00000000E+00
  1.00000000E+00  2.00000000E+00  3.00000000E+00  3.00000000E+00  3.00000000E+00
  3.00000000E+00
%FLAG DIHEDRAL_PHASE                                                            
%FORMAT(5E16.8)                                                                 
  0.00000000E+00  3.14159400E+00  3.14159400E+00  0.00000000E+00  0.00000000E+00
  0.00000000E+00  0.00000000E+00  0.00000000E+00  0.00000000E+00  0.00000000E+00
  3.14159400E+00  0.00000000E+00  0.00000000E+00  0.00000000E+00  0.00000000E+00
  3.14159400E+00  0.00000000E+00  0.00000000E+00  0.00000000E+00  0.00000000E+00
  0.00000000E+00
%FLAG SCEE_SCALE_FACTOR                                                         
%FORMAT(5E16.8)                                                                 
  1.20000000E+00  1.20000000E+00  1.20000000E+00  1.20000000E+00  1.20000000E+00
  1.20000000E+00  1.20000000E+00  1.20000000E+00  1.20000000E+00  1.20000000E+00
  1.20000000E+00  1.20000000E+00  1.20000000E+00  1.20000000E+00  1.20000000E+00
  1.20000000E+00  1.20000000E+00  1.20000000E+00  1.20000000E+00  1.20000000E+00
  1.20000000E+00
%FLAG SCNB_SCALE_FACTOR                                                         
%FORMAT(5E16.8)                                                                 
  2.00000000E+00  2.00000000E+00  2.00000000E+00  2.00000000E+00  2.00000000E+00
  2.00000000E+00  2.00000000E+00  2.00000000E+00  2.00000000E+00  2.00000000E+00
  2.00000000E+00  2.00000000E+00  2.00000000E+00  2.00000000E+00  2.00000000E+00
  2.00000000E+00  2.00000000E+00  2.00000000E+00  2.00000000E+00  2.00000000E+00
  2.00000000E+00
%FLAG SOLTY                                                                     
%FORMAT(5E16.8)                                                                 
  0.00000000E+00  0.00000000E+00  0.00000000E+00  0.00000000E+00  0.00000000E+00
  0.00000000E+00
%FLAG LENNARD_JONES_ACOEF                                                       
%FORMAT(5E16.8)                                                                 
  2.83662575E+05  3.78207390E+05  5.03152404E+05  5.42502534E+05  7.18991463E+05
  1.02073671E+06  3.44374471E+04  4.69084694E+04  6.97998263E+04  3.39005767E+03
  2.33261683E+04  3.19666529E+04  4.80619274E+04  2.16218723E+03  1.35510742E+03
  1.16469347E+02  1.74176419E+02  3.03553352E+02  4.36660257E+00  2.07292270E+00
  1.10360882E-05
%FLAG LENNARD_JONES_BCOEF                                                       
%FORMAT(5E16.8)                                                                 
  2.87011518E+02  3.52573684E+02  4.32634597E+02  4.38146883E+02  5.36620538E+02
  6.63431737E+02  7.31636661E+01  9.08431526E+01  1.14981426E+02  1.67944276E+01
  6.02145835E+01  7.49920368E+01  9.54115851E+01  1.34124560E+01  1.06181419E+01
  2.93355636E+00  3.81654050E+00  5.22789272E+00  4.15568027E-01  2.86326700E-01
  4.55498033E-04
%FLAG BONDS_INC_HYDROGEN                                                        
%FORMAT(10I8)                                                                   
       3      48       3       6      51       3       9      54       3      12
      57       3      15      30       5      18      33       5      21      36
       5      24      39       6      27      42       5      27      45       5
%FLAG BONDS_WITHOUT_HYDROGEN                                                    
%FORMAT(10I8)                                                                   
       0      24       1       0      27       1       3      15       2       6
      18       2       9      21       2      12      24       2      15      18
       4      15      21       4      18      24       4      21      27       4
%FLAG ANGLES_INC_HYDROGEN                                                       
%FORMAT(10I8)                                                                   
       0      24      39       3       0      27      42       4       0      27
      45       4       3      15      30       6       6      18      33       6
       9      21      36       6      12      24      39       7      15       3
      48       8      15      18      33      10      15      21      36      10
      18       6      51       8      18      15      30      10      18      24
      39      11      21       9      54       8      21      15      30      10
      21      27      42      10      21      27      45      10      24      12
      57       8      24      18      33      10      27      21      36      10
      42      27      45      13
%FLAG ANGLES_WITHOUT_HYDROGEN                                                   
%FORMAT(10I8)                                                                   
       0      24      12       1       0      24      18       2       0      27
      21       2       3      15      18       5       3      15      21       5
       6      18      15       5       6      18      24       5       9      21
      15       5       9      21      27       5      12      24      18       5
      15      18      24       9      15      21      27       9      18      15
      21       9      24       0      27      12
%FLAG DIHEDRALS_INC_HYDROGEN                                                    
%FORMAT(10I8)                                                                   
       0      24      12      57       1       0      24      18      33       6
       0      24     -18      33       7       0      27      21      36       6
       0      27     -21      36       7       3      15      18      33       6
       3      15     -18      33       7       3      15      21      36       6
       3      15     -21      36       7       6      18      15      30       6
       6      18     -15      30       7       6      18      24      39       5
       9      21      15      30       6       9      21     -15      30       7
       9      21      27      42       6       9      21     -27      42       7
       9      21      27      45       6       9      21     -27      45       7
      12      24      18      33       6      12      24     -18      33       7
      15      18       6      51      14      15      18      24      39       5
      15      21       9      54      14      15      21      27      42       5
      15      21      27      45       5      18      15       3      48      14
      18      15      21      36       5      18      24      12      57      14
      21      15       3      48      14      21      15      18      33       5
      24       0      27      42      19      24       0      27      45      19
      24      18       6      51      14      24      18      15      30       5
      27       0      24      39      20      27      21       9      54      14
      27      21      15      30       5      30      15       3      48      21
      30      15      18      33       5      30      15      21      36       5
      33      18       6      51      21      33      18      24      39       5
      36      21       9      54      21      36      21      27      42       5
      36      21      27      45       5      39      24      12      57       1
%FLAG DIHEDRALS_WITHOUT_HYDROGEN                                                
%FORMAT(10I8)                                                                   
       0      24      18       6       2       0      24     -18       6       3
       0      24     -18       6       4       0      24      18      15       5
       0      27      21       9       2       0      27     -21       9       3
       0      27     -21       9       4       0      27     -21      15       5
       3      15      18       6       8       3      15     -18       6       9
       3      15      18      24      10       3      15      21       9       8
       3      15     -21       9       9       3      15      21      27      10
       6      18      15      21      10       6      18      24      12       8
       6      18     -24      12       9       9      21      15      18      10
      27       0      24      12      11      27       0     -24      12      12
      27       0     -24      12      13      12      24      18      15      10
      18      15      21      27      15      27       0     -24      18      16
      27       0     -24      18      17      27       0     -24      18      18
      21      15      18      24      15      24       0     -27      21      16
      24       0     -27      21      17      24       0     -27      21      18
%FLAG EXCLUDED_ATOMS_LIST                                                       
%FORMAT(10I8)                                                                   
       3       4       5       6       7       8       9      10      12      13
      14      15      16      20       3       4       6       7       8       9
      10      11      12      13      17       5       6       7       8       9
      11      12      14      18       6       7       8      10      11      13
      15      16      19       6       7       9      10      12      14      20
       7       8       9      10      11      12      13      14      15      16
      17      18      19       8       9      10      11      12      13      14
      17      18      20       9      10      11      12      13      15      16
      17      19      10      11      12      14      15      16      18      20
      11      13      14      15      16      19      12      13      17      14
      18      15      16      19      20      16       0       0       0       0
       0
%FLAG HBOND_ACOEF                                                               
%FORMAT(5E16.8)                                                                 

%FLAG HBOND_BCOEF                                                               
%FORMAT(5E16.8)                                                                 

%FLAG HBCUT                                                                     
%FORMAT(5E16.8)                                                                 

%FLAG AMBER_ATOM_TYPE                                                           
%FORMAT(20a4)                                                                   
os  oh  oh  oh  oh  c6  c6  c6  c6  c6  h1  h1  h1  h2  h1  h1  ho  ho  ho  ho  
%FLAG TREE_CHAIN_CLASSIFICATION                                                 
%FORMAT(20a4)                                                                   
BLA BLA BLA BLA BLA BLA BLA BLA BLA BLA BLA BLA BLA BLA BLA BLA BLA BLA BLA BLA 
%FLAG JOIN_ARRAY                                                                
%FORMAT(10I8)                                                                   
       0       0       0       0       0       0       0       0       0       0
       0       0       0       0       0       0       0       0       0       0
%FLAG IROTAT                                                                    
%FORMAT(10I8)                                                                   
       0       0       0       0       0       0       0       0       0       0
       0       0       0       0       0       0       0       0       0       0
%FLAG RADIUS_SET                                                                
%FORMAT(1a80)                                                                   
modified Bondi radii (mbondi)                                                   
%FLAG RADII                                                                     
%FORMAT(5E16.8)                                                                 
  1.50000000E+00  1.50000000E+00  1.50000000E+00  1.50000000E+00  1.50000000E+00
  1.50000000E+00  1.50000000E+00  1.50000000E+00  1.50000000E+00  1.50000000E+00
  1.30000000E+00  1.30000000E+00  1.30000000E+00  1.30000000E+00  1.30000000E+00
  1.30000000E+00  8.00000000E-01  8.00000000E-01  8.00000000E-01  8.00000000E-01
%FLAG SCREEN                                                                    
%FORMAT(5E16.8)                                                                 
  8.50000000E-01  8.50000000E-01  8.50000000E-01  8.50000000E-01  8.50000000E-01
  8.00000000E-01  8.00000000E-01  8.00000000E-01  8.00000000E-01  8.00000000E-01
  8.50000000E-01  8.50000000E-01  8.50000000E-01  8.50000000E-01  8.50000000E-01
  8.50000000E-01  8.50000000E-01  8.50000000E-01  8.50000000E-01  8.50000000E-01
%FLAG IPOL                                                                      
%FORMAT(1I8)                                                                    
       0
