; ribose_GMX_OPLS.itp created by acpype (v: 2023.10.27) on Mon Feb  9 17:57:29 2026

; For OPLS atomtypes manual fine tuning
; AC_at:OPLS_at:OPLScode: Possible_Alternatives (see ffoplsaa.atp and ffoplsaanb.itp)
; os:x:opls_x: []
; oh:OH:opls_154: ['167']
; c6:x:opls_x: []
; h1:HC:opls_140: []
; h2:x:opls_x: []
; ho:HO:opls_155: ['168']

[ moleculetype ]
;name            nrexcl
 ribose           3

[ atoms ]
;   nr  type  resi  res  atom  cgnr     charge      mass       ; qtot   bond_type
     1 opls_x     1   UNL     O    1    -0.438600      0.00000 ; qtot -0.439  x   
     2 opls_154     1   UNL    O1    2    -0.600800     15.99940 ; qtot -1.039  OH  
     3 opls_154     1   UNL    O2    3    -0.576800     15.99940 ; qtot -1.616  OH  
     4 opls_154     1   UNL    O3    4    -0.583800     15.99940 ; qtot -2.200  OH  
     5 opls_154     1   UNL    O4    5    -0.641800     15.99940 ; qtot -2.842  OH  
     6 opls_x     1   UNL     C    6     0.074100      0.00000 ; qtot -2.768  x   
     7 opls_x     1   UNL    C1    7     0.104100      0.00000 ; qtot -2.664  x   
     8 opls_x     1   UNL    C2    8     0.084100      0.00000 ; qtot -2.579  x   
     9 opls_x     1   UNL    C3    9     0.290900      0.00000 ; qtot -2.289  x   
    10 opls_x     1   UNL    C4   10     0.095400      0.00000 ; qtot -2.193  x   
    11 opls_140     1   UNL     H   11     0.103700      1.00800 ; qtot -2.089  HC  
    12 opls_140     1   UNL    H1   12     0.096700      1.00800 ; qtot -1.993  HC  
    13 opls_140     1   UNL    H2   13     0.090700      1.00800 ; qtot -1.902  HC  
    14 opls_x     1   UNL    H3   14     0.089700      0.00000 ; qtot -1.812  x   
    15 opls_140     1   UNL    H4   15     0.062700      1.00800 ; qtot -1.750  HC  
    16 opls_140     1   UNL    H5   16     0.062700      1.00800 ; qtot -1.687  HC  
    17 opls_155     1   UNL    H6   17     0.419000      1.00800 ; qtot -1.268  HO  
    18 opls_155     1   UNL    H7   18     0.424000      1.00800 ; qtot -0.844  HO  
    19 opls_155     1   UNL    H8   19     0.415000      1.00800 ; qtot -0.429  HO  
    20 opls_155     1   UNL    H9   20     0.429000      1.00800 ; qtot  0.000  HO  

[ bonds ]
;   ai     aj funct   r             k
     1      9   1 ;    1.4300e-01    2.3412e+05 ;      O - C3          x - x     
     1     10   1 ;    1.4300e-01    2.3412e+05 ;      O - C4          x - x     
     2      6   1 ;    1.4241e-01    2.3870e+05 ;     O1 - C          OH - x     
     2     17   1 ;    9.7250e-02    4.4811e+05 ;     O1 - H6         OH - HO    
     3      7   1 ;    1.4241e-01    2.3870e+05 ;     O2 - C1         OH - x     
     3     18   1 ;    9.7250e-02    4.4811e+05 ;     O2 - H7         OH - HO    
     4      8   1 ;    1.4241e-01    2.3870e+05 ;     O3 - C2         OH - x     
     4     19   1 ;    9.7250e-02    4.4811e+05 ;     O3 - H8         OH - HO    
     5      9   1 ;    1.4241e-01    2.3870e+05 ;     O4 - C3         OH - x     
     5     20   1 ;    9.7250e-02    4.4811e+05 ;     O4 - H9         OH - HO    
     6      7   1 ;    1.5384e-01    1.8979e+05 ;      C - C1          x - x     
     6      8   1 ;    1.5384e-01    1.8979e+05 ;      C - C2          x - x     
     6     11   1 ;    1.0984e-01    2.8620e+05 ;      C - H           x - HC    
     7      9   1 ;    1.5384e-01    1.8979e+05 ;     C1 - C3          x - x     
     7     12   1 ;    1.0984e-01    2.8620e+05 ;     C1 - H1          x - HC    
     8     10   1 ;    1.5384e-01    1.8979e+05 ;     C2 - C4          x - x     
     8     13   1 ;    1.0984e-01    2.8620e+05 ;     C2 - H2          x - HC    
     9     14   1 ;    1.0985e-01    2.8609e+05 ;     C3 - H3          x - x     
    10     15   1 ;    1.0984e-01    2.8620e+05 ;     C4 - H4          x - HC    
    10     16   1 ;    1.0984e-01    2.8620e+05 ;     C4 - H5          x - HC    

[ pairs ]
;   ai     aj    funct
     1      3      1 ;      O - O2    
     1      4      1 ;      O - O3    
     1      6      1 ;      O - C     
     1     12      1 ;      O - H1    
     1     13      1 ;      O - H2    
     1     20      1 ;      O - H9    
     2      3      1 ;     O1 - O2    
     2      4      1 ;     O1 - O3    
     2      9      1 ;     O1 - C3    
     2     10      1 ;     O1 - C4    
     2     12      1 ;     O1 - H1    
     2     13      1 ;     O1 - H2    
     3      5      1 ;     O2 - O4    
     3      8      1 ;     O2 - C2    
     3     11      1 ;     O2 - H     
     3     14      1 ;     O2 - H3    
     4      7      1 ;     O3 - C1    
     4     11      1 ;     O3 - H     
     4     15      1 ;     O3 - H4    
     4     16      1 ;     O3 - H5    
     5      6      1 ;     O4 - C     
     5     12      1 ;     O4 - H1    
     6     14      1 ;      C - H3    
     6     15      1 ;      C - H4    
     6     16      1 ;      C - H5    
     6     18      1 ;      C - H7    
     6     19      1 ;      C - H8    
     7     10      1 ;     C1 - C4    
     7     13      1 ;     C1 - H2    
     7     17      1 ;     C1 - H6    
     7     20      1 ;     C1 - H9    
     8      9      1 ;     C2 - C3    
     8     12      1 ;     C2 - H1    
     8     17      1 ;     C2 - H6    
     9     11      1 ;     C3 - H     
     9     15      1 ;     C3 - H4    
     9     16      1 ;     C3 - H5    
     9     18      1 ;     C3 - H7    
    10      5      1 ;     C4 - O4    
    10     11      1 ;     C4 - H     
    10     14      1 ;     C4 - H3    
    10     19      1 ;     C4 - H8    
    11     12      1 ;      H - H1    
    11     13      1 ;      H - H2    
    11     17      1 ;      H - H6    
    12     14      1 ;     H1 - H3    
    12     18      1 ;     H1 - H7    
    13     15      1 ;     H2 - H4    
    13     16      1 ;     H2 - H5    
    13     19      1 ;     H2 - H8    
    14     20      1 ;     H3 - H9    

[ angles ]
;   ai     aj     ak    funct   theta         cth
     1      9      5      1 ;    1.0868e+02    8.2090e+02 ;      O - C3   - O4        x -    x - OH  
     1      9      7      1 ;    1.1009e+02    6.3948e+02 ;      O - C3   - C1        x -    x - x   
     1      9     14      1 ;    1.0944e+02    4.7137e+02 ;      O - C3   - H3        x -    x - x   
     1     10      8      1 ;    1.1009e+02    6.3948e+02 ;      O - C4   - C2        x -    x - x   
     1     10     15      1 ;    1.0808e+02    4.7430e+02 ;      O - C4   - H4        x -    x - HC  
     1     10     16      1 ;    1.0808e+02    4.7430e+02 ;      O - C4   - H5        x -    x - HC  
     2      6      7      1 ;    1.1005e+02    6.4065e+02 ;     O1 - C    - C1       OH -    x - x   
     2      6      8      1 ;    1.1005e+02    6.4065e+02 ;     O1 - C    - C2       OH -    x - x   
     2      6     11      1 ;    1.0996e+02    4.7187e+02 ;     O1 - C    - H        OH -    x - HC  
     3      7      6      1 ;    1.1005e+02    6.4065e+02 ;     O2 - C1   - C        OH -    x - x   
     3      7      9      1 ;    1.1005e+02    6.4065e+02 ;     O2 - C1   - C3       OH -    x - x   
     3      7     12      1 ;    1.0996e+02    4.7187e+02 ;     O2 - C1   - H1       OH -    x - HC  
     4      8      6      1 ;    1.1005e+02    6.4065e+02 ;     O3 - C2   - C        OH -    x - x   
     4      8     10      1 ;    1.1005e+02    6.4065e+02 ;     O3 - C2   - C4       OH -    x - x   
     4      8     13      1 ;    1.0996e+02    4.7187e+02 ;     O3 - C2   - H2       OH -    x - HC  
     5      9      7      1 ;    1.1005e+02    6.4065e+02 ;     O4 - C3   - C1       OH -    x - x   
     5      9     14      1 ;    1.0971e+02    4.7237e+02 ;     O4 - C3   - H3       OH -    x - x   
     6      2     17      1 ;    1.0707e+02    5.4584e+02 ;      C - O1   - H6        x -   OH - HO  
     6      7      9      1 ;    1.1106e+02    5.0359e+02 ;      C - C1   - C3        x -    x - x   
     6      7     12      1 ;    1.0918e+02    3.6217e+02 ;      C - C1   - H1        x -    x - HC  
     6      8     10      1 ;    1.1106e+02    5.0359e+02 ;      C - C2   - C4        x -    x - x   
     6      8     13      1 ;    1.0918e+02    3.6217e+02 ;      C - C2   - H2        x -    x - HC  
     7      3     18      1 ;    1.0707e+02    5.4584e+02 ;     C1 - O2   - H7        x -   OH - HO  
     7      6      8      1 ;    1.1106e+02    5.0359e+02 ;     C1 - C    - C2        x -    x - x   
     7      6     11      1 ;    1.0918e+02    3.6217e+02 ;     C1 - C    - H         x -    x - HC  
     7      9     14      1 ;    1.0998e+02    3.6083e+02 ;     C1 - C3   - H3        x -    x - x   
     8      4     19      1 ;    1.0707e+02    5.4584e+02 ;     C2 - O3   - H8        x -   OH - HO  
     8      6     11      1 ;    1.0918e+02    3.6217e+02 ;     C2 - C    - H         x -    x - HC  
     8     10     15      1 ;    1.0918e+02    3.6217e+02 ;     C2 - C4   - H4        x -    x - HC  
     8     10     16      1 ;    1.0918e+02    3.6217e+02 ;     C2 - C4   - H5        x -    x - HC  
     9      1     10      1 ;    1.1330e+02    7.3873e+02 ;     C3 - O    - C4        x -    x - x   
     9      5     20      1 ;    1.0707e+02    5.4584e+02 ;     C3 - O4   - H9        x -   OH - HO  
     9      7     12      1 ;    1.0918e+02    3.6217e+02 ;     C3 - C1   - H1        x -    x - HC  
    10      8     13      1 ;    1.0918e+02    3.6217e+02 ;     C4 - C2   - H2        x -    x - HC  
    15     10     16      1 ;    1.0750e+02    2.9932e+02 ;     H4 - C4   - H5       HC -    x - HC  

[ dihedrals ] ; propers
; for gromacs 4.5 or higher, using funct 9
;    i      j      k      l   func   phase     kd      pn
     1      9      5     20      9 ;     0.00   0.69733   3 ;      O-    C3-    O4-    H9
     1      9      7      3      9 ;     0.00   4.47688   3 ;      O-    C3-    C1-    O2
     1      9      7      3      9 ;   180.00   2.80328   1 ;      O-    C3-    C1-    O2
     1      9      7      3      9 ;   180.00   3.05432   2 ;      O-    C3-    C1-    O2
     1      9      7      6      9 ;     0.00   0.65084   3 ;      O-    C3-    C1-     C
     1      9      7     12      9 ;     0.00   0.00000   0 ;      O-    C3-    C1-    H1
     1      9      7     12      9 ;     0.00   1.04600   1 ;      O-    C3-    C1-    H1
     1     10      8      4      9 ;     0.00   4.47688   3 ;      O-    C4-    C2-    O3
     1     10      8      4      9 ;   180.00   2.80328   1 ;      O-    C4-    C2-    O3
     1     10      8      4      9 ;   180.00   3.05432   2 ;      O-    C4-    C2-    O3
     1     10      8      6      9 ;     0.00   0.65084   3 ;      O-    C4-    C2-     C
     1     10      8     13      9 ;     0.00   0.00000   0 ;      O-    C4-    C2-    H2
     1     10      8     13      9 ;     0.00   1.04600   1 ;      O-    C4-    C2-    H2
     2      6      7      3      9 ;     0.00   4.18400   1 ;     O1-     C-    C1-    O2
     2      6      7      3      9 ;     0.00   6.02496   3 ;     O1-     C-    C1-    O2
     2      6      7      9      9 ;     0.00   0.75312   3 ;     O1-     C-    C1-    C3
     2      6      7     12      9 ;     0.00   0.00000   0 ;     O1-     C-    C1-    H1
     2      6      7     12      9 ;     0.00   1.04600   1 ;     O1-     C-    C1-    H1
     2      6      8      4      9 ;     0.00   4.18400   1 ;     O1-     C-    C2-    O3
     2      6      8      4      9 ;     0.00   6.02496   3 ;     O1-     C-    C2-    O3
     2      6      8     10      9 ;     0.00   0.75312   3 ;     O1-     C-    C2-    C4
     2      6      8     13      9 ;     0.00   0.00000   0 ;     O1-     C-    C2-    H2
     2      6      8     13      9 ;     0.00   1.04600   1 ;     O1-     C-    C2-    H2
     3      7      6      8      9 ;     0.00   0.75312   3 ;     O2-    C1-     C-    C2
     3      7      6     11      9 ;     0.00   0.00000   0 ;     O2-    C1-     C-     H
     3      7      6     11      9 ;     0.00   1.04600   1 ;     O2-    C1-     C-     H
     3      7      9      5      9 ;     0.00   4.18400   1 ;     O2-    C1-    C3-    O4
     3      7      9      5      9 ;     0.00   6.02496   3 ;     O2-    C1-    C3-    O4
     3      7      9     14      9 ;     0.00   0.65084   3 ;     O2-    C1-    C3-    H3
     4      8      6      7      9 ;     0.00   0.75312   3 ;     O3-    C2-     C-    C1
     4      8      6     11      9 ;     0.00   0.00000   0 ;     O3-    C2-     C-     H
     4      8      6     11      9 ;     0.00   1.04600   1 ;     O3-    C2-     C-     H
     4      8     10     15      9 ;     0.00   0.00000   0 ;     O3-    C2-    C4-    H4
     4      8     10     15      9 ;     0.00   1.04600   1 ;     O3-    C2-    C4-    H4
     4      8     10     16      9 ;     0.00   0.00000   0 ;     O3-    C2-    C4-    H5
     4      8     10     16      9 ;     0.00   1.04600   1 ;     O3-    C2-    C4-    H5
     5      9      7      6      9 ;     0.00   0.75312   3 ;     O4-    C3-    C1-     C
     5      9      7     12      9 ;     0.00   0.00000   0 ;     O4-    C3-    C1-    H1
     5      9      7     12      9 ;     0.00   1.04600   1 ;     O4-    C3-    C1-    H1
     6      7      3     18      9 ;     0.00   0.25104   3 ;      C-    C1-    O2-    H7
     6      7      9     14      9 ;     0.00   0.65084   3 ;      C-    C1-    C3-    H3
     6      8      4     19      9 ;     0.00   0.25104   3 ;      C-    C2-    O3-    H8
     6      8     10     15      9 ;     0.00   0.65084   3 ;      C-    C2-    C4-    H4
     6      8     10     16      9 ;     0.00   0.65084   3 ;      C-    C2-    C4-    H5
     7      6      2     17      9 ;     0.00   0.25104   3 ;     C1-     C-    O1-    H6
     7      6      8     10      9 ;     0.00   2.17568   3 ;     C1-     C-    C2-    C4
     7      6      8     13      9 ;     0.00   0.65084   3 ;     C1-     C-    C2-    H2
     7      9      5     20      9 ;     0.00   0.25104   3 ;     C1-    C3-    O4-    H9
     8      6      2     17      9 ;     0.00   0.25104   3 ;     C2-     C-    O1-    H6
     8      6      7      9      9 ;     0.00   2.17568   3 ;     C2-     C-    C1-    C3
     8      6      7     12      9 ;     0.00   0.65084   3 ;     C2-     C-    C1-    H1
     9      1     10      8      9 ;     0.00   4.85344   3 ;     C3-     O-    C4-    C2
     9      1     10      8      9 ;     0.00   5.77392   2 ;     C3-     O-    C4-    C2
     9      1     10      8      9 ;   180.00   1.46440   1 ;     C3-     O-    C4-    C2
     9      1     10     15      9 ;     0.00   1.41001   3 ;     C3-     O-    C4-    H4
     9      1     10     16      9 ;     0.00   1.41001   3 ;     C3-     O-    C4-    H5
     9      7      3     18      9 ;     0.00   0.25104   3 ;     C3-    C1-    O2-    H7
     9      7      6     11      9 ;     0.00   0.65084   3 ;     C3-    C1-     C-     H
    10      1      9      5      9 ;     0.00   2.66381   3 ;     C4-     O-    C3-    O4
    10      1      9      5      9 ;     0.00   3.59824   2 ;     C4-     O-    C3-    O4
    10      1      9      5      9 ;   180.00   6.52704   1 ;     C4-     O-    C3-    O4
    10      1      9      7      9 ;     0.00   4.85344   3 ;     C4-     O-    C3-    C1
    10      1      9      7      9 ;     0.00   5.77392   2 ;     C4-     O-    C3-    C1
    10      1      9      7      9 ;   180.00   1.46440   1 ;     C4-     O-    C3-    C1
    10      1      9     14      9 ;     0.00   1.60387   3 ;     C4-     O-    C3-    H3
    10      8      4     19      9 ;     0.00   0.25104   3 ;     C4-    C2-    O3-    H8
    10      8      6     11      9 ;     0.00   0.65084   3 ;     C4-    C2-     C-     H
    11      6      2     17      9 ;     0.00   0.51463   3 ;      H-     C-    O1-    H6
    11      6      7     12      9 ;     0.00   0.65084   3 ;      H-     C-    C1-    H1
    11      6      8     13      9 ;     0.00   0.65084   3 ;      H-     C-    C2-    H2
    12      7      3     18      9 ;     0.00   0.51463   3 ;     H1-    C1-    O2-    H7
    12      7      9     14      9 ;     0.00   0.65084   3 ;     H1-    C1-    C3-    H3
    13      8      4     19      9 ;     0.00   0.51463   3 ;     H2-    C2-    O3-    H8
    13      8     10     15      9 ;     0.00   0.65084   3 ;     H2-    C2-    C4-    H4
    13      8     10     16      9 ;     0.00   0.65084   3 ;     H2-    C2-    C4-    H5
    14      9      5     20      9 ;     0.00   0.69733   3 ;     H3-    C3-    O4-    H9
