ribose_GMX.gro created by acpype (v: 2023.10.27) on Mon Feb  9 17:57:29 2026
 20
    1  UNL    O    1  -0.015  -0.178   0.041
    1  UNL   O1    2   0.028   0.135  -0.115
    1  UNL   O2    3  -0.203   0.137   0.050
    1  UNL   O3    4   0.270   0.047  -0.009
    1  UNL   O4    5  -0.154  -0.079  -0.123
    1  UNL    C    6   0.037   0.106   0.025
    1  UNL   C1    7  -0.095   0.049   0.077
    1  UNL   C2    8   0.148   0.003   0.048
    1  UNL   C3    9  -0.125  -0.089   0.016
    1  UNL   C4   10   0.109  -0.132  -0.012
    1  UNL    H   11   0.061   0.201   0.074
    1  UNL   H1   12  -0.087   0.038   0.186
    1  UNL   H2   13   0.163  -0.008   0.156
    1  UNL   H3   14  -0.213  -0.131   0.065
    1  UNL   H4   15   0.105  -0.128  -0.121
    1  UNL   H5   16   0.186  -0.206   0.013
    1  UNL   H6   17  -0.047   0.196  -0.127
    1  UNL   H7   18  -0.284   0.097   0.086
    1  UNL   H8   19   0.255   0.062  -0.104
    1  UNL   H9   20  -0.211  -0.154  -0.146
   11.07800     8.14800     6.62600
