; ribose_GMX.top created by acpype (v: 2023.10.27) on Mon Feb  9 17:57:29 2026

[ defaults ]
; nbfunc        comb-rule       gen-pairs       fudgeLJ fudgeQQ
1               2               yes             0.5     0.8333333333

; Include ribose_GMX.itp topology
#include "ribose_GMX.itp"

; Ligand position restraints
#ifdef POSRES_LIG
#include "posre_ribose.itp"
#endif

[ system ]
 ribose

[ molecules ]
; Compound        nmols
 ribose           1     
