; ribose_GMX.itp created by acpype (v: 2023.10.27) on Mon Feb  9 17:57:29 2026

[ atomtypes ]
;name   bond_type     mass     charge   ptype   sigma         epsilon       Amb
 os       os          0.00000  0.00000   A     3.15610e-01   3.03758e-01 ; 1.77  0.0726
 oh       oh          0.00000  0.00000   A     3.24287e-01   3.89112e-01 ; 1.82  0.0930
 c6       c6          0.00000  0.00000   A     3.39771e-01   4.51035e-01 ; 1.91  0.1078
 h1       h1          0.00000  0.00000   A     2.42200e-01   8.70272e-02 ; 1.36  0.0208
 h2       h2          0.00000  0.00000   A     2.24382e-01   8.70272e-02 ; 1.26  0.0208
 ho       ho          0.00000  0.00000   A     5.37925e-02   1.96648e-02 ; 0.30  0.0047

[ moleculetype ]
;name            nrexcl
 ribose           3

[ atoms ]
;   nr  type  resi  res  atom  cgnr     charge      mass       ; qtot   bond_type
     1   os     1   UNL     O    1    -0.438600     16.00000 ; qtot -0.439
     2   oh     1   UNL    O1    2    -0.600800     16.00000 ; qtot -1.039
     3   oh     1   UNL    O2    3    -0.576800     16.00000 ; qtot -1.616
     4   oh     1   UNL    O3    4    -0.583800     16.00000 ; qtot -2.200
     5   oh     1   UNL    O4    5    -0.641800     16.00000 ; qtot -2.842
     6   c6     1   UNL     C    6     0.074100     12.01000 ; qtot -2.768
     7   c6     1   UNL    C1    7     0.104100     12.01000 ; qtot -2.664
     8   c6     1   UNL    C2    8     0.084100     12.01000 ; qtot -2.579
     9   c6     1   UNL    C3    9     0.290900     12.01000 ; qtot -2.289
    10   c6     1   UNL    C4   10     0.095400     12.01000 ; qtot -2.193
    11   h1     1   UNL     H   11     0.103700      1.00800 ; qtot -2.089
    12   h1     1   UNL    H1   12     0.096700      1.00800 ; qtot -1.993
    13   h1     1   UNL    H2   13     0.090700      1.00800 ; qtot -1.902
    14   h2     1   UNL    H3   14     0.089700      1.00800 ; qtot -1.812
    15   h1     1   UNL    H4   15     0.062700      1.00800 ; qtot -1.750
    16   h1     1   UNL    H5   16     0.062700      1.00800 ; qtot -1.687
    17   ho     1   UNL    H6   17     0.419000      1.00800 ; qtot -1.268
    18   ho     1   UNL    H7   18     0.424000      1.00800 ; qtot -0.844
    19   ho     1   UNL    H8   19     0.415000      1.00800 ; qtot -0.429
    20   ho     1   UNL    H9   20     0.429000      1.00800 ; qtot 0.000

[ bonds ]
;   ai     aj funct   r             k
     1      9   1    1.4300e-01    2.3412e+05 ;      O - C3    
     1     10   1    1.4300e-01    2.3412e+05 ;      O - C4    
     2      6   1    1.4241e-01    2.3870e+05 ;     O1 - C     
     2     17   1    9.7250e-02    4.4811e+05 ;     O1 - H6    
     3      7   1    1.4241e-01    2.3870e+05 ;     O2 - C1    
     3     18   1    9.7250e-02    4.4811e+05 ;     O2 - H7    
     4      8   1    1.4241e-01    2.3870e+05 ;     O3 - C2    
     4     19   1    9.7250e-02    4.4811e+05 ;     O3 - H8    
     5      9   1    1.4241e-01    2.3870e+05 ;     O4 - C3    
     5     20   1    9.7250e-02    4.4811e+05 ;     O4 - H9    
     6      7   1    1.5384e-01    1.8979e+05 ;      C - C1    
     6      8   1    1.5384e-01    1.8979e+05 ;      C - C2    
     6     11   1    1.0984e-01    2.8620e+05 ;      C - H     
     7      9   1    1.5384e-01    1.8979e+05 ;     C1 - C3    
     7     12   1    1.0984e-01    2.8620e+05 ;     C1 - H1    
     8     10   1    1.5384e-01    1.8979e+05 ;     C2 - C4    
     8     13   1    1.0984e-01    2.8620e+05 ;     C2 - H2    
     9     14   1    1.0985e-01    2.8609e+05 ;     C3 - H3    
    10     15   1    1.0984e-01    2.8620e+05 ;     C4 - H4    
    10     16   1    1.0984e-01    2.8620e+05 ;     C4 - H5    

[ pairs ]
;   ai     aj    funct
     1      3      1 ;      O - O2    
     1      4      1 ;      O - O3    
     1      6      1 ;      O - C     
     1     12      1 ;      O - H1    
     1     13      1 ;      O - H2    
     1     20      1 ;      O - H9    
     2      3      1 ;     O1 - O2    
     2      4      1 ;     O1 - O3    
     2      9      1 ;     O1 - C3    
     2     10      1 ;     O1 - C4    
     2     12      1 ;     O1 - H1    
     2     13      1 ;     O1 - H2    
     3      5      1 ;     O2 - O4    
     3      8      1 ;     O2 - C2    
     3     11      1 ;     O2 - H     
     3     14      1 ;     O2 - H3    
     4      7      1 ;     O3 - C1    
     4     11      1 ;     O3 - H     
     4     15      1 ;     O3 - H4    
     4     16      1 ;     O3 - H5    
     5      6      1 ;     O4 - C     
     5     12      1 ;     O4 - H1    
     6     14      1 ;      C - H3    
     6     15      1 ;      C - H4    
     6     16      1 ;      C - H5    
     6     18      1 ;      C - H7    
     6     19      1 ;      C - H8    
     7     10      1 ;     C1 - C4    
     7     13      1 ;     C1 - H2    
     7     17      1 ;     C1 - H6    
     7     20      1 ;     C1 - H9    
     8      9      1 ;     C2 - C3    
     8     12      1 ;     C2 - H1    
     8     17      1 ;     C2 - H6    
     9     11      1 ;     C3 - H     
     9     15      1 ;     C3 - H4    
     9     16      1 ;     C3 - H5    
     9     18      1 ;     C3 - H7    
    10      5      1 ;     C4 - O4    
    10     11      1 ;     C4 - H     
    10     14      1 ;     C4 - H3    
    10     19      1 ;     C4 - H8    
    11     12      1 ;      H - H1    
    11     13      1 ;      H - H2    
    11     17      1 ;      H - H6    
    12     14      1 ;     H1 - H3    
    12     18      1 ;     H1 - H7    
    13     15      1 ;     H2 - H4    
    13     16      1 ;     H2 - H5    
    13     19      1 ;     H2 - H8    
    14     20      1 ;     H3 - H9    

[ angles ]
;   ai     aj     ak    funct   theta         cth
     1      9      5      1    1.0868e+02    8.2090e+02 ;      O - C3     - O4    
     1      9      7      1    1.1009e+02    6.3948e+02 ;      O - C3     - C1    
     1      9     14      1    1.0944e+02    4.7137e+02 ;      O - C3     - H3    
     1     10      8      1    1.1009e+02    6.3948e+02 ;      O - C4     - C2    
     1     10     15      1    1.0808e+02    4.7430e+02 ;      O - C4     - H4    
     1     10     16      1    1.0808e+02    4.7430e+02 ;      O - C4     - H5    
     2      6      7      1    1.1005e+02    6.4065e+02 ;     O1 - C      - C1    
     2      6      8      1    1.1005e+02    6.4065e+02 ;     O1 - C      - C2    
     2      6     11      1    1.0996e+02    4.7187e+02 ;     O1 - C      - H     
     3      7      6      1    1.1005e+02    6.4065e+02 ;     O2 - C1     - C     
     3      7      9      1    1.1005e+02    6.4065e+02 ;     O2 - C1     - C3    
     3      7     12      1    1.0996e+02    4.7187e+02 ;     O2 - C1     - H1    
     4      8      6      1    1.1005e+02    6.4065e+02 ;     O3 - C2     - C     
     4      8     10      1    1.1005e+02    6.4065e+02 ;     O3 - C2     - C4    
     4      8     13      1    1.0996e+02    4.7187e+02 ;     O3 - C2     - H2    
     5      9      7      1    1.1005e+02    6.4065e+02 ;     O4 - C3     - C1    
     5      9     14      1    1.0971e+02    4.7237e+02 ;     O4 - C3     - H3    
     6      2     17      1    1.0707e+02    5.4584e+02 ;      C - O1     - H6    
     6      7      9      1    1.1106e+02    5.0359e+02 ;      C - C1     - C3    
     6      7     12      1    1.0918e+02    3.6217e+02 ;      C - C1     - H1    
     6      8     10      1    1.1106e+02    5.0359e+02 ;      C - C2     - C4    
     6      8     13      1    1.0918e+02    3.6217e+02 ;      C - C2     - H2    
     7      3     18      1    1.0707e+02    5.4584e+02 ;     C1 - O2     - H7    
     7      6      8      1    1.1106e+02    5.0359e+02 ;     C1 - C      - C2    
     7      6     11      1    1.0918e+02    3.6217e+02 ;     C1 - C      - H     
     7      9     14      1    1.0998e+02    3.6083e+02 ;     C1 - C3     - H3    
     8      4     19      1    1.0707e+02    5.4584e+02 ;     C2 - O3     - H8    
     8      6     11      1    1.0918e+02    3.6217e+02 ;     C2 - C      - H     
     8     10     15      1    1.0918e+02    3.6217e+02 ;     C2 - C4     - H4    
     8     10     16      1    1.0918e+02    3.6217e+02 ;     C2 - C4     - H5    
     9      1     10      1    1.1330e+02    7.3873e+02 ;     C3 - O      - C4    
     9      5     20      1    1.0707e+02    5.4584e+02 ;     C3 - O4     - H9    
     9      7     12      1    1.0918e+02    3.6217e+02 ;     C3 - C1     - H1    
    10      8     13      1    1.0918e+02    3.6217e+02 ;     C4 - C2     - H2    
    15     10     16      1    1.0750e+02    2.9932e+02 ;     H4 - C4     - H5    

[ dihedrals ] ; propers
; for gromacs 4.5 or higher, using funct 9
;    i      j      k      l   func   phase     kd      pn
     1      9      5     20      9     0.00   0.69733   3 ;      O-    C3-    O4-    H9
     1      9      7      3      9     0.00   4.47688   3 ;      O-    C3-    C1-    O2
     1      9      7      3      9   180.00   2.80328   1 ;      O-    C3-    C1-    O2
     1      9      7      3      9   180.00   3.05432   2 ;      O-    C3-    C1-    O2
     1      9      7      6      9     0.00   0.65084   3 ;      O-    C3-    C1-     C
     1      9      7     12      9     0.00   0.00000   0 ;      O-    C3-    C1-    H1
     1      9      7     12      9     0.00   1.04600   1 ;      O-    C3-    C1-    H1
     1     10      8      4      9     0.00   4.47688   3 ;      O-    C4-    C2-    O3
     1     10      8      4      9   180.00   2.80328   1 ;      O-    C4-    C2-    O3
     1     10      8      4      9   180.00   3.05432   2 ;      O-    C4-    C2-    O3
     1     10      8      6      9     0.00   0.65084   3 ;      O-    C4-    C2-     C
     1     10      8     13      9     0.00   0.00000   0 ;      O-    C4-    C2-    H2
     1     10      8     13      9     0.00   1.04600   1 ;      O-    C4-    C2-    H2
     2      6      7      3      9     0.00   4.18400   1 ;     O1-     C-    C1-    O2
     2      6      7      3      9     0.00   6.02496   3 ;     O1-     C-    C1-    O2
     2      6      7      9      9     0.00   0.75312   3 ;     O1-     C-    C1-    C3
     2      6      7     12      9     0.00   0.00000   0 ;     O1-     C-    C1-    H1
     2      6      7     12      9     0.00   1.04600   1 ;     O1-     C-    C1-    H1
     2      6      8      4      9     0.00   4.18400   1 ;     O1-     C-    C2-    O3
     2      6      8      4      9     0.00   6.02496   3 ;     O1-     C-    C2-    O3
     2      6      8     10      9     0.00   0.75312   3 ;     O1-     C-    C2-    C4
     2      6      8     13      9     0.00   0.00000   0 ;     O1-     C-    C2-    H2
     2      6      8     13      9     0.00   1.04600   1 ;     O1-     C-    C2-    H2
     3      7      6      8      9     0.00   0.75312   3 ;     O2-    C1-     C-    C2
     3      7      6     11      9     0.00   0.00000   0 ;     O2-    C1-     C-     H
     3      7      6     11      9     0.00   1.04600   1 ;     O2-    C1-     C-     H
     3      7      9      5      9     0.00   4.18400   1 ;     O2-    C1-    C3-    O4
     3      7      9      5      9     0.00   6.02496   3 ;     O2-    C1-    C3-    O4
     3      7      9     14      9     0.00   0.65084   3 ;     O2-    C1-    C3-    H3
     4      8      6      7      9     0.00   0.75312   3 ;     O3-    C2-     C-    C1
     4      8      6     11      9     0.00   0.00000   0 ;     O3-    C2-     C-     H
     4      8      6     11      9     0.00   1.04600   1 ;     O3-    C2-     C-     H
     4      8     10     15      9     0.00   0.00000   0 ;     O3-    C2-    C4-    H4
     4      8     10     15      9     0.00   1.04600   1 ;     O3-    C2-    C4-    H4
     4      8     10     16      9     0.00   0.00000   0 ;     O3-    C2-    C4-    H5
     4      8     10     16      9     0.00   1.04600   1 ;     O3-    C2-    C4-    H5
     5      9      7      6      9     0.00   0.75312   3 ;     O4-    C3-    C1-     C
     5      9      7     12      9     0.00   0.00000   0 ;     O4-    C3-    C1-    H1
     5      9      7     12      9     0.00   1.04600   1 ;     O4-    C3-    C1-    H1
     6      7      3     18      9     0.00   0.25104   3 ;      C-    C1-    O2-    H7
     6      7      9     14      9     0.00   0.65084   3 ;      C-    C1-    C3-    H3
     6      8      4     19      9     0.00   0.25104   3 ;      C-    C2-    O3-    H8
     6      8     10     15      9     0.00   0.65084   3 ;      C-    C2-    C4-    H4
     6      8     10     16      9     0.00   0.65084   3 ;      C-    C2-    C4-    H5
     7      6      2     17      9     0.00   0.25104   3 ;     C1-     C-    O1-    H6
     7      6      8     10      9     0.00   2.17568   3 ;     C1-     C-    C2-    C4
     7      6      8     13      9     0.00   0.65084   3 ;     C1-     C-    C2-    H2
     7      9      5     20      9     0.00   0.25104   3 ;     C1-    C3-    O4-    H9
     8      6      2     17      9     0.00   0.25104   3 ;     C2-     C-    O1-    H6
     8      6      7      9      9     0.00   2.17568   3 ;     C2-     C-    C1-    C3
     8      6      7     12      9     0.00   0.65084   3 ;     C2-     C-    C1-    H1
     9      1     10      8      9     0.00   4.85344   3 ;     C3-     O-    C4-    C2
     9      1     10      8      9     0.00   5.77392   2 ;     C3-     O-    C4-    C2
     9      1     10      8      9   180.00   1.46440   1 ;     C3-     O-    C4-    C2
     9      1     10     15      9     0.00   1.41001   3 ;     C3-     O-    C4-    H4
     9      1     10     16      9     0.00   1.41001   3 ;     C3-     O-    C4-    H5
     9      7      3     18      9     0.00   0.25104   3 ;     C3-    C1-    O2-    H7
     9      7      6     11      9     0.00   0.65084   3 ;     C3-    C1-     C-     H
    10      1      9      5      9     0.00   2.66381   3 ;     C4-     O-    C3-    O4
    10      1      9      5      9     0.00   3.59824   2 ;     C4-     O-    C3-    O4
    10      1      9      5      9   180.00   6.52704   1 ;     C4-     O-    C3-    O4
    10      1      9      7      9     0.00   4.85344   3 ;     C4-     O-    C3-    C1
    10      1      9      7      9     0.00   5.77392   2 ;     C4-     O-    C3-    C1
    10      1      9      7      9   180.00   1.46440   1 ;     C4-     O-    C3-    C1
    10      1      9     14      9     0.00   1.60387   3 ;     C4-     O-    C3-    H3
    10      8      4     19      9     0.00   0.25104   3 ;     C4-    C2-    O3-    H8
    10      8      6     11      9     0.00   0.65084   3 ;     C4-    C2-     C-     H
    11      6      2     17      9     0.00   0.51463   3 ;      H-     C-    O1-    H6
    11      6      7     12      9     0.00   0.65084   3 ;      H-     C-    C1-    H1
    11      6      8     13      9     0.00   0.65084   3 ;      H-     C-    C2-    H2
    12      7      3     18      9     0.00   0.51463   3 ;     H1-    C1-    O2-    H7
    12      7      9     14      9     0.00   0.65084   3 ;     H1-    C1-    C3-    H3
    13      8      4     19      9     0.00   0.51463   3 ;     H2-    C2-    O3-    H8
    13      8     10     15      9     0.00   0.65084   3 ;     H2-    C2-    C4-    H4
    13      8     10     16      9     0.00   0.65084   3 ;     H2-    C2-    C4-    H5
    14      9      5     20      9     0.00   0.69733   3 ;     H3-    C3-    O4-    H9
