10975657
    20
  -0.1510000  -1.7830000   0.4100000   0.2770000   1.3490000  -1.1450000
  -2.0290000   1.3730000   0.5020000   2.7020000   0.4720000  -0.0890000
  -1.5430000  -0.7860000  -1.2260000   0.3700000   1.0650000   0.2520000
  -0.9500000   0.4860000   0.7670000   1.4770000   0.0340000   0.4810000
  -1.2450000  -0.8930000   0.1630000   1.0930000  -1.3170000  -0.1160000
   0.6100000   2.0140000   0.7450000  -0.8650000   0.3810000   1.8560000
   1.6310000  -0.0830000   1.5610000  -2.1330000  -1.3110000   0.6500000
   1.0460000  -1.2830000  -1.2110000   1.8600000  -2.0600000   0.1290000
  -0.4730000   1.9560000  -1.2670000  -2.8370000   0.9680000   0.8610000
   2.5520000   0.6170000  -1.0390000  -2.1090000  -1.5420000  -1.4570000
