lidocaine_GMX.gro created by acpype (v: 2023.10.27) on Mon Feb  9 17:52:46 2026
 39
    1  UNL    O    1   0.067  -0.013   0.146
    1  UNL    N    2   0.309  -0.005   0.015
    1  UNL   N1    3  -0.040  -0.040  -0.061
    1  UNL    C    4   0.197  -0.073  -0.048
    1  UNL   C1    5   0.290   0.140   0.013
    1  UNL   C2    6   0.435  -0.041  -0.051
    1  UNL   C3    7  -0.176  -0.013  -0.031
    1  UNL   C4    8   0.069  -0.038   0.026
    1  UNL   C5    9  -0.259  -0.117   0.007
    1  UNL   C6   10  -0.223   0.117  -0.040
    1  UNL   C7   11   0.407   0.212   0.079
    1  UNL   C8   12   0.459  -0.191  -0.044
    1  UNL   C9   13  -0.392  -0.091   0.037
    1  UNL  C10   14  -0.357   0.143  -0.011
    1  UNL  C11   15  -0.209  -0.258   0.017
    1  UNL  C12   16  -0.135   0.231  -0.081
    1  UNL  C13   17  -0.442   0.039   0.028
    1  UNL    H   18   0.189  -0.045  -0.154
    1  UNL   H1   19   0.204  -0.182  -0.041
    1  UNL   H2   20   0.279   0.177  -0.090
    1  UNL   H3   21   0.201   0.170   0.068
    1  UNL   H4   22   0.437  -0.008  -0.155
    1  UNL   H5   23   0.520   0.004  -0.000
    1  UNL   H6   24  -0.026  -0.081  -0.153
    1  UNL   H7   25   0.432   0.168   0.176
    1  UNL   H8   26   0.496   0.214   0.016
    1  UNL   H9   27   0.380   0.316   0.097
    1  UNL  H10   28   0.445  -0.230   0.057
    1  UNL  H11   29   0.395  -0.247  -0.113
    1  UNL  H12   30   0.562  -0.213  -0.073
    1  UNL  H13   31  -0.460  -0.171   0.067
    1  UNL  H14   32  -0.397   0.244  -0.017
    1  UNL  H15   33  -0.165  -0.290  -0.078
    1  UNL  H16   34  -0.134  -0.266   0.096
    1  UNL  H17   35  -0.290  -0.328   0.041
    1  UNL  H18   36  -0.087   0.210  -0.177
    1  UNL  H19   37  -0.192   0.324  -0.093
    1  UNL  H20   38  -0.058   0.248  -0.005
    1  UNL  H21   39  -0.546   0.059   0.051
   22.16400    13.03400     7.06400
