; lidocaine_GMX.itp created by acpype (v: 2023.10.27) on Mon Feb  9 17:52:46 2026

[ atomtypes ]
;name   bond_type     mass     charge   ptype   sigma         epsilon       Amb
 o        o           0.00000  0.00000   A     3.04812e-01   6.12119e-01 ; 1.71  0.1463
 n3       n3          0.00000  0.00000   A     3.36510e-01   3.58987e-01 ; 1.89  0.0858
 ns       ns          0.00000  0.00000   A     3.26995e-01   4.91202e-01 ; 1.84  0.1174
 c3       c3          0.00000  0.00000   A     3.39771e-01   4.51035e-01 ; 1.91  0.1078
 ca       ca          0.00000  0.00000   A     3.31521e-01   4.13379e-01 ; 1.86  0.0988
 c        c           0.00000  0.00000   A     3.31521e-01   4.13379e-01 ; 1.86  0.0988
 h1       h1          0.00000  0.00000   A     2.42200e-01   8.70272e-02 ; 1.36  0.0208
 hn       hn          0.00000  0.00000   A     1.10650e-01   4.18400e-02 ; 0.62  0.0100
 hc       hc          0.00000  0.00000   A     2.60018e-01   8.70272e-02 ; 1.46  0.0208
 ha       ha          0.00000  0.00000   A     2.62548e-01   6.73624e-02 ; 1.47  0.0161

[ moleculetype ]
;name            nrexcl
 lidocaine        3

[ atoms ]
;   nr  type  resi  res  atom  cgnr     charge      mass       ; qtot   bond_type
     1    o     1   UNL     O    1    -0.596100     16.00000 ; qtot -0.596
     2   n3     1   UNL     N    2    -0.748604     14.01000 ; qtot -1.345
     3   ns     1   UNL    N1    3    -0.459100     14.01000 ; qtot -1.804
     4   c3     1   UNL     C    4     0.090800     12.01000 ; qtot -1.713
     5   c3     1   UNL    C1    5     0.165800     12.01000 ; qtot -1.547
     6   c3     1   UNL    C2    6     0.165800     12.01000 ; qtot -1.381
     7   ca     1   UNL    C3    7     0.036600     12.01000 ; qtot -1.345
     8    c     1   UNL    C4    8     0.653100     12.01000 ; qtot -0.692
     9   ca     1   UNL    C5    9    -0.073800     12.01000 ; qtot -0.766
    10   ca     1   UNL    C6   10    -0.073800     12.01000 ; qtot -0.839
    11   c3     1   UNL    C7   11    -0.095600     12.01000 ; qtot -0.935
    12   c3     1   UNL    C8   12    -0.095600     12.01000 ; qtot -1.031
    13   ca     1   UNL    C9   13    -0.127000     12.01000 ; qtot -1.158
    14   ca     1   UNL   C10   14    -0.127000     12.01000 ; qtot -1.285
    15   c3     1   UNL   C11   15    -0.059300     12.01000 ; qtot -1.344
    16   c3     1   UNL   C12   16    -0.059300     12.01000 ; qtot -1.403
    17   ca     1   UNL   C13   17    -0.129000     12.01000 ; qtot -1.532
    18   h1     1   UNL     H   18     0.066200      1.00800 ; qtot -1.466
    19   h1     1   UNL    H1   19     0.066200      1.00800 ; qtot -1.400
    20   h1     1   UNL    H2   20     0.037200      1.00800 ; qtot -1.363
    21   h1     1   UNL    H3   21     0.037200      1.00800 ; qtot -1.325
    22   h1     1   UNL    H4   22     0.037200      1.00800 ; qtot -1.288
    23   h1     1   UNL    H5   23     0.037200      1.00800 ; qtot -1.251
    24   hn     1   UNL    H6   24     0.325500      1.00800 ; qtot -0.925
    25   hc     1   UNL    H7   25     0.039867      1.00800 ; qtot -0.886
    26   hc     1   UNL    H8   26     0.039867      1.00800 ; qtot -0.846
    27   hc     1   UNL    H9   27     0.039867      1.00800 ; qtot -0.806
    28   hc     1   UNL   H10   28     0.039867      1.00800 ; qtot -0.766
    29   hc     1   UNL   H11   29     0.039867      1.00800 ; qtot -0.726
    30   hc     1   UNL   H12   30     0.039867      1.00800 ; qtot -0.686
    31   ha     1   UNL   H13   31     0.132000      1.00800 ; qtot -0.554
    32   ha     1   UNL   H14   32     0.132000      1.00800 ; qtot -0.422
    33   hc     1   UNL   H15   33     0.048367      1.00800 ; qtot -0.374
    34   hc     1   UNL   H16   34     0.048367      1.00800 ; qtot -0.325
    35   hc     1   UNL   H17   35     0.048367      1.00800 ; qtot -0.277
    36   hc     1   UNL   H18   36     0.048367      1.00800 ; qtot -0.229
    37   hc     1   UNL   H19   37     0.048367      1.00800 ; qtot -0.180
    38   hc     1   UNL   H20   38     0.048367      1.00800 ; qtot -0.132
    39   ha     1   UNL   H21   39     0.132000      1.00800 ; qtot -0.000

[ bonds ]
;   ai     aj funct   r             k
     1      8   1    1.2190e-01    4.9421e+05 ;      O - C4    
     2      4   1    1.4626e-01    2.1410e+05 ;      N - C     
     2      5   1    1.4626e-01    2.1410e+05 ;      N - C1    
     2      6   1    1.4626e-01    2.1410e+05 ;      N - C2    
     3      7   1    1.4070e-01    2.5667e+05 ;     N1 - C3    
     3      8   1    1.3798e-01    2.8122e+05 ;     N1 - C4    
     3     24   1    1.0132e-01    3.9630e+05 ;     N1 - H6    
     4      8   1    1.5270e-01    1.9652e+05 ;      C - C4    
     4     18   1    1.0969e-01    2.8804e+05 ;      C - H     
     4     19   1    1.0969e-01    2.8804e+05 ;      C - H1    
     5     11   1    1.5354e-01    1.9154e+05 ;     C1 - C7    
     5     20   1    1.0969e-01    2.8804e+05 ;     C1 - H2    
     5     21   1    1.0969e-01    2.8804e+05 ;     C1 - H3    
     6     12   1    1.5354e-01    1.9154e+05 ;     C2 - C8    
     6     22   1    1.0969e-01    2.8804e+05 ;     C2 - H4    
     6     23   1    1.0969e-01    2.8804e+05 ;     C2 - H5    
     7      9   1    1.3986e-01    2.9644e+05 ;     C3 - C5    
     7     10   1    1.3986e-01    2.9644e+05 ;     C3 - C6    
     9     13   1    1.3986e-01    2.9644e+05 ;     C5 - C9    
     9     15   1    1.5147e-01    2.0410e+05 ;     C5 - C11   
    10     14   1    1.3986e-01    2.9644e+05 ;     C6 - C10   
    10     16   1    1.5147e-01    2.0410e+05 ;     C6 - C12   
    11     25   1    1.0962e-01    2.8891e+05 ;     C7 - H7    
    11     26   1    1.0962e-01    2.8891e+05 ;     C7 - H8    
    11     27   1    1.0962e-01    2.8891e+05 ;     C7 - H9    
    12     28   1    1.0962e-01    2.8891e+05 ;     C8 - H10   
    12     29   1    1.0962e-01    2.8891e+05 ;     C8 - H11   
    12     30   1    1.0962e-01    2.8891e+05 ;     C8 - H12   
    13     17   1    1.3986e-01    2.9644e+05 ;     C9 - C13   
    13     31   1    1.0860e-01    3.0183e+05 ;     C9 - H13   
    14     17   1    1.3986e-01    2.9644e+05 ;    C10 - C13   
    14     32   1    1.0860e-01    3.0183e+05 ;    C10 - H14   
    15     33   1    1.0962e-01    2.8891e+05 ;    C11 - H15   
    15     34   1    1.0962e-01    2.8891e+05 ;    C11 - H16   
    15     35   1    1.0962e-01    2.8891e+05 ;    C11 - H17   
    16     36   1    1.0962e-01    2.8891e+05 ;    C12 - H18   
    16     37   1    1.0962e-01    2.8891e+05 ;    C12 - H19   
    16     38   1    1.0962e-01    2.8891e+05 ;    C12 - H20   
    17     39   1    1.0860e-01    3.0183e+05 ;    C13 - H21   

[ pairs ]
;   ai     aj    funct
     1      2      1 ;      O - N     
     1      7      1 ;      O - C3    
     1     18      1 ;      O - H     
     1     19      1 ;      O - H1    
     1     24      1 ;      O - H6    
     2      3      1 ;      N - N1    
     2     25      1 ;      N - H7    
     2     26      1 ;      N - H8    
     2     27      1 ;      N - H9    
     2     28      1 ;      N - H10   
     2     29      1 ;      N - H11   
     2     30      1 ;      N - H12   
     3     13      1 ;     N1 - C9    
     3     14      1 ;     N1 - C10   
     3     15      1 ;     N1 - C11   
     3     16      1 ;     N1 - C12   
     3     18      1 ;     N1 - H     
     3     19      1 ;     N1 - H1    
     4      7      1 ;      C - C3    
     4     11      1 ;      C - C7    
     4     12      1 ;      C - C8    
     4     20      1 ;      C - H2    
     4     21      1 ;      C - H3    
     4     22      1 ;      C - H4    
     4     23      1 ;      C - H5    
     4     24      1 ;      C - H6    
     5      8      1 ;     C1 - C4    
     5     12      1 ;     C1 - C8    
     5     18      1 ;     C1 - H     
     5     19      1 ;     C1 - H1    
     5     22      1 ;     C1 - H4    
     5     23      1 ;     C1 - H5    
     6      8      1 ;     C2 - C4    
     6     11      1 ;     C2 - C7    
     6     18      1 ;     C2 - H     
     6     19      1 ;     C2 - H1    
     6     20      1 ;     C2 - H2    
     6     21      1 ;     C2 - H3    
     7     17      1 ;     C3 - C13   
     7     31      1 ;     C3 - H13   
     7     32      1 ;     C3 - H14   
     7     33      1 ;     C3 - H15   
     7     34      1 ;     C3 - H16   
     7     35      1 ;     C3 - H17   
     7     36      1 ;     C3 - H18   
     7     37      1 ;     C3 - H19   
     7     38      1 ;     C3 - H20   
     8      9      1 ;     C4 - C5    
     8     10      1 ;     C4 - C6    
     9     14      1 ;     C5 - C10   
     9     16      1 ;     C5 - C12   
     9     24      1 ;     C5 - H6    
     9     39      1 ;     C5 - H21   
    10     13      1 ;     C6 - C9    
    10     15      1 ;     C6 - C11   
    10     24      1 ;     C6 - H6    
    10     39      1 ;     C6 - H21   
    13     32      1 ;     C9 - H14   
    13     33      1 ;     C9 - H15   
    13     34      1 ;     C9 - H16   
    13     35      1 ;     C9 - H17   
    14     31      1 ;    C10 - H13   
    14     36      1 ;    C10 - H18   
    14     37      1 ;    C10 - H19   
    14     38      1 ;    C10 - H20   
    15     17      1 ;    C11 - C13   
    15     31      1 ;    C11 - H13   
    16     17      1 ;    C12 - C13   
    16     32      1 ;    C12 - H14   
    20     25      1 ;     H2 - H7    
    20     26      1 ;     H2 - H8    
    20     27      1 ;     H2 - H9    
    21     25      1 ;     H3 - H7    
    21     26      1 ;     H3 - H8    
    21     27      1 ;     H3 - H9    
    22     28      1 ;     H4 - H10   
    22     29      1 ;     H4 - H11   
    22     30      1 ;     H4 - H12   
    23     28      1 ;     H5 - H10   
    23     29      1 ;     H5 - H11   
    23     30      1 ;     H5 - H12   
    31     39      1 ;    H13 - H21   
    32     39      1 ;    H14 - H21   

[ angles ]
;   ai     aj     ak    funct   theta         cth
     1      8      3      1    1.2305e+02    7.2977e+02 ;      O - C4     - N1    
     1      8      4      1    1.2290e+02    6.3973e+02 ;      O - C4     - C     
     2      4      8      1    1.1336e+02    5.4400e+02 ;      N - C      - C4    
     2      4     18      1    1.1009e+02    4.0033e+02 ;      N - C      - H     
     2      4     19      1    1.1009e+02    4.0033e+02 ;      N - C      - H1    
     2      5     11      1    1.1308e+02    5.4308e+02 ;      N - C1     - C7    
     2      5     20      1    1.1009e+02    4.0033e+02 ;      N - C1     - H2    
     2      5     21      1    1.1009e+02    4.0033e+02 ;      N - C1     - H3    
     2      6     12      1    1.1308e+02    5.4308e+02 ;      N - C2     - C8    
     2      6     22      1    1.1009e+02    4.0033e+02 ;      N - C2     - H4    
     2      6     23      1    1.1009e+02    4.0033e+02 ;      N - C2     - H5    
     3      7      9      1    1.2019e+02    5.6350e+02 ;     N1 - C3     - C5    
     3      7     10      1    1.2019e+02    5.6350e+02 ;     N1 - C3     - C6    
     3      8      4      1    1.1503e+02    5.5312e+02 ;     N1 - C4     - C     
     4      2      5      1    1.1242e+02    6.5061e+02 ;      C - N      - C1    
     4      2      6      1    1.1242e+02    6.5061e+02 ;      C - N      - C2    
     5      2      6      1    1.1242e+02    6.5061e+02 ;     C1 - N      - C2    
     5     11     25      1    1.0968e+02    3.6208e+02 ;     C1 - C7     - H7    
     5     11     26      1    1.0968e+02    3.6208e+02 ;     C1 - C7     - H8    
     5     11     27      1    1.0968e+02    3.6208e+02 ;     C1 - C7     - H9    
     6     12     28      1    1.0968e+02    3.6208e+02 ;     C2 - C8     - H10   
     6     12     29      1    1.0968e+02    3.6208e+02 ;     C2 - C8     - H11   
     6     12     30      1    1.0968e+02    3.6208e+02 ;     C2 - C8     - H12   
     7      3      8      1    1.2751e+02    6.4116e+02 ;     C3 - N1     - C4    
     7      3     24      1    1.1604e+02    4.7430e+02 ;     C3 - N1     - H6    
     7      9     13      1    1.2002e+02    5.3279e+02 ;     C3 - C5     - C9    
     7      9     15      1    1.2083e+02    5.0827e+02 ;     C3 - C5     - C11   
     7     10     14      1    1.2002e+02    5.3279e+02 ;     C3 - C6     - C10   
     7     10     16      1    1.2083e+02    5.0827e+02 ;     C3 - C6     - C12   
     8      3     24      1    1.1726e+02    4.8007e+02 ;     C4 - N1     - H6    
     8      4     18      1    1.0837e+02    3.6602e+02 ;     C4 - C      - H     
     8      4     19      1    1.0837e+02    3.6602e+02 ;     C4 - C      - H1    
     9      7     10      1    1.2002e+02    5.3279e+02 ;     C5 - C3     - C6    
     9     13     17      1    1.2002e+02    5.3279e+02 ;     C5 - C9     - C13   
     9     13     31      1    1.1988e+02    3.7572e+02 ;     C5 - C9     - H13   
     9     15     33      1    1.1063e+02    3.6493e+02 ;     C5 - C11    - H15   
     9     15     34      1    1.1063e+02    3.6493e+02 ;     C5 - C11    - H16   
     9     15     35      1    1.1063e+02    3.6493e+02 ;     C5 - C11    - H17   
    10     14     17      1    1.2002e+02    5.3279e+02 ;     C6 - C10    - C13   
    10     14     32      1    1.1988e+02    3.7572e+02 ;     C6 - C10    - H14   
    10     16     36      1    1.1063e+02    3.6493e+02 ;     C6 - C12    - H18   
    10     16     37      1    1.1063e+02    3.6493e+02 ;     C6 - C12    - H19   
    10     16     38      1    1.1063e+02    3.6493e+02 ;     C6 - C12    - H20   
    11      5     20      1    1.0959e+02    3.6217e+02 ;     C7 - C1     - H2    
    11      5     21      1    1.0959e+02    3.6217e+02 ;     C7 - C1     - H3    
    12      6     22      1    1.0959e+02    3.6217e+02 ;     C8 - C2     - H4    
    12      6     23      1    1.0959e+02    3.6217e+02 ;     C8 - C2     - H5    
    13      9     15      1    1.2083e+02    5.0827e+02 ;     C9 - C5     - C11   
    13     17     14      1    1.2002e+02    5.3279e+02 ;     C9 - C13    - C10   
    13     17     39      1    1.1988e+02    3.7572e+02 ;     C9 - C13    - H21   
    14     10     16      1    1.2083e+02    5.0827e+02 ;    C10 - C6     - C12   
    14     17     39      1    1.1988e+02    3.7572e+02 ;    C10 - C13    - H21   
    17     13     31      1    1.1988e+02    3.7572e+02 ;    C13 - C9     - H13   
    17     14     32      1    1.1988e+02    3.7572e+02 ;    C13 - C10    - H14   
    18      4     19      1    1.0855e+02    2.9824e+02 ;      H - C      - H1    
    20      5     21      1    1.0855e+02    2.9824e+02 ;     H2 - C1     - H3    
    22      6     23      1    1.0855e+02    2.9824e+02 ;     H4 - C2     - H5    
    25     11     26      1    1.0773e+02    2.9957e+02 ;     H7 - C7     - H8    
    25     11     27      1    1.0773e+02    2.9957e+02 ;     H7 - C7     - H9    
    26     11     27      1    1.0773e+02    2.9957e+02 ;     H8 - C7     - H9    
    28     12     29      1    1.0773e+02    2.9957e+02 ;    H10 - C8     - H11   
    28     12     30      1    1.0773e+02    2.9957e+02 ;    H10 - C8     - H12   
    29     12     30      1    1.0773e+02    2.9957e+02 ;    H11 - C8     - H12   
    33     15     34      1    1.0773e+02    2.9957e+02 ;    H15 - C11    - H16   
    33     15     35      1    1.0773e+02    2.9957e+02 ;    H15 - C11    - H17   
    34     15     35      1    1.0773e+02    2.9957e+02 ;    H16 - C11    - H17   
    36     16     37      1    1.0773e+02    2.9957e+02 ;    H18 - C12    - H19   
    36     16     38      1    1.0773e+02    2.9957e+02 ;    H18 - C12    - H20   
    37     16     38      1    1.0773e+02    2.9957e+02 ;    H19 - C12    - H20   

[ dihedrals ] ; propers
; for gromacs 4.5 or higher, using funct 9
;    i      j      k      l   func   phase     kd      pn
     1      8      3      7      9   180.00  10.46000   2 ;      O-    C4-    N1-    C3
     1      8      3     24      9     0.00   8.36800   1 ;      O-    C4-    N1-    H6
     1      8      3     24      9   180.00  10.46000   2 ;      O-    C4-    N1-    H6
     1      8      4      2      9   180.00   0.00000   2 ;      O-    C4-     C-     N
     1      8      4     18      9     0.00   3.34720   1 ;      O-    C4-     C-     H
     1      8      4     18      9   180.00   0.33472   3 ;      O-    C4-     C-     H
     1      8      4     19      9     0.00   3.34720   1 ;      O-    C4-     C-    H1
     1      8      4     19      9   180.00   0.33472   3 ;      O-    C4-     C-    H1
     2      4      8      3      9   180.00   0.00000   2 ;      N-     C-    C4-    N1
     2      5     11     25      9     0.00   0.41840   3 ;      N-    C1-    C7-    H7
     2      5     11     26      9     0.00   0.41840   3 ;      N-    C1-    C7-    H8
     2      5     11     27      9     0.00   0.41840   3 ;      N-    C1-    C7-    H9
     2      6     12     28      9     0.00   0.41840   3 ;      N-    C2-    C8-   H10
     2      6     12     29      9     0.00   0.41840   3 ;      N-    C2-    C8-   H11
     2      6     12     30      9     0.00   0.41840   3 ;      N-    C2-    C8-   H12
     3      7      9     13      9   180.00  15.16700   2 ;     N1-    C3-    C5-    C9
     3      7      9     15      9   180.00  15.16700   2 ;     N1-    C3-    C5-   C11
     3      7     10     14      9   180.00  15.16700   2 ;     N1-    C3-    C6-   C10
     3      7     10     16      9   180.00  15.16700   2 ;     N1-    C3-    C6-   C12
     3      8      4     18      9   180.00   0.00000   2 ;     N1-    C4-     C-     H
     3      8      4     19      9   180.00   0.00000   2 ;     N1-    C4-     C-    H1
     4      2      5     11      9     0.00   3.05432   3 ;      C-     N-    C1-    C7
     4      2      5     20      9     0.00   0.94140   3 ;      C-     N-    C1-    H2
     4      2      5     21      9     0.00   0.94140   3 ;      C-     N-    C1-    H3
     4      2      6     12      9     0.00   3.05432   3 ;      C-     N-    C2-    C8
     4      2      6     22      9     0.00   0.94140   3 ;      C-     N-    C2-    H4
     4      2      6     23      9     0.00   0.94140   3 ;      C-     N-    C2-    H5
     4      8      3      7      9     0.00   3.64008   3 ;      C-    C4-    N1-    C3
     4      8      3      7      9   180.00   4.30952   2 ;      C-    C4-    N1-    C3
     4      8      3      7      9   180.00   5.89944   1 ;      C-    C4-    N1-    C3
     4      8      3     24      9   180.00  10.46000   2 ;      C-    C4-    N1-    H6
     5      2      4      8      9     0.00   1.25520   3 ;     C1-     N-     C-    C4
     5      2      4     18      9     0.00   0.94140   3 ;     C1-     N-     C-     H
     5      2      4     19      9     0.00   0.94140   3 ;     C1-     N-     C-    H1
     5      2      6     12      9     0.00   3.05432   3 ;     C1-     N-    C2-    C8
     5      2      6     22      9     0.00   0.94140   3 ;     C1-     N-    C2-    H4
     5      2      6     23      9     0.00   0.94140   3 ;     C1-     N-    C2-    H5
     6      2      4      8      9     0.00   1.25520   3 ;     C2-     N-     C-    C4
     6      2      4     18      9     0.00   0.94140   3 ;     C2-     N-     C-     H
     6      2      4     19      9     0.00   0.94140   3 ;     C2-     N-     C-    H1
     6      2      5     11      9     0.00   3.05432   3 ;     C2-     N-    C1-    C7
     6      2      5     20      9     0.00   0.94140   3 ;     C2-     N-    C1-    H2
     6      2      5     21      9     0.00   0.94140   3 ;     C2-     N-    C1-    H3
     7      9     13     17      9   180.00  15.16700   2 ;     C3-    C5-    C9-   C13
     7      9     13     31      9   180.00  15.16700   2 ;     C3-    C5-    C9-   H13
     7      9     15     33      9     0.00   0.00000   0 ;     C3-    C5-   C11-   H15
     7      9     15     34      9     0.00   0.00000   0 ;     C3-    C5-   C11-   H16
     7      9     15     35      9     0.00   0.00000   0 ;     C3-    C5-   C11-   H17
     7     10     14     17      9   180.00  15.16700   2 ;     C3-    C6-   C10-   C13
     7     10     14     32      9   180.00  15.16700   2 ;     C3-    C6-   C10-   H14
     7     10     16     36      9     0.00   0.00000   0 ;     C3-    C6-   C12-   H18
     7     10     16     37      9     0.00   0.00000   0 ;     C3-    C6-   C12-   H19
     7     10     16     38      9     0.00   0.00000   0 ;     C3-    C6-   C12-   H20
     8      3      7      9      9   180.00   5.89944   2 ;     C4-    N1-    C3-    C5
     8      3      7     10      9   180.00   5.89944   2 ;     C4-    N1-    C3-    C6
     9      7      3     24      9   180.00   1.88280   2 ;     C5-    C3-    N1-    H6
     9      7     10     14      9   180.00  15.16700   2 ;     C5-    C3-    C6-   C10
     9      7     10     16      9   180.00  15.16700   2 ;     C5-    C3-    C6-   C12
     9     13     17     14      9   180.00  15.16700   2 ;     C5-    C9-   C13-   C10
     9     13     17     39      9   180.00  15.16700   2 ;     C5-    C9-   C13-   H21
    10      7      3     24      9   180.00   1.88280   2 ;     C6-    C3-    N1-    H6
    10      7      9     13      9   180.00  15.16700   2 ;     C6-    C3-    C5-    C9
    10      7      9     15      9   180.00  15.16700   2 ;     C6-    C3-    C5-   C11
    10     14     17     13      9   180.00  15.16700   2 ;     C6-   C10-   C13-    C9
    10     14     17     39      9   180.00  15.16700   2 ;     C6-   C10-   C13-   H21
    13      9     15     33      9     0.00   0.00000   0 ;     C9-    C5-   C11-   H15
    13      9     15     34      9     0.00   0.00000   0 ;     C9-    C5-   C11-   H16
    13      9     15     35      9     0.00   0.00000   0 ;     C9-    C5-   C11-   H17
    13     17     14     32      9   180.00  15.16700   2 ;     C9-   C13-   C10-   H14
    14     10     16     36      9     0.00   0.00000   0 ;    C10-    C6-   C12-   H18
    14     10     16     37      9     0.00   0.00000   0 ;    C10-    C6-   C12-   H19
    14     10     16     38      9     0.00   0.00000   0 ;    C10-    C6-   C12-   H20
    14     17     13     31      9   180.00  15.16700   2 ;    C10-   C13-    C9-   H13
    15      9     13     17      9   180.00  15.16700   2 ;    C11-    C5-    C9-   C13
    15      9     13     31      9   180.00  15.16700   2 ;    C11-    C5-    C9-   H13
    16     10     14     17      9   180.00  15.16700   2 ;    C12-    C6-   C10-   C13
    16     10     14     32      9   180.00  15.16700   2 ;    C12-    C6-   C10-   H14
    20      5     11     25      9     0.00   0.65084   3 ;     H2-    C1-    C7-    H7
    20      5     11     26      9     0.00   0.65084   3 ;     H2-    C1-    C7-    H8
    20      5     11     27      9     0.00   0.65084   3 ;     H2-    C1-    C7-    H9
    21      5     11     25      9     0.00   0.65084   3 ;     H3-    C1-    C7-    H7
    21      5     11     26      9     0.00   0.65084   3 ;     H3-    C1-    C7-    H8
    21      5     11     27      9     0.00   0.65084   3 ;     H3-    C1-    C7-    H9
    22      6     12     28      9     0.00   0.65084   3 ;     H4-    C2-    C8-   H10
    22      6     12     29      9     0.00   0.65084   3 ;     H4-    C2-    C8-   H11
    22      6     12     30      9     0.00   0.65084   3 ;     H4-    C2-    C8-   H12
    23      6     12     28      9     0.00   0.65084   3 ;     H5-    C2-    C8-   H10
    23      6     12     29      9     0.00   0.65084   3 ;     H5-    C2-    C8-   H11
    23      6     12     30      9     0.00   0.65084   3 ;     H5-    C2-    C8-   H12
    31     13     17     39      9   180.00  15.16700   2 ;    H13-    C9-   C13-   H21
    32     14     17     39      9   180.00  15.16700   2 ;    H14-   C10-   C13-   H21

[ dihedrals ] ; impropers
; treated as propers in GROMACS to use correct AMBER analytical function
;    i      j      k      l   func   phase     kd      pn
     1      8      3      4      4   180.00  43.93200   2 ;      O-    C4-    N1-     C
     7     13      9     15      4   180.00   4.60240   2 ;     C3-    C9-    C5-   C11
     8      7      3     24      4   180.00   4.60240   2 ;     C4-    C3-    N1-    H6
     9     10      7      3      4   180.00   4.60240   2 ;     C5-    C6-    C3-    N1
     9     17     13     31      4   180.00   4.60240   2 ;     C5-   C13-    C9-   H13
    10     17     14     32      4   180.00   4.60240   2 ;     C6-   C13-   C10-   H14
    13     14     17     39      4   180.00   4.60240   2 ;     C9-   C10-   C13-   H21
    16      7     10     14      4   180.00   4.60240   2 ;    C12-    C3-    C6-   C10
