3676
    39
   0.6660000  -0.1340000   1.4610000   3.0940000  -0.0510000   0.1540000
  -0.3990000  -0.3960000  -0.6150000   1.9650000  -0.7260000  -0.4840000
   2.9040000   1.3990000   0.1310000   4.3470000  -0.4130000  -0.5090000
  -1.7560000  -0.1300000  -0.3120000   0.6850000  -0.3830000   0.2600000
  -2.5860000  -1.1740000   0.0690000  -2.2320000   1.1690000  -0.4030000
   4.0690000   2.1160000   0.7900000   4.5920000  -1.9110000  -0.4400000
  -3.9230000  -0.9120000   0.3660000  -3.5700000   1.4310000  -0.1050000
  -2.0880000  -2.5790000   0.1710000  -1.3510000   2.3050000  -0.8120000
  -4.4150000   0.3900000   0.2790000   1.8850000  -0.4520000  -1.5440000
   2.0400000  -1.8160000  -0.4140000   2.7850000   1.7720000  -0.8950000
   2.0090000   1.7020000   0.6820000   4.3690000  -0.0810000  -1.5550000
   5.2030000   0.0400000  -0.0000000  -0.2550000  -0.8080000  -1.5340000
   4.3240000   1.6750000   1.7590000   4.9620000   2.1380000   0.1580000
   3.7960000   3.1620000   0.9730000   4.4520000  -2.2990000   0.5740000
   3.9510000  -2.4720000  -1.1270000   5.6250000  -2.1270000  -0.7330000
  -4.5960000  -1.7110000   0.6680000  -3.9700000   2.4390000  -0.1670000
  -1.6510000  -2.9030000  -0.7800000  -1.3360000  -2.6620000   0.9620000
  -2.8950000  -3.2810000   0.4100000  -0.8720000   2.0950000  -1.7730000
  -1.9160000   3.2360000  -0.9310000  -0.5810000   2.4820000  -0.0540000
  -5.4570000   0.5940000   0.5110000
