%VERSION  VERSION_STAMP = V0001.000  DATE = 02/09/26  17:54:09                  
%FLAG TITLE                                                                     
%FORMAT(20a4)                                                                   
3676                                                                            
%FLAG POINTERS                                                                  
%FORMAT(10I8)                                                                   
      39       9      22      17      47      22      67      32       0       0
     198       1      17      22      32      12      20      19      10       0
       0       0       0       0       0       0       0       0      39       0
       0
%FLAG ATOM_NAME                                                                 
%FORMAT(20a4)                                                                   
O   N   N1  C   C1  C2  C3  C4  C5  C6  C7  C8  C9  C10 C11 C12 C13 H   H1  H2  
H3  H4  H5  H6  H7  H8  H9  H10 H11 H12 H13 H14 H15 H16 H17 H18 H19 H20 H21 
%FLAG CHARGE                                                                    
%FORMAT(5E16.8)                                                                 
 -1.08623130E+01 -1.36412138E+01 -8.36585793E+00  1.65458484E+00  3.02125734E+00
  3.02125734E+00  6.66936180E-01  1.19009841E+01 -1.34480574E+00 -1.34480574E+00
 -1.74205188E+00 -1.74205188E+00 -2.31423210E+00 -2.31423210E+00 -1.08058239E+00
 -1.08058239E+00 -2.35067670E+00  1.20631626E+00  1.20631626E+00  6.77869560E-01
  6.77869560E-01  6.77869560E-01  6.77869560E-01  5.93135865E+00  7.26468434E-01
  7.26468434E-01  7.26468434E-01  7.26468434E-01  7.26468434E-01  7.26468434E-01
  2.40534360E+00  2.40534360E+00  8.81357984E-01  8.81357984E-01  8.81357984E-01
  8.81357984E-01  8.81357984E-01  8.81357984E-01  2.40534360E+00
%FLAG ATOMIC_NUMBER                                                             
%FORMAT(10I8)                                                                   
       8       7       7       6       6       6       6       6       6       6
       6       6       6       6       6       6       6       1       1       1
       1       1       1       1       1       1       1       1       1       1
       1       1       1       1       1       1       1       1       1
%FLAG MASS                                                                      
%FORMAT(5E16.8)                                                                 
  1.60000000E+01  1.40100000E+01  1.40100000E+01  1.20100000E+01  1.20100000E+01
  1.20100000E+01  1.20100000E+01  1.20100000E+01  1.20100000E+01  1.20100000E+01
  1.20100000E+01  1.20100000E+01  1.20100000E+01  1.20100000E+01  1.20100000E+01
  1.20100000E+01  1.20100000E+01  1.00800000E+00  1.00800000E+00  1.00800000E+00
  1.00800000E+00  1.00800000E+00  1.00800000E+00  1.00800000E+00  1.00800000E+00
  1.00800000E+00  1.00800000E+00  1.00800000E+00  1.00800000E+00  1.00800000E+00
  1.00800000E+00  1.00800000E+00  1.00800000E+00  1.00800000E+00  1.00800000E+00
  1.00800000E+00  1.00800000E+00  1.00800000E+00  1.00800000E+00
%FLAG ATOM_TYPE_INDEX                                                           
%FORMAT(10I8)                                                                   
       1       2       3       4       4       4       5       5       5       5
       4       4       5       5       4       4       5       6       6       6
       6       6       6       7       8       8       8       8       8       8
       9       9       8       8       8       8       8       8       9
%FLAG NUMBER_EXCLUDED_ATOMS                                                     
%FORMAT(10I8)                                                                   
       8      19      12      13      13      12      17       5      12      11
       5       5       9       8       5       5       3       1       1       4
       3       4       3       1       2       1       1       2       1       1
       1       1       2       1       1       2       1       1       1
%FLAG NONBONDED_PARM_INDEX                                                      
%FORMAT(10I8)                                                                   
       1       2       4       7      11      16      22      29      37       2
       3       5       8      12      17      23      30      38       4       5
       6       9      13      18      24      31      39       7       8       9
      10      14      19      25      32      40      11      12      13      14
      15      20      26      33      41      16      17      18      19      20
      21      27      34      42      22      23      24      25      26      27
      28      35      43      29      30      31      32      33      34      35
      36      44      37      38      39      40      41      42      43      44
      45
%FLAG RESIDUE_LABEL                                                             
%FORMAT(20a4)                                                                   
UNL 
%FLAG RESIDUE_POINTER                                                           
%FORMAT(10I8)                                                                   
       1
%FLAG BOND_FORCE_CONSTANT                                                       
%FORMAT(5E16.8)                                                                 
  5.90600000E+02  2.55850000E+02  3.06730000E+02  3.36070000E+02  4.73590000E+02
  2.34850000E+02  3.44220000E+02  2.28890000E+02  3.54250000E+02  2.43910000E+02
  3.45250000E+02  3.60690000E+02
%FLAG BOND_EQUIL_VALUE                                                          
%FORMAT(5E16.8)                                                                 
  1.21900000E+00  1.46260000E+00  1.40700000E+00  1.37980000E+00  1.01320000E+00
  1.52700000E+00  1.09690000E+00  1.53540000E+00  1.39860000E+00  1.51470000E+00
  1.09620000E+00  1.08600000E+00
%FLAG ANGLE_FORCE_CONSTANT                                                      
%FORMAT(5E16.8)                                                                 
  8.72100000E+01  7.64500000E+01  6.50100000E+01  4.78400000E+01  6.49000000E+01
  6.73400000E+01  6.61000000E+01  7.77500000E+01  4.32700000E+01  7.66200000E+01
  5.66800000E+01  6.36700000E+01  6.07400000E+01  5.73700000E+01  4.37400000E+01
  4.49000000E+01  4.36100000E+01  4.32800000E+01  3.56400000E+01  3.58000000E+01
%FLAG ANGLE_EQUIL_VALUE                                                         
%FORMAT(5E16.8)                                                                 
  2.14762857E+00  2.14501057E+00  1.97850609E+00  1.92143380E+00  1.97361916E+00
  2.09771213E+00  2.00765310E+00  1.96209999E+00  1.91427794E+00  2.22547028E+00
  2.02528093E+00  2.09474507E+00  2.10888224E+00  2.04657396E+00  1.89141412E+00
  2.09230160E+00  1.93085858E+00  1.91270715E+00  1.89455572E+00  1.88024401E+00
%FLAG DIHEDRAL_FORCE_CONSTANT                                                   
%FORMAT(5E16.8)                                                                 
  2.50000000E+00  2.00000000E+00  0.00000000E+00  8.00000000E-01  8.00000000E-02
  1.00000000E-01  3.62500000E+00  7.30000000E-01  2.25000000E-01  1.41000000E+00
  1.03000000E+00  8.70000000E-01  3.00000000E-01  0.00000000E+00  1.41000000E+00
  4.50000000E-01  1.55555556E-01  1.10000000E+00  1.05000000E+01
%FLAG DIHEDRAL_PERIODICITY                                                      
%FORMAT(5E16.8)                                                                 
  2.00000000E+00  1.00000000E+00  2.00000000E+00  1.00000000E+00  3.00000000E+00
  3.00000000E+00  2.00000000E+00  3.00000000E+00  3.00000000E+00  1.00000000E+00
  2.00000000E+00  3.00000000E+00  3.00000000E+00  1.00000000E+00  2.00000000E+00
  2.00000000E+00  3.00000000E+00  2.00000000E+00  2.00000000E+00
%FLAG DIHEDRAL_PHASE                                                            
%FORMAT(5E16.8)                                                                 
  3.14159400E+00  0.00000000E+00  3.14159400E+00  0.00000000E+00  3.14159400E+00
  0.00000000E+00  3.14159400E+00  0.00000000E+00  0.00000000E+00  3.14159400E+00
  3.14159400E+00  0.00000000E+00  0.00000000E+00  0.00000000E+00  3.14159400E+00
  3.14159400E+00  0.00000000E+00  3.14159400E+00  3.14159400E+00
%FLAG SCEE_SCALE_FACTOR                                                         
%FORMAT(5E16.8)                                                                 
  1.20000000E+00  1.20000000E+00  1.20000000E+00  1.20000000E+00  1.20000000E+00
  1.20000000E+00  1.20000000E+00  1.20000000E+00  1.20000000E+00  1.20000000E+00
  1.20000000E+00  1.20000000E+00  1.20000000E+00  1.20000000E+00  1.20000000E+00
  1.20000000E+00  1.20000000E+00  0.00000000E+00  0.00000000E+00
%FLAG SCNB_SCALE_FACTOR                                                         
%FORMAT(5E16.8)                                                                 
  2.00000000E+00  2.00000000E+00  2.00000000E+00  2.00000000E+00  2.00000000E+00
  2.00000000E+00  2.00000000E+00  2.00000000E+00  2.00000000E+00  2.00000000E+00
  2.00000000E+00  2.00000000E+00  2.00000000E+00  2.00000000E+00  2.00000000E+00
  2.00000000E+00  2.00000000E+00  0.00000000E+00  0.00000000E+00
%FLAG SOLTY                                                                     
%FORMAT(5E16.8)                                                                 
  0.00000000E+00  0.00000000E+00  0.00000000E+00  0.00000000E+00  0.00000000E+00
  0.00000000E+00  0.00000000E+00  0.00000000E+00  0.00000000E+00  0.00000000E+00
%FLAG LENNARD_JONES_ACOEF                                                       
%FORMAT(5E16.8)                                                                 
  3.76435470E+05  5.29641935E+05  7.23647490E+05  5.17814271E+05  7.13532671E+05
  7.01825028E+05  6.30925504E+05  8.59569453E+05  8.48258258E+05  1.02073671E+06
  5.17507491E+05  7.10207765E+05  6.99381362E+05  8.43969952E+05  6.96551276E+05
  3.86646725E+04  5.82112737E+04  5.58085097E+04  6.97998263E+04  5.63013422E+04
  3.39005767E+03  9.87857350E+02  1.82809059E+03  1.65195713E+03  2.23577481E+03
  1.71458823E+03  5.24570081E+01  1.34728399E-01  5.68021765E+04  8.37616145E+04
  8.07866982E+04  1.00235148E+05  8.12662403E+04  5.22955465E+03  9.47421632E+01
  7.94617769E+03  5.27277400E+04  7.75325560E+04  7.48403283E+04  9.27554496E+04
  7.52549148E+04  4.88692384E+03  9.04434904E+01  7.41026906E+03  6.90855956E+03
%FLAG LENNARD_JONES_BCOEF                                                       
%FORMAT(5E16.8)                                                                 
  4.69350655E+02  4.87196412E+02  4.98353106E+02  5.21008860E+02  5.35211915E+02
  5.74088001E+02  5.62969425E+02  5.75038595E+02  6.17825399E+02  6.63431737E+02
  4.98871431E+02  5.11427129E+02  5.48900066E+02  5.90251928E+02  5.24668528E+02
  9.23664132E+01  9.91793374E+01  1.05029928E+02  1.14981426E+02  1.01040256E+02
  1.67944276E+01  1.22938581E+01  1.46352678E+01  1.50468782E+01  1.71355763E+01
  1.46824710E+01  1.73959275E+00  7.34107347E-02  1.11953944E+02  1.18970742E+02
  1.26366740E+02  1.37787728E+02  1.21392023E+02  2.08590256E+01  2.33785449E+00
  2.57122925E+01  1.01173582E+02  1.07361937E+02  1.14083104E+02  1.24325688E+02
  1.09570372E+02  1.89134207E+01  2.14252117E+00  2.32899892E+01  2.10929191E+01
%FLAG BONDS_INC_HYDROGEN                                                        
%FORMAT(10I8)                                                                   
       6      69       5       9      51       7       9      54       7      12
      57       7      12      60       7      15      63       7      15      66
       7      30      72      11      30      75      11      30      78      11
      33      81      11      33      84      11      33      87      11      36
      90      12      39      93      12      42      96      11      42      99
      11      42     102      11      45     105      11      45     108      11
      45     111      11      48     114      12
%FLAG BONDS_WITHOUT_HYDROGEN                                                    
%FORMAT(10I8)                                                                   
       0      21       1       3       9       2       3      12       2       3
      15       2       6      18       3       6      21       4       9      21
       6      12      30       8      15      33       8      18      24       9
      18      27       9      24      36       9      24      42      10      27
      39       9      27      45      10      36      48       9      39      48
       9
%FLAG ANGLES_INC_HYDROGEN                                                       
%FORMAT(10I8)                                                                   
       3       9      51       4       3       9      54       4       3      12
      57       4       3      12      60       4       3      15      63       4
       3      15      66       4      12      30      72       9      12      30
      75       9      12      30      78       9      15      33      81       9
      15      33      84       9      15      33      87       9      18       6
      69      11      21       6      69      14      21       9      51      15
      21       9      54      15      24      36      90      16      24      42
      96      17      24      42      99      17      24      42     102      17
      27      39      93      16      27      45     105      17      27      45
     108      17      27      45     111      17      30      12      57      18
      30      12      60      18      33      15      63      18      33      15
      66      18      36      48     114      16      39      48     114      16
      48      36      90      16      48      39      93      16      51       9
      54      19      57      12      60      19      63      15      66      19
      72      30      75      20      72      30      78      20      75      30
      78      20      81      33      84      20      81      33      87      20
      84      33      87      20      96      42      99      20      96      42
     102      20      99      42     102      20     105      45     108      20
     105      45     111      20     108      45     111      20
%FLAG ANGLES_WITHOUT_HYDROGEN                                                   
%FORMAT(10I8)                                                                   
       0      21       6       1       0      21       9       2       3       9
      21       3       3      12      30       5       3      15      33       5
       6      18      24       6       6      18      27       6       6      21
       9       7       9       3      12       8       9       3      15       8
      12       3      15       8      18       6      21      10      18      24
      36      12      18      24      42      13      18      27      39      12
      18      27      45      13      24      18      27      12      24      36
      48      12      27      39      48      12      36      24      42      13
      36      48      39      12      39      27      45      13
%FLAG DIHEDRALS_INC_HYDROGEN                                                    
%FORMAT(10I8)                                                                   
       0      21       6      69       2       0      21      -6      69       1
       0      21       9      51       4       0      21      -9      51       5
       0      21       9      54       4       0      21      -9      54       5
       3      12      30      72       6       3      12      30      75       6
       3      12      30      78       6       3      15      33      81       6
       3      15      33      84       6       3      15      33      87       6
       6      21       9      51       3       6      21       9      54       3
       9       3      12      57       9       9       3      12      60       9
       9       3      15      63       9       9       3      15      66       9
       9      21       6      69       1      12       3       9      51       9
      12       3       9      54       9      12       3      15      63       9
      12       3      15      66       9      15       3       9      51       9
      15       3       9      54       9      15       3      12      57       9
      15       3      12      60       9      18      24      36      90       7
      18      24      42      96      14      18      24      42      99      14
      18      24      42     102      14      18      27      39      93       7
      18      27      45     105      14      18      27      45     108      14
      18      27      45     111      14      24      18       6      69      16
      24      36      48     114       7      27      18       6      69      16
      27      39      48     114       7      36      24      42      96      14
      36      24      42      99      14      36      24      42     102      14
      36      48      39      93       7      39      27      45     105      14
      39      27      45     108      14      39      27      45     111      14
      39      48      36      90       7      42      24      36      90       7
      45      27      39      93       7      57      12      30      72      17
      57      12      30      75      17      57      12      30      78      17
      60      12      30      72      17      60      12      30      75      17
      60      12      30      78      17      63      15      33      81      17
      63      15      33      84      17      63      15      33      87      17
      66      15      33      81      17      66      15      33      84      17
      66      15      33      87      17      90      36      48     114       7
      93      39      48     114       7      21      18      -6     -69      18
      24      48     -36     -90      18      27      48     -39     -93      18
      36      39     -48    -114      18
%FLAG DIHEDRALS_WITHOUT_HYDROGEN                                                
%FORMAT(10I8)                                                                   
       0      21       6      18       1       0      21       9       3       3
       3       9      21       6       3       6      18      24      36       7
       6      18      24      42       7       6      18      27      39       7
       6      18      27      45       7       9       3      12      30       8
       9       3      15      33       8       9      21       6      18      10
       9      21      -6      18      11       9      21      -6      18      12
      12       3       9      21      13      12       3      15      33       8
      15       3       9      21      13      15       3      12      30       8
      18      24      36      48       7      18      27     -39      48       7
      21       6      18      24      15      21       6      18      27      15
      24      18      27      39       7      24      18      27      45       7
      24      36     -48      39       7      27      18      24      36       7
      27      18      24      42       7      27      39     -48      36       7
      42      24      36      48       7      45      27      39      48       7
      24      27     -18      -6      18       0      21      -6      -9      19
      18      36     -24     -42      18      45      18     -27     -39      18
%FLAG EXCLUDED_ATOMS_LIST                                                       
%FORMAT(10I8)                                                                   
       2       3       4       7       8      18      19      24       3       4
       5       6       8      11      12      18      19      20      21      22
      23      25      26      27      28      29      30       4       7       8
       9      10      13      14      15      16      18      19      24       5
       6       7       8      11      12      18      19      20      21      22
      23      24       6       8      11      12      18      19      20      21
      22      23      25      26      27       8      11      12      18      19
      20      21      22      23      28      29      30       8       9      10
      13      14      15      16      17      24      31      32      33      34
      35      36      37      38       9      10      18      19      24      10
      13      14      15      16      17      24      31      33      34      35
      39      13      14      15      16      17      24      32      36      37
      38      39      20      21      25      26      27      22      23      28
      29      30      14      15      17      31      32      33      34      35
      39      16      17      31      32      36      37      38      39      17
      31      33      34      35      17      32      36      37      38      31
      32      39      19       0      21      25      26      27      25      26
      27      23      28      29      30      28      29      30       0      26
      27      27       0      29      30      30       0      39      39      34
      35      35       0      37      38      38       0       0
%FLAG HBOND_ACOEF                                                               
%FORMAT(5E16.8)                                                                 

%FLAG HBOND_BCOEF                                                               
%FORMAT(5E16.8)                                                                 

%FLAG HBCUT                                                                     
%FORMAT(5E16.8)                                                                 

%FLAG AMBER_ATOM_TYPE                                                           
%FORMAT(20a4)                                                                   
o   n3  ns  c3  c3  c3  ca  c   ca  ca  c3  c3  ca  ca  c3  c3  ca  h1  h1  h1  
h1  h1  h1  hn  hc  hc  hc  hc  hc  hc  ha  ha  hc  hc  hc  hc  hc  hc  ha  
%FLAG TREE_CHAIN_CLASSIFICATION                                                 
%FORMAT(20a4)                                                                   
BLA BLA BLA BLA BLA BLA BLA BLA BLA BLA BLA BLA BLA BLA BLA BLA BLA BLA BLA BLA 
BLA BLA BLA BLA BLA BLA BLA BLA BLA BLA BLA BLA BLA BLA BLA BLA BLA BLA BLA 
%FLAG JOIN_ARRAY                                                                
%FORMAT(10I8)                                                                   
       0       0       0       0       0       0       0       0       0       0
       0       0       0       0       0       0       0       0       0       0
       0       0       0       0       0       0       0       0       0       0
       0       0       0       0       0       0       0       0       0
%FLAG IROTAT                                                                    
%FORMAT(10I8)                                                                   
       0       0       0       0       0       0       0       0       0       0
       0       0       0       0       0       0       0       0       0       0
       0       0       0       0       0       0       0       0       0       0
       0       0       0       0       0       0       0       0       0
%FLAG RADIUS_SET                                                                
%FORMAT(1a80)                                                                   
modified Bondi radii (mbondi)                                                   
%FLAG RADII                                                                     
%FORMAT(5E16.8)                                                                 
  1.50000000E+00  1.55000000E+00  1.55000000E+00  1.70000000E+00  1.70000000E+00
  1.70000000E+00  1.70000000E+00  1.70000000E+00  1.70000000E+00  1.70000000E+00
  1.70000000E+00  1.70000000E+00  1.70000000E+00  1.70000000E+00  1.70000000E+00
  1.70000000E+00  1.70000000E+00  1.30000000E+00  1.30000000E+00  1.30000000E+00
  1.30000000E+00  1.30000000E+00  1.30000000E+00  1.30000000E+00  1.30000000E+00
  1.30000000E+00  1.30000000E+00  1.30000000E+00  1.30000000E+00  1.30000000E+00
  1.30000000E+00  1.30000000E+00  1.30000000E+00  1.30000000E+00  1.30000000E+00
  1.30000000E+00  1.30000000E+00  1.30000000E+00  1.30000000E+00
%FLAG SCREEN                                                                    
%FORMAT(5E16.8)                                                                 
  8.50000000E-01  7.90000000E-01  7.90000000E-01  7.20000000E-01  7.20000000E-01
  7.20000000E-01  7.20000000E-01  7.20000000E-01  7.20000000E-01  7.20000000E-01
  7.20000000E-01  7.20000000E-01  7.20000000E-01  7.20000000E-01  7.20000000E-01
  7.20000000E-01  7.20000000E-01  8.50000000E-01  8.50000000E-01  8.50000000E-01
  8.50000000E-01  8.50000000E-01  8.50000000E-01  8.50000000E-01  8.50000000E-01
  8.50000000E-01  8.50000000E-01  8.50000000E-01  8.50000000E-01  8.50000000E-01
  8.50000000E-01  8.50000000E-01  8.50000000E-01  8.50000000E-01  8.50000000E-01
  8.50000000E-01  8.50000000E-01  8.50000000E-01  8.50000000E-01
%FLAG IPOL                                                                      
%FORMAT(1I8)                                                                    
       0
