; bisphenol-f_GMX_OPLS.top created by acpype (v: 2023.10.27) on Mon Feb  9 17:33:16 2026

; Include forcefield parameters
#include "ffoplsaa.itp"

; Include bisphenol-f_GMX.itp topology
#include "bisphenol-f_GMX.itp"

; Ligand position restraints
#ifdef POSRES_LIG
#include "posre_bisphenol-f.itp"
#endif

[ system ]
 bisphenol-f

[ molecules ]
; Compound        nmols
 bisphenol-f      1     
