12111
    27
  -4.7310000   0.0000000   1.4060000   4.7280000  -0.0000000   1.4060000
  -0.0010000   0.0000000  -1.6700000  -1.2520000   0.0000000  -0.8570000
   1.2690000  -0.0000000  -0.8440000  -1.8360000   1.2080000  -0.4770000
   1.8340000  -1.2080000  -0.4770000  -1.8360000  -1.2080000  -0.4770000
   1.8330000   1.2080000  -0.4770000  -3.0050000   1.2080000   0.2840000
   3.0030000  -1.2080000   0.2840000  -3.0050000  -1.2080000   0.2840000
   3.0020000   1.2080000   0.2840000  -3.5900000  -0.0000000   0.6650000
   3.5870000   0.0010000   0.6650000   0.0040000  -0.8650000  -2.3480000
   0.0040000   0.8650000  -2.3490000  -1.3920000   2.1570000  -0.7670000
   1.3870000  -2.1540000  -0.7690000  -1.3910000  -2.1560000  -0.7660000
   1.3850000   2.1540000  -0.7680000  -3.4510000   2.1550000   0.5740000
   3.4480000  -2.1550000   0.5740000  -3.4550000  -2.1520000   0.5780000
   3.4530000   2.1530000   0.5780000  -4.9950000   0.9210000   1.5780000
   4.9920000  -0.9210000   1.5780000
