%VERSION  VERSION_STAMP = V0001.000  DATE = 02/09/26  17:34:25                  
%FLAG TITLE                                                                     
%FORMAT(20a4)                                                                   
12111                                                                           
%FLAG POINTERS                                                                  
%FORMAT(10I8)                                                                   
      27       6      12      16      23      21      48      28       0       0
     137       1      16      21      28       6       8       5       6       0
       0       0       0       0       0       0       0       0      27       0
       0
%FLAG ATOM_NAME                                                                 
%FORMAT(20a4)                                                                   
O   O1  C   C1  C2  C3  C4  C5  C6  C7  C8  C9  C10 C11 C12 H   H1  H2  H3  H4  
H5  H6  H7  H8  H9  H10 H11 
%FLAG CHARGE                                                                    
%FORMAT(5E16.8)                                                                 
 -9.07652763E+00 -9.07652763E+00  3.13423560E-01 -2.04636429E+00 -2.04636429E+00
 -1.63089585E+00 -1.63089585E+00 -1.63089585E+00 -1.63089585E+00 -3.33923647E+00
 -3.33923647E+00 -3.33923647E+00 -3.33923647E+00  2.21583168E+00  2.21583168E+00
  9.87648660E-01  9.87648660E-01  2.46456608E+00  2.46456608E+00  2.46456608E+00
  2.46456608E+00  2.58756660E+00  2.58756660E+00  2.58756660E+00  2.58756660E+00
  7.62603255E+00  7.62603255E+00
%FLAG ATOMIC_NUMBER                                                             
%FORMAT(10I8)                                                                   
       8       8       6       6       6       6       6       6       6       6
       6       6       6       6       6       1       1       1       1       1
       1       1       1       1       1       1       1
%FLAG MASS                                                                      
%FORMAT(5E16.8)                                                                 
  1.60000000E+01  1.60000000E+01  1.20100000E+01  1.20100000E+01  1.20100000E+01
  1.20100000E+01  1.20100000E+01  1.20100000E+01  1.20100000E+01  1.20100000E+01
  1.20100000E+01  1.20100000E+01  1.20100000E+01  1.20100000E+01  1.20100000E+01
  1.00800000E+00  1.00800000E+00  1.00800000E+00  1.00800000E+00  1.00800000E+00
  1.00800000E+00  1.00800000E+00  1.00800000E+00  1.00800000E+00  1.00800000E+00
  1.00800000E+00  1.00800000E+00
%FLAG ATOM_TYPE_INDEX                                                           
%FORMAT(10I8)                                                                   
       1       1       2       3       3       3       3       3       3       3
       3       3       3       3       3       4       4       5       5       5
       5       5       5       5       5       6       6
%FLAG NUMBER_EXCLUDED_ATOMS                                                     
%FORMAT(10I8)                                                                   
       8       8      16      14      13       9       9       8       8       6
       6       5       5       5       5       1       1       1       1       1
       1       1       1       1       1       1       1
%FLAG NONBONDED_PARM_INDEX                                                      
%FORMAT(10I8)                                                                   
       1       2       4       7      11      16       2       3       5       8
      12      17       4       5       6       9      13      18       7       8
       9      10      14      19      11      12      13      14      15      20
      16      17      18      19      20      21
%FLAG RESIDUE_LABEL                                                             
%FORMAT(20a4)                                                                   
UNL 
%FLAG RESIDUE_POINTER                                                           
%FORMAT(10I8)                                                                   
       1
%FLAG BOND_FORCE_CONSTANT                                                       
%FORMAT(5E16.8)                                                                 
  3.48550000E+02  5.35510000E+02  2.43910000E+02  3.45250000E+02  3.54250000E+02
  3.60690000E+02
%FLAG BOND_EQUIL_VALUE                                                          
%FORMAT(5E16.8)                                                                 
  1.36440000E+00  9.72500000E-01  1.51470000E+00  1.09620000E+00  1.39860000E+00
  1.08600000E+00
%FLAG ANGLE_FORCE_CONSTANT                                                      
%FORMAT(5E16.8)                                                                 
  7.88600000E+01  6.07400000E+01  6.07800000E+01  4.36100000E+01  6.36700000E+01
  4.49000000E+01  6.74100000E+01  3.58000000E+01
%FLAG ANGLE_EQUIL_VALUE                                                         
%FORMAT(5E16.8)                                                                 
  2.09265067E+00  2.10888224E+00  1.96018012E+00  1.93085858E+00  2.09474507E+00
  2.09230160E+00  1.89507931E+00  1.88024401E+00
%FLAG DIHEDRAL_FORCE_CONSTANT                                                   
%FORMAT(5E16.8)                                                                 
  3.62500000E+00  0.00000000E+00  0.00000000E+00  8.55000000E-01  1.10000000E+00
%FLAG DIHEDRAL_PERIODICITY                                                      
%FORMAT(5E16.8)                                                                 
  2.00000000E+00  2.00000000E+00  1.00000000E+00  2.00000000E+00  2.00000000E+00
%FLAG DIHEDRAL_PHASE                                                            
%FORMAT(5E16.8)                                                                 
  3.14159400E+00  3.14159400E+00  0.00000000E+00  3.14159400E+00  3.14159400E+00
%FLAG SCEE_SCALE_FACTOR                                                         
%FORMAT(5E16.8)                                                                 
  1.20000000E+00  1.20000000E+00  1.20000000E+00  1.20000000E+00  0.00000000E+00
%FLAG SCNB_SCALE_FACTOR                                                         
%FORMAT(5E16.8)                                                                 
  2.00000000E+00  2.00000000E+00  2.00000000E+00  2.00000000E+00  0.00000000E+00
%FLAG SOLTY                                                                     
%FORMAT(5E16.8)                                                                 
  0.00000000E+00  0.00000000E+00  0.00000000E+00  0.00000000E+00  0.00000000E+00
  0.00000000E+00
%FLAG LENNARD_JONES_ACOEF                                                       
%FORMAT(5E16.8)                                                                 
  5.03152404E+05  7.18991463E+05  1.02073671E+06  5.92438683E+05  8.43969952E+05
  6.96551276E+05  6.80216136E+04  1.00235148E+05  8.12662403E+04  7.94617769E+03
  6.30298721E+04  9.27554496E+04  7.52549148E+04  7.41026906E+03  6.90855956E+03
  1.74176419E+02  3.03553352E+02  2.25372434E+02  8.80612241E+00  8.53132435E+00
  1.10360882E-05
%FLAG LENNARD_JONES_BCOEF                                                       
%FORMAT(5E16.8)                                                                 
  4.32634597E+02  5.36620538E+02  6.63431737E+02  4.76608379E+02  5.90251928E+02
  5.24668528E+02  1.09393126E+02  1.37787728E+02  1.21392023E+02  2.57122925E+01
  9.87712192E+01  1.24325688E+02  1.09570372E+02  2.32899892E+01  2.10929191E+01
  3.81654050E+00  5.22789272E+00  4.40751799E+00  5.90150328E-01  5.44840215E-01
  4.55498033E-04
%FLAG BONDS_INC_HYDROGEN                                                        
%FORMAT(10I8)                                                                   
       0      75       2       3      78       2       6      45       4       6
      48       4      15      51       6      18      54       6      21      57
       6      24      60       6      27      63       6      30      66       6
      33      69       6      36      72       6
%FLAG BONDS_WITHOUT_HYDROGEN                                                    
%FORMAT(10I8)                                                                   
       0      39       1       3      42       1       6       9       3       6
      12       3       9      15       5       9      21       5      12      18
       5      12      24       5      15      27       5      18      30       5
      21      33       5      24      36       5      27      39       5      30
      42       5      33      39       5      36      42       5
%FLAG ANGLES_INC_HYDROGEN                                                       
%FORMAT(10I8)                                                                   
       9       6      45       4       9       6      48       4       9      15
      51       6       9      21      57       6      12       6      45       4
      12       6      48       4      12      18      54       6      12      24
      60       6      15      27      63       6      18      30      66       6
      21      33      69       6      24      36      72       6      27      15
      51       6      30      18      54       6      33      21      57       6
      36      24      60       6      39       0      75       7      39      27
      63       6      39      33      69       6      42       3      78       7
      42      30      66       6      42      36      72       6      45       6
      48       8
%FLAG ANGLES_WITHOUT_HYDROGEN                                                   
%FORMAT(10I8)                                                                   
       0      39      27       1       0      39      33       1       3      42
      30       1       3      42      36       1       6       9      15       2
       6       9      21       2       6      12      18       2       6      12
      24       2       9       6      12       3       9      15      27       5
       9      21      33       5      12      18      30       5      12      24
      36       5      15       9      21       5      15      27      39       5
      18      12      24       5      18      30      42       5      21      33
      39       5      24      36      42       5      27      39      33       5
      30      42      36       5
%FLAG DIHEDRALS_INC_HYDROGEN                                                    
%FORMAT(10I8)                                                                   
       0      39      27      63       1       0      39      33      69       1
       3      42      30      66       1       3      42      36      72       1
       6       9      15      51       1       6       9      21      57       1
       6      12      18      54       1       6      12      24      60       1
       9      15      27      63       1       9      21      33      69       1
      12      18      30      66       1      12      24      36      72       1
      15       9       6      45       3      15       9       6      48       3
      15       9      21      57       1      18      12       6      45       3
      18      12       6      48       3      18      12      24      60       1
      21       9       6      45       3      21       9       6      48       3
      21       9      15      51       1      24      12       6      45       3
      24      12       6      48       3      24      12      18      54       1
      75       0      39      27       4      27      39      33      69       1
      30      42       3      78       4      30      42      36      72       1
      75       0      39      33       4      33      39      27      63       1
      36      42       3      78       4      36      42      30      66       1
      39      27      15      51       1      39      33      21      57       1
      42      30      18      54       1      42      36      24      60       1
      51      15      27      63       1      54      18      30      66       1
      57      21      33      69       1      60      24      36      72       1
       9      27     -15     -51       5      12      30     -18     -54       5
       9      33     -21     -57       5      12      36     -24     -60       5
      15      39     -27     -63       5      18      42     -30     -66       5
      21      39     -33     -69       5      24      42     -36     -72       5
%FLAG DIHEDRALS_WITHOUT_HYDROGEN                                                
%FORMAT(10I8)                                                                   
       0      39      27      15       1       0      39      33      21       1
       3      42      30      18       1       3      42      36      24       1
       6       9      15      27       1       6       9      21      33       1
       6      12      18      30       1       6      12      24      36       1
       9       6      12      18       2       9       6      12      24       2
       9      15      27      39       1       9      21     -33      39       1
      12       6       9      15       2      12       6       9      21       2
      12      18      30      42       1      12      24     -36      42       1
      15       9      21      33       1      15      27     -39      33       1
      18      12      24      36       1      18      30     -42      36       1
      21       9      15      27       1      21      33     -39      27       1
      24      12      18      30       1      24      36     -42      30       1
      15      21      -9      -6       5       6      18     -12     -24       5
       0      39     -33     -27       5      30      36     -42      -3       5
%FLAG EXCLUDED_ATOMS_LIST                                                       
%FORMAT(10I8)                                                                   
       6       8      10      12      14      22      24      26       7       9
      11      13      15      23      25      27       4       5       6       7
       8       9      10      11      12      13      16      17      18      19
      20      21       5       6       7       8       9      10      12      14
      16      17      18      20      22      24       6       7       8       9
      11      13      15      16      17      19      21      23      25       8
      10      12      14      16      17      18      20      22       9      11
      13      15      16      17      19      21      23      10      12      14
      16      17      18      20      24      11      13      15      16      17
      19      21      25      12      14      18      22      24      26      13
      15      19      23      25      27      14      20      22      24      26
      15      21      23      25      27      18      20      22      24      26
      19      21      23      25      27      17       0      22      23      24
      25       0       0       0       0       0       0
%FLAG HBOND_ACOEF                                                               
%FORMAT(5E16.8)                                                                 

%FLAG HBOND_BCOEF                                                               
%FORMAT(5E16.8)                                                                 

%FLAG HBCUT                                                                     
%FORMAT(5E16.8)                                                                 

%FLAG AMBER_ATOM_TYPE                                                           
%FORMAT(20a4)                                                                   
oh  oh  c3  ca  ca  ca  ca  ca  ca  ca  ca  ca  ca  ca  ca  hc  hc  ha  ha  ha  
ha  ha  ha  ha  ha  ho  ho  
%FLAG TREE_CHAIN_CLASSIFICATION                                                 
%FORMAT(20a4)                                                                   
BLA BLA BLA BLA BLA BLA BLA BLA BLA BLA BLA BLA BLA BLA BLA BLA BLA BLA BLA BLA 
BLA BLA BLA BLA BLA BLA BLA 
%FLAG JOIN_ARRAY                                                                
%FORMAT(10I8)                                                                   
       0       0       0       0       0       0       0       0       0       0
       0       0       0       0       0       0       0       0       0       0
       0       0       0       0       0       0       0
%FLAG IROTAT                                                                    
%FORMAT(10I8)                                                                   
       0       0       0       0       0       0       0       0       0       0
       0       0       0       0       0       0       0       0       0       0
       0       0       0       0       0       0       0
%FLAG RADIUS_SET                                                                
%FORMAT(1a80)                                                                   
modified Bondi radii (mbondi)                                                   
%FLAG RADII                                                                     
%FORMAT(5E16.8)                                                                 
  1.50000000E+00  1.50000000E+00  1.70000000E+00  1.70000000E+00  1.70000000E+00
  1.70000000E+00  1.70000000E+00  1.70000000E+00  1.70000000E+00  1.70000000E+00
  1.70000000E+00  1.70000000E+00  1.70000000E+00  1.70000000E+00  1.70000000E+00
  1.30000000E+00  1.30000000E+00  1.30000000E+00  1.30000000E+00  1.30000000E+00
  1.30000000E+00  1.30000000E+00  1.30000000E+00  1.30000000E+00  1.30000000E+00
  8.00000000E-01  8.00000000E-01
%FLAG SCREEN                                                                    
%FORMAT(5E16.8)                                                                 
  8.50000000E-01  8.50000000E-01  7.20000000E-01  7.20000000E-01  7.20000000E-01
  7.20000000E-01  7.20000000E-01  7.20000000E-01  7.20000000E-01  7.20000000E-01
  7.20000000E-01  7.20000000E-01  7.20000000E-01  7.20000000E-01  7.20000000E-01
  8.50000000E-01  8.50000000E-01  8.50000000E-01  8.50000000E-01  8.50000000E-01
  8.50000000E-01  8.50000000E-01  8.50000000E-01  8.50000000E-01  8.50000000E-01
  8.50000000E-01  8.50000000E-01
%FLAG IPOL                                                                      
%FORMAT(1I8)                                                                    
       0
