bisphenol-f_GMX.gro created by acpype (v: 2023.10.27) on Mon Feb  9 17:33:16 2026
 27
    1  UNL    O    1  -0.473   0.000   0.141
    1  UNL   O1    2   0.473  -0.000   0.141
    1  UNL    C    3  -0.000   0.000  -0.167
    1  UNL   C1    4  -0.125   0.000  -0.086
    1  UNL   C2    5   0.127  -0.000  -0.084
    1  UNL   C3    6  -0.184   0.121  -0.048
    1  UNL   C4    7   0.183  -0.121  -0.048
    1  UNL   C5    8  -0.184  -0.121  -0.048
    1  UNL   C6    9   0.183   0.121  -0.048
    1  UNL   C7   10  -0.300   0.121   0.028
    1  UNL   C8   11   0.300  -0.121   0.028
    1  UNL   C9   12  -0.300  -0.121   0.028
    1  UNL  C10   13   0.300   0.121   0.028
    1  UNL  C11   14  -0.359  -0.000   0.067
    1  UNL  C12   15   0.359   0.000   0.067
    1  UNL    H   16   0.000  -0.087  -0.235
    1  UNL   H1   17   0.000   0.087  -0.235
    1  UNL   H2   18  -0.139   0.216  -0.077
    1  UNL   H3   19   0.139  -0.215  -0.077
    1  UNL   H4   20  -0.139  -0.216  -0.077
    1  UNL   H5   21   0.139   0.215  -0.077
    1  UNL   H6   22  -0.345   0.215   0.057
    1  UNL   H7   23   0.345  -0.215   0.057
    1  UNL   H8   24  -0.346  -0.215   0.058
    1  UNL   H9   25   0.345   0.215   0.058
    1  UNL  H10   26  -0.500   0.092   0.158
    1  UNL  H11   27   0.499  -0.092   0.158
   19.97400     8.62600     7.85400
