; bisphenol-f_GMX.top created by acpype (v: 2023.10.27) on Mon Feb  9 17:33:16 2026

[ defaults ]
; nbfunc        comb-rule       gen-pairs       fudgeLJ fudgeQQ
1               2               yes             0.5     0.8333333333

; Include bisphenol-f_GMX.itp topology
#include "bisphenol-f_GMX.itp"

; Ligand position restraints
#ifdef POSRES_LIG
#include "posre_bisphenol-f.itp"
#endif

[ system ]
 bisphenol-f

[ molecules ]
; Compound        nmols
 bisphenol-f      1     
