; bisphenol-f_GMX.itp created by acpype (v: 2023.10.27) on Mon Feb  9 17:33:16 2026

[ atomtypes ]
;name   bond_type     mass     charge   ptype   sigma         epsilon       Amb
 oh       oh          0.00000  0.00000   A     3.24287e-01   3.89112e-01 ; 1.82  0.0930
 c3       c3          0.00000  0.00000   A     3.39771e-01   4.51035e-01 ; 1.91  0.1078
 ca       ca          0.00000  0.00000   A     3.31521e-01   4.13379e-01 ; 1.86  0.0988
 hc       hc          0.00000  0.00000   A     2.60018e-01   8.70272e-02 ; 1.46  0.0208
 ha       ha          0.00000  0.00000   A     2.62548e-01   6.73624e-02 ; 1.47  0.0161
 ho       ho          0.00000  0.00000   A     5.37925e-02   1.96648e-02 ; 0.30  0.0047

[ moleculetype ]
;name            nrexcl
 bisphenol-f      3

[ atoms ]
;   nr  type  resi  res  atom  cgnr     charge      mass       ; qtot   bond_type
     1   oh     1   UNL     O    1    -0.499600     16.00000 ; qtot -0.500
     2   oh     1   UNL    O1    2    -0.499600     16.00000 ; qtot -0.999
     3   c3     1   UNL     C    3     0.017200     12.01000 ; qtot -0.982
     4   ca     1   UNL    C1    4    -0.112300     12.01000 ; qtot -1.094
     5   ca     1   UNL    C2    5    -0.112300     12.01000 ; qtot -1.207
     6   ca     1   UNL    C3    6    -0.089500     12.01000 ; qtot -1.296
     7   ca     1   UNL    C4    7    -0.089500     12.01000 ; qtot -1.386
     8   ca     1   UNL    C5    8    -0.089500     12.01000 ; qtot -1.475
     9   ca     1   UNL    C6    9    -0.089500     12.01000 ; qtot -1.565
    10   ca     1   UNL    C7   10    -0.183250     12.01000 ; qtot -1.748
    11   ca     1   UNL    C8   11    -0.183250     12.01000 ; qtot -1.931
    12   ca     1   UNL    C9   12    -0.183250     12.01000 ; qtot -2.114
    13   ca     1   UNL   C10   13    -0.183250     12.01000 ; qtot -2.298
    14   ca     1   UNL   C11   14     0.121600     12.01000 ; qtot -2.176
    15   ca     1   UNL   C12   15     0.121600     12.01000 ; qtot -2.054
    16   hc     1   UNL     H   16     0.054200      1.00800 ; qtot -2.000
    17   hc     1   UNL    H1   17     0.054200      1.00800 ; qtot -1.946
    18   ha     1   UNL    H2   18     0.135250      1.00800 ; qtot -1.811
    19   ha     1   UNL    H3   19     0.135250      1.00800 ; qtot -1.676
    20   ha     1   UNL    H4   20     0.135250      1.00800 ; qtot -1.540
    21   ha     1   UNL    H5   21     0.135250      1.00800 ; qtot -1.405
    22   ha     1   UNL    H6   22     0.142000      1.00800 ; qtot -1.263
    23   ha     1   UNL    H7   23     0.142000      1.00800 ; qtot -1.121
    24   ha     1   UNL    H8   24     0.142000      1.00800 ; qtot -0.979
    25   ha     1   UNL    H9   25     0.142000      1.00800 ; qtot -0.837
    26   ho     1   UNL   H10   26     0.418500      1.00800 ; qtot -0.418
    27   ho     1   UNL   H11   27     0.418500      1.00800 ; qtot 0.000

[ bonds ]
;   ai     aj funct   r             k
     1     14   1    1.3644e-01    2.9167e+05 ;      O - C11   
     1     26   1    9.7250e-02    4.4811e+05 ;      O - H10   
     2     15   1    1.3644e-01    2.9167e+05 ;     O1 - C12   
     2     27   1    9.7250e-02    4.4811e+05 ;     O1 - H11   
     3      4   1    1.5147e-01    2.0410e+05 ;      C - C1    
     3      5   1    1.5147e-01    2.0410e+05 ;      C - C2    
     3     16   1    1.0962e-01    2.8891e+05 ;      C - H     
     3     17   1    1.0962e-01    2.8891e+05 ;      C - H1    
     4      6   1    1.3986e-01    2.9644e+05 ;     C1 - C3    
     4      8   1    1.3986e-01    2.9644e+05 ;     C1 - C5    
     5      7   1    1.3986e-01    2.9644e+05 ;     C2 - C4    
     5      9   1    1.3986e-01    2.9644e+05 ;     C2 - C6    
     6     10   1    1.3986e-01    2.9644e+05 ;     C3 - C7    
     6     18   1    1.0860e-01    3.0183e+05 ;     C3 - H2    
     7     11   1    1.3986e-01    2.9644e+05 ;     C4 - C8    
     7     19   1    1.0860e-01    3.0183e+05 ;     C4 - H3    
     8     12   1    1.3986e-01    2.9644e+05 ;     C5 - C9    
     8     20   1    1.0860e-01    3.0183e+05 ;     C5 - H4    
     9     13   1    1.3986e-01    2.9644e+05 ;     C6 - C10   
     9     21   1    1.0860e-01    3.0183e+05 ;     C6 - H5    
    10     14   1    1.3986e-01    2.9644e+05 ;     C7 - C11   
    10     22   1    1.0860e-01    3.0183e+05 ;     C7 - H6    
    11     15   1    1.3986e-01    2.9644e+05 ;     C8 - C12   
    11     23   1    1.0860e-01    3.0183e+05 ;     C8 - H7    
    12     14   1    1.3986e-01    2.9644e+05 ;     C9 - C11   
    12     24   1    1.0860e-01    3.0183e+05 ;     C9 - H8    
    13     15   1    1.3986e-01    2.9644e+05 ;    C10 - C12   
    13     25   1    1.0860e-01    3.0183e+05 ;    C10 - H9    

[ pairs ]
;   ai     aj    funct
     1      6      1 ;      O - C3    
     1      8      1 ;      O - C5    
     1     22      1 ;      O - H6    
     1     24      1 ;      O - H8    
     2      7      1 ;     O1 - C4    
     2      9      1 ;     O1 - C6    
     2     23      1 ;     O1 - H7    
     2     25      1 ;     O1 - H9    
     3     10      1 ;      C - C7    
     3     11      1 ;      C - C8    
     3     12      1 ;      C - C9    
     3     13      1 ;      C - C10   
     3     18      1 ;      C - H2    
     3     19      1 ;      C - H3    
     3     20      1 ;      C - H4    
     3     21      1 ;      C - H5    
     4      7      1 ;     C1 - C4    
     4      9      1 ;     C1 - C6    
     4     14      1 ;     C1 - C11   
     4     22      1 ;     C1 - H6    
     4     24      1 ;     C1 - H8    
     5      6      1 ;     C2 - C3    
     5      8      1 ;     C2 - C5    
     5     15      1 ;     C2 - C12   
     5     23      1 ;     C2 - H7    
     5     25      1 ;     C2 - H9    
     6     12      1 ;     C3 - C9    
     6     16      1 ;     C3 - H     
     6     17      1 ;     C3 - H1    
     6     20      1 ;     C3 - H4    
     7     13      1 ;     C4 - C10   
     7     16      1 ;     C4 - H     
     7     17      1 ;     C4 - H1    
     7     21      1 ;     C4 - H5    
     8     10      1 ;     C5 - C7    
     8     16      1 ;     C5 - H     
     8     17      1 ;     C5 - H1    
     8     18      1 ;     C5 - H2    
     9     11      1 ;     C6 - C8    
     9     16      1 ;     C6 - H     
     9     17      1 ;     C6 - H1    
     9     19      1 ;     C6 - H3    
    10     24      1 ;     C7 - H8    
    11     25      1 ;     C8 - H9    
    11     27      1 ;     C8 - H11   
    12     22      1 ;     C9 - H6    
    13     23      1 ;    C10 - H7    
    13     27      1 ;    C10 - H11   
    14     18      1 ;    C11 - H2    
    14     20      1 ;    C11 - H4    
    15     19      1 ;    C12 - H3    
    15     21      1 ;    C12 - H5    
    18     22      1 ;     H2 - H6    
    19     23      1 ;     H3 - H7    
    20     24      1 ;     H4 - H8    
    21     25      1 ;     H5 - H9    
    26     10      1 ;    H10 - C7    
    26     12      1 ;    H10 - C9    

[ angles ]
;   ai     aj     ak    funct   theta         cth
     1     14     10      1    1.1990e+02    6.5990e+02 ;      O - C11    - C7    
     1     14     12      1    1.1990e+02    6.5990e+02 ;      O - C11    - C9    
     2     15     11      1    1.1990e+02    6.5990e+02 ;     O1 - C12    - C8    
     2     15     13      1    1.1990e+02    6.5990e+02 ;     O1 - C12    - C10   
     3      4      6      1    1.2083e+02    5.0827e+02 ;      C - C1     - C3    
     3      4      8      1    1.2083e+02    5.0827e+02 ;      C - C1     - C5    
     3      5      7      1    1.2083e+02    5.0827e+02 ;      C - C2     - C4    
     3      5      9      1    1.2083e+02    5.0827e+02 ;      C - C2     - C6    
     4      3      5      1    1.1231e+02    5.0861e+02 ;     C1 - C      - C2    
     4      3     16      1    1.1063e+02    3.6493e+02 ;     C1 - C      - H     
     4      3     17      1    1.1063e+02    3.6493e+02 ;     C1 - C      - H1    
     4      6     10      1    1.2002e+02    5.3279e+02 ;     C1 - C3     - C7    
     4      6     18      1    1.1988e+02    3.7572e+02 ;     C1 - C3     - H2    
     4      8     12      1    1.2002e+02    5.3279e+02 ;     C1 - C5     - C9    
     4      8     20      1    1.1988e+02    3.7572e+02 ;     C1 - C5     - H4    
     5      3     16      1    1.1063e+02    3.6493e+02 ;     C2 - C      - H     
     5      3     17      1    1.1063e+02    3.6493e+02 ;     C2 - C      - H1    
     5      7     11      1    1.2002e+02    5.3279e+02 ;     C2 - C4     - C8    
     5      7     19      1    1.1988e+02    3.7572e+02 ;     C2 - C4     - H3    
     5      9     13      1    1.2002e+02    5.3279e+02 ;     C2 - C6     - C10   
     5      9     21      1    1.1988e+02    3.7572e+02 ;     C2 - C6     - H5    
     6      4      8      1    1.2002e+02    5.3279e+02 ;     C3 - C1     - C5    
     6     10     14      1    1.2002e+02    5.3279e+02 ;     C3 - C7     - C11   
     6     10     22      1    1.1988e+02    3.7572e+02 ;     C3 - C7     - H6    
     7      5      9      1    1.2002e+02    5.3279e+02 ;     C4 - C2     - C6    
     7     11     15      1    1.2002e+02    5.3279e+02 ;     C4 - C8     - C12   
     7     11     23      1    1.1988e+02    3.7572e+02 ;     C4 - C8     - H7    
     8     12     14      1    1.2002e+02    5.3279e+02 ;     C5 - C9     - C11   
     8     12     24      1    1.1988e+02    3.7572e+02 ;     C5 - C9     - H8    
     9     13     15      1    1.2002e+02    5.3279e+02 ;     C6 - C10    - C12   
     9     13     25      1    1.1988e+02    3.7572e+02 ;     C6 - C10    - H9    
    10      6     18      1    1.1988e+02    3.7572e+02 ;     C7 - C3     - H2    
    10     14     12      1    1.2002e+02    5.3279e+02 ;     C7 - C11    - C9    
    11      7     19      1    1.1988e+02    3.7572e+02 ;     C8 - C4     - H3    
    11     15     13      1    1.2002e+02    5.3279e+02 ;     C8 - C12    - C10   
    12      8     20      1    1.1988e+02    3.7572e+02 ;     C9 - C5     - H4    
    13      9     21      1    1.1988e+02    3.7572e+02 ;    C10 - C6     - H5    
    14      1     26      1    1.0858e+02    5.6409e+02 ;    C11 - O      - H10   
    14     10     22      1    1.1988e+02    3.7572e+02 ;    C11 - C7     - H6    
    14     12     24      1    1.1988e+02    3.7572e+02 ;    C11 - C9     - H8    
    15      2     27      1    1.0858e+02    5.6409e+02 ;    C12 - O1     - H11   
    15     11     23      1    1.1988e+02    3.7572e+02 ;    C12 - C8     - H7    
    15     13     25      1    1.1988e+02    3.7572e+02 ;    C12 - C10    - H9    
    16      3     17      1    1.0773e+02    2.9957e+02 ;      H - C      - H1    

[ dihedrals ] ; propers
; for gromacs 4.5 or higher, using funct 9
;    i      j      k      l   func   phase     kd      pn
     1     14     10      6      9   180.00  15.16700   2 ;      O-   C11-    C7-    C3
     1     14     10     22      9   180.00  15.16700   2 ;      O-   C11-    C7-    H6
     1     14     12      8      9   180.00  15.16700   2 ;      O-   C11-    C9-    C5
     1     14     12     24      9   180.00  15.16700   2 ;      O-   C11-    C9-    H8
     2     15     11      7      9   180.00  15.16700   2 ;     O1-   C12-    C8-    C4
     2     15     11     23      9   180.00  15.16700   2 ;     O1-   C12-    C8-    H7
     2     15     13      9      9   180.00  15.16700   2 ;     O1-   C12-   C10-    C6
     2     15     13     25      9   180.00  15.16700   2 ;     O1-   C12-   C10-    H9
     3      4      6     10      9   180.00  15.16700   2 ;      C-    C1-    C3-    C7
     3      4      6     18      9   180.00  15.16700   2 ;      C-    C1-    C3-    H2
     3      4      8     12      9   180.00  15.16700   2 ;      C-    C1-    C5-    C9
     3      4      8     20      9   180.00  15.16700   2 ;      C-    C1-    C5-    H4
     3      5      7     11      9   180.00  15.16700   2 ;      C-    C2-    C4-    C8
     3      5      7     19      9   180.00  15.16700   2 ;      C-    C2-    C4-    H3
     3      5      9     13      9   180.00  15.16700   2 ;      C-    C2-    C6-   C10
     3      5      9     21      9   180.00  15.16700   2 ;      C-    C2-    C6-    H5
     4      3      5      7      9   180.00   0.00000   2 ;     C1-     C-    C2-    C4
     4      3      5      9      9   180.00   0.00000   2 ;     C1-     C-    C2-    C6
     4      6     10     14      9   180.00  15.16700   2 ;     C1-    C3-    C7-   C11
     4      6     10     22      9   180.00  15.16700   2 ;     C1-    C3-    C7-    H6
     4      8     12     14      9   180.00  15.16700   2 ;     C1-    C5-    C9-   C11
     4      8     12     24      9   180.00  15.16700   2 ;     C1-    C5-    C9-    H8
     5      3      4      6      9   180.00   0.00000   2 ;     C2-     C-    C1-    C3
     5      3      4      8      9   180.00   0.00000   2 ;     C2-     C-    C1-    C5
     5      7     11     15      9   180.00  15.16700   2 ;     C2-    C4-    C8-   C12
     5      7     11     23      9   180.00  15.16700   2 ;     C2-    C4-    C8-    H7
     5      9     13     15      9   180.00  15.16700   2 ;     C2-    C6-   C10-   C12
     5      9     13     25      9   180.00  15.16700   2 ;     C2-    C6-   C10-    H9
     6      4      3     16      9     0.00   0.00000   0 ;     C3-    C1-     C-     H
     6      4      3     17      9     0.00   0.00000   0 ;     C3-    C1-     C-    H1
     6      4      8     12      9   180.00  15.16700   2 ;     C3-    C1-    C5-    C9
     6      4      8     20      9   180.00  15.16700   2 ;     C3-    C1-    C5-    H4
     6     10     14     12      9   180.00  15.16700   2 ;     C3-    C7-   C11-    C9
     7      5      3     16      9     0.00   0.00000   0 ;     C4-    C2-     C-     H
     7      5      3     17      9     0.00   0.00000   0 ;     C4-    C2-     C-    H1
     7      5      9     13      9   180.00  15.16700   2 ;     C4-    C2-    C6-   C10
     7      5      9     21      9   180.00  15.16700   2 ;     C4-    C2-    C6-    H5
     7     11     15     13      9   180.00  15.16700   2 ;     C4-    C8-   C12-   C10
     8      4      3     16      9     0.00   0.00000   0 ;     C5-    C1-     C-     H
     8      4      3     17      9     0.00   0.00000   0 ;     C5-    C1-     C-    H1
     8      4      6     10      9   180.00  15.16700   2 ;     C5-    C1-    C3-    C7
     8      4      6     18      9   180.00  15.16700   2 ;     C5-    C1-    C3-    H2
     8     12     14     10      9   180.00  15.16700   2 ;     C5-    C9-   C11-    C7
     9      5      3     16      9     0.00   0.00000   0 ;     C6-    C2-     C-     H
     9      5      3     17      9     0.00   0.00000   0 ;     C6-    C2-     C-    H1
     9      5      7     11      9   180.00  15.16700   2 ;     C6-    C2-    C4-    C8
     9      5      7     19      9   180.00  15.16700   2 ;     C6-    C2-    C4-    H3
     9     13     15     11      9   180.00  15.16700   2 ;     C6-   C10-   C12-    C8
    10     14     12     24      9   180.00  15.16700   2 ;     C7-   C11-    C9-    H8
    11     15      2     27      9   180.00   3.57732   2 ;     C8-   C12-    O1-   H11
    11     15     13     25      9   180.00  15.16700   2 ;     C8-   C12-   C10-    H9
    12     14     10     22      9   180.00  15.16700   2 ;     C9-   C11-    C7-    H6
    13     15      2     27      9   180.00   3.57732   2 ;    C10-   C12-    O1-   H11
    13     15     11     23      9   180.00  15.16700   2 ;    C10-   C12-    C8-    H7
    14     10      6     18      9   180.00  15.16700   2 ;    C11-    C7-    C3-    H2
    14     12      8     20      9   180.00  15.16700   2 ;    C11-    C9-    C5-    H4
    15     11      7     19      9   180.00  15.16700   2 ;    C12-    C8-    C4-    H3
    15     13      9     21      9   180.00  15.16700   2 ;    C12-   C10-    C6-    H5
    18      6     10     22      9   180.00  15.16700   2 ;     H2-    C3-    C7-    H6
    19      7     11     23      9   180.00  15.16700   2 ;     H3-    C4-    C8-    H7
    20      8     12     24      9   180.00  15.16700   2 ;     H4-    C5-    C9-    H8
    21      9     13     25      9   180.00  15.16700   2 ;     H5-    C6-   C10-    H9
    26      1     14     10      9   180.00   3.57732   2 ;    H10-     O-   C11-    C7
    26      1     14     12      9   180.00   3.57732   2 ;    H10-     O-   C11-    C9

[ dihedrals ] ; impropers
; treated as propers in GROMACS to use correct AMBER analytical function
;    i      j      k      l   func   phase     kd      pn
     1     14     12     10      4   180.00   4.60240   2 ;      O-   C11-    C9-    C7
     3      7      5      9      4   180.00   4.60240   2 ;      C-    C4-    C2-    C6
     4     10      6     18      4   180.00   4.60240   2 ;     C1-    C7-    C3-    H2
     4     12      8     20      4   180.00   4.60240   2 ;     C1-    C9-    C5-    H4
     5     11      7     19      4   180.00   4.60240   2 ;     C2-    C8-    C4-    H3
     5     13      9     21      4   180.00   4.60240   2 ;     C2-   C10-    C6-    H5
     6      8      4      3      4   180.00   4.60240   2 ;     C3-    C5-    C1-     C
     6     14     10     22      4   180.00   4.60240   2 ;     C3-   C11-    C7-    H6
     7     15     11     23      4   180.00   4.60240   2 ;     C4-   C12-    C8-    H7
     8     14     12     24      4   180.00   4.60240   2 ;     C5-   C11-    C9-    H8
     9     15     13     25      4   180.00   4.60240   2 ;     C6-   C12-   C10-    H9
    11     13     15      2      4   180.00   4.60240   2 ;     C8-   C10-   C12-    O1
