; aldosterone_GMX_OPLS.itp created by acpype (v: 2023.10.27) on Mon Feb  9 17:25:20 2026

; For OPLS atomtypes manual fine tuning
; AC_at:OPLS_at:OPLScode: Possible_Alternatives (see ffoplsaa.atp and ffoplsaanb.itp)
; oh:OH:opls_154: ['167']
; o:O:opls_236: ['272']
; c5:x:opls_x: []
; c6:x:opls_x: []
; c2:CR:opls_509: ['510']
; c:C:opls_235: ['271']
; c3:CT:opls_135: ['136', '137', '149', '157', '158', '206', '209', '210', '223B', '224B', '245', '246', '274', '283', '284', '285', '292', '292B', '293B', '296', '307', '308', '505']
; ce:x:opls_x: []
; hc:HC:opls_140: []
; h1:HC:opls_140: []
; h4:HA:opls_146: []
; ha:HA:opls_146: []
; ho:HO:opls_155: ['168']

[ moleculetype ]
;name            nrexcl
 aldosterone      3

[ atoms ]
;   nr  type  resi  res  atom  cgnr     charge      mass       ; qtot   bond_type
     1 opls_154     1   UNL     O    1    -0.590800     15.99940 ; qtot -0.591  OH  
     2 opls_236     1   UNL    O1    2    -0.505100     15.99940 ; qtot -1.096  O   
     3 opls_236     1   UNL    O2    3    -0.516100     15.99940 ; qtot -1.612  O   
     4 opls_236     1   UNL    O3    4    -0.533100     15.99940 ; qtot -2.145  O   
     5 opls_154     1   UNL    O4    5    -0.588800     15.99940 ; qtot -2.734  OH  
     6 opls_x     1   UNL     C    6    -0.046700      0.00000 ; qtot -2.781  x   
     7 opls_x     1   UNL    C1    7    -0.058700      0.00000 ; qtot -2.839  x   
     8 opls_x     1   UNL    C2    8    -0.156000      0.00000 ; qtot -2.995  x   
     9 opls_x     1   UNL    C3    9    -0.036700      0.00000 ; qtot -3.032  x   
    10 opls_x     1   UNL    C4   10    -0.006800      0.00000 ; qtot -3.039  x   
    11 opls_x     1   UNL    C5   11     0.145100      0.00000 ; qtot -2.894  x   
    12 opls_x     1   UNL    C6   12    -0.106400      0.00000 ; qtot -3.000  x   
    13 opls_x     1   UNL    C7   13    -0.154700      0.00000 ; qtot -3.155  x   
    14 opls_x     1   UNL    C8   14    -0.078400      0.00000 ; qtot -3.233  x   
    15 opls_x     1   UNL    C9   15    -0.067400      0.00000 ; qtot -3.301  x   
    16 opls_x     1   UNL   C10   16    -0.076400      0.00000 ; qtot -3.377  x   
    17 opls_509     1   UNL   C11   17    -0.032400     12.01100 ; qtot -3.409  CR  
    18 opls_x     1   UNL   C12   18    -0.056200      0.00000 ; qtot -3.466  x   
    19 opls_x     1   UNL   C13   19    -0.072400      0.00000 ; qtot -3.538  x   
    20 opls_235     1   UNL   C14   20     0.597901     12.01100 ; qtot -2.940  C   
    21 opls_135     1   UNL   C15   21    -0.083100     12.01100 ; qtot -3.023  CT  
    22 opls_235     1   UNL   C16   22     0.530100     12.01100 ; qtot -2.493  C   
    23 opls_x     1   UNL   C17   23    -0.183400      0.00000 ; qtot -2.676  x   
    24 opls_x     1   UNL   C18   24    -0.264200      0.00000 ; qtot -2.941  x   
    25 opls_235     1   UNL   C19   25     0.570300     12.01100 ; qtot -2.370  C   
    26 opls_135     1   UNL   C20   26     0.030400     12.01100 ; qtot -2.340  CT  
    27 opls_140     1   UNL     H   27     0.044700      1.00800 ; qtot -2.295  HC  
    28 opls_140     1   UNL    H1   28     0.092700      1.00800 ; qtot -2.203  HC  
    29 opls_140     1   UNL    H2   29     0.049700      1.00800 ; qtot -2.153  HC  
    30 opls_140     1   UNL    H3   30     0.036700      1.00800 ; qtot -2.116  HC  
    31 opls_140     1   UNL    H4   31     0.052700      1.00800 ; qtot -2.063  HC  
    32 opls_140     1   UNL    H5   32     0.052700      1.00800 ; qtot -2.011  HC  
    33 opls_140     1   UNL    H6   33     0.068700      1.00800 ; qtot -1.942  HC  
    34 opls_140     1   UNL    H7   34     0.061200      1.00800 ; qtot -1.881  HC  
    35 opls_140     1   UNL    H8   35     0.061200      1.00800 ; qtot -1.820  HC  
    36 opls_140     1   UNL    H9   36     0.047700      1.00800 ; qtot -1.772  HC  
    37 opls_140     1   UNL   H10   37     0.047700      1.00800 ; qtot -1.724  HC  
    38 opls_140     1   UNL   H11   38     0.061200      1.00800 ; qtot -1.663  HC  
    39 opls_140     1   UNL   H12   39     0.061200      1.00800 ; qtot -1.602  HC  
    40 opls_140     1   UNL   H13   40     0.059200      1.00800 ; qtot -1.543  HC  
    41 opls_140     1   UNL   H14   41     0.059200      1.00800 ; qtot -1.483  HC  
    42 opls_140     1   UNL   H15   42     0.051700      1.00800 ; qtot -1.432  HC  
    43 opls_140     1   UNL   H16   43     0.051700      1.00800 ; qtot -1.380  HC  
    44 opls_146     1   UNL   H17   44    -0.004800      1.00800 ; qtot -1.385  HA  
    45 opls_140     1   UNL   H18   45     0.047033      1.00800 ; qtot -1.338  HC  
    46 opls_140     1   UNL   H19   46     0.047033      1.00800 ; qtot -1.291  HC  
    47 opls_140     1   UNL   H20   47     0.047033      1.00800 ; qtot -1.244  HC  
    48 opls_140     1   UNL   H21   48     0.068200      1.00800 ; qtot -1.176  HC  
    49 opls_140     1   UNL   H22   49     0.068200      1.00800 ; qtot -1.107  HC  
    50 opls_146     1   UNL   H23   50     0.149000      1.00800 ; qtot -0.958  HA  
    51 opls_155     1   UNL   H24   51     0.400000      1.00800 ; qtot -0.558  HO  
    52 opls_140     1   UNL   H25   52     0.068200      1.00800 ; qtot -0.490  HC  
    53 opls_140     1   UNL   H26   53     0.068200      1.00800 ; qtot -0.422  HC  
    54 opls_155     1   UNL   H27   54     0.422000      1.00800 ; qtot  0.000  HO  

[ bonds ]
;   ai     aj funct   r             k
     1     11   1 ;    1.4241e-01    2.3870e+05 ;      O - C5         OH - x     
     1     51   1 ;    9.7250e-02    4.4811e+05 ;      O - H24        OH - HO    
     2     20   1 ;    1.2190e-01    4.9421e+05 ;     O1 - C14         O - C     
     3     22   1 ;    1.2190e-01    4.9421e+05 ;     O2 - C16         O - C     
     4     25   1 ;    1.2190e-01    4.9421e+05 ;     O3 - C19         O - C     
     5     26   1 ;    1.4242e-01    2.3861e+05 ;     O4 - C20        OH - CT    
     5     54   1 ;    9.7250e-02    4.4811e+05 ;     O4 - H27        OH - HO    
     6      7   1 ;    1.5389e-01    1.8951e+05 ;      C - C1          x - x     
     6      8   1 ;    1.5483e-01    1.8418e+05 ;      C - C2          x - x     
     6     14   1 ;    1.5483e-01    1.8418e+05 ;      C - C8          x - x     
     6     27   1 ;    1.0954e-01    2.8989e+05 ;      C - H           x - HC    
     7      9   1 ;    1.5384e-01    1.8979e+05 ;     C1 - C3          x - x     
     7     15   1 ;    1.5384e-01    1.8979e+05 ;     C1 - C9          x - x     
     7     28   1 ;    1.0979e-01    2.8681e+05 ;     C1 - H1          x - HC    
     8     12   1 ;    1.5389e-01    1.8951e+05 ;     C2 - C6          x - x     
     8     13   1 ;    1.5483e-01    1.8418e+05 ;     C2 - C7          x - x     
     8     20   1 ;    1.5346e-01    1.9200e+05 ;     C2 - C14         x - C     
     9     10   1 ;    1.5384e-01    1.8979e+05 ;     C3 - C4          x - x     
     9     11   1 ;    1.5384e-01    1.8979e+05 ;     C3 - C5          x - x     
     9     29   1 ;    1.0979e-01    2.8681e+05 ;     C3 - H2          x - HC    
    10     17   1 ;    1.5133e-01    2.0498e+05 ;     C4 - C11         x - CR    
    10     19   1 ;    1.5384e-01    1.8979e+05 ;     C4 - C13         x - x     
    10     21   1 ;    1.5428e-01    1.8728e+05 ;     C4 - C15         x - CT    
    11     12   1 ;    1.5384e-01    1.8979e+05 ;     C5 - C6          x - x     
    11     30   1 ;    1.0984e-01    2.8620e+05 ;     C5 - H3          x - HC    
    12     31   1 ;    1.0979e-01    2.8681e+05 ;     C6 - H4          x - HC    
    12     32   1 ;    1.0979e-01    2.8681e+05 ;     C6 - H5          x - HC    
    13     16   1 ;    1.5483e-01    1.8418e+05 ;     C7 - C10         x - x     
    13     22   1 ;    1.5346e-01    1.9200e+05 ;     C7 - C16         x - C     
    13     33   1 ;    1.0954e-01    2.8989e+05 ;     C7 - H6          x - HC    
    14     16   1 ;    1.5483e-01    1.8418e+05 ;     C8 - C10         x - x     
    14     34   1 ;    1.0954e-01    2.8989e+05 ;     C8 - H7          x - HC    
    14     35   1 ;    1.0954e-01    2.8989e+05 ;     C8 - H8          x - HC    
    15     18   1 ;    1.5384e-01    1.8979e+05 ;     C9 - C12         x - x     
    15     36   1 ;    1.0979e-01    2.8681e+05 ;     C9 - H9          x - HC    
    15     37   1 ;    1.0979e-01    2.8681e+05 ;     C9 - H10         x - HC    
    16     38   1 ;    1.0954e-01    2.8989e+05 ;    C10 - H11         x - HC    
    16     39   1 ;    1.0954e-01    2.8989e+05 ;    C10 - H12         x - HC    
    17     18   1 ;    1.5133e-01    2.0498e+05 ;    C11 - C12        CR - x     
    17     24   1 ;    1.3457e-01    3.5505e+05 ;    C11 - C18        CR - x     
    18     40   1 ;    1.0979e-01    2.8681e+05 ;    C12 - H13         x - HC    
    18     41   1 ;    1.0979e-01    2.8681e+05 ;    C12 - H14         x - HC    
    19     23   1 ;    1.5384e-01    1.8979e+05 ;    C13 - C17         x - x     
    19     42   1 ;    1.0979e-01    2.8681e+05 ;    C13 - H15         x - HC    
    19     43   1 ;    1.0979e-01    2.8681e+05 ;    C13 - H16         x - HC    
    20     44   1 ;    1.1123e-01    2.6984e+05 ;    C14 - H17         C - HA    
    21     45   1 ;    1.0962e-01    2.8891e+05 ;    C15 - H18        CT - HC    
    21     46   1 ;    1.0962e-01    2.8891e+05 ;    C15 - H19        CT - HC    
    21     47   1 ;    1.0962e-01    2.8891e+05 ;    C15 - H20        CT - HC    
    22     26   1 ;    1.5270e-01    1.9652e+05 ;    C16 - C20         C - CT    
    23     25   1 ;    1.5287e-01    1.9550e+05 ;    C17 - C19         x - C     
    23     48   1 ;    1.0979e-01    2.8681e+05 ;    C17 - H21         x - HC    
    23     49   1 ;    1.0979e-01    2.8681e+05 ;    C17 - H22         x - HC    
    24     25   1 ;    1.4848e-01    2.2406e+05 ;    C18 - C19         x - C     
    24     50   1 ;    1.0880e-01    2.9923e+05 ;    C18 - H23         x - HA    
    26     52   1 ;    1.0969e-01    2.8804e+05 ;    C20 - H25        CT - HC    
    26     53   1 ;    1.0969e-01    2.8804e+05 ;    C20 - H26        CT - HC    

[ pairs ]
;   ai     aj    funct
     1      7      1 ;      O - C1    
     1      8      1 ;      O - C2    
     1     10      1 ;      O - C4    
     1     29      1 ;      O - H2    
     1     31      1 ;      O - H4    
     1     32      1 ;      O - H5    
     2      6      1 ;     O1 - C     
     2     12      1 ;     O1 - C6    
     2     13      1 ;     O1 - C7    
     3      5      1 ;     O2 - O4    
     3      8      1 ;     O2 - C2    
     3     16      1 ;     O2 - C10   
     3     33      1 ;     O2 - H6    
     3     52      1 ;     O2 - H25   
     3     53      1 ;     O2 - H26   
     4     17      1 ;     O3 - C11   
     4     19      1 ;     O3 - C13   
     4     48      1 ;     O3 - H21   
     4     49      1 ;     O3 - H22   
     4     50      1 ;     O3 - H23   
     5     13      1 ;     O4 - C7    
     6     10      1 ;      C - C4    
     6     11      1 ;      C - C5    
     6     18      1 ;      C - C12   
     6     22      1 ;      C - C16   
     6     29      1 ;      C - H2    
     6     31      1 ;      C - H4    
     6     32      1 ;      C - H5    
     6     33      1 ;      C - H6    
     6     36      1 ;      C - H9    
     6     37      1 ;      C - H10   
     6     38      1 ;      C - H11   
     6     39      1 ;      C - H12   
     6     44      1 ;      C - H17   
     7     12      1 ;     C1 - C6    
     7     13      1 ;     C1 - C7    
     7     16      1 ;     C1 - C10   
     7     17      1 ;     C1 - C11   
     7     19      1 ;     C1 - C13   
     7     20      1 ;     C1 - C14   
     7     21      1 ;     C1 - C15   
     7     30      1 ;     C1 - H3    
     7     34      1 ;     C1 - H7    
     7     35      1 ;     C1 - H8    
     7     40      1 ;     C1 - H13   
     7     41      1 ;     C1 - H14   
     8      9      1 ;     C2 - C3    
     8     15      1 ;     C2 - C9    
     8     26      1 ;     C2 - C20   
     8     28      1 ;     C2 - H1    
     8     30      1 ;     C2 - H3    
     8     34      1 ;     C2 - H7    
     8     35      1 ;     C2 - H8    
     8     38      1 ;     C2 - H11   
     8     39      1 ;     C2 - H12   
     9     14      1 ;     C3 - C8    
     9     18      1 ;     C3 - C12   
     9     23      1 ;     C3 - C17   
     9     24      1 ;     C3 - C18   
     9     27      1 ;     C3 - H     
     9     31      1 ;     C3 - H4    
     9     32      1 ;     C3 - H5    
     9     36      1 ;     C3 - H9    
     9     37      1 ;     C3 - H10   
     9     42      1 ;     C3 - H15   
     9     43      1 ;     C3 - H16   
     9     45      1 ;     C3 - H18   
     9     46      1 ;     C3 - H19   
     9     47      1 ;     C3 - H20   
    10     12      1 ;     C4 - C6    
    10     15      1 ;     C4 - C9    
    10     25      1 ;     C4 - C19   
    10     28      1 ;     C4 - H1    
    10     30      1 ;     C4 - H3    
    10     40      1 ;     C4 - H13   
    10     41      1 ;     C4 - H14   
    10     48      1 ;     C4 - H21   
    10     49      1 ;     C4 - H22   
    10     50      1 ;     C4 - H23   
    11     13      1 ;     C5 - C7    
    11     15      1 ;     C5 - C9    
    11     17      1 ;     C5 - C11   
    11     19      1 ;     C5 - C13   
    11     20      1 ;     C5 - C14   
    11     21      1 ;     C5 - C15   
    11     28      1 ;     C5 - H1    
    12     14      1 ;     C6 - C8    
    12     16      1 ;     C6 - C10   
    12     22      1 ;     C6 - C16   
    12     27      1 ;     C6 - H     
    12     29      1 ;     C6 - H2    
    12     33      1 ;     C6 - H6    
    12     44      1 ;     C6 - H17   
    13     27      1 ;     C7 - H     
    13     31      1 ;     C7 - H4    
    13     32      1 ;     C7 - H5    
    13     34      1 ;     C7 - H7    
    13     35      1 ;     C7 - H8    
    13     44      1 ;     C7 - H17   
    13     52      1 ;     C7 - H25   
    13     53      1 ;     C7 - H26   
    14     15      1 ;     C8 - C9    
    14     20      1 ;     C8 - C14   
    14     22      1 ;     C8 - C16   
    14     28      1 ;     C8 - H1    
    14     33      1 ;     C8 - H6    
    15     24      1 ;     C9 - C18   
    15     27      1 ;     C9 - H     
    15     29      1 ;     C9 - H2    
    16     20      1 ;    C10 - C14   
    16     26      1 ;    C10 - C20   
    16     27      1 ;    C10 - H     
    17     23      1 ;    C11 - C17   
    17     29      1 ;    C11 - H2    
    17     36      1 ;    C11 - H9    
    17     37      1 ;    C11 - H10   
    17     42      1 ;    C11 - H15   
    17     43      1 ;    C11 - H16   
    17     45      1 ;    C11 - H18   
    17     46      1 ;    C11 - H19   
    17     47      1 ;    C11 - H20   
    18     19      1 ;    C12 - C13   
    18     21      1 ;    C12 - C15   
    18     25      1 ;    C12 - C19   
    18     28      1 ;    C12 - H1    
    18     50      1 ;    C12 - H23   
    19     24      1 ;    C13 - C18   
    19     29      1 ;    C13 - H2    
    19     45      1 ;    C13 - H18   
    19     46      1 ;    C13 - H19   
    19     47      1 ;    C13 - H20   
    20     22      1 ;    C14 - C16   
    20     27      1 ;    C14 - H     
    20     31      1 ;    C14 - H4    
    20     32      1 ;    C14 - H5    
    20     33      1 ;    C14 - H6    
    21     23      1 ;    C15 - C17   
    21     24      1 ;    C15 - C18   
    21     29      1 ;    C15 - H2    
    21     42      1 ;    C15 - H15   
    21     43      1 ;    C15 - H16   
    22     38      1 ;    C16 - H11   
    22     39      1 ;    C16 - H12   
    22     54      1 ;    C16 - H27   
    23     50      1 ;    C17 - H23   
    24     40      1 ;    C18 - H13   
    24     41      1 ;    C18 - H14   
    24     48      1 ;    C18 - H21   
    24     49      1 ;    C18 - H22   
    25     42      1 ;    C19 - H15   
    25     43      1 ;    C19 - H16   
    26     33      1 ;    C20 - H6    
    27     28      1 ;      H - H1    
    27     34      1 ;      H - H7    
    27     35      1 ;      H - H8    
    28     29      1 ;     H1 - H2    
    28     36      1 ;     H1 - H9    
    28     37      1 ;     H1 - H10   
    29     30      1 ;     H2 - H3    
    30     31      1 ;     H3 - H4    
    30     32      1 ;     H3 - H5    
    33     38      1 ;     H6 - H11   
    33     39      1 ;     H6 - H12   
    34     38      1 ;     H7 - H11   
    34     39      1 ;     H7 - H12   
    35     38      1 ;     H8 - H11   
    35     39      1 ;     H8 - H12   
    36     40      1 ;     H9 - H13   
    36     41      1 ;     H9 - H14   
    37     40      1 ;    H10 - H13   
    37     41      1 ;    H10 - H14   
    42     48      1 ;    H15 - H21   
    42     49      1 ;    H15 - H22   
    43     48      1 ;    H16 - H21   
    43     49      1 ;    H16 - H22   
    51      9      1 ;    H24 - C3    
    51     12      1 ;    H24 - C6    
    51     30      1 ;    H24 - H3    
    52     54      1 ;    H25 - H27   
    53     54      1 ;    H26 - H27   

[ angles ]
;   ai     aj     ak    funct   theta         cth
     1     11      9      1 ;    1.1005e+02    6.4065e+02 ;      O - C5   - C3       OH -    x - x   
     1     11     12      1 ;    1.1005e+02    6.4065e+02 ;      O - C5   - C6       OH -    x - x   
     1     11     30      1 ;    1.0996e+02    4.7187e+02 ;      O - C5   - H3       OH -    x - HC  
     2     20      8      1 ;    1.2567e+02    6.3019e+02 ;     O1 - C14  - C2        O -    C - x   
     2     20     44      1 ;    1.2062e+02    5.0191e+02 ;     O1 - C14  - H17       O -    C - HA  
     3     22     13      1 ;    1.2567e+02    6.3019e+02 ;     O2 - C16  - C7        O -    C - x   
     3     22     26      1 ;    1.2290e+02    6.3973e+02 ;     O2 - C16  - C20       O -    C - CT  
     4     25     23      1 ;    1.2234e+02    6.4065e+02 ;     O3 - C19  - C17       O -    C - x   
     4     25     24      1 ;    1.2324e+02    6.5262e+02 ;     O3 - C19  - C18       O -    C - x   
     5     26     22      1 ;    1.0946e+02    6.4526e+02 ;     O4 - C20  - C16      OH -   CT - C   
     5     26     52      1 ;    1.1038e+02    4.7103e+02 ;     O4 - C20  - H25      OH -   CT - HC  
     5     26     53      1 ;    1.1038e+02    4.7103e+02 ;     O4 - C20  - H26      OH -   CT - HC  
     6      7      9      1 ;    1.1104e+02    5.0350e+02 ;      C - C1   - C3        x -    x - x   
     6      7     15      1 ;    1.1104e+02    5.0350e+02 ;      C - C1   - C9        x -    x - x   
     6      7     28      1 ;    1.0934e+02    3.6183e+02 ;      C - C1   - H1        x -    x - HC  
     6      8     12      1 ;    1.1375e+02    4.9589e+02 ;      C - C2   - C6        x -    x - x   
     6      8     13      1 ;    1.0383e+02    5.1748e+02 ;      C - C2   - C7        x -    x - x   
     6      8     20      1 ;    1.0786e+02    5.0995e+02 ;      C - C2   - C14       x -    x - C   
     6     14     16      1 ;    1.0383e+02    5.1748e+02 ;      C - C8   - C10       x -    x - x   
     6     14     34      1 ;    1.1117e+02    3.5690e+02 ;      C - C8   - H7        x -    x - HC  
     6     14     35      1 ;    1.1117e+02    3.5690e+02 ;      C - C8   - H8        x -    x - HC  
     7      6      8      1 ;    1.1375e+02    4.9589e+02 ;     C1 - C    - C2        x -    x - x   
     7      6     14      1 ;    1.1375e+02    4.9589e+02 ;     C1 - C    - C8        x -    x - x   
     7      6     27      1 ;    1.0642e+02    3.6685e+02 ;     C1 - C    - H         x -    x - HC  
     7      9     10      1 ;    1.1106e+02    5.0359e+02 ;     C1 - C3   - C4        x -    x - x   
     7      9     11      1 ;    1.1106e+02    5.0359e+02 ;     C1 - C3   - C5        x -    x - x   
     7      9     29      1 ;    1.0945e+02    3.6175e+02 ;     C1 - C3   - H2        x -    x - HC  
     7     15     18      1 ;    1.1106e+02    5.0359e+02 ;     C1 - C9   - C12       x -    x - x   
     7     15     36      1 ;    1.0945e+02    3.6175e+02 ;     C1 - C9   - H9        x -    x - HC  
     7     15     37      1 ;    1.0945e+02    3.6175e+02 ;     C1 - C9   - H10       x -    x - HC  
     8      6     14      1 ;    1.0383e+02    5.1748e+02 ;     C2 - C    - C8        x -    x - x   
     8      6     27      1 ;    1.1117e+02    3.5690e+02 ;     C2 - C    - H         x -    x - HC  
     8     12     11      1 ;    1.1104e+02    5.0350e+02 ;     C2 - C6   - C5        x -    x - x   
     8     12     31      1 ;    1.0934e+02    3.6183e+02 ;     C2 - C6   - H4        x -    x - HC  
     8     12     32      1 ;    1.0934e+02    3.6183e+02 ;     C2 - C6   - H5        x -    x - HC  
     8     13     16      1 ;    1.0383e+02    5.1748e+02 ;     C2 - C7   - C10       x -    x - x   
     8     13     22      1 ;    1.0786e+02    5.0995e+02 ;     C2 - C7   - C16       x -    x - C   
     8     13     33      1 ;    1.1117e+02    3.5690e+02 ;     C2 - C7   - H6        x -    x - HC  
     8     20     44      1 ;    1.1455e+02    3.5397e+02 ;     C2 - C14  - H17       x -    C - HA  
     9      7     15      1 ;    1.1106e+02    5.0359e+02 ;     C3 - C1   - C9        x -    x - x   
     9      7     28      1 ;    1.0945e+02    3.6175e+02 ;     C3 - C1   - H1        x -    x - HC  
     9     10     17      1 ;    1.1141e+02    5.0685e+02 ;     C3 - C4   - C11       x -    x - CR  
     9     10     19      1 ;    1.1106e+02    5.0359e+02 ;     C3 - C4   - C13       x -    x - x   
     9     10     21      1 ;    1.1143e+02    5.0200e+02 ;     C3 - C4   - C15       x -    x - CT  
     9     11     12      1 ;    1.1106e+02    5.0359e+02 ;     C3 - C5   - C6        x -    x - x   
     9     11     30      1 ;    1.0918e+02    3.6217e+02 ;     C3 - C5   - H3        x -    x - HC  
    10      9     11      1 ;    1.1106e+02    5.0359e+02 ;     C4 - C3   - C5        x -    x - x   
    10      9     29      1 ;    1.0945e+02    3.6175e+02 ;     C4 - C3   - H2        x -    x - HC  
    10     17     18      1 ;    1.1596e+02    5.0099e+02 ;     C4 - C11  - C12       x -   CR - x   
    10     17     24      1 ;    1.2265e+02    5.1212e+02 ;     C4 - C11  - C18       x -   CR - x   
    10     19     23      1 ;    1.1106e+02    5.0359e+02 ;     C4 - C13  - C17       x -    x - x   
    10     19     42      1 ;    1.0945e+02    3.6175e+02 ;     C4 - C13  - H15       x -    x - HC  
    10     19     43      1 ;    1.0945e+02    3.6175e+02 ;     C4 - C13  - H16       x -    x - HC  
    10     21     45      1 ;    1.1063e+02    3.5890e+02 ;     C4 - C15  - H18       x -   CT - HC  
    10     21     46      1 ;    1.1063e+02    3.5890e+02 ;     C4 - C15  - H19       x -   CT - HC  
    10     21     47      1 ;    1.1063e+02    3.5890e+02 ;     C4 - C15  - H20       x -   CT - HC  
    11      1     51      1 ;    1.0707e+02    5.4584e+02 ;     C5 - O    - H24       x -   OH - HO  
    11      9     29      1 ;    1.0945e+02    3.6175e+02 ;     C5 - C3   - H2        x -    x - HC  
    11     12     31      1 ;    1.0945e+02    3.6175e+02 ;     C5 - C6   - H4        x -    x - HC  
    11     12     32      1 ;    1.0945e+02    3.6175e+02 ;     C5 - C6   - H5        x -    x - HC  
    12      8     13      1 ;    1.1375e+02    4.9589e+02 ;     C6 - C2   - C7        x -    x - x   
    12      8     20      1 ;    1.1288e+02    4.9999e+02 ;     C6 - C2   - C14       x -    x - C   
    12     11     30      1 ;    1.0918e+02    3.6217e+02 ;     C6 - C5   - H3        x -    x - HC  
    13      8     20      1 ;    1.0786e+02    5.0995e+02 ;     C7 - C2   - C14       x -    x - C   
    13     16     14      1 ;    1.0383e+02    5.1748e+02 ;     C7 - C10  - C8        x -    x - x   
    13     16     38      1 ;    1.1117e+02    3.5690e+02 ;     C7 - C10  - H11       x -    x - HC  
    13     16     39      1 ;    1.1117e+02    3.5690e+02 ;     C7 - C10  - H12       x -    x - HC  
    13     22     26      1 ;    1.1800e+02    4.9095e+02 ;     C7 - C16  - C20       x -    C - CT  
    14      6     27      1 ;    1.1117e+02    3.5690e+02 ;     C8 - C    - H         x -    x - HC  
    14     16     38      1 ;    1.1117e+02    3.5690e+02 ;     C8 - C10  - H11       x -    x - HC  
    14     16     39      1 ;    1.1117e+02    3.5690e+02 ;     C8 - C10  - H12       x -    x - HC  
    15      7     28      1 ;    1.0945e+02    3.6175e+02 ;     C9 - C1   - H1        x -    x - HC  
    15     18     17      1 ;    1.1141e+02    5.0685e+02 ;     C9 - C12  - C11       x -    x - CR  
    15     18     40      1 ;    1.0945e+02    3.6175e+02 ;     C9 - C12  - H13       x -    x - HC  
    15     18     41      1 ;    1.0945e+02    3.6175e+02 ;     C9 - C12  - H14       x -    x - HC  
    16     13     22      1 ;    1.0786e+02    5.0995e+02 ;    C10 - C7   - C16       x -    x - C   
    16     13     33      1 ;    1.1117e+02    3.5690e+02 ;    C10 - C7   - H6        x -    x - HC  
    16     14     34      1 ;    1.1117e+02    3.5690e+02 ;    C10 - C8   - H7        x -    x - HC  
    16     14     35      1 ;    1.1117e+02    3.5690e+02 ;    C10 - C8   - H8        x -    x - HC  
    17     10     19      1 ;    1.1141e+02    5.0685e+02 ;    C11 - C4   - C13      CR -    x - x   
    17     10     21      1 ;    1.0977e+02    5.0986e+02 ;    C11 - C4   - C15      CR -    x - CT  
    17     18     40      1 ;    1.0931e+02    3.6736e+02 ;    C11 - C12  - H13      CR -    x - HC  
    17     18     41      1 ;    1.0931e+02    3.6736e+02 ;    C11 - C12  - H14      CR -    x - HC  
    17     24     25      1 ;    1.2200e+02    5.1974e+02 ;    C11 - C18  - C19      CR -    x - C   
    17     24     50      1 ;    1.2000e+02    3.8694e+02 ;    C11 - C18  - H23      CR -    x - HA  
    18     15     36      1 ;    1.0945e+02    3.6175e+02 ;    C12 - C9   - H9        x -    x - HC  
    18     15     37      1 ;    1.0945e+02    3.6175e+02 ;    C12 - C9   - H10       x -    x - HC  
    18     17     24      1 ;    1.2265e+02    5.1212e+02 ;    C12 - C11  - C18       x -   CR - x   
    19     10     21      1 ;    1.1143e+02    5.0200e+02 ;    C13 - C4   - C15       x -    x - CT  
    19     23     25      1 ;    1.1143e+02    5.0434e+02 ;    C13 - C17  - C19       x -    x - C   
    19     23     48      1 ;    1.0945e+02    3.6175e+02 ;    C13 - C17  - H21       x -    x - HC  
    19     23     49      1 ;    1.0945e+02    3.6175e+02 ;    C13 - C17  - H22       x -    x - HC  
    22     13     33      1 ;    1.0864e+02    3.6401e+02 ;    C16 - C7   - H6        C -    x - HC  
    22     26     52      1 ;    1.0837e+02    3.6602e+02 ;    C16 - C20  - H25       C -   CT - HC  
    22     26     53      1 ;    1.0837e+02    3.6602e+02 ;    C16 - C20  - H26       C -   CT - HC  
    23     19     42      1 ;    1.0945e+02    3.6175e+02 ;    C17 - C13  - H15       x -    x - HC  
    23     19     43      1 ;    1.0945e+02    3.6175e+02 ;    C17 - C13  - H16       x -    x - HC  
    23     25     24      1 ;    1.1615e+02    5.0258e+02 ;    C17 - C19  - C18       x -    C - x   
    25     23     48      1 ;    1.0767e+02    3.6685e+02 ;    C19 - C17  - H21       C -    x - HC  
    25     23     49      1 ;    1.0767e+02    3.6685e+02 ;    C19 - C17  - H22       C -    x - HC  
    25     24     50      1 ;    1.1641e+02    3.6242e+02 ;    C19 - C18  - H23       C -    x - HA  
    26      5     54      1 ;    1.0739e+02    5.4501e+02 ;    C20 - O4   - H27      CT -   OH - HO  
    31     12     32      1 ;    1.0662e+02    3.0066e+02 ;     H4 - C6   - H5       HC -    x - HC  
    34     14     35      1 ;    1.0722e+02    3.0049e+02 ;     H7 - C8   - H8       HC -    x - HC  
    36     15     37      1 ;    1.0662e+02    3.0066e+02 ;     H9 - C9   - H10      HC -    x - HC  
    38     16     39      1 ;    1.0722e+02    3.0049e+02 ;    H11 - C10  - H12      HC -    x - HC  
    40     18     41      1 ;    1.0662e+02    3.0066e+02 ;    H13 - C12  - H14      HC -    x - HC  
    42     19     43      1 ;    1.0662e+02    3.0066e+02 ;    H15 - C13  - H16      HC -    x - HC  
    45     21     46      1 ;    1.0773e+02    2.9957e+02 ;    H18 - C15  - H19      HC -   CT - HC  
    45     21     47      1 ;    1.0773e+02    2.9957e+02 ;    H18 - C15  - H20      HC -   CT - HC  
    46     21     47      1 ;    1.0773e+02    2.9957e+02 ;    H19 - C15  - H20      HC -   CT - HC  
    48     23     49      1 ;    1.0662e+02    3.0066e+02 ;    H21 - C17  - H22      HC -    x - HC  
    52     26     53      1 ;    1.0855e+02    2.9824e+02 ;    H25 - C20  - H26      HC -   CT - HC  

[ dihedrals ] ; propers
; for gromacs 4.5 or higher, using funct 9
;    i      j      k      l   func   phase     kd      pn
     1     11      9      7      9 ;     0.00   0.75312   3 ;      O-    C5-    C3-    C1
     1     11      9     10      9 ;     0.00   0.75312   3 ;      O-    C5-    C3-    C4
     1     11      9     29      9 ;     0.00   0.37656   3 ;      O-    C5-    C3-    H2
     1     11     12      8      9 ;     0.00   0.75312   3 ;      O-    C5-    C6-    C2
     1     11     12     31      9 ;     0.00   0.37656   3 ;      O-    C5-    C6-    H4
     1     11     12     32      9 ;     0.00   0.37656   3 ;      O-    C5-    C6-    H5
     2     20      8      6      9 ;     0.00   2.84512   1 ;     O1-   C14-    C2-     C
     2     20      8      6      9 ;   180.00   0.83680   2 ;     O1-   C14-    C2-     C
     2     20      8      6      9 ;   180.00   1.84096   3 ;     O1-   C14-    C2-     C
     2     20      8     12      9 ;     0.00   2.84512   1 ;     O1-   C14-    C2-    C6
     2     20      8     12      9 ;   180.00   0.83680   2 ;     O1-   C14-    C2-    C6
     2     20      8     12      9 ;   180.00   1.84096   3 ;     O1-   C14-    C2-    C6
     2     20      8     13      9 ;     0.00   2.84512   1 ;     O1-   C14-    C2-    C7
     2     20      8     13      9 ;   180.00   0.83680   2 ;     O1-   C14-    C2-    C7
     2     20      8     13      9 ;   180.00   1.84096   3 ;     O1-   C14-    C2-    C7
     3     22     13      8      9 ;     0.00   2.84512   1 ;     O2-   C16-    C7-    C2
     3     22     13      8      9 ;   180.00   0.83680   2 ;     O2-   C16-    C7-    C2
     3     22     13      8      9 ;   180.00   1.84096   3 ;     O2-   C16-    C7-    C2
     3     22     13     16      9 ;     0.00   2.84512   1 ;     O2-   C16-    C7-   C10
     3     22     13     16      9 ;   180.00   0.83680   2 ;     O2-   C16-    C7-   C10
     3     22     13     16      9 ;   180.00   1.84096   3 ;     O2-   C16-    C7-   C10
     3     22     13     33      9 ;     0.00  16.86152   1 ;     O2-   C16-    C7-    H6
     3     22     13     33      9 ;   180.00  15.31344   2 ;     O2-   C16-    C7-    H6
     3     22     26      5      9 ;   180.00   0.00000   2 ;     O2-   C16-   C20-    O4
     3     22     26     52      9 ;     0.00   3.34720   1 ;     O2-   C16-   C20-   H25
     3     22     26     52      9 ;   180.00   0.33472   3 ;     O2-   C16-   C20-   H25
     3     22     26     53      9 ;     0.00   3.34720   1 ;     O2-   C16-   C20-   H26
     3     22     26     53      9 ;   180.00   0.33472   3 ;     O2-   C16-   C20-   H26
     4     25     23     19      9 ;     0.00   0.46024   2 ;     O3-   C19-   C17-   C13
     4     25     23     19      9 ;     0.00  49.12016   1 ;     O3-   C19-   C17-   C13
     4     25     23     19      9 ;   180.00   0.33472   3 ;     O3-   C19-   C17-   C13
     4     25     23     48      9 ;     0.00  16.86152   1 ;     O3-   C19-   C17-   H21
     4     25     23     48      9 ;   180.00  15.31344   2 ;     O3-   C19-   C17-   H21
     4     25     23     49      9 ;     0.00  16.86152   1 ;     O3-   C19-   C17-   H22
     4     25     23     49      9 ;   180.00  15.31344   2 ;     O3-   C19-   C17-   H22
     4     25     24     17      9 ;   180.00   9.10020   2 ;     O3-   C19-   C18-   C11
     4     25     24     50      9 ;   180.00   9.10020   2 ;     O3-   C19-   C18-   H23
     5     26     22     13      9 ;   180.00   0.00000   2 ;     O4-   C20-   C16-    C7
     6      7      9     10      9 ;     0.00   2.17568   3 ;      C-    C1-    C3-    C4
     6      7      9     11      9 ;     0.00   2.17568   3 ;      C-    C1-    C3-    C5
     6      7      9     29      9 ;     0.00   0.54392   3 ;      C-    C1-    C3-    H2
     6      7     15     18      9 ;     0.00   2.17568   3 ;      C-    C1-    C9-   C12
     6      7     15     36      9 ;     0.00   0.54392   3 ;      C-    C1-    C9-    H9
     6      7     15     37      9 ;     0.00   0.54392   3 ;      C-    C1-    C9-   H10
     6      8     12     11      9 ;     0.00   2.17568   3 ;      C-    C2-    C6-    C5
     6      8     12     31      9 ;     0.00   0.54392   3 ;      C-    C2-    C6-    H4
     6      8     12     32      9 ;     0.00   0.54392   3 ;      C-    C2-    C6-    H5
     6      8     13     16      9 ;     0.00   2.17568   3 ;      C-    C2-    C7-   C10
     6      8     13     22      9 ;     0.00   0.00000   0 ;      C-    C2-    C7-   C16
     6      8     13     22      9 ;     0.00   0.16736   2 ;      C-    C2-    C7-   C16
     6      8     13     22      9 ;   180.00   1.92464   1 ;      C-    C2-    C7-   C16
     6      8     13     33      9 ;     0.00   0.54392   3 ;      C-    C2-    C7-    H6
     6      8     20     44      9 ;   180.00   0.00000   2 ;      C-    C2-   C14-   H17
     6     14     16     13      9 ;     0.00   2.17568   3 ;      C-    C8-   C10-    C7
     6     14     16     38      9 ;     0.00   0.54392   3 ;      C-    C8-   C10-   H11
     6     14     16     39      9 ;     0.00   0.54392   3 ;      C-    C8-   C10-   H12
     7      6      8     12      9 ;     0.00   2.17568   3 ;     C1-     C-    C2-    C6
     7      6      8     13      9 ;     0.00   2.17568   3 ;     C1-     C-    C2-    C7
     7      6      8     20      9 ;     0.00   0.00000   0 ;     C1-     C-    C2-   C14
     7      6      8     20      9 ;     0.00   0.16736   2 ;     C1-     C-    C2-   C14
     7      6      8     20      9 ;   180.00   1.92464   1 ;     C1-     C-    C2-   C14
     7      6     14     16      9 ;     0.00   2.17568   3 ;     C1-     C-    C8-   C10
     7      6     14     34      9 ;     0.00   0.54392   3 ;     C1-     C-    C8-    H7
     7      6     14     35      9 ;     0.00   0.54392   3 ;     C1-     C-    C8-    H8
     7      9     10     17      9 ;     0.00   0.65084   3 ;     C1-    C3-    C4-   C11
     7      9     10     19      9 ;     0.00   2.17568   3 ;     C1-    C3-    C4-   C13
     7      9     10     21      9 ;     0.00   2.17568   3 ;     C1-    C3-    C4-   C15
     7      9     11     12      9 ;     0.00   2.17568   3 ;     C1-    C3-    C5-    C6
     7      9     11     30      9 ;     0.00   0.65084   3 ;     C1-    C3-    C5-    H3
     7     15     18     17      9 ;     0.00   0.65084   3 ;     C1-    C9-   C12-   C11
     7     15     18     40      9 ;     0.00   0.54392   3 ;     C1-    C9-   C12-   H13
     7     15     18     41      9 ;     0.00   0.54392   3 ;     C1-    C9-   C12-   H14
     8      6      7      9      9 ;     0.00   2.17568   3 ;     C2-     C-    C1-    C3
     8      6      7     15      9 ;     0.00   2.17568   3 ;     C2-     C-    C1-    C9
     8      6      7     28      9 ;     0.00   0.54392   3 ;     C2-     C-    C1-    H1
     8      6     14     16      9 ;     0.00   2.17568   3 ;     C2-     C-    C8-   C10
     8      6     14     34      9 ;     0.00   0.54392   3 ;     C2-     C-    C8-    H7
     8      6     14     35      9 ;     0.00   0.54392   3 ;     C2-     C-    C8-    H8
     8     12     11      9      9 ;     0.00   2.17568   3 ;     C2-    C6-    C5-    C3
     8     12     11     30      9 ;     0.00   0.65084   3 ;     C2-    C6-    C5-    H3
     8     13     16     14      9 ;     0.00   2.17568   3 ;     C2-    C7-   C10-    C8
     8     13     16     38      9 ;     0.00   0.54392   3 ;     C2-    C7-   C10-   H11
     8     13     16     39      9 ;     0.00   0.54392   3 ;     C2-    C7-   C10-   H12
     8     13     22     26      9 ;   180.00   1.09621   2 ;     C2-    C7-   C16-   C20
     9      7      6     14      9 ;     0.00   2.17568   3 ;     C3-    C1-     C-    C8
     9      7      6     27      9 ;     0.00   0.54392   3 ;     C3-    C1-     C-     H
     9      7     15     18      9 ;     0.00   2.17568   3 ;     C3-    C1-    C9-   C12
     9      7     15     36      9 ;     0.00   0.54392   3 ;     C3-    C1-    C9-    H9
     9      7     15     37      9 ;     0.00   0.54392   3 ;     C3-    C1-    C9-   H10
     9     10     17     18      9 ;     0.00   0.00000   0 ;     C3-    C4-   C11-   C12
     9     10     17     24      9 ;     0.00   0.00000   0 ;     C3-    C4-   C11-   C18
     9     10     19     23      9 ;     0.00   2.17568   3 ;     C3-    C4-   C13-   C17
     9     10     19     42      9 ;     0.00   0.54392   3 ;     C3-    C4-   C13-   H15
     9     10     19     43      9 ;     0.00   0.54392   3 ;     C3-    C4-   C13-   H16
     9     10     21     45      9 ;     0.00   0.54392   3 ;     C3-    C4-   C15-   H18
     9     10     21     46      9 ;     0.00   0.54392   3 ;     C3-    C4-   C15-   H19
     9     10     21     47      9 ;     0.00   0.54392   3 ;     C3-    C4-   C15-   H20
     9     11     12     31      9 ;     0.00   0.54392   3 ;     C3-    C5-    C6-    H4
     9     11     12     32      9 ;     0.00   0.54392   3 ;     C3-    C5-    C6-    H5
    10      9      7     15      9 ;     0.00   2.17568   3 ;     C4-    C3-    C1-    C9
    10      9      7     28      9 ;     0.00   0.54392   3 ;     C4-    C3-    C1-    H1
    10      9     11     12      9 ;     0.00   2.17568   3 ;     C4-    C3-    C5-    C6
    10      9     11     30      9 ;     0.00   0.65084   3 ;     C4-    C3-    C5-    H3
    10     17     18     15      9 ;     0.00   0.00000   0 ;     C4-   C11-   C12-    C9
    10     17     18     40      9 ;     0.00   0.62760   3 ;     C4-   C11-   C12-   H13
    10     17     18     41      9 ;     0.00   0.62760   3 ;     C4-   C11-   C12-   H14
    10     17     24     25      9 ;   180.00  27.82360   2 ;     C4-   C11-   C18-   C19
    10     17     24     50      9 ;   180.00  27.82360   2 ;     C4-   C11-   C18-   H23
    10     19     23     25      9 ;     0.00   0.00000   0 ;     C4-   C13-   C17-   C19
    10     19     23     25      9 ;     0.00   0.16736   2 ;     C4-   C13-   C17-   C19
    10     19     23     25      9 ;   180.00   1.92464   1 ;     C4-   C13-   C17-   C19
    10     19     23     48      9 ;     0.00   0.54392   3 ;     C4-   C13-   C17-   H21
    10     19     23     49      9 ;     0.00   0.54392   3 ;     C4-   C13-   C17-   H22
    11      9      7     15      9 ;     0.00   2.17568   3 ;     C5-    C3-    C1-    C9
    11      9      7     28      9 ;     0.00   0.54392   3 ;     C5-    C3-    C1-    H1
    11      9     10     17      9 ;     0.00   0.65084   3 ;     C5-    C3-    C4-   C11
    11      9     10     19      9 ;     0.00   2.17568   3 ;     C5-    C3-    C4-   C13
    11      9     10     21      9 ;     0.00   2.17568   3 ;     C5-    C3-    C4-   C15
    11     12      8     13      9 ;     0.00   2.17568   3 ;     C5-    C6-    C2-    C7
    11     12      8     20      9 ;     0.00   0.00000   0 ;     C5-    C6-    C2-   C14
    11     12      8     20      9 ;     0.00   0.16736   2 ;     C5-    C6-    C2-   C14
    11     12      8     20      9 ;   180.00   1.92464   1 ;     C5-    C6-    C2-   C14
    12      8      6     14      9 ;     0.00   2.17568   3 ;     C6-    C2-     C-    C8
    12      8      6     27      9 ;     0.00   0.54392   3 ;     C6-    C2-     C-     H
    12      8     13     16      9 ;     0.00   2.17568   3 ;     C6-    C2-    C7-   C10
    12      8     13     22      9 ;     0.00   0.00000   0 ;     C6-    C2-    C7-   C16
    12      8     13     22      9 ;     0.00   0.16736   2 ;     C6-    C2-    C7-   C16
    12      8     13     22      9 ;   180.00   1.92464   1 ;     C6-    C2-    C7-   C16
    12      8     13     33      9 ;     0.00   0.54392   3 ;     C6-    C2-    C7-    H6
    12      8     20     44      9 ;   180.00   0.00000   2 ;     C6-    C2-   C14-   H17
    12     11      9     29      9 ;     0.00   0.54392   3 ;     C6-    C5-    C3-    H2
    13      8      6     14      9 ;     0.00   2.17568   3 ;     C7-    C2-     C-    C8
    13      8      6     27      9 ;     0.00   0.54392   3 ;     C7-    C2-     C-     H
    13      8     12     31      9 ;     0.00   0.54392   3 ;     C7-    C2-    C6-    H4
    13      8     12     32      9 ;     0.00   0.54392   3 ;     C7-    C2-    C6-    H5
    13      8     20     44      9 ;   180.00   0.00000   2 ;     C7-    C2-   C14-   H17
    13     16     14     34      9 ;     0.00   0.54392   3 ;     C7-   C10-    C8-    H7
    13     16     14     35      9 ;     0.00   0.54392   3 ;     C7-   C10-    C8-    H8
    13     22     26     52      9 ;   180.00   0.00000   2 ;     C7-   C16-   C20-   H25
    13     22     26     53      9 ;   180.00   0.00000   2 ;     C7-   C16-   C20-   H26
    14      6      7     15      9 ;     0.00   2.17568   3 ;     C8-     C-    C1-    C9
    14      6      7     28      9 ;     0.00   0.54392   3 ;     C8-     C-    C1-    H1
    14      6      8     20      9 ;     0.00   0.00000   0 ;     C8-     C-    C2-   C14
    14      6      8     20      9 ;     0.00   0.16736   2 ;     C8-     C-    C2-   C14
    14      6      8     20      9 ;   180.00   1.92464   1 ;     C8-     C-    C2-   C14
    14     16     13     22      9 ;     0.00   0.00000   0 ;     C8-   C10-    C7-   C16
    14     16     13     22      9 ;     0.00   0.16736   2 ;     C8-   C10-    C7-   C16
    14     16     13     22      9 ;   180.00   1.92464   1 ;     C8-   C10-    C7-   C16
    14     16     13     33      9 ;     0.00   0.54392   3 ;     C8-   C10-    C7-    H6
    15      7      6     27      9 ;     0.00   0.54392   3 ;     C9-    C1-     C-     H
    15      7      9     29      9 ;     0.00   0.54392   3 ;     C9-    C1-    C3-    H2
    15     18     17     24      9 ;     0.00   0.00000   0 ;     C9-   C12-   C11-   C18
    16     13      8     20      9 ;     0.00   0.00000   0 ;    C10-    C7-    C2-   C14
    16     13      8     20      9 ;     0.00   0.16736   2 ;    C10-    C7-    C2-   C14
    16     13      8     20      9 ;   180.00   1.92464   1 ;    C10-    C7-    C2-   C14
    16     13     22     26      9 ;   180.00   1.09621   2 ;    C10-    C7-   C16-   C20
    16     14      6     27      9 ;     0.00   0.54392   3 ;    C10-    C8-     C-     H
    17     10      9     29      9 ;     0.00   0.65084   3 ;    C11-    C4-    C3-    H2
    17     10     19     23      9 ;     0.00   0.65084   3 ;    C11-    C4-   C13-   C17
    17     10     19     42      9 ;     0.00   0.65084   3 ;    C11-    C4-   C13-   H15
    17     10     19     43      9 ;     0.00   0.65084   3 ;    C11-    C4-   C13-   H16
    17     10     21     45      9 ;     0.00   0.65084   3 ;    C11-    C4-   C15-   H18
    17     10     21     46      9 ;     0.00   0.65084   3 ;    C11-    C4-   C15-   H19
    17     10     21     47      9 ;     0.00   0.65084   3 ;    C11-    C4-   C15-   H20
    17     18     15     36      9 ;     0.00   0.65084   3 ;    C11-   C12-    C9-    H9
    17     18     15     37      9 ;     0.00   0.65084   3 ;    C11-   C12-    C9-   H10
    17     24     25     23      9 ;     0.00  12.13360   2 ;    C11-   C18-   C19-   C17
    18     15      7     28      9 ;     0.00   0.54392   3 ;    C12-    C9-    C1-    H1
    18     17     10     19      9 ;     0.00   0.00000   0 ;    C12-   C11-    C4-   C13
    18     17     10     21      9 ;     0.00   0.00000   0 ;    C12-   C11-    C4-   C15
    18     17     24     25      9 ;   180.00  27.82360   2 ;    C12-   C11-   C18-   C19
    18     17     24     50      9 ;   180.00  27.82360   2 ;    C12-   C11-   C18-   H23
    19     10      9     29      9 ;     0.00   0.54392   3 ;    C13-    C4-    C3-    H2
    19     10     17     24      9 ;     0.00   0.00000   0 ;    C13-    C4-   C11-   C18
    19     10     21     45      9 ;     0.00   0.54392   3 ;    C13-    C4-   C15-   H18
    19     10     21     46      9 ;     0.00   0.54392   3 ;    C13-    C4-   C15-   H19
    19     10     21     47      9 ;     0.00   0.54392   3 ;    C13-    C4-   C15-   H20
    19     23     25     24      9 ;   180.00   0.00000   2 ;    C13-   C17-   C19-   C18
    20      8      6     27      9 ;     0.00   0.65084   3 ;    C14-    C2-     C-     H
    20      8     12     31      9 ;     0.00   0.65084   3 ;    C14-    C2-    C6-    H4
    20      8     12     32      9 ;     0.00   0.65084   3 ;    C14-    C2-    C6-    H5
    20      8     13     22      9 ;     0.00   1.54808   2 ;    C14-    C2-    C7-   C16
    20      8     13     22      9 ;     0.00   5.02080   1 ;    C14-    C2-    C7-   C16
    20      8     13     22      9 ;   180.00   0.92978   3 ;    C14-    C2-    C7-   C16
    20      8     13     33      9 ;     0.00   0.65084   3 ;    C14-    C2-    C7-    H6
    21     10      9     29      9 ;     0.00   0.54392   3 ;    C15-    C4-    C3-    H2
    21     10     17     24      9 ;     0.00   0.00000   0 ;    C15-    C4-   C11-   C18
    21     10     19     23      9 ;     0.00   2.17568   3 ;    C15-    C4-   C13-   C17
    21     10     19     42      9 ;     0.00   0.54392   3 ;    C15-    C4-   C13-   H15
    21     10     19     43      9 ;     0.00   0.54392   3 ;    C15-    C4-   C13-   H16
    22     13     16     38      9 ;     0.00   0.65084   3 ;    C16-    C7-   C10-   H11
    22     13     16     39      9 ;     0.00   0.65084   3 ;    C16-    C7-   C10-   H12
    22     26      5     54      9 ;     0.00   0.69733   3 ;    C16-   C20-    O4-   H27
    23     25     24     50      9 ;   180.00   9.10020   2 ;    C17-   C19-   C18-   H23
    24     17     18     40      9 ;     0.00   0.00000   0 ;    C18-   C11-   C12-   H13
    24     17     18     41      9 ;     0.00   0.00000   0 ;    C18-   C11-   C12-   H14
    24     25     23     48      9 ;   180.00   0.00000   2 ;    C18-   C19-   C17-   H21
    24     25     23     49      9 ;   180.00   0.00000   2 ;    C18-   C19-   C17-   H22
    25     23     19     42      9 ;     0.00   0.65084   3 ;    C19-   C17-   C13-   H15
    25     23     19     43      9 ;     0.00   0.65084   3 ;    C19-   C17-   C13-   H16
    26     22     13     33      9 ;   180.00   0.00000   3 ;    C20-   C16-    C7-    H6
    27      6      7     28      9 ;     0.00   0.50208   3 ;      H-     C-    C1-    H1
    27      6     14     34      9 ;     0.00   0.50208   3 ;      H-     C-    C8-    H7
    27      6     14     35      9 ;     0.00   0.50208   3 ;      H-     C-    C8-    H8
    28      7      9     29      9 ;     0.00   0.50208   3 ;     H1-    C1-    C3-    H2
    28      7     15     36      9 ;     0.00   0.50208   3 ;     H1-    C1-    C9-    H9
    28      7     15     37      9 ;     0.00   0.50208   3 ;     H1-    C1-    C9-   H10
    29      9     11     30      9 ;     0.00   0.65084   3 ;     H2-    C3-    C5-    H3
    30     11     12     31      9 ;     0.00   0.65084   3 ;     H3-    C5-    C6-    H4
    30     11     12     32      9 ;     0.00   0.65084   3 ;     H3-    C5-    C6-    H5
    33     13     16     38      9 ;     0.00   0.50208   3 ;     H6-    C7-   C10-   H11
    33     13     16     39      9 ;     0.00   0.50208   3 ;     H6-    C7-   C10-   H12
    34     14     16     38      9 ;     0.00   0.50208   3 ;     H7-    C8-   C10-   H11
    34     14     16     39      9 ;     0.00   0.50208   3 ;     H7-    C8-   C10-   H12
    35     14     16     38      9 ;     0.00   0.50208   3 ;     H8-    C8-   C10-   H11
    35     14     16     39      9 ;     0.00   0.50208   3 ;     H8-    C8-   C10-   H12
    36     15     18     40      9 ;     0.00   0.50208   3 ;     H9-    C9-   C12-   H13
    36     15     18     41      9 ;     0.00   0.50208   3 ;     H9-    C9-   C12-   H14
    37     15     18     40      9 ;     0.00   0.50208   3 ;    H10-    C9-   C12-   H13
    37     15     18     41      9 ;     0.00   0.50208   3 ;    H10-    C9-   C12-   H14
    42     19     23     48      9 ;     0.00   0.50208   3 ;    H15-   C13-   C17-   H21
    42     19     23     49      9 ;     0.00   0.50208   3 ;    H15-   C13-   C17-   H22
    43     19     23     48      9 ;     0.00   0.50208   3 ;    H16-   C13-   C17-   H21
    43     19     23     49      9 ;     0.00   0.50208   3 ;    H16-   C13-   C17-   H22
    51      1     11      9      9 ;     0.00   0.25104   3 ;    H24-     O-    C5-    C3
    51      1     11     12      9 ;     0.00   0.25104   3 ;    H24-     O-    C5-    C6
    51      1     11     30      9 ;     0.00   0.51463   3 ;    H24-     O-    C5-    H3
    52     26      5     54      9 ;     0.00   0.51463   3 ;    H25-   C20-    O4-   H27
    53     26      5     54      9 ;     0.00   0.51463   3 ;    H26-   C20-    O4-   H27

[ dihedrals ] ; impropers
; treated as propers in GROMACS to use correct AMBER analytical function
;    i      j      k      l   func   phase     kd      pn
     8     44     20      2      4 ;   180.00  43.93200   2 ;     C2-   H17-   C14-    O1
    10     18     17     24      4 ;   180.00   4.60240   2 ;     C4-   C12-   C11-   C18
    23     24     25      4      4 ;   180.00  43.93200   2 ;    C17-   C18-   C19-    O3
    25     17     24     50      4 ;   180.00   4.60240   2 ;    C19-   C11-   C18-   H23
    26     13     22      3      4 ;   180.00  43.93200   2 ;    C20-    C7-   C16-    O2
