; aldosterone_GMX_OPLS.top created by acpype (v: 2023.10.27) on Mon Feb  9 17:25:20 2026

; Include forcefield parameters
#include "ffoplsaa.itp"

; Include aldosterone_GMX.itp topology
#include "aldosterone_GMX.itp"

; Ligand position restraints
#ifdef POSRES_LIG
#include "posre_aldosterone.itp"
#endif

[ system ]
 aldosterone

[ molecules ]
; Compound        nmols
 aldosterone      1     
