aldosterone_GMX.gro created by acpype (v: 2023.10.27) on Mon Feb  9 17:25:20 2026
 54
    1  UNL    O    1  -0.005   0.151  -0.187
    1  UNL   O1    2  -0.187  -0.109  -0.206
    1  UNL   O2    3  -0.509  -0.037  -0.023
    1  UNL   O3    4   0.582   0.083   0.178
    1  UNL   O4    5  -0.599   0.206   0.049
    1  UNL    C    6  -0.088  -0.107   0.059
    1  UNL   C1    7   0.042  -0.109  -0.022
    1  UNL   C2    8  -0.186   0.000   0.010
    1  UNL   C3    9   0.112   0.031  -0.008
    1  UNL   C4   10   0.253   0.033  -0.078
    1  UNL   C5   11   0.015   0.147  -0.047
    1  UNL   C6   12  -0.122   0.138   0.025
    1  UNL   C7   13  -0.306  -0.027   0.102
    1  UNL   C8   14  -0.173  -0.233   0.068
    1  UNL   C9   15   0.134  -0.224   0.026
    1  UNL  C10   16  -0.310  -0.181   0.115
    1  UNL  C11   17   0.332  -0.082  -0.014
    1  UNL  C12   18   0.274  -0.220  -0.036
    1  UNL  C13   19   0.330   0.167  -0.059
    1  UNL  C14   20  -0.229  -0.019  -0.135
    1  UNL  C15   21   0.246   0.011  -0.232
    1  UNL  C16   22  -0.437   0.028   0.053
    1  UNL  C17   23   0.387   0.184   0.080
    1  UNL  C18   24   0.438  -0.066   0.067
    1  UNL  C19   25   0.479   0.069   0.111
    1  UNL  C20   26  -0.474   0.166   0.101
    1  UNL    H   27  -0.060  -0.082   0.163
    1  UNL   H1   28   0.022  -0.129  -0.127
    1  UNL   H2   29   0.131   0.045   0.100
    1  UNL   H3   30   0.061   0.243  -0.019
    1  UNL   H4   31  -0.107   0.161   0.131
    1  UNL   H5   32  -0.188   0.216  -0.016
    1  UNL   H6   33  -0.288   0.014   0.203
    1  UNL   H7   34  -0.132  -0.305   0.139
    1  UNL   H8   35  -0.182  -0.284  -0.028
    1  UNL   H9   36   0.088  -0.321   0.002
    1  UNL  H10   37   0.143  -0.220   0.135
    1  UNL  H11   38  -0.390  -0.230   0.057
    1  UNL  H12   39  -0.327  -0.209   0.220
    1  UNL  H13   40   0.270  -0.244  -0.142
    1  UNL  H14   41   0.336  -0.297   0.011
    1  UNL  H15   42   0.266   0.253  -0.084
    1  UNL  H16   43   0.413   0.171  -0.130
    1  UNL  H17   44  -0.300   0.056  -0.175
    1  UNL  H18   45   0.213   0.102  -0.284
    1  UNL  H19   46   0.345  -0.014  -0.272
    1  UNL  H20   47   0.179  -0.069  -0.261
    1  UNL  H21   48   0.309   0.190   0.157
    1  UNL  H22   49   0.445   0.277   0.084
    1  UNL  H23   50   0.490  -0.150   0.111
    1  UNL  H24   51  -0.061   0.228  -0.207
    1  UNL  H25   52  -0.399   0.238   0.068
    1  UNL  H26   53  -0.479   0.167   0.211
    1  UNL  H27   54  -0.666   0.146   0.086
   24.95000    11.96000    10.07600
