; aldosterone_GMX.itp created by acpype (v: 2023.10.27) on Mon Feb  9 17:25:20 2026

[ atomtypes ]
;name   bond_type     mass     charge   ptype   sigma         epsilon       Amb
 oh       oh          0.00000  0.00000   A     3.24287e-01   3.89112e-01 ; 1.82  0.0930
 o        o           0.00000  0.00000   A     3.04812e-01   6.12119e-01 ; 1.71  0.1463
 c5       c5          0.00000  0.00000   A     3.39771e-01   4.51035e-01 ; 1.91  0.1078
 c6       c6          0.00000  0.00000   A     3.39771e-01   4.51035e-01 ; 1.91  0.1078
 c2       c2          0.00000  0.00000   A     3.31521e-01   4.13379e-01 ; 1.86  0.0988
 c        c           0.00000  0.00000   A     3.31521e-01   4.13379e-01 ; 1.86  0.0988
 c3       c3          0.00000  0.00000   A     3.39771e-01   4.51035e-01 ; 1.91  0.1078
 ce       ce          0.00000  0.00000   A     3.31521e-01   4.13379e-01 ; 1.86  0.0988
 hc       hc          0.00000  0.00000   A     2.60018e-01   8.70272e-02 ; 1.46  0.0208
 h1       h1          0.00000  0.00000   A     2.42200e-01   8.70272e-02 ; 1.36  0.0208
 h4       h4          0.00000  0.00000   A     2.53639e-01   6.73624e-02 ; 1.42  0.0161
 ha       ha          0.00000  0.00000   A     2.62548e-01   6.73624e-02 ; 1.47  0.0161
 ho       ho          0.00000  0.00000   A     5.37925e-02   1.96648e-02 ; 0.30  0.0047

[ moleculetype ]
;name            nrexcl
 aldosterone      3

[ atoms ]
;   nr  type  resi  res  atom  cgnr     charge      mass       ; qtot   bond_type
     1   oh     1   UNL     O    1    -0.590800     16.00000 ; qtot -0.591
     2    o     1   UNL    O1    2    -0.505100     16.00000 ; qtot -1.096
     3    o     1   UNL    O2    3    -0.516100     16.00000 ; qtot -1.612
     4    o     1   UNL    O3    4    -0.533100     16.00000 ; qtot -2.145
     5   oh     1   UNL    O4    5    -0.588800     16.00000 ; qtot -2.734
     6   c5     1   UNL     C    6    -0.046700     12.01000 ; qtot -2.781
     7   c6     1   UNL    C1    7    -0.058700     12.01000 ; qtot -2.839
     8   c5     1   UNL    C2    8    -0.156000     12.01000 ; qtot -2.995
     9   c6     1   UNL    C3    9    -0.036700     12.01000 ; qtot -3.032
    10   c6     1   UNL    C4   10    -0.006800     12.01000 ; qtot -3.039
    11   c6     1   UNL    C5   11     0.145100     12.01000 ; qtot -2.894
    12   c6     1   UNL    C6   12    -0.106400     12.01000 ; qtot -3.000
    13   c5     1   UNL    C7   13    -0.154700     12.01000 ; qtot -3.155
    14   c5     1   UNL    C8   14    -0.078400     12.01000 ; qtot -3.233
    15   c6     1   UNL    C9   15    -0.067400     12.01000 ; qtot -3.301
    16   c5     1   UNL   C10   16    -0.076400     12.01000 ; qtot -3.377
    17   c2     1   UNL   C11   17    -0.032400     12.01000 ; qtot -3.409
    18   c6     1   UNL   C12   18    -0.056200     12.01000 ; qtot -3.466
    19   c6     1   UNL   C13   19    -0.072400     12.01000 ; qtot -3.538
    20    c     1   UNL   C14   20     0.597901     12.01000 ; qtot -2.940
    21   c3     1   UNL   C15   21    -0.083100     12.01000 ; qtot -3.023
    22    c     1   UNL   C16   22     0.530100     12.01000 ; qtot -2.493
    23   c6     1   UNL   C17   23    -0.183400     12.01000 ; qtot -2.676
    24   ce     1   UNL   C18   24    -0.264200     12.01000 ; qtot -2.941
    25    c     1   UNL   C19   25     0.570300     12.01000 ; qtot -2.370
    26   c3     1   UNL   C20   26     0.030400     12.01000 ; qtot -2.340
    27   hc     1   UNL     H   27     0.044700      1.00800 ; qtot -2.295
    28   hc     1   UNL    H1   28     0.092700      1.00800 ; qtot -2.203
    29   hc     1   UNL    H2   29     0.049700      1.00800 ; qtot -2.153
    30   h1     1   UNL    H3   30     0.036700      1.00800 ; qtot -2.116
    31   hc     1   UNL    H4   31     0.052700      1.00800 ; qtot -2.063
    32   hc     1   UNL    H5   32     0.052700      1.00800 ; qtot -2.011
    33   hc     1   UNL    H6   33     0.068700      1.00800 ; qtot -1.942
    34   hc     1   UNL    H7   34     0.061200      1.00800 ; qtot -1.881
    35   hc     1   UNL    H8   35     0.061200      1.00800 ; qtot -1.820
    36   hc     1   UNL    H9   36     0.047700      1.00800 ; qtot -1.772
    37   hc     1   UNL   H10   37     0.047700      1.00800 ; qtot -1.724
    38   hc     1   UNL   H11   38     0.061200      1.00800 ; qtot -1.663
    39   hc     1   UNL   H12   39     0.061200      1.00800 ; qtot -1.602
    40   hc     1   UNL   H13   40     0.059200      1.00800 ; qtot -1.543
    41   hc     1   UNL   H14   41     0.059200      1.00800 ; qtot -1.483
    42   hc     1   UNL   H15   42     0.051700      1.00800 ; qtot -1.432
    43   hc     1   UNL   H16   43     0.051700      1.00800 ; qtot -1.380
    44   h4     1   UNL   H17   44    -0.004800      1.00800 ; qtot -1.385
    45   hc     1   UNL   H18   45     0.047033      1.00800 ; qtot -1.338
    46   hc     1   UNL   H19   46     0.047033      1.00800 ; qtot -1.291
    47   hc     1   UNL   H20   47     0.047033      1.00800 ; qtot -1.244
    48   hc     1   UNL   H21   48     0.068200      1.00800 ; qtot -1.176
    49   hc     1   UNL   H22   49     0.068200      1.00800 ; qtot -1.107
    50   ha     1   UNL   H23   50     0.149000      1.00800 ; qtot -0.958
    51   ho     1   UNL   H24   51     0.400000      1.00800 ; qtot -0.558
    52   h1     1   UNL   H25   52     0.068200      1.00800 ; qtot -0.490
    53   h1     1   UNL   H26   53     0.068200      1.00800 ; qtot -0.422
    54   ho     1   UNL   H27   54     0.422000      1.00800 ; qtot 0.000

[ bonds ]
;   ai     aj funct   r             k
     1     11   1    1.4241e-01    2.3870e+05 ;      O - C5    
     1     51   1    9.7250e-02    4.4811e+05 ;      O - H24   
     2     20   1    1.2190e-01    4.9421e+05 ;     O1 - C14   
     3     22   1    1.2190e-01    4.9421e+05 ;     O2 - C16   
     4     25   1    1.2190e-01    4.9421e+05 ;     O3 - C19   
     5     26   1    1.4242e-01    2.3861e+05 ;     O4 - C20   
     5     54   1    9.7250e-02    4.4811e+05 ;     O4 - H27   
     6      7   1    1.5389e-01    1.8951e+05 ;      C - C1    
     6      8   1    1.5483e-01    1.8418e+05 ;      C - C2    
     6     14   1    1.5483e-01    1.8418e+05 ;      C - C8    
     6     27   1    1.0954e-01    2.8989e+05 ;      C - H     
     7      9   1    1.5384e-01    1.8979e+05 ;     C1 - C3    
     7     15   1    1.5384e-01    1.8979e+05 ;     C1 - C9    
     7     28   1    1.0979e-01    2.8681e+05 ;     C1 - H1    
     8     12   1    1.5389e-01    1.8951e+05 ;     C2 - C6    
     8     13   1    1.5483e-01    1.8418e+05 ;     C2 - C7    
     8     20   1    1.5346e-01    1.9200e+05 ;     C2 - C14   
     9     10   1    1.5384e-01    1.8979e+05 ;     C3 - C4    
     9     11   1    1.5384e-01    1.8979e+05 ;     C3 - C5    
     9     29   1    1.0979e-01    2.8681e+05 ;     C3 - H2    
    10     17   1    1.5133e-01    2.0498e+05 ;     C4 - C11   
    10     19   1    1.5384e-01    1.8979e+05 ;     C4 - C13   
    10     21   1    1.5428e-01    1.8728e+05 ;     C4 - C15   
    11     12   1    1.5384e-01    1.8979e+05 ;     C5 - C6    
    11     30   1    1.0984e-01    2.8620e+05 ;     C5 - H3    
    12     31   1    1.0979e-01    2.8681e+05 ;     C6 - H4    
    12     32   1    1.0979e-01    2.8681e+05 ;     C6 - H5    
    13     16   1    1.5483e-01    1.8418e+05 ;     C7 - C10   
    13     22   1    1.5346e-01    1.9200e+05 ;     C7 - C16   
    13     33   1    1.0954e-01    2.8989e+05 ;     C7 - H6    
    14     16   1    1.5483e-01    1.8418e+05 ;     C8 - C10   
    14     34   1    1.0954e-01    2.8989e+05 ;     C8 - H7    
    14     35   1    1.0954e-01    2.8989e+05 ;     C8 - H8    
    15     18   1    1.5384e-01    1.8979e+05 ;     C9 - C12   
    15     36   1    1.0979e-01    2.8681e+05 ;     C9 - H9    
    15     37   1    1.0979e-01    2.8681e+05 ;     C9 - H10   
    16     38   1    1.0954e-01    2.8989e+05 ;    C10 - H11   
    16     39   1    1.0954e-01    2.8989e+05 ;    C10 - H12   
    17     18   1    1.5133e-01    2.0498e+05 ;    C11 - C12   
    17     24   1    1.3457e-01    3.5505e+05 ;    C11 - C18   
    18     40   1    1.0979e-01    2.8681e+05 ;    C12 - H13   
    18     41   1    1.0979e-01    2.8681e+05 ;    C12 - H14   
    19     23   1    1.5384e-01    1.8979e+05 ;    C13 - C17   
    19     42   1    1.0979e-01    2.8681e+05 ;    C13 - H15   
    19     43   1    1.0979e-01    2.8681e+05 ;    C13 - H16   
    20     44   1    1.1123e-01    2.6984e+05 ;    C14 - H17   
    21     45   1    1.0962e-01    2.8891e+05 ;    C15 - H18   
    21     46   1    1.0962e-01    2.8891e+05 ;    C15 - H19   
    21     47   1    1.0962e-01    2.8891e+05 ;    C15 - H20   
    22     26   1    1.5270e-01    1.9652e+05 ;    C16 - C20   
    23     25   1    1.5287e-01    1.9550e+05 ;    C17 - C19   
    23     48   1    1.0979e-01    2.8681e+05 ;    C17 - H21   
    23     49   1    1.0979e-01    2.8681e+05 ;    C17 - H22   
    24     25   1    1.4848e-01    2.2406e+05 ;    C18 - C19   
    24     50   1    1.0880e-01    2.9923e+05 ;    C18 - H23   
    26     52   1    1.0969e-01    2.8804e+05 ;    C20 - H25   
    26     53   1    1.0969e-01    2.8804e+05 ;    C20 - H26   

[ pairs ]
;   ai     aj    funct
     1      7      1 ;      O - C1    
     1      8      1 ;      O - C2    
     1     10      1 ;      O - C4    
     1     29      1 ;      O - H2    
     1     31      1 ;      O - H4    
     1     32      1 ;      O - H5    
     2      6      1 ;     O1 - C     
     2     12      1 ;     O1 - C6    
     2     13      1 ;     O1 - C7    
     3      5      1 ;     O2 - O4    
     3      8      1 ;     O2 - C2    
     3     16      1 ;     O2 - C10   
     3     33      1 ;     O2 - H6    
     3     52      1 ;     O2 - H25   
     3     53      1 ;     O2 - H26   
     4     17      1 ;     O3 - C11   
     4     19      1 ;     O3 - C13   
     4     48      1 ;     O3 - H21   
     4     49      1 ;     O3 - H22   
     4     50      1 ;     O3 - H23   
     5     13      1 ;     O4 - C7    
     6     10      1 ;      C - C4    
     6     11      1 ;      C - C5    
     6     18      1 ;      C - C12   
     6     22      1 ;      C - C16   
     6     29      1 ;      C - H2    
     6     31      1 ;      C - H4    
     6     32      1 ;      C - H5    
     6     33      1 ;      C - H6    
     6     36      1 ;      C - H9    
     6     37      1 ;      C - H10   
     6     38      1 ;      C - H11   
     6     39      1 ;      C - H12   
     6     44      1 ;      C - H17   
     7     12      1 ;     C1 - C6    
     7     13      1 ;     C1 - C7    
     7     16      1 ;     C1 - C10   
     7     17      1 ;     C1 - C11   
     7     19      1 ;     C1 - C13   
     7     20      1 ;     C1 - C14   
     7     21      1 ;     C1 - C15   
     7     30      1 ;     C1 - H3    
     7     34      1 ;     C1 - H7    
     7     35      1 ;     C1 - H8    
     7     40      1 ;     C1 - H13   
     7     41      1 ;     C1 - H14   
     8      9      1 ;     C2 - C3    
     8     15      1 ;     C2 - C9    
     8     26      1 ;     C2 - C20   
     8     28      1 ;     C2 - H1    
     8     30      1 ;     C2 - H3    
     8     34      1 ;     C2 - H7    
     8     35      1 ;     C2 - H8    
     8     38      1 ;     C2 - H11   
     8     39      1 ;     C2 - H12   
     9     14      1 ;     C3 - C8    
     9     18      1 ;     C3 - C12   
     9     23      1 ;     C3 - C17   
     9     24      1 ;     C3 - C18   
     9     27      1 ;     C3 - H     
     9     31      1 ;     C3 - H4    
     9     32      1 ;     C3 - H5    
     9     36      1 ;     C3 - H9    
     9     37      1 ;     C3 - H10   
     9     42      1 ;     C3 - H15   
     9     43      1 ;     C3 - H16   
     9     45      1 ;     C3 - H18   
     9     46      1 ;     C3 - H19   
     9     47      1 ;     C3 - H20   
    10     12      1 ;     C4 - C6    
    10     15      1 ;     C4 - C9    
    10     25      1 ;     C4 - C19   
    10     28      1 ;     C4 - H1    
    10     30      1 ;     C4 - H3    
    10     40      1 ;     C4 - H13   
    10     41      1 ;     C4 - H14   
    10     48      1 ;     C4 - H21   
    10     49      1 ;     C4 - H22   
    10     50      1 ;     C4 - H23   
    11     13      1 ;     C5 - C7    
    11     15      1 ;     C5 - C9    
    11     17      1 ;     C5 - C11   
    11     19      1 ;     C5 - C13   
    11     20      1 ;     C5 - C14   
    11     21      1 ;     C5 - C15   
    11     28      1 ;     C5 - H1    
    12     14      1 ;     C6 - C8    
    12     16      1 ;     C6 - C10   
    12     22      1 ;     C6 - C16   
    12     27      1 ;     C6 - H     
    12     29      1 ;     C6 - H2    
    12     33      1 ;     C6 - H6    
    12     44      1 ;     C6 - H17   
    13     27      1 ;     C7 - H     
    13     31      1 ;     C7 - H4    
    13     32      1 ;     C7 - H5    
    13     34      1 ;     C7 - H7    
    13     35      1 ;     C7 - H8    
    13     44      1 ;     C7 - H17   
    13     52      1 ;     C7 - H25   
    13     53      1 ;     C7 - H26   
    14     15      1 ;     C8 - C9    
    14     20      1 ;     C8 - C14   
    14     22      1 ;     C8 - C16   
    14     28      1 ;     C8 - H1    
    14     33      1 ;     C8 - H6    
    15     24      1 ;     C9 - C18   
    15     27      1 ;     C9 - H     
    15     29      1 ;     C9 - H2    
    16     20      1 ;    C10 - C14   
    16     26      1 ;    C10 - C20   
    16     27      1 ;    C10 - H     
    17     23      1 ;    C11 - C17   
    17     29      1 ;    C11 - H2    
    17     36      1 ;    C11 - H9    
    17     37      1 ;    C11 - H10   
    17     42      1 ;    C11 - H15   
    17     43      1 ;    C11 - H16   
    17     45      1 ;    C11 - H18   
    17     46      1 ;    C11 - H19   
    17     47      1 ;    C11 - H20   
    18     19      1 ;    C12 - C13   
    18     21      1 ;    C12 - C15   
    18     25      1 ;    C12 - C19   
    18     28      1 ;    C12 - H1    
    18     50      1 ;    C12 - H23   
    19     24      1 ;    C13 - C18   
    19     29      1 ;    C13 - H2    
    19     45      1 ;    C13 - H18   
    19     46      1 ;    C13 - H19   
    19     47      1 ;    C13 - H20   
    20     22      1 ;    C14 - C16   
    20     27      1 ;    C14 - H     
    20     31      1 ;    C14 - H4    
    20     32      1 ;    C14 - H5    
    20     33      1 ;    C14 - H6    
    21     23      1 ;    C15 - C17   
    21     24      1 ;    C15 - C18   
    21     29      1 ;    C15 - H2    
    21     42      1 ;    C15 - H15   
    21     43      1 ;    C15 - H16   
    22     38      1 ;    C16 - H11   
    22     39      1 ;    C16 - H12   
    22     54      1 ;    C16 - H27   
    23     50      1 ;    C17 - H23   
    24     40      1 ;    C18 - H13   
    24     41      1 ;    C18 - H14   
    24     48      1 ;    C18 - H21   
    24     49      1 ;    C18 - H22   
    25     42      1 ;    C19 - H15   
    25     43      1 ;    C19 - H16   
    26     33      1 ;    C20 - H6    
    27     28      1 ;      H - H1    
    27     34      1 ;      H - H7    
    27     35      1 ;      H - H8    
    28     29      1 ;     H1 - H2    
    28     36      1 ;     H1 - H9    
    28     37      1 ;     H1 - H10   
    29     30      1 ;     H2 - H3    
    30     31      1 ;     H3 - H4    
    30     32      1 ;     H3 - H5    
    33     38      1 ;     H6 - H11   
    33     39      1 ;     H6 - H12   
    34     38      1 ;     H7 - H11   
    34     39      1 ;     H7 - H12   
    35     38      1 ;     H8 - H11   
    35     39      1 ;     H8 - H12   
    36     40      1 ;     H9 - H13   
    36     41      1 ;     H9 - H14   
    37     40      1 ;    H10 - H13   
    37     41      1 ;    H10 - H14   
    42     48      1 ;    H15 - H21   
    42     49      1 ;    H15 - H22   
    43     48      1 ;    H16 - H21   
    43     49      1 ;    H16 - H22   
    51      9      1 ;    H24 - C3    
    51     12      1 ;    H24 - C6    
    51     30      1 ;    H24 - H3    
    52     54      1 ;    H25 - H27   
    53     54      1 ;    H26 - H27   

[ angles ]
;   ai     aj     ak    funct   theta         cth
     1     11      9      1    1.1005e+02    6.4065e+02 ;      O - C5     - C3    
     1     11     12      1    1.1005e+02    6.4065e+02 ;      O - C5     - C6    
     1     11     30      1    1.0996e+02    4.7187e+02 ;      O - C5     - H3    
     2     20      8      1    1.2567e+02    6.3019e+02 ;     O1 - C14    - C2    
     2     20     44      1    1.2062e+02    5.0191e+02 ;     O1 - C14    - H17   
     3     22     13      1    1.2567e+02    6.3019e+02 ;     O2 - C16    - C7    
     3     22     26      1    1.2290e+02    6.3973e+02 ;     O2 - C16    - C20   
     4     25     23      1    1.2234e+02    6.4065e+02 ;     O3 - C19    - C17   
     4     25     24      1    1.2324e+02    6.5262e+02 ;     O3 - C19    - C18   
     5     26     22      1    1.0946e+02    6.4526e+02 ;     O4 - C20    - C16   
     5     26     52      1    1.1038e+02    4.7103e+02 ;     O4 - C20    - H25   
     5     26     53      1    1.1038e+02    4.7103e+02 ;     O4 - C20    - H26   
     6      7      9      1    1.1104e+02    5.0350e+02 ;      C - C1     - C3    
     6      7     15      1    1.1104e+02    5.0350e+02 ;      C - C1     - C9    
     6      7     28      1    1.0934e+02    3.6183e+02 ;      C - C1     - H1    
     6      8     12      1    1.1375e+02    4.9589e+02 ;      C - C2     - C6    
     6      8     13      1    1.0383e+02    5.1748e+02 ;      C - C2     - C7    
     6      8     20      1    1.0786e+02    5.0995e+02 ;      C - C2     - C14   
     6     14     16      1    1.0383e+02    5.1748e+02 ;      C - C8     - C10   
     6     14     34      1    1.1117e+02    3.5690e+02 ;      C - C8     - H7    
     6     14     35      1    1.1117e+02    3.5690e+02 ;      C - C8     - H8    
     7      6      8      1    1.1375e+02    4.9589e+02 ;     C1 - C      - C2    
     7      6     14      1    1.1375e+02    4.9589e+02 ;     C1 - C      - C8    
     7      6     27      1    1.0642e+02    3.6685e+02 ;     C1 - C      - H     
     7      9     10      1    1.1106e+02    5.0359e+02 ;     C1 - C3     - C4    
     7      9     11      1    1.1106e+02    5.0359e+02 ;     C1 - C3     - C5    
     7      9     29      1    1.0945e+02    3.6175e+02 ;     C1 - C3     - H2    
     7     15     18      1    1.1106e+02    5.0359e+02 ;     C1 - C9     - C12   
     7     15     36      1    1.0945e+02    3.6175e+02 ;     C1 - C9     - H9    
     7     15     37      1    1.0945e+02    3.6175e+02 ;     C1 - C9     - H10   
     8      6     14      1    1.0383e+02    5.1748e+02 ;     C2 - C      - C8    
     8      6     27      1    1.1117e+02    3.5690e+02 ;     C2 - C      - H     
     8     12     11      1    1.1104e+02    5.0350e+02 ;     C2 - C6     - C5    
     8     12     31      1    1.0934e+02    3.6183e+02 ;     C2 - C6     - H4    
     8     12     32      1    1.0934e+02    3.6183e+02 ;     C2 - C6     - H5    
     8     13     16      1    1.0383e+02    5.1748e+02 ;     C2 - C7     - C10   
     8     13     22      1    1.0786e+02    5.0995e+02 ;     C2 - C7     - C16   
     8     13     33      1    1.1117e+02    3.5690e+02 ;     C2 - C7     - H6    
     8     20     44      1    1.1455e+02    3.5397e+02 ;     C2 - C14    - H17   
     9      7     15      1    1.1106e+02    5.0359e+02 ;     C3 - C1     - C9    
     9      7     28      1    1.0945e+02    3.6175e+02 ;     C3 - C1     - H1    
     9     10     17      1    1.1141e+02    5.0685e+02 ;     C3 - C4     - C11   
     9     10     19      1    1.1106e+02    5.0359e+02 ;     C3 - C4     - C13   
     9     10     21      1    1.1143e+02    5.0200e+02 ;     C3 - C4     - C15   
     9     11     12      1    1.1106e+02    5.0359e+02 ;     C3 - C5     - C6    
     9     11     30      1    1.0918e+02    3.6217e+02 ;     C3 - C5     - H3    
    10      9     11      1    1.1106e+02    5.0359e+02 ;     C4 - C3     - C5    
    10      9     29      1    1.0945e+02    3.6175e+02 ;     C4 - C3     - H2    
    10     17     18      1    1.1596e+02    5.0099e+02 ;     C4 - C11    - C12   
    10     17     24      1    1.2265e+02    5.1212e+02 ;     C4 - C11    - C18   
    10     19     23      1    1.1106e+02    5.0359e+02 ;     C4 - C13    - C17   
    10     19     42      1    1.0945e+02    3.6175e+02 ;     C4 - C13    - H15   
    10     19     43      1    1.0945e+02    3.6175e+02 ;     C4 - C13    - H16   
    10     21     45      1    1.1063e+02    3.5890e+02 ;     C4 - C15    - H18   
    10     21     46      1    1.1063e+02    3.5890e+02 ;     C4 - C15    - H19   
    10     21     47      1    1.1063e+02    3.5890e+02 ;     C4 - C15    - H20   
    11      1     51      1    1.0707e+02    5.4584e+02 ;     C5 - O      - H24   
    11      9     29      1    1.0945e+02    3.6175e+02 ;     C5 - C3     - H2    
    11     12     31      1    1.0945e+02    3.6175e+02 ;     C5 - C6     - H4    
    11     12     32      1    1.0945e+02    3.6175e+02 ;     C5 - C6     - H5    
    12      8     13      1    1.1375e+02    4.9589e+02 ;     C6 - C2     - C7    
    12      8     20      1    1.1288e+02    4.9999e+02 ;     C6 - C2     - C14   
    12     11     30      1    1.0918e+02    3.6217e+02 ;     C6 - C5     - H3    
    13      8     20      1    1.0786e+02    5.0995e+02 ;     C7 - C2     - C14   
    13     16     14      1    1.0383e+02    5.1748e+02 ;     C7 - C10    - C8    
    13     16     38      1    1.1117e+02    3.5690e+02 ;     C7 - C10    - H11   
    13     16     39      1    1.1117e+02    3.5690e+02 ;     C7 - C10    - H12   
    13     22     26      1    1.1800e+02    4.9095e+02 ;     C7 - C16    - C20   
    14      6     27      1    1.1117e+02    3.5690e+02 ;     C8 - C      - H     
    14     16     38      1    1.1117e+02    3.5690e+02 ;     C8 - C10    - H11   
    14     16     39      1    1.1117e+02    3.5690e+02 ;     C8 - C10    - H12   
    15      7     28      1    1.0945e+02    3.6175e+02 ;     C9 - C1     - H1    
    15     18     17      1    1.1141e+02    5.0685e+02 ;     C9 - C12    - C11   
    15     18     40      1    1.0945e+02    3.6175e+02 ;     C9 - C12    - H13   
    15     18     41      1    1.0945e+02    3.6175e+02 ;     C9 - C12    - H14   
    16     13     22      1    1.0786e+02    5.0995e+02 ;    C10 - C7     - C16   
    16     13     33      1    1.1117e+02    3.5690e+02 ;    C10 - C7     - H6    
    16     14     34      1    1.1117e+02    3.5690e+02 ;    C10 - C8     - H7    
    16     14     35      1    1.1117e+02    3.5690e+02 ;    C10 - C8     - H8    
    17     10     19      1    1.1141e+02    5.0685e+02 ;    C11 - C4     - C13   
    17     10     21      1    1.0977e+02    5.0986e+02 ;    C11 - C4     - C15   
    17     18     40      1    1.0931e+02    3.6736e+02 ;    C11 - C12    - H13   
    17     18     41      1    1.0931e+02    3.6736e+02 ;    C11 - C12    - H14   
    17     24     25      1    1.2200e+02    5.1974e+02 ;    C11 - C18    - C19   
    17     24     50      1    1.2000e+02    3.8694e+02 ;    C11 - C18    - H23   
    18     15     36      1    1.0945e+02    3.6175e+02 ;    C12 - C9     - H9    
    18     15     37      1    1.0945e+02    3.6175e+02 ;    C12 - C9     - H10   
    18     17     24      1    1.2265e+02    5.1212e+02 ;    C12 - C11    - C18   
    19     10     21      1    1.1143e+02    5.0200e+02 ;    C13 - C4     - C15   
    19     23     25      1    1.1143e+02    5.0434e+02 ;    C13 - C17    - C19   
    19     23     48      1    1.0945e+02    3.6175e+02 ;    C13 - C17    - H21   
    19     23     49      1    1.0945e+02    3.6175e+02 ;    C13 - C17    - H22   
    22     13     33      1    1.0864e+02    3.6401e+02 ;    C16 - C7     - H6    
    22     26     52      1    1.0837e+02    3.6602e+02 ;    C16 - C20    - H25   
    22     26     53      1    1.0837e+02    3.6602e+02 ;    C16 - C20    - H26   
    23     19     42      1    1.0945e+02    3.6175e+02 ;    C17 - C13    - H15   
    23     19     43      1    1.0945e+02    3.6175e+02 ;    C17 - C13    - H16   
    23     25     24      1    1.1615e+02    5.0258e+02 ;    C17 - C19    - C18   
    25     23     48      1    1.0767e+02    3.6685e+02 ;    C19 - C17    - H21   
    25     23     49      1    1.0767e+02    3.6685e+02 ;    C19 - C17    - H22   
    25     24     50      1    1.1641e+02    3.6242e+02 ;    C19 - C18    - H23   
    26      5     54      1    1.0739e+02    5.4501e+02 ;    C20 - O4     - H27   
    31     12     32      1    1.0662e+02    3.0066e+02 ;     H4 - C6     - H5    
    34     14     35      1    1.0722e+02    3.0049e+02 ;     H7 - C8     - H8    
    36     15     37      1    1.0662e+02    3.0066e+02 ;     H9 - C9     - H10   
    38     16     39      1    1.0722e+02    3.0049e+02 ;    H11 - C10    - H12   
    40     18     41      1    1.0662e+02    3.0066e+02 ;    H13 - C12    - H14   
    42     19     43      1    1.0662e+02    3.0066e+02 ;    H15 - C13    - H16   
    45     21     46      1    1.0773e+02    2.9957e+02 ;    H18 - C15    - H19   
    45     21     47      1    1.0773e+02    2.9957e+02 ;    H18 - C15    - H20   
    46     21     47      1    1.0773e+02    2.9957e+02 ;    H19 - C15    - H20   
    48     23     49      1    1.0662e+02    3.0066e+02 ;    H21 - C17    - H22   
    52     26     53      1    1.0855e+02    2.9824e+02 ;    H25 - C20    - H26   

[ dihedrals ] ; propers
; for gromacs 4.5 or higher, using funct 9
;    i      j      k      l   func   phase     kd      pn
     1     11      9      7      9     0.00   0.75312   3 ;      O-    C5-    C3-    C1
     1     11      9     10      9     0.00   0.75312   3 ;      O-    C5-    C3-    C4
     1     11      9     29      9     0.00   0.37656   3 ;      O-    C5-    C3-    H2
     1     11     12      8      9     0.00   0.75312   3 ;      O-    C5-    C6-    C2
     1     11     12     31      9     0.00   0.37656   3 ;      O-    C5-    C6-    H4
     1     11     12     32      9     0.00   0.37656   3 ;      O-    C5-    C6-    H5
     2     20      8      6      9     0.00   2.84512   1 ;     O1-   C14-    C2-     C
     2     20      8      6      9   180.00   0.83680   2 ;     O1-   C14-    C2-     C
     2     20      8      6      9   180.00   1.84096   3 ;     O1-   C14-    C2-     C
     2     20      8     12      9     0.00   2.84512   1 ;     O1-   C14-    C2-    C6
     2     20      8     12      9   180.00   0.83680   2 ;     O1-   C14-    C2-    C6
     2     20      8     12      9   180.00   1.84096   3 ;     O1-   C14-    C2-    C6
     2     20      8     13      9     0.00   2.84512   1 ;     O1-   C14-    C2-    C7
     2     20      8     13      9   180.00   0.83680   2 ;     O1-   C14-    C2-    C7
     2     20      8     13      9   180.00   1.84096   3 ;     O1-   C14-    C2-    C7
     3     22     13      8      9     0.00   2.84512   1 ;     O2-   C16-    C7-    C2
     3     22     13      8      9   180.00   0.83680   2 ;     O2-   C16-    C7-    C2
     3     22     13      8      9   180.00   1.84096   3 ;     O2-   C16-    C7-    C2
     3     22     13     16      9     0.00   2.84512   1 ;     O2-   C16-    C7-   C10
     3     22     13     16      9   180.00   0.83680   2 ;     O2-   C16-    C7-   C10
     3     22     13     16      9   180.00   1.84096   3 ;     O2-   C16-    C7-   C10
     3     22     13     33      9     0.00  16.86152   1 ;     O2-   C16-    C7-    H6
     3     22     13     33      9   180.00  15.31344   2 ;     O2-   C16-    C7-    H6
     3     22     26      5      9   180.00   0.00000   2 ;     O2-   C16-   C20-    O4
     3     22     26     52      9     0.00   3.34720   1 ;     O2-   C16-   C20-   H25
     3     22     26     52      9   180.00   0.33472   3 ;     O2-   C16-   C20-   H25
     3     22     26     53      9     0.00   3.34720   1 ;     O2-   C16-   C20-   H26
     3     22     26     53      9   180.00   0.33472   3 ;     O2-   C16-   C20-   H26
     4     25     23     19      9     0.00   0.46024   2 ;     O3-   C19-   C17-   C13
     4     25     23     19      9     0.00  49.12016   1 ;     O3-   C19-   C17-   C13
     4     25     23     19      9   180.00   0.33472   3 ;     O3-   C19-   C17-   C13
     4     25     23     48      9     0.00  16.86152   1 ;     O3-   C19-   C17-   H21
     4     25     23     48      9   180.00  15.31344   2 ;     O3-   C19-   C17-   H21
     4     25     23     49      9     0.00  16.86152   1 ;     O3-   C19-   C17-   H22
     4     25     23     49      9   180.00  15.31344   2 ;     O3-   C19-   C17-   H22
     4     25     24     17      9   180.00   9.10020   2 ;     O3-   C19-   C18-   C11
     4     25     24     50      9   180.00   9.10020   2 ;     O3-   C19-   C18-   H23
     5     26     22     13      9   180.00   0.00000   2 ;     O4-   C20-   C16-    C7
     6      7      9     10      9     0.00   2.17568   3 ;      C-    C1-    C3-    C4
     6      7      9     11      9     0.00   2.17568   3 ;      C-    C1-    C3-    C5
     6      7      9     29      9     0.00   0.54392   3 ;      C-    C1-    C3-    H2
     6      7     15     18      9     0.00   2.17568   3 ;      C-    C1-    C9-   C12
     6      7     15     36      9     0.00   0.54392   3 ;      C-    C1-    C9-    H9
     6      7     15     37      9     0.00   0.54392   3 ;      C-    C1-    C9-   H10
     6      8     12     11      9     0.00   2.17568   3 ;      C-    C2-    C6-    C5
     6      8     12     31      9     0.00   0.54392   3 ;      C-    C2-    C6-    H4
     6      8     12     32      9     0.00   0.54392   3 ;      C-    C2-    C6-    H5
     6      8     13     16      9     0.00   2.17568   3 ;      C-    C2-    C7-   C10
     6      8     13     22      9     0.00   0.00000   0 ;      C-    C2-    C7-   C16
     6      8     13     22      9     0.00   0.16736   2 ;      C-    C2-    C7-   C16
     6      8     13     22      9   180.00   1.92464   1 ;      C-    C2-    C7-   C16
     6      8     13     33      9     0.00   0.54392   3 ;      C-    C2-    C7-    H6
     6      8     20     44      9   180.00   0.00000   2 ;      C-    C2-   C14-   H17
     6     14     16     13      9     0.00   2.17568   3 ;      C-    C8-   C10-    C7
     6     14     16     38      9     0.00   0.54392   3 ;      C-    C8-   C10-   H11
     6     14     16     39      9     0.00   0.54392   3 ;      C-    C8-   C10-   H12
     7      6      8     12      9     0.00   2.17568   3 ;     C1-     C-    C2-    C6
     7      6      8     13      9     0.00   2.17568   3 ;     C1-     C-    C2-    C7
     7      6      8     20      9     0.00   0.00000   0 ;     C1-     C-    C2-   C14
     7      6      8     20      9     0.00   0.16736   2 ;     C1-     C-    C2-   C14
     7      6      8     20      9   180.00   1.92464   1 ;     C1-     C-    C2-   C14
     7      6     14     16      9     0.00   2.17568   3 ;     C1-     C-    C8-   C10
     7      6     14     34      9     0.00   0.54392   3 ;     C1-     C-    C8-    H7
     7      6     14     35      9     0.00   0.54392   3 ;     C1-     C-    C8-    H8
     7      9     10     17      9     0.00   0.65084   3 ;     C1-    C3-    C4-   C11
     7      9     10     19      9     0.00   2.17568   3 ;     C1-    C3-    C4-   C13
     7      9     10     21      9     0.00   2.17568   3 ;     C1-    C3-    C4-   C15
     7      9     11     12      9     0.00   2.17568   3 ;     C1-    C3-    C5-    C6
     7      9     11     30      9     0.00   0.65084   3 ;     C1-    C3-    C5-    H3
     7     15     18     17      9     0.00   0.65084   3 ;     C1-    C9-   C12-   C11
     7     15     18     40      9     0.00   0.54392   3 ;     C1-    C9-   C12-   H13
     7     15     18     41      9     0.00   0.54392   3 ;     C1-    C9-   C12-   H14
     8      6      7      9      9     0.00   2.17568   3 ;     C2-     C-    C1-    C3
     8      6      7     15      9     0.00   2.17568   3 ;     C2-     C-    C1-    C9
     8      6      7     28      9     0.00   0.54392   3 ;     C2-     C-    C1-    H1
     8      6     14     16      9     0.00   2.17568   3 ;     C2-     C-    C8-   C10
     8      6     14     34      9     0.00   0.54392   3 ;     C2-     C-    C8-    H7
     8      6     14     35      9     0.00   0.54392   3 ;     C2-     C-    C8-    H8
     8     12     11      9      9     0.00   2.17568   3 ;     C2-    C6-    C5-    C3
     8     12     11     30      9     0.00   0.65084   3 ;     C2-    C6-    C5-    H3
     8     13     16     14      9     0.00   2.17568   3 ;     C2-    C7-   C10-    C8
     8     13     16     38      9     0.00   0.54392   3 ;     C2-    C7-   C10-   H11
     8     13     16     39      9     0.00   0.54392   3 ;     C2-    C7-   C10-   H12
     8     13     22     26      9   180.00   1.09621   2 ;     C2-    C7-   C16-   C20
     9      7      6     14      9     0.00   2.17568   3 ;     C3-    C1-     C-    C8
     9      7      6     27      9     0.00   0.54392   3 ;     C3-    C1-     C-     H
     9      7     15     18      9     0.00   2.17568   3 ;     C3-    C1-    C9-   C12
     9      7     15     36      9     0.00   0.54392   3 ;     C3-    C1-    C9-    H9
     9      7     15     37      9     0.00   0.54392   3 ;     C3-    C1-    C9-   H10
     9     10     17     18      9     0.00   0.00000   0 ;     C3-    C4-   C11-   C12
     9     10     17     24      9     0.00   0.00000   0 ;     C3-    C4-   C11-   C18
     9     10     19     23      9     0.00   2.17568   3 ;     C3-    C4-   C13-   C17
     9     10     19     42      9     0.00   0.54392   3 ;     C3-    C4-   C13-   H15
     9     10     19     43      9     0.00   0.54392   3 ;     C3-    C4-   C13-   H16
     9     10     21     45      9     0.00   0.54392   3 ;     C3-    C4-   C15-   H18
     9     10     21     46      9     0.00   0.54392   3 ;     C3-    C4-   C15-   H19
     9     10     21     47      9     0.00   0.54392   3 ;     C3-    C4-   C15-   H20
     9     11     12     31      9     0.00   0.54392   3 ;     C3-    C5-    C6-    H4
     9     11     12     32      9     0.00   0.54392   3 ;     C3-    C5-    C6-    H5
    10      9      7     15      9     0.00   2.17568   3 ;     C4-    C3-    C1-    C9
    10      9      7     28      9     0.00   0.54392   3 ;     C4-    C3-    C1-    H1
    10      9     11     12      9     0.00   2.17568   3 ;     C4-    C3-    C5-    C6
    10      9     11     30      9     0.00   0.65084   3 ;     C4-    C3-    C5-    H3
    10     17     18     15      9     0.00   0.00000   0 ;     C4-   C11-   C12-    C9
    10     17     18     40      9     0.00   0.62760   3 ;     C4-   C11-   C12-   H13
    10     17     18     41      9     0.00   0.62760   3 ;     C4-   C11-   C12-   H14
    10     17     24     25      9   180.00  27.82360   2 ;     C4-   C11-   C18-   C19
    10     17     24     50      9   180.00  27.82360   2 ;     C4-   C11-   C18-   H23
    10     19     23     25      9     0.00   0.00000   0 ;     C4-   C13-   C17-   C19
    10     19     23     25      9     0.00   0.16736   2 ;     C4-   C13-   C17-   C19
    10     19     23     25      9   180.00   1.92464   1 ;     C4-   C13-   C17-   C19
    10     19     23     48      9     0.00   0.54392   3 ;     C4-   C13-   C17-   H21
    10     19     23     49      9     0.00   0.54392   3 ;     C4-   C13-   C17-   H22
    11      9      7     15      9     0.00   2.17568   3 ;     C5-    C3-    C1-    C9
    11      9      7     28      9     0.00   0.54392   3 ;     C5-    C3-    C1-    H1
    11      9     10     17      9     0.00   0.65084   3 ;     C5-    C3-    C4-   C11
    11      9     10     19      9     0.00   2.17568   3 ;     C5-    C3-    C4-   C13
    11      9     10     21      9     0.00   2.17568   3 ;     C5-    C3-    C4-   C15
    11     12      8     13      9     0.00   2.17568   3 ;     C5-    C6-    C2-    C7
    11     12      8     20      9     0.00   0.00000   0 ;     C5-    C6-    C2-   C14
    11     12      8     20      9     0.00   0.16736   2 ;     C5-    C6-    C2-   C14
    11     12      8     20      9   180.00   1.92464   1 ;     C5-    C6-    C2-   C14
    12      8      6     14      9     0.00   2.17568   3 ;     C6-    C2-     C-    C8
    12      8      6     27      9     0.00   0.54392   3 ;     C6-    C2-     C-     H
    12      8     13     16      9     0.00   2.17568   3 ;     C6-    C2-    C7-   C10
    12      8     13     22      9     0.00   0.00000   0 ;     C6-    C2-    C7-   C16
    12      8     13     22      9     0.00   0.16736   2 ;     C6-    C2-    C7-   C16
    12      8     13     22      9   180.00   1.92464   1 ;     C6-    C2-    C7-   C16
    12      8     13     33      9     0.00   0.54392   3 ;     C6-    C2-    C7-    H6
    12      8     20     44      9   180.00   0.00000   2 ;     C6-    C2-   C14-   H17
    12     11      9     29      9     0.00   0.54392   3 ;     C6-    C5-    C3-    H2
    13      8      6     14      9     0.00   2.17568   3 ;     C7-    C2-     C-    C8
    13      8      6     27      9     0.00   0.54392   3 ;     C7-    C2-     C-     H
    13      8     12     31      9     0.00   0.54392   3 ;     C7-    C2-    C6-    H4
    13      8     12     32      9     0.00   0.54392   3 ;     C7-    C2-    C6-    H5
    13      8     20     44      9   180.00   0.00000   2 ;     C7-    C2-   C14-   H17
    13     16     14     34      9     0.00   0.54392   3 ;     C7-   C10-    C8-    H7
    13     16     14     35      9     0.00   0.54392   3 ;     C7-   C10-    C8-    H8
    13     22     26     52      9   180.00   0.00000   2 ;     C7-   C16-   C20-   H25
    13     22     26     53      9   180.00   0.00000   2 ;     C7-   C16-   C20-   H26
    14      6      7     15      9     0.00   2.17568   3 ;     C8-     C-    C1-    C9
    14      6      7     28      9     0.00   0.54392   3 ;     C8-     C-    C1-    H1
    14      6      8     20      9     0.00   0.00000   0 ;     C8-     C-    C2-   C14
    14      6      8     20      9     0.00   0.16736   2 ;     C8-     C-    C2-   C14
    14      6      8     20      9   180.00   1.92464   1 ;     C8-     C-    C2-   C14
    14     16     13     22      9     0.00   0.00000   0 ;     C8-   C10-    C7-   C16
    14     16     13     22      9     0.00   0.16736   2 ;     C8-   C10-    C7-   C16
    14     16     13     22      9   180.00   1.92464   1 ;     C8-   C10-    C7-   C16
    14     16     13     33      9     0.00   0.54392   3 ;     C8-   C10-    C7-    H6
    15      7      6     27      9     0.00   0.54392   3 ;     C9-    C1-     C-     H
    15      7      9     29      9     0.00   0.54392   3 ;     C9-    C1-    C3-    H2
    15     18     17     24      9     0.00   0.00000   0 ;     C9-   C12-   C11-   C18
    16     13      8     20      9     0.00   0.00000   0 ;    C10-    C7-    C2-   C14
    16     13      8     20      9     0.00   0.16736   2 ;    C10-    C7-    C2-   C14
    16     13      8     20      9   180.00   1.92464   1 ;    C10-    C7-    C2-   C14
    16     13     22     26      9   180.00   1.09621   2 ;    C10-    C7-   C16-   C20
    16     14      6     27      9     0.00   0.54392   3 ;    C10-    C8-     C-     H
    17     10      9     29      9     0.00   0.65084   3 ;    C11-    C4-    C3-    H2
    17     10     19     23      9     0.00   0.65084   3 ;    C11-    C4-   C13-   C17
    17     10     19     42      9     0.00   0.65084   3 ;    C11-    C4-   C13-   H15
    17     10     19     43      9     0.00   0.65084   3 ;    C11-    C4-   C13-   H16
    17     10     21     45      9     0.00   0.65084   3 ;    C11-    C4-   C15-   H18
    17     10     21     46      9     0.00   0.65084   3 ;    C11-    C4-   C15-   H19
    17     10     21     47      9     0.00   0.65084   3 ;    C11-    C4-   C15-   H20
    17     18     15     36      9     0.00   0.65084   3 ;    C11-   C12-    C9-    H9
    17     18     15     37      9     0.00   0.65084   3 ;    C11-   C12-    C9-   H10
    17     24     25     23      9     0.00  12.13360   2 ;    C11-   C18-   C19-   C17
    18     15      7     28      9     0.00   0.54392   3 ;    C12-    C9-    C1-    H1
    18     17     10     19      9     0.00   0.00000   0 ;    C12-   C11-    C4-   C13
    18     17     10     21      9     0.00   0.00000   0 ;    C12-   C11-    C4-   C15
    18     17     24     25      9   180.00  27.82360   2 ;    C12-   C11-   C18-   C19
    18     17     24     50      9   180.00  27.82360   2 ;    C12-   C11-   C18-   H23
    19     10      9     29      9     0.00   0.54392   3 ;    C13-    C4-    C3-    H2
    19     10     17     24      9     0.00   0.00000   0 ;    C13-    C4-   C11-   C18
    19     10     21     45      9     0.00   0.54392   3 ;    C13-    C4-   C15-   H18
    19     10     21     46      9     0.00   0.54392   3 ;    C13-    C4-   C15-   H19
    19     10     21     47      9     0.00   0.54392   3 ;    C13-    C4-   C15-   H20
    19     23     25     24      9   180.00   0.00000   2 ;    C13-   C17-   C19-   C18
    20      8      6     27      9     0.00   0.65084   3 ;    C14-    C2-     C-     H
    20      8     12     31      9     0.00   0.65084   3 ;    C14-    C2-    C6-    H4
    20      8     12     32      9     0.00   0.65084   3 ;    C14-    C2-    C6-    H5
    20      8     13     22      9     0.00   1.54808   2 ;    C14-    C2-    C7-   C16
    20      8     13     22      9     0.00   5.02080   1 ;    C14-    C2-    C7-   C16
    20      8     13     22      9   180.00   0.92978   3 ;    C14-    C2-    C7-   C16
    20      8     13     33      9     0.00   0.65084   3 ;    C14-    C2-    C7-    H6
    21     10      9     29      9     0.00   0.54392   3 ;    C15-    C4-    C3-    H2
    21     10     17     24      9     0.00   0.00000   0 ;    C15-    C4-   C11-   C18
    21     10     19     23      9     0.00   2.17568   3 ;    C15-    C4-   C13-   C17
    21     10     19     42      9     0.00   0.54392   3 ;    C15-    C4-   C13-   H15
    21     10     19     43      9     0.00   0.54392   3 ;    C15-    C4-   C13-   H16
    22     13     16     38      9     0.00   0.65084   3 ;    C16-    C7-   C10-   H11
    22     13     16     39      9     0.00   0.65084   3 ;    C16-    C7-   C10-   H12
    22     26      5     54      9     0.00   0.69733   3 ;    C16-   C20-    O4-   H27
    23     25     24     50      9   180.00   9.10020   2 ;    C17-   C19-   C18-   H23
    24     17     18     40      9     0.00   0.00000   0 ;    C18-   C11-   C12-   H13
    24     17     18     41      9     0.00   0.00000   0 ;    C18-   C11-   C12-   H14
    24     25     23     48      9   180.00   0.00000   2 ;    C18-   C19-   C17-   H21
    24     25     23     49      9   180.00   0.00000   2 ;    C18-   C19-   C17-   H22
    25     23     19     42      9     0.00   0.65084   3 ;    C19-   C17-   C13-   H15
    25     23     19     43      9     0.00   0.65084   3 ;    C19-   C17-   C13-   H16
    26     22     13     33      9   180.00   0.00000   3 ;    C20-   C16-    C7-    H6
    27      6      7     28      9     0.00   0.50208   3 ;      H-     C-    C1-    H1
    27      6     14     34      9     0.00   0.50208   3 ;      H-     C-    C8-    H7
    27      6     14     35      9     0.00   0.50208   3 ;      H-     C-    C8-    H8
    28      7      9     29      9     0.00   0.50208   3 ;     H1-    C1-    C3-    H2
    28      7     15     36      9     0.00   0.50208   3 ;     H1-    C1-    C9-    H9
    28      7     15     37      9     0.00   0.50208   3 ;     H1-    C1-    C9-   H10
    29      9     11     30      9     0.00   0.65084   3 ;     H2-    C3-    C5-    H3
    30     11     12     31      9     0.00   0.65084   3 ;     H3-    C5-    C6-    H4
    30     11     12     32      9     0.00   0.65084   3 ;     H3-    C5-    C6-    H5
    33     13     16     38      9     0.00   0.50208   3 ;     H6-    C7-   C10-   H11
    33     13     16     39      9     0.00   0.50208   3 ;     H6-    C7-   C10-   H12
    34     14     16     38      9     0.00   0.50208   3 ;     H7-    C8-   C10-   H11
    34     14     16     39      9     0.00   0.50208   3 ;     H7-    C8-   C10-   H12
    35     14     16     38      9     0.00   0.50208   3 ;     H8-    C8-   C10-   H11
    35     14     16     39      9     0.00   0.50208   3 ;     H8-    C8-   C10-   H12
    36     15     18     40      9     0.00   0.50208   3 ;     H9-    C9-   C12-   H13
    36     15     18     41      9     0.00   0.50208   3 ;     H9-    C9-   C12-   H14
    37     15     18     40      9     0.00   0.50208   3 ;    H10-    C9-   C12-   H13
    37     15     18     41      9     0.00   0.50208   3 ;    H10-    C9-   C12-   H14
    42     19     23     48      9     0.00   0.50208   3 ;    H15-   C13-   C17-   H21
    42     19     23     49      9     0.00   0.50208   3 ;    H15-   C13-   C17-   H22
    43     19     23     48      9     0.00   0.50208   3 ;    H16-   C13-   C17-   H21
    43     19     23     49      9     0.00   0.50208   3 ;    H16-   C13-   C17-   H22
    51      1     11      9      9     0.00   0.25104   3 ;    H24-     O-    C5-    C3
    51      1     11     12      9     0.00   0.25104   3 ;    H24-     O-    C5-    C6
    51      1     11     30      9     0.00   0.51463   3 ;    H24-     O-    C5-    H3
    52     26      5     54      9     0.00   0.51463   3 ;    H25-   C20-    O4-   H27
    53     26      5     54      9     0.00   0.51463   3 ;    H26-   C20-    O4-   H27

[ dihedrals ] ; impropers
; treated as propers in GROMACS to use correct AMBER analytical function
;    i      j      k      l   func   phase     kd      pn
     8     44     20      2      4   180.00  43.93200   2 ;     C2-   H17-   C14-    O1
    10     18     17     24      4   180.00   4.60240   2 ;     C4-   C12-   C11-   C18
    23     24     25      4      4   180.00  43.93200   2 ;    C17-   C18-   C19-    O3
    25     17     24     50      4   180.00   4.60240   2 ;    C19-   C11-   C18-   H23
    26     13     22      3      4   180.00  43.93200   2 ;    C20-    C7-   C16-    O2
