%VERSION  VERSION_STAMP = V0001.000  DATE = 02/09/26  17:25:53                  
%FLAG TITLE                                                                     
%FORMAT(20a4)                                                                   
5839                                                                            
%FLAG POINTERS                                                                  
%FORMAT(10I8)                                                                   
      54       9      28      29      67      46     131     103       0       0
     359       1      29      46     103      21      43      34      13       0
       0       0       0       0       0       0       0       0      54       0
       0
%FLAG ATOM_NAME                                                                 
%FORMAT(20a4)                                                                   
O   O1  O2  O3  O4  C   C1  C2  C3  C4  C5  C6  C7  C8  C9  C10 C11 C12 C13 C14 
C15 C16 C17 C18 C19 C20 H   H1  H2  H3  H4  H5  H6  H7  H8  H9  H10 H11 H12 H13 
H14 H15 H16 H17 H18 H19 H20 H21 H22 H23 H24 H25 H26 H27 
%FLAG CHARGE                                                                    
%FORMAT(5E16.8)                                                                 
 -1.07657348E+01 -9.20408373E+00 -9.40452903E+00 -9.71430813E+00 -1.07292902E+01
 -8.50981410E-01 -1.06964901E+00 -2.84267880E+00 -6.68758410E-01 -1.23911640E-01
  2.64405573E+00 -1.93885272E+00 -2.81898981E+00 -1.42862832E+00 -1.22818302E+00
 -1.39218372E+00 -5.90402520E-01 -1.02409326E+00 -1.31929452E+00  1.08404463E+01
 -1.51427313E+00  9.65964123E+00 -3.34196982E+00 -4.81433166E+00  1.03921777E+01
  5.53957920E-01  8.14536810E-01  1.68920721E+00  9.05648310E-01  6.68758410E-01
  9.60315210E-01  9.60315210E-01  1.25187201E+00  1.11520476E+00  1.11520476E+00
  8.69203710E-01  8.69203710E-01  1.11520476E+00  1.11520476E+00  1.07876016E+00
  1.07876016E+00  9.42092910E-01  9.42092910E-01 -8.74670400E-02  8.57049436E-01
  8.57049436E-01  8.57049436E-01  1.24276086E+00  1.24276086E+00  2.71512270E+00
  7.28892000E+00  1.24276086E+00  1.24276086E+00  7.68981060E+00
%FLAG ATOMIC_NUMBER                                                             
%FORMAT(10I8)                                                                   
       8       8       8       8       8       6       6       6       6       6
       6       6       6       6       6       6       6       6       6       6
       6       6       6       6       6       6       1       1       1       1
       1       1       1       1       1       1       1       1       1       1
       1       1       1       1       1       1       1       1       1       1
       1       1       1       1
%FLAG MASS                                                                      
%FORMAT(5E16.8)                                                                 
  1.60000000E+01  1.60000000E+01  1.60000000E+01  1.60000000E+01  1.60000000E+01
  1.20100000E+01  1.20100000E+01  1.20100000E+01  1.20100000E+01  1.20100000E+01
  1.20100000E+01  1.20100000E+01  1.20100000E+01  1.20100000E+01  1.20100000E+01
  1.20100000E+01  1.20100000E+01  1.20100000E+01  1.20100000E+01  1.20100000E+01
  1.20100000E+01  1.20100000E+01  1.20100000E+01  1.20100000E+01  1.20100000E+01
  1.20100000E+01  1.00800000E+00  1.00800000E+00  1.00800000E+00  1.00800000E+00
  1.00800000E+00  1.00800000E+00  1.00800000E+00  1.00800000E+00  1.00800000E+00
  1.00800000E+00  1.00800000E+00  1.00800000E+00  1.00800000E+00  1.00800000E+00
  1.00800000E+00  1.00800000E+00  1.00800000E+00  1.00800000E+00  1.00800000E+00
  1.00800000E+00  1.00800000E+00  1.00800000E+00  1.00800000E+00  1.00800000E+00
  1.00800000E+00  1.00800000E+00  1.00800000E+00  1.00800000E+00
%FLAG ATOM_TYPE_INDEX                                                           
%FORMAT(10I8)                                                                   
       1       2       2       2       1       3       3       3       3       3
       3       3       3       3       3       3       4       3       3       4
       3       4       3       4       4       3       5       5       5       6
       5       5       5       5       5       5       5       5       5       5
       5       5       5       7       5       5       5       5       5       8
       9       6       6       9
%FLAG NUMBER_EXCLUDED_ATOMS                                                     
%FORMAT(10I8)                                                                   
      11       6       9       8       6      26      24      21      25      23
      13      13      16      11      10       9      17      10      12       6
       8       7       7       6       5       4       3       3       1       3
       1       1       2       3       2       3       2       1       1       1
       1       3       2       1       2       1       1       1       1       1
       1       2       1       1
%FLAG NONBONDED_PARM_INDEX                                                      
%FORMAT(10I8)                                                                   
       1       2       4       7      11      16      22      29      37       2
       3       5       8      12      17      23      30      38       4       5
       6       9      13      18      24      31      39       7       8       9
      10      14      19      25      32      40      11      12      13      14
      15      20      26      33      41      16      17      18      19      20
      21      27      34      42      22      23      24      25      26      27
      28      35      43      29      30      31      32      33      34      35
      36      44      37      38      39      40      41      42      43      44
      45
%FLAG RESIDUE_LABEL                                                             
%FORMAT(20a4)                                                                   
UNL 
%FLAG RESIDUE_POINTER                                                           
%FORMAT(10I8)                                                                   
       1
%FLAG BOND_FORCE_CONSTANT                                                       
%FORMAT(5E16.8)                                                                 
  2.85250000E+02  5.35510000E+02  5.90600000E+02  2.85150000E+02  2.26470000E+02
  2.20100000E+02  3.46430000E+02  2.26810000E+02  3.42750000E+02  2.29450000E+02
  2.44960000E+02  2.23800000E+02  3.42020000E+02  4.24300000E+02  3.22470000E+02
  3.45250000E+02  2.34850000E+02  2.33630000E+02  2.67760000E+02  3.57590000E+02
  3.44220000E+02
%FLAG BOND_EQUIL_VALUE                                                          
%FORMAT(5E16.8)                                                                 
  1.42410000E+00  9.72500000E-01  1.21900000E+00  1.42420000E+00  1.53890000E+00
  1.54830000E+00  1.09540000E+00  1.53840000E+00  1.09790000E+00  1.53460000E+00
  1.51330000E+00  1.54280000E+00  1.09840000E+00  1.34570000E+00  1.11230000E+00
  1.09620000E+00  1.52700000E+00  1.52870000E+00  1.48480000E+00  1.08800000E+00
  1.09690000E+00
%FLAG ANGLE_FORCE_CONSTANT                                                      
%FORMAT(5E16.8)                                                                 
  7.65600000E+01  5.63900000E+01  7.53100000E+01  5.99800000E+01  7.64500000E+01
  7.65600000E+01  7.79900000E+01  7.71100000E+01  5.62900000E+01  6.01700000E+01
  4.32400000E+01  5.92600000E+01  6.18400000E+01  6.09400000E+01  4.26500000E+01
  4.38400000E+01  6.01800000E+01  4.32300000E+01  4.23000000E+01  6.05700000E+01
  5.99900000E+01  4.32800000E+01  5.98700000E+01  6.12000000E+01  4.28900000E+01
  6.52300000E+01  5.97500000E+01  5.86700000E+01  6.09300000E+01  4.39000000E+01
  6.21100000E+01  4.62400000E+01  6.02700000E+01  4.35000000E+01  4.37400000E+01
  6.00600000E+01  4.38400000E+01  4.33100000E+01  6.51300000E+01  3.59300000E+01
  3.59100000E+01  3.58000000E+01  3.56400000E+01
%FLAG ANGLE_EQUIL_VALUE                                                         
%FORMAT(5E16.8)                                                                 
  1.92073567E+00  1.91916487E+00  2.19335621E+00  2.10521705E+00  2.14501057E+00
  2.13523672E+00  2.15094469E+00  1.91043822E+00  1.92649525E+00  1.93801443E+00
  1.90834382E+00  1.98531288E+00  1.81217614E+00  1.88251294E+00  1.94028336E+00
  1.85738019E+00  1.93836350E+00  1.91026369E+00  1.99927552E+00  1.94447215E+00
  1.94482122E+00  1.90555129E+00  2.02388467E+00  2.14064725E+00  1.93085858E+00
  1.86872483E+00  1.97012850E+00  2.05948940E+00  1.91584874E+00  1.90782022E+00
  2.12930260E+00  2.09439600E+00  1.94482122E+00  1.89612651E+00  1.89141412E+00
  2.02720080E+00  1.87919681E+00  2.03173865E+00  1.87430989E+00  1.86087085E+00
  1.87134283E+00  1.88024401E+00  1.89455572E+00
%FLAG DIHEDRAL_FORCE_CONSTANT                                                   
%FORMAT(5E16.8)                                                                 
  1.80000000E-01  9.00000000E-02  6.80000000E-01  2.00000000E-01  4.40000000E-01
  4.03000000E+00  3.66000000E+00  0.00000000E+00  8.00000000E-01  8.00000000E-02
  1.17400000E+01  1.10000000E-01  2.17500000E+00  5.20000000E-01  1.30000000E-01
  4.60000000E-01  4.00000000E-02  0.00000000E+00  1.55555556E-01  2.62000000E-01
  0.00000000E+00  6.00000000E-02  1.50000000E-01  6.65000000E+00  2.90000000E+00
  1.20000000E+00  3.70000000E-01  2.22222222E-01  1.66666667E-01  0.00000000E+00
  1.20000000E-01  1.23000000E-01  1.10000000E+00  1.05000000E+01
%FLAG DIHEDRAL_PERIODICITY                                                      
%FORMAT(5E16.8)                                                                 
  3.00000000E+00  3.00000000E+00  1.00000000E+00  2.00000000E+00  3.00000000E+00
  1.00000000E+00  2.00000000E+00  2.00000000E+00  1.00000000E+00  3.00000000E+00
  1.00000000E+00  2.00000000E+00  2.00000000E+00  3.00000000E+00  3.00000000E+00
  1.00000000E+00  2.00000000E+00  3.00000000E+00  3.00000000E+00  2.00000000E+00
  2.00000000E+00  3.00000000E+00  3.00000000E+00  2.00000000E+00  2.00000000E+00
  1.00000000E+00  2.00000000E+00  3.00000000E+00  3.00000000E+00  3.00000000E+00
  3.00000000E+00  3.00000000E+00  2.00000000E+00  2.00000000E+00
%FLAG DIHEDRAL_PHASE                                                            
%FORMAT(5E16.8)                                                                 
  0.00000000E+00  0.00000000E+00  0.00000000E+00  3.14159400E+00  3.14159400E+00
  0.00000000E+00  3.14159400E+00  3.14159400E+00  0.00000000E+00  3.14159400E+00
  0.00000000E+00  0.00000000E+00  3.14159400E+00  0.00000000E+00  0.00000000E+00
  3.14159400E+00  0.00000000E+00  0.00000000E+00  0.00000000E+00  3.14159400E+00
  0.00000000E+00  0.00000000E+00  0.00000000E+00  3.14159400E+00  0.00000000E+00
  0.00000000E+00  0.00000000E+00  3.14159400E+00  0.00000000E+00  3.14159400E+00
  0.00000000E+00  0.00000000E+00  3.14159400E+00  3.14159400E+00
%FLAG SCEE_SCALE_FACTOR                                                         
%FORMAT(5E16.8)                                                                 
  1.20000000E+00  1.20000000E+00  1.20000000E+00  1.20000000E+00  1.20000000E+00
  1.20000000E+00  1.20000000E+00  1.20000000E+00  1.20000000E+00  1.20000000E+00
  1.20000000E+00  1.20000000E+00  1.20000000E+00  1.20000000E+00  1.20000000E+00
  1.20000000E+00  1.20000000E+00  1.20000000E+00  1.20000000E+00  1.20000000E+00
  1.20000000E+00  1.20000000E+00  1.20000000E+00  1.20000000E+00  1.20000000E+00
  1.20000000E+00  1.20000000E+00  1.20000000E+00  1.20000000E+00  1.20000000E+00
  1.20000000E+00  1.20000000E+00  0.00000000E+00  0.00000000E+00
%FLAG SCNB_SCALE_FACTOR                                                         
%FORMAT(5E16.8)                                                                 
  2.00000000E+00  2.00000000E+00  2.00000000E+00  2.00000000E+00  2.00000000E+00
  2.00000000E+00  2.00000000E+00  2.00000000E+00  2.00000000E+00  2.00000000E+00
  2.00000000E+00  2.00000000E+00  2.00000000E+00  2.00000000E+00  2.00000000E+00
  2.00000000E+00  2.00000000E+00  2.00000000E+00  2.00000000E+00  2.00000000E+00
  2.00000000E+00  2.00000000E+00  2.00000000E+00  2.00000000E+00  2.00000000E+00
  2.00000000E+00  2.00000000E+00  2.00000000E+00  2.00000000E+00  2.00000000E+00
  2.00000000E+00  2.00000000E+00  0.00000000E+00  0.00000000E+00
%FLAG SOLTY                                                                     
%FORMAT(5E16.8)                                                                 
  0.00000000E+00  0.00000000E+00  0.00000000E+00  0.00000000E+00  0.00000000E+00
  0.00000000E+00  0.00000000E+00  0.00000000E+00  0.00000000E+00  0.00000000E+00
  0.00000000E+00  0.00000000E+00  0.00000000E+00
%FLAG LENNARD_JONES_ACOEF                                                       
%FORMAT(5E16.8)                                                                 
  5.03152404E+05  4.37717034E+05  3.76435470E+05  7.18991463E+05  6.30925504E+05
  1.02073671E+06  5.92438683E+05  5.17507491E+05  8.43969952E+05  6.96551276E+05
  6.80216136E+04  5.68021765E+04  1.00235148E+05  8.12662403E+04  7.94617769E+03
  4.69084694E+04  3.86646725E+04  6.97998263E+04  5.63013422E+04  5.22955465E+03
  3.39005767E+03  5.24591488E+04  4.36069364E+04  7.75673747E+04  6.27751680E+04
  6.02863188E+03  3.94664935E+03  4.56536476E+03  6.30298721E+04  5.27277400E+04
  9.27554496E+04  7.52549148E+04  7.41026906E+03  4.88692384E+03  5.62610481E+03
  6.90855956E+03  1.74176419E+02  1.15813907E+02  3.03553352E+02  2.25372434E+02
  8.80612241E+00  4.36660257E+00  6.05535196E+00  8.53132435E+00  1.10360882E-05
%FLAG LENNARD_JONES_BCOEF                                                       
%FORMAT(5E16.8)                                                                 
  4.32634597E+02  4.51916854E+02  4.69350655E+02  5.36620538E+02  5.62969425E+02
  6.63431737E+02  4.76608379E+02  4.98871431E+02  5.90251928E+02  5.24668528E+02
  1.09393126E+02  1.11953944E+02  1.37787728E+02  1.21392023E+02  2.57122925E+01
  9.08431526E+01  9.23664132E+01  1.14981426E+02  1.01040256E+02  2.08590256E+01
  1.67944276E+01  9.01089277E+01  9.20079458E+01  1.13692208E+02  1.00073628E+02
  2.10068861E+01  1.69967767E+01  1.71467049E+01  9.87712192E+01  1.01173582E+02
  1.24325688E+02  1.09570372E+02  2.32899892E+01  1.89134207E+01  1.90347353E+01
  2.10929191E+01  3.81654050E+00  3.48534600E+00  5.22789272E+00  4.40751799E+00
  5.90150328E-01  4.15568027E-01  4.59018960E-01  5.44840215E-01  4.55498033E-04
%FLAG BONDS_INC_HYDROGEN                                                        
%FORMAT(10I8)                                                                   
       0     150       2      12     159       2      15      78       7      18
      81       9      24      84       9      30      87      13      33      90
       9      33      93       9      36      96       7      39      99       7
      39     102       7      42     105       9      42     108       9      45
     111       7      45     114       7      51     117       9      51     120
       9      54     123       9      54     126       9      57     129      15
      60     132      16      60     135      16      60     138      16      66
     141       9      66     144       9      69     147      20      75     153
      21      75     156      21
%FLAG BONDS_WITHOUT_HYDROGEN                                                    
%FORMAT(10I8)                                                                   
       0      30       1       3      57       3       6      63       3       9
      72       3      12      75       4      15      18       5      15      21
       6      15      39       6      18      24       8      18      42       8
      21      33       5      21      36       6      21      57      10      24
      27       8      24      30       8      27      48      11      27      54
       8      27      60      12      30      33       8      36      45       6
      36      63      10      39      45       6      42      51       8      48
      51      11      48      69      14      54      66       8      63      75
      17      66      72      18      69      72      19
%FLAG ANGLES_INC_HYDROGEN                                                       
%FORMAT(10I8)                                                                   
       0      30      87       2       3      57     129       4      12      75
     153       9      12      75     156       9      15      18      81      11
      15      39      99      15      15      39     102      15      18      15
      78      16      18      24      84      18      18      42     105      18
      18      42     108      18      21      15      78      15      21      33
      90      11      21      33      93      11      21      36      96      15
      21      57     129      19      24      18      81      18      24      30
      87      22      27      24      84      18      27      54     123      18
      27      54     126      18      27      60     132      25      27      60
     135      25      27      60     138      25      30       0     150      26
      30      24      84      18      30      33      90      18      30      33
      93      18      33      30      87      22      36      45     111      15
      36      45     114      15      39      15      78      15      39      45
     111      15      39      45     114      15      42      18      81      18
      42      51     117      18      42      51     120      18      45      36
      96      15      45      39      99      15      45      39     102      15
      48      51     117      30      48      51     120      30      48      69
     147      32      51      42     105      18      51      42     108      18
      54      66     141      18      54      66     144      18      63      36
      96      34      63      75     153      35      63      75     156      35
      66      54     123      18      66      54     126      18      72      66
     141      37      72      66     144      37      72      69     147      38
      75      12     159      39      90      33      93      40      99      39
     102      41     105      42     108      40     111      45     114      41
     117      51     120      40     123      54     126      40     132      60
     135      42     132      60     138      42     135      60     138      42
     141      66     144      40     153      75     156      43
%FLAG ANGLES_WITHOUT_HYDROGEN                                                   
%FORMAT(10I8)                                                                   
       0      30      24       1       0      30      33       1       3      57
      21       3       6      63      36       3       6      63      75       5
       9      72      66       6       9      72      69       7      12      75
      63       8      15      18      24      10      15      18      42      10
      15      21      33      12      15      21      36      13      15      21
      57      14      15      39      45      13      18      15      21      12
      18      15      39      12      18      24      27      17      18      24
      30      17      18      42      51      17      21      15      39      13
      21      33      30      10      21      36      45      13      21      36
      63      14      24      18      42      17      24      27      48      20
      24      27      54      17      24      27      60      21      24      30
      33      17      27      24      30      17      27      48      51      23
      27      48      69      24      27      54      66      17      33      21
      36      12      33      21      57      27      36      21      57      14
      36      45      39      13      36      63      75      28      42      51
      48      20      45      36      63      14      48      27      54      20
      48      27      60      29      48      69      72      31      51      48
      69      24      54      27      60      21      54      66      72      33
      66      72      69      36
%FLAG DIHEDRALS_INC_HYDROGEN                                                    
%FORMAT(10I8)                                                                   
       0      30      24      84       2       0      30      33      90       2
       0      30      33      93       2       6      63      36      96       6
       6      63     -36      96       7       6      63      75     153       9
       6      63     -75     153      10       6      63      75     156       9
       6      63     -75     156      10       9      72      66     141       6
       9      72     -66     141       7       9      72      66     144       6
       9      72     -66     144       7       9      72      69     147      13
      15      18      24      84      15      15      18      42     105      15
      15      18      42     108      15      15      21      33      90      15
      15      21      33      93      15      15      21      36      96      15
      15      21      57     129       8      15      39      45     111      15
      15      39      45     114      15      18      15      39      99      15
      18      15      39     102      15      18      24      30      87      19
      18      42      51     117      15      18      42      51     120      15
      21      15      18      81      15      21      15      39      99      15
      21      15      39     102      15      21      33      30      87      19
      21      36      45     111      15      21      36      45     114      15
      24      18      15      78      15      24      18      42     105      15
      24      18      42     108      15      24      27      54     123      15
      24      27      54     126      15      24      27      60     132      15
      24      27      60     135      15      24      27      60     138      15
     150       0      30      24      22      24      30      33      90      15
      24      30      33      93      15      27      24      18      81      15
      27      24      30      87      19      27      48      51     117      23
      27      48      51     120      23      27      48      69     147      24
      27      54      66     141      15      27      54      66     144      15
      30      24      18      81      15      33      21      15      78      15
      33      21      36      96      15      33      21      57     129       8
     150       0      30      33      22      33      30      24      84      15
      36      21      15      78      15      36      21      33      90      15
      36      21      33      93      15      36      21      57     129       8
      36      45      39      99      15      36      45      39     102      15
      36      63      75     153       8      36      63      75     156       8
      39      15      18      81      15      39      45      36      96      15
      42      18      15      78      15      42      18      24      84      15
      45      39      15      78      15      48      27      24      84      19
      48      27      54     123      19      48      27      54     126      19
      48      27      60     132      19      48      27      60     135      19
      48      27      60     138      19      48      51      42     105      19
      48      51      42     108      19      51      42      18      81      15
      51      48      69     147      24      54      27      24      84      15
      54      27      60     132      15      54      27      60     135      15
      54      27      60     138      15      57      21      15      78      19
      57      21      33      90      19      57      21      33      93      19
      57      21      36      96      19      60      27      24      84      15
      60      27      54     123      15      60      27      54     126      15
      63      36      45     111      19      63      36      45     114      19
      63      75      12     159      29      66      72      69     147      13
      69      48      51     117      21      69      48      51     120      21
      69      72      66     141       8      69      72      66     144       8
      72      66      54     123      19      72      66      54     126      19
      75      63      36      96      30      78      15      18      81      31
      78      15      39      99      31      78      15      39     102      31
      81      18      24      84      31      81      18      42     105      31
      81      18      42     108      31      84      24      30      87      19
     150       0      30      87      32      87      30      33      90      19
      87      30      33      93      19      96      36      45     111      31
      96      36      45     114      31      99      39      45     111      31
      99      39      45     114      31     102      39      45     111      31
     102      39      45     114      31     105      42      51     117      31
     105      42      51     120      31     108      42      51     117      31
     108      42      51     120      31     123      54      66     141      31
     123      54      66     144      31     126      54      66     141      31
     126      54      66     144      31     153      75      12     159      32
     156      75      12     159      32      21     129     -57      -3      34
      72      48     -69    -147      33
%FLAG DIHEDRALS_WITHOUT_HYDROGEN                                                
%FORMAT(10I8)                                                                   
       0      30      24      18       1       0      30      24      27       1
       0      30      33      21       1       3      57      21      15       3
       3      57     -21      15       4       3      57     -21      15       5
       3      57      21      33       3       3      57     -21      33       4
       3      57     -21      33       5       3      57      21      36       3
       3      57     -21      36       4       3      57     -21      36       5
       6      63      36      21       3       6      63     -36      21       4
       6      63     -36      21       5       6      63      36      45       3
       6      63     -36      45       4       6      63     -36      45       5
       6      63      75      12       8       9      72      66      54      11
       9      72     -66      54      12       9      72     -66      54      10
       9      72      69      48      13      12      75      63      36       8
      15      18      24      27      14      15      18      24      30      14
      15      18      42      51      14      15      21     -33      30      14
      15      21     -36      45      14      15      21      36      63      16
      15      21     -36      63      17      15      21     -36      63      18
      15      39     -45      36      14      18      15      21      33      14
      18      15      21      36      14      18      15      21      57      16
      18      15     -21      57      17      18      15     -21      57      18
      18      15      39      45      14      18      24      27      48      19
      18      24      27      54      14      18      24      27      60      14
      18      24     -30      33      14      18      42     -51      48      19
      21      15      18      24      14      21      15      18      42      14
      21      15     -39      45      14      21      33     -30      24      14
      21      36     -45      39      14      21      36      63      75      20
      24      18      15      39      14      24      18      42      51      14
      24      27     -48      51      21      24      27      48      69      21
      24      27      54      66      14      27      24      18      42      14
      27      24      30      33      14      27      48     -51      42      21
      27      48      69      72      24      27      54     -66      72      16
      27      54     -66      72      17      27      54     -66      72      18
      30      24      18      42      14      30      24      27      48      19
      30      24      27      54      14      30      24      27      60      14
      30      33      21      36      14      30      33      21      57      16
      30      33     -21      57      17      30      33     -21      57      18
      33      21      15      39      14      33      21      36      45      14
      33      21      36      63      16      33      21     -36      63      17
      33      21     -36      63      18      36      21     -15      39      14
      39      15      18      42      14      39      15      21      57      16
      39      15     -21      57      17      39      15     -21      57      18
      39      45      36      63      16      39      45     -36      63      17
      39      45     -36      63      18      42      51      48      69      21
      45      36      21      57      16      45      36     -21      57      17
      45      36     -21      57      18      45      36      63      75      20
      48      27      54      66      19      48      69     -72      66      25
      51      48      27      54      21      51      48      27      60      21
      51      48      69      72      24      54      27      48      69      21
      54      66     -72      69       8      57      21      36      63      26
      57      21     -36      63      27      57      21     -36      63      28
      60      27      48      69      21      60      27      54      66      14
      27      51     -48     -69      33      75      36     -63      -6      34
      66      69     -72      -9      34
%FLAG EXCLUDED_ATOMS_LIST                                                       
%FORMAT(10I8)                                                                   
       7       8       9      10      11      12      29      30      31      32
      51       6       8      12      13      20      44       5       8      13
      16      22      26      33      52      53      17      19      23      24
      25      48      49      50      13      22      26      52      53      54
       7       8       9      10      11      12      13      14      15      16
      18      20      22      27      28      29      31      32      33      34
      35      36      37      38      39      44       8       9      10      11
      12      13      14      15      16      17      18      19      20      21
      27      28      29      30      34      35      36      37      40      41
       9      11      12      13      14      15      16      20      22      26
      27      28      30      31      32      33      34      35      38      39
      44      10      11      12      14      15      17      18      19      21
      23      24      27      28      29      30      31      32      36      37
      42      43      45      46      47      51      11      12      15      17
      18      19      21      23      24      25      28      29      30      40
      41      42      43      45      46      47      48      49      50      12
      13      15      17      19      20      21      28      29      30      31
      32      51      13      14      16      20      22      27      29      30
      31      32      33      44      51      14      16      20      22      26
      27      31      32      33      34      35      38      39      44      52
      53      15      16      20      22      27      28      33      34      35
      38      39      17      18      24      27      28      29      36      37
      40      41      20      22      26      27      33      34      35      38
      39      18      19      21      23      24      25      29      36      37
      40      41      42      43      45      46      47      50      19      21
      24      25      28      36      37      40      41      50      21      23
      24      25      29      42      43      45      46      47      48      49
      22      27      31      32      33      44      23      24      29      42
      43      45      46      47      26      33      38      39      52      53
      54      24      25      42      43      48      49      50      25      40
      41      48      49      50      42      43      48      49      50      33
      52      53      54      28      34      35      29      36      37      30
      31      32      51      32       0      38      39      35      38      39
      38      39      37      40      41      40      41      39       0      41
       0      43      48      49      48      49       0      46      47      47
       0      49       0       0       0      53      54      54       0
%FLAG HBOND_ACOEF                                                               
%FORMAT(5E16.8)                                                                 

%FLAG HBOND_BCOEF                                                               
%FORMAT(5E16.8)                                                                 

%FLAG HBCUT                                                                     
%FORMAT(5E16.8)                                                                 

%FLAG AMBER_ATOM_TYPE                                                           
%FORMAT(20a4)                                                                   
oh  o   o   o   oh  c5  c6  c5  c6  c6  c6  c6  c5  c5  c6  c5  c2  c6  c6  c   
c3  c   c6  ce  c   c3  hc  hc  hc  h1  hc  hc  hc  hc  hc  hc  hc  hc  hc  hc  
hc  hc  hc  h4  hc  hc  hc  hc  hc  ha  ho  h1  h1  ho  
%FLAG TREE_CHAIN_CLASSIFICATION                                                 
%FORMAT(20a4)                                                                   
BLA BLA BLA BLA BLA BLA BLA BLA BLA BLA BLA BLA BLA BLA BLA BLA BLA BLA BLA BLA 
BLA BLA BLA BLA BLA BLA BLA BLA BLA BLA BLA BLA BLA BLA BLA BLA BLA BLA BLA BLA 
BLA BLA BLA BLA BLA BLA BLA BLA BLA BLA BLA BLA BLA BLA 
%FLAG JOIN_ARRAY                                                                
%FORMAT(10I8)                                                                   
       0       0       0       0       0       0       0       0       0       0
       0       0       0       0       0       0       0       0       0       0
       0       0       0       0       0       0       0       0       0       0
       0       0       0       0       0       0       0       0       0       0
       0       0       0       0       0       0       0       0       0       0
       0       0       0       0
%FLAG IROTAT                                                                    
%FORMAT(10I8)                                                                   
       0       0       0       0       0       0       0       0       0       0
       0       0       0       0       0       0       0       0       0       0
       0       0       0       0       0       0       0       0       0       0
       0       0       0       0       0       0       0       0       0       0
       0       0       0       0       0       0       0       0       0       0
       0       0       0       0
%FLAG RADIUS_SET                                                                
%FORMAT(1a80)                                                                   
modified Bondi radii (mbondi)                                                   
%FLAG RADII                                                                     
%FORMAT(5E16.8)                                                                 
  1.50000000E+00  1.50000000E+00  1.50000000E+00  1.50000000E+00  1.50000000E+00
  1.70000000E+00  1.50000000E+00  1.70000000E+00  1.50000000E+00  1.50000000E+00
  1.50000000E+00  1.50000000E+00  1.70000000E+00  1.70000000E+00  1.50000000E+00
  1.70000000E+00  1.70000000E+00  1.50000000E+00  1.50000000E+00  1.70000000E+00
  1.70000000E+00  1.70000000E+00  1.50000000E+00  1.70000000E+00  1.70000000E+00
  1.70000000E+00  1.30000000E+00  1.30000000E+00  1.30000000E+00  1.30000000E+00
  1.30000000E+00  1.30000000E+00  1.30000000E+00  1.30000000E+00  1.30000000E+00
  1.30000000E+00  1.30000000E+00  1.30000000E+00  1.30000000E+00  1.30000000E+00
  1.30000000E+00  1.30000000E+00  1.30000000E+00  1.30000000E+00  1.30000000E+00
  1.30000000E+00  1.30000000E+00  1.30000000E+00  1.30000000E+00  1.30000000E+00
  8.00000000E-01  1.30000000E+00  1.30000000E+00  8.00000000E-01
%FLAG SCREEN                                                                    
%FORMAT(5E16.8)                                                                 
  8.50000000E-01  8.50000000E-01  8.50000000E-01  8.50000000E-01  8.50000000E-01
  7.20000000E-01  8.00000000E-01  7.20000000E-01  8.00000000E-01  8.00000000E-01
  8.00000000E-01  8.00000000E-01  7.20000000E-01  7.20000000E-01  8.00000000E-01
  7.20000000E-01  7.20000000E-01  8.00000000E-01  8.00000000E-01  7.20000000E-01
  7.20000000E-01  7.20000000E-01  8.00000000E-01  7.20000000E-01  7.20000000E-01
  7.20000000E-01  8.50000000E-01  8.50000000E-01  8.50000000E-01  8.50000000E-01
  8.50000000E-01  8.50000000E-01  8.50000000E-01  8.50000000E-01  8.50000000E-01
  8.50000000E-01  8.50000000E-01  8.50000000E-01  8.50000000E-01  8.50000000E-01
  8.50000000E-01  8.50000000E-01  8.50000000E-01  8.50000000E-01  8.50000000E-01
  8.50000000E-01  8.50000000E-01  8.50000000E-01  8.50000000E-01  8.50000000E-01
  8.50000000E-01  8.50000000E-01  8.50000000E-01  8.50000000E-01
%FLAG IPOL                                                                      
%FORMAT(1I8)                                                                    
       0
