5839
    54
  -0.0540000   1.5060000  -1.8730000  -1.8660000  -1.0910000  -2.0630000
  -5.0870000  -0.3710000  -0.2280000   5.8150000   0.8320000   1.7810000
  -5.9860000   2.0580000   0.4900000  -0.8780000  -1.0660000   0.5930000
   0.4240000  -1.0940000  -0.2180000  -1.8630000   0.0010000   0.0990000
   1.1190000   0.3110000  -0.0830000   2.5330000   0.3280000  -0.7830000
   0.1530000   1.4700000  -0.4660000  -1.2170000   1.3840000   0.2490000
  -3.0630000  -0.2740000   1.0240000  -1.7310000  -2.3280000   0.6820000
   1.3380000  -2.2410000   0.2590000  -3.1010000  -1.8120000   1.1530000
   3.3200000  -0.8220000  -0.1410000   2.7360000  -2.1950000  -0.3560000
   3.2950000   1.6690000  -0.5890000  -2.2900000  -0.1900000  -1.3460000
   2.4610000   0.1130000  -2.3160000  -4.3670000   0.2770000   0.5300000
   3.8730000   1.8440000   0.8040000   4.3780000  -0.6610000   0.6700000
   4.7940000   0.6910000   1.1130000  -4.7360000   1.6620000   1.0150000
  -0.5980000  -0.8200000   1.6310000   0.2220000  -1.2870000  -1.2720000
   1.3060000   0.4470000   0.9950000   0.6060000   2.4270000  -0.1860000
  -1.0700000   1.6100000   1.3130000  -1.8790000   2.1560000  -0.1590000
  -2.8760000   0.1370000   2.0250000  -1.3170000  -3.0510000   1.3930000
  -1.8220000  -2.8370000  -0.2830000   0.8790000  -3.2080000   0.0200000
   1.4310000  -2.2020000   1.3530000  -3.8960000  -2.2950000   0.5750000
  -3.2670000  -2.0870000   2.2020000   2.6980000  -2.4370000  -1.4240000
   3.3550000  -2.9720000   0.1080000   2.6630000   2.5270000  -0.8390000
   4.1350000   1.7100000  -1.2990000  -2.9960000   0.5560000  -1.7510000
   2.1320000   1.0180000  -2.8360000   3.4510000  -0.1350000  -2.7210000
   1.7870000  -0.6950000  -2.6110000   3.0940000   1.8960000   1.5700000
   4.4540000   2.7720000   0.8410000   4.8980000  -1.5040000   1.1140000
  -0.6130000   2.2760000  -2.0700000  -3.9860000   2.3810000   0.6820000
  -4.7920000   1.6690000   2.1070000  -6.6600000   1.4640000   0.8620000
