;----------------------------TITLE -----------------------------------------------------------------------------------------
;   Aspirin
;
; This file was generated at 05:14 on 2026-03-24 by
;
;                  Automatic Topology Builder  
;
;                   REVISION 2025-01-17 09:57:26
;---------------------------------------------------------------------------------------------------------------------------
; Authors     : Martin Stroet, Bertrand Caron, Alpeshkumar K. Malde, Thomas Lee, Alan E. Mark
;
; Institute   : Molecular Dynamics group, 
;               School of Chemistry and Molecular Biosciences (SCMB),
;               The University of Queensland, QLD 4072, Australia
; URL         : https://atb.uq.edu.au
; Citations   : 1. Malde AK, Zuo L, Breeze M, Stroet M, Poger D, Nair PC, Oostenbrink C, Mark AE.
;                  An Automated force field Topology Builder (ATB) and repository: version 1.0.
;                  Journal of Chemical Theory and Computation, 2011, 7, 4026-4037.
;               2. Stroet M, Caron B, Visscher K, Geerke D, Malde AK, Mark AE.
;                  Automated Topology Builder version 3.0: Prediction of solvation free enthalpies in water and hexane.
;                  DOI:10.1021/acs.jctc.8b00768
;
; Disclaimer  : 
;      While every effort has been made to ensure the accuracy and validity of parameters provided below
;      the assignment of parameters is being based on an automated procedure combining data provided by a
;      given user as well as calculations performed using third party software. They are provided as a guide.
;      The authors of the ATB cannot guarantee that the parameters are complete or that the parameters provided
;      are appropriate for use in any specific application. Users are advised to treat these parameters with discretion
;      and to perform additional validation tests for their specific application if required. Neither the authors
;      of the ATB or The University of Queensland except any responsibly for how the parameters may be used.
;
; Release notes and warnings: 
;  (1) The topology is based on a set of atomic coordinates and other data provided by the user after
;      after quantum mechanical optimization of the structure using different levels of theory depending on
;      the nature of the molecule.
;  (2) In some cases the automatic bond, bond angle and dihedral type assignment is ambiguous.
;      In these cases alternative type codes are provided at the end of the line.
;  (3) While bonded parameters are taken where possible from the nominated force field non-standard bond, angle and dihedral
;      type code may be incorporated in cases where an exact match could not be found. These are marked as "non-standard"
;      or "uncertain" in comments.
;  (4) In some cases it is not possible to assign an appropriate parameter automatically. "%%" is used as a place holder
;      for those fields that could not be determined automatically. The parameters in these fields must be assigned manually
;      before the file can be used.
;---------------------------------------------------------------------------------------------------------------------------
; Input Structure : 2S14
; Output          : ALL ATOM topology
;	Use in conjunction with the corresponding all atom PDB file.
;---------------------------------------------------------------------------------------------------------------------------
; Citing this topology file
; ATB molid: 1861
; ATB Topology Hash: daa2f
;---------------------------------------------------------------------------------------------------------------------------
; Final Topology Generation was performed using: 
; A B3LYP/6-31G* optimized geometry.
; Bonded and van der Waals parameters were taken from the GROMOS 54A7 parameter set.
; Initial charges were estimated using the ESP method of Merz-Kollman.
; Final charges and charge groups were generated by method described in the ATB paper.
; If required, additional bonded parameters were generated from a Hessian matrix calculated at the B3LYP/6-31G* level of theory.
;---------------------------------------------------------------------------------------------------------------------------
;
;
[ moleculetype ]
; Name   nrexcl
2S14     3
[ atoms ]
;  nr  type  resnr  resid  atom  cgnr  charge    mass
    1  HS14    1    2S14     H8    1    0.446   1.0080
    2    OA    1    2S14     O4    2   -0.583  15.9994
    3  CPos    1    2S14     C9    3    0.704  12.0110
    4 OEOpt    1    2S14     O3    4   -0.558  15.9994
    5  CAro    1    2S14     C8    5   -0.187  12.0110
    6  CAro    1    2S14     C3    6    0.395  12.0110
    7    OE    1    2S14     O2    7   -0.438  15.9994
    8  CPos    1    2S14     C2    8    0.800  12.0110
    9 OEOpt    1    2S14     O1    9   -0.570  15.9994
   10     C    1    2S14     C1   10   -0.515  12.0110
   11    HC    1    2S14     H1   11    0.160   1.0080
   12    HC    1    2S14     H2   12    0.160   1.0080
   13    HC    1    2S14     H3   13    0.160   1.0080
   14  CAro    1    2S14     C4   14   -0.277  12.0110
   15    HC    1    2S14     H4   15    0.178   1.0080
   16  CAro    1    2S14     C5   16   -0.052  12.0110
   17    HC    1    2S14     H5   17    0.142   1.0080
   18  CAro    1    2S14     C6   18   -0.169  12.0110
   19    HC    1    2S14     H6   19    0.150   1.0080
   20  CAro    1    2S14     C7   20   -0.100  12.0110
   21    HC    1    2S14     H7   21    0.154   1.0080
; total charge of the molecule:  -0.000
[ bonds ]
;  ai   aj  funct   c0         c1
    1    2    2   0.0975   3.3662e+07
    2    3    2   0.1360   1.0200e+07
    3    4    2   0.1220   2.2843e+07
    3    5    2   0.1480   5.7300e+06
    5    6    2   0.1400   8.5400e+06
    5   20    2   0.1400   8.5400e+06
    6    7    2   0.1390   8.6600e+06
    6   14    2   0.1390   8.6600e+06
    7    8    2   0.1380   4.4633e+06
    8    9    2   0.1210   4.7811e+06
    8   10    2   0.1500   8.3700e+06
   10   11    2   0.1090   1.2300e+07
   10   12    2   0.1090   1.2300e+07
   10   13    2   0.1090   1.2300e+07
   14   15    2   0.1090   1.2300e+07
   14   16    2   0.1390   8.6600e+06
   16   17    2   0.1090   1.2300e+07
   16   18    2   0.1390   8.6600e+06
   18   19    2   0.1090   1.2300e+07
   18   20    2   0.1390   8.6600e+06
   20   21    2   0.1090   1.2300e+07
[ pairs ]
;  ai   aj  funct  ;  all 1-4 pairs but the ones excluded in GROMOS itp
    1    4    1
    1    5    1
    2    6    1
    2   20    1
    3    7    1
    3   14    1
    3   18    1
    3   21    1
    4    6    1
    4   20    1
    5    8    1
    5   15    1
    5   19    1
    6    9    1
    6   10    1
    6   17    1
    6   21    1
    7   11    1
    7   12    1
    7   13    1
    7   15    1
    7   16    1
    7   20    1
    8   14    1
    9   11    1
    9   12    1
    9   13    1
   14   19    1
   15   17    1
   15   18    1
   16   21    1
   17   19    1
   17   20    1
   19   21    1
[ angles ]
;  ai   aj   ak  funct   angle     fc
    1    2    3    2    109.50   450.00
    2    3    4    2    124.00   730.00
    2    3    5    2    111.00   530.00
    4    3    5    2    126.00   640.00
    3    5    6    2    120.00   560.00
    3    5   20    2    120.00   560.00
    6    5   20    2    120.00   560.00
    5    6    7    2    121.00   685.00
    5    6   14    2    120.00   560.00
    7    6   14    2    117.00   635.00
    6    7    8    2    120.00   780.00
    7    8    9    2    124.00   730.00
    7    8   10    2    109.50   520.00
    9    8   10    2    126.00   640.00
    8   10   11    2    108.53   443.00
    8   10   12    2    108.53   443.00
    8   10   13    2    108.53   443.00
   11   10   12    2    110.30   524.00
   11   10   13    2    110.30   524.00
   12   10   13    2    110.30   524.00
    6   14   15    2    120.00   505.00
    6   14   16    2    120.00   560.00
   15   14   16    2    120.00   505.00
   14   16   17    2    120.00   505.00
   14   16   18    2    120.00   560.00
   17   16   18    2    120.00   505.00
   16   18   19    2    120.00   505.00
   16   18   20    2    120.00   560.00
   19   18   20    2    120.00   505.00
    5   20   18    2    120.00   560.00
    5   20   21    2    120.00   505.00
   18   20   21    2    120.00   505.00
[ dihedrals ]
; GROMOS improper dihedrals
;  ai   aj   ak   al  funct   angle     fc
    8    7    9   10    2      0.00   167.36
    6    5    7   14    2      0.00   167.36
   14    6   15   16    2      0.00   167.36
   16   14   17   18    2      0.00   167.36
   18   16   19   20    2      0.00   167.36
   20    5   18   21    2      0.00   167.36
    5    3    6   20    2      0.00   167.36
    3    2    4    5    2      0.00   167.36
[ dihedrals ]
;  ai   aj   ak   al  funct    ph0      cp     mult
    1    2    3    5    1    180.00    16.70    2
    4    3    5    6    1    180.00     5.86    2
    5    6   14   16    1    180.00    41.80    2
    6    5   20   18    1    180.00    41.80    2
    6    7    8   10    1    180.00    24.00    2
    6   14   16   18    1    180.00    41.80    2
    9    8   10   11    1    180.00     1.00    6
   14    6    7    8    1      0.00     0.42    2
   14   16   18   20    1    180.00    41.80    2
   16   18   20    5    1    180.00    41.80    2
   20    5    6   14    1    180.00    41.80    2
[ exclusions ]
;  ai   aj  funct  ;  GROMOS 1-4 exclusions
    5   16
    6   18
   14   20
