;----------------------------TITLE -----------------------------------------------------------------------------------------
;   Paracetamol
;
; This file was generated at 21:53 on 2025-03-14 by
;
;                  Automatic Topology Builder  
;
;                   REVISION 2025-01-17 09:57:26
;---------------------------------------------------------------------------------------------------------------------------
; Authors     : Martin Stroet, Bertrand Caron, Alpeshkumar K. Malde, Thomas Lee, Alan E. Mark
;
; Institute   : Molecular Dynamics group, 
;               School of Chemistry and Molecular Biosciences (SCMB),
;               The University of Queensland, QLD 4072, Australia
; URL         : https://atb.uq.edu.au
; Citations   : 1. Malde AK, Zuo L, Breeze M, Stroet M, Poger D, Nair PC, Oostenbrink C, Mark AE.
;                  An Automated force field Topology Builder (ATB) and repository: version 1.0.
;                  Journal of Chemical Theory and Computation, 2011, 7, 4026-4037.
;               2. Stroet M, Caron B, Visscher K, Geerke D, Malde AK, Mark AE.
;                  Automated Topology Builder version 3.0: Prediction of solvation free enthalpies in water and hexane.
;                  DOI:10.1021/acs.jctc.8b00768
;
; Disclaimer  : 
;      While every effort has been made to ensure the accuracy and validity of parameters provided below
;      the assignment of parameters is being based on an automated procedure combining data provided by a
;      given user as well as calculations performed using third party software. They are provided as a guide.
;      The authors of the ATB cannot guarantee that the parameters are complete or that the parameters provided
;      are appropriate for use in any specific application. Users are advised to treat these parameters with discretion
;      and to perform additional validation tests for their specific application if required. Neither the authors
;      of the ATB or The University of Queensland except any responsibly for how the parameters may be used.
;
; Release notes and warnings: 
;  (1) The topology is based on a set of atomic coordinates and other data provided by the user after
;      after quantum mechanical optimization of the structure using different levels of theory depending on
;      the nature of the molecule.
;  (2) In some cases the automatic bond, bond angle and dihedral type assignment is ambiguous.
;      In these cases alternative type codes are provided at the end of the line.
;  (3) While bonded parameters are taken where possible from the nominated force field non-standard bond, angle and dihedral
;      type code may be incorporated in cases where an exact match could not be found. These are marked as "non-standard"
;      or "uncertain" in comments.
;  (4) In some cases it is not possible to assign an appropriate parameter automatically. "%%" is used as a place holder
;      for those fields that could not be determined automatically. The parameters in these fields must be assigned manually
;      before the file can be used.
;---------------------------------------------------------------------------------------------------------------------------
; Input Structure : YR5V
; Output          : ALL ATOM topology
;	Use in conjunction with the corresponding all atom PDB file.
;---------------------------------------------------------------------------------------------------------------------------
; Citing this topology file
; ATB molid: 29980
; ATB Topology Hash: a7324
;---------------------------------------------------------------------------------------------------------------------------
; Final Topology Generation was performed using: 
; A B3LYP/6-31G* optimized geometry.
; Bonded and van der Waals parameters were taken from the GROMOS 54A7 parameter set.
; Initial charges were estimated using the ESP method of Merz-Kollman.
; Final charges and charge groups were generated by method described in the ATB paper.
; If required, additional bonded parameters were generated from a Hessian matrix calculated at the B3LYP/6-31G* level of theory.
;---------------------------------------------------------------------------------------------------------------------------
;
;
[ moleculetype ]
; Name   nrexcl
YR5V     3
[ atoms ]
;  nr  type  resnr  resid  atom  cgnr  charge    mass
    1    HC    1    YR5V     H9    1    0.130   1.0080
    2     C    1    YR5V     C8    2   -0.444  12.0110
    3    HC    1    YR5V     H7    3    0.130   1.0080
    4    HC    1    YR5V     H8    4    0.130   1.0080
    5  CPos    1    YR5V     C7    5    0.752  12.0110
    6 OEOpt    1    YR5V     O2    6   -0.639  15.9994
    7     N    1    YR5V     N1    7   -0.704  14.0067
    8  HS14    1    YR5V     H6    8    0.384   1.0080
    9  CAro    1    YR5V     C4    9    0.361  12.0110
   10  CAro    1    YR5V     C3   10   -0.244  12.0110
   11    HC    1    YR5V     H2   11    0.178   1.0080
   12  CAro    1    YR5V     C2   12   -0.276  12.0110
   13    HC    1    YR5V     H1   13    0.180   1.0080
   14  CAro    1    YR5V     C1   14    0.367  12.0110
   15  OAlc    1    YR5V     O1   15   -0.590  15.9994
   16  HS14    1    YR5V     H5   16    0.447   1.0080
   17  CAro    1    YR5V     C6   17   -0.276  12.0110
   18    HC    1    YR5V     H4   18    0.180   1.0080
   19  CAro    1    YR5V     C5   19   -0.244  12.0110
   20    HC    1    YR5V     H3   20    0.178   1.0080
; total charge of the molecule:  -0.000
[ bonds ]
;  ai   aj  funct   c0         c1
    1    2    2   0.1090   1.2300e+07
    2    3    2   0.1090   1.2300e+07
    2    4    2   0.1090   1.2300e+07
    2    5    2   0.1520   5.4300e+06
    5    6    2   0.1230   1.6600e+07
    5    7    2   0.1380   1.1000e+07
    7    8    2   0.1020   1.7782e+07
    7    9    2   0.1430   8.1800e+06
    9   10    2   0.1390   8.6600e+06
    9   19    2   0.1390   8.6600e+06
   10   11    2   0.1090   1.2300e+07
   10   12    2   0.1390   8.6600e+06
   12   13    2   0.1090   1.2300e+07
   12   14    2   0.1390   8.6600e+06
   14   15    2   0.1360   1.0200e+07
   14   17    2   0.1390   8.6600e+06
   15   16    2   0.0972   1.9581e+07
   17   18    2   0.1090   1.2300e+07
   17   19    2   0.1390   8.6600e+06
   19   20    2   0.1090   1.2300e+07
[ pairs ]
;  ai   aj  funct  ;  all 1-4 pairs but the ones excluded in GROMOS itp
    1    6    1
    1    7    1
    2    8    1
    2    9    1
    3    6    1
    3    7    1
    4    6    1
    4    7    1
    5   10    1
    5   19    1
    6    8    1
    6    9    1
    7   11    1
    7   12    1
    7   17    1
    7   20    1
    8   10    1
    8   19    1
    9   13    1
    9   18    1
   10   15    1
   10   20    1
   11   13    1
   11   14    1
   11   19    1
   12   16    1
   12   18    1
   13   15    1
   13   17    1
   14   20    1
   15   18    1
   15   19    1
   16   17    1
   18   20    1
[ angles ]
;  ai   aj   ak  funct   angle     fc
    1    2    3    2    108.00   465.00
    1    2    4    2    108.00   465.00
    1    2    5    2    113.00   545.00
    3    2    4    2    108.00   465.00
    3    2    5    2    113.00   545.00
    4    2    5    2    113.00   545.00
    2    5    6    2    121.00   685.00
    2    5    7    2    120.00   560.00
    6    5    7    2    124.00   730.00
    5    7    8    2    115.00   460.00
    5    7    9    2    130.00  3398.91
    8    7    9    2    116.00   465.00
    7    9   10    2    120.00   560.00
    7    9   19    2    120.00   560.00
   10    9   19    2    120.00   560.00
    9   10   11    2    120.00   505.00
    9   10   12    2    120.00   560.00
   11   10   12    2    120.00   505.00
   10   12   13    2    120.00   505.00
   10   12   14    2    120.00   560.00
   13   12   14    2    120.00   505.00
   12   14   15    2    117.00   635.00
   12   14   17    2    120.00   560.00
   15   14   17    2    117.00   635.00
   14   15   16    2    109.50   450.00
   14   17   18    2    120.00   505.00
   14   17   19    2    120.00   560.00
   18   17   19    2    120.00   505.00
    9   19   17    2    120.00   560.00
    9   19   20    2    120.00   505.00
   17   19   20    2    120.00   505.00
[ dihedrals ]
; GROMOS improper dihedrals
;  ai   aj   ak   al  funct   angle     fc
   14   12   15   17    2      0.00   167.36
   12   10   13   14    2      0.00   167.36
   10    9   11   12    2      0.00   167.36
    9    7   10   19    2      0.00   167.36
   19    9   17   20    2      0.00   167.36
   17   14   18   19    2      0.00   167.36
    7    5    8    9    2      0.00   167.36
    5    2    6    7    2      0.00   167.36
[ dihedrals ]
;  ai   aj   ak   al  funct    ph0      cp     mult
    3    2    5    7    1      0.00     1.00    6
    5    7    9   10    1      0.00     0.42    2
    6    5    7    9    1    180.00    33.50    2
    9   10   12   14    1    180.00    41.80    2
   10    9   19   17    1    180.00    41.80    2
   10   12   14   17    1    180.00    41.80    2
   12   14   15   16    1    180.00    16.70    2
   12   14   17   19    1    180.00    41.80    2
   14   17   19    9    1    180.00    41.80    2
   19    9   10   12    1    180.00    41.80    2
[ exclusions ]
;  ai   aj  funct  ;  GROMOS 1-4 exclusions
    9   14
   10   17
   12   19
