6274
    20
  -1.0690000  -1.6920000  -0.7660000  -2.4950000  -1.1220000   0.9040000
   1.6800000   0.1410000   1.1620000  -2.7490000   1.3690000  -0.2180000
   2.8200000  -0.3370000  -0.6820000  -0.3580000   1.3000000   0.3220000
  -1.5060000   0.6400000  -0.4570000   0.9670000   0.6020000   0.1190000
  -1.7500000  -0.7920000  -0.0100000   1.6560000   0.3150000  -1.0030000
   2.8040000  -0.4250000   0.6290000  -0.5940000   1.3200000   1.3950000
  -0.2430000   2.3450000   0.0040000  -1.3120000   0.6420000  -1.5360000
   1.4440000   0.1940000   2.1450000   1.3990000   0.5300000  -2.0300000
  -2.6420000   2.3350000  -0.5280000  -2.9360000   1.4200000   0.7830000
   3.5660000  -0.8810000   1.2460000  -1.2420000  -2.6140000  -0.4800000
