; histidine_GMX_OPLS.itp created by acpype (v: 2023.10.27) on Mon Feb  9 17:47:28 2026

; For OPLS atomtypes manual fine tuning
; AC_at:OPLS_at:OPLScode: Possible_Alternatives (see ffoplsaa.atp and ffoplsaanb.itp)
; oh:OH:opls_154: ['167']
; o:O:opls_236: ['272']
; na:NA:opls_503: ['512']
; n8:x:opls_x: []
; nc:NB:opls_511: []
; c3:CT:opls_135: ['136', '137', '149', '157', '158', '206', '209', '210', '223B', '224B', '245', '246', '274', '283', '284', '285', '292', '292B', '293B', '296', '307', '308', '505']
; cd:C*:opls_500: ['506', '507', '508', '514']
; c:C:opls_235: ['271']
; cc:C*:opls_500: ['506', '507', '508', '514']
; hc:HC:opls_140: []
; h1:HC:opls_140: []
; hn:H:opls_240: ['241', '290', '301', '304', '310', '504', '513']
; h4:HA:opls_146: []
; h5:HA:opls_146: []
; ho:HO:opls_155: ['168']

[ moleculetype ]
;name            nrexcl
 histidine        3

[ atoms ]
;   nr  type  resi  res  atom  cgnr     charge      mass       ; qtot   bond_type
     1 opls_154     1   HIS     O    1    -0.581100     15.99940 ; qtot -0.581  OH  
     2 opls_236     1   HIS   OXT    2    -0.581000     15.99940 ; qtot -1.162  O   
     3 opls_503     1   HIS   ND1    3    -0.306900     14.00670 ; qtot -1.469  NA  
     4 opls_x     1   HIS     N    4    -0.900800      0.00000 ; qtot -2.370  x   
     5 opls_511     1   HIS   NE2    5    -0.670000     14.00670 ; qtot -3.040  NB  
     6 opls_135     1   HIS    CB    6    -0.038100     12.01100 ; qtot -3.078  CT  
     7 opls_135     1   HIS    CA    7     0.130500     12.01100 ; qtot -2.947  CT  
     8 opls_500     1   HIS    CG    8    -0.239900     12.01100 ; qtot -3.187  C*  
     9 opls_235     1   HIS     C    9     0.652100     12.01100 ; qtot -2.535  C   
    10 opls_500     1   HIS   CD2   10     0.306200     12.01100 ; qtot -2.229  C*  
    11 opls_500     1   HIS   CE1   11     0.393400     12.01100 ; qtot -1.836  C*  
    12 opls_140     1   HIS   HB1   12     0.068200      1.00800 ; qtot -1.767  HC  
    13 opls_140     1   HIS   HB2   13     0.068200      1.00800 ; qtot -1.699  HC  
    14 opls_140     1   HIS    HA   14     0.101700      1.00800 ; qtot -1.597  HC  
    15 opls_240     1   HIS   HD1   15     0.320700      1.00800 ; qtot -1.277  H   
    16 opls_146     1   HIS   HD2   16     0.040100      1.00800 ; qtot -1.237  HA  
    17 opls_240     1   HIS    H1   17     0.365300      1.00800 ; qtot -0.871  H   
    18 opls_240     1   HIS    H2   18     0.365300      1.00800 ; qtot -0.506  H   
    19 opls_146     1   HIS   HE1   19     0.062100      1.00800 ; qtot -0.444  HA  
    20 opls_155     1   HIS     H   20     0.444000      1.00800 ; qtot  0.000  HO  

[ bonds ]
;   ai     aj funct   r             k
     1      9   1 ;    1.3556e-01    3.0064e+05 ;      O - C          OH - C     
     1     20   1 ;    9.7250e-02    4.4811e+05 ;      O - H          OH - HO    
     2      9   1 ;    1.2190e-01    4.9421e+05 ;    OXT - C           O - C     
     3      8   1 ;    1.3830e-01    2.7819e+05 ;    ND1 - CG         NA - C*    
     3     11   1 ;    1.3830e-01    2.7819e+05 ;    ND1 - CE1        NA - C*    
     3     15   1 ;    1.0095e-01    4.0315e+05 ;    ND1 - HD1        NA - H     
     4      7   1 ;    1.4651e-01    2.1239e+05 ;      N - CA          x - CT    
     4     17   1 ;    1.0192e-01    3.8550e+05 ;      N - H1          x - H     
     4     18   1 ;    1.0192e-01    3.8550e+05 ;      N - H2          x - H     
     5     10   1 ;    1.3629e-01    2.9793e+05 ;    NE2 - CD2        NB - C*    
     5     11   1 ;    1.3171e-01    3.4961e+05 ;    NE2 - CE1        NB - C*    
     6      7   1 ;    1.5354e-01    1.9154e+05 ;     CB - CA         CT - CT    
     6      8   1 ;    1.5018e-01    2.1244e+05 ;     CB - CG         CT - C*    
     6     12   1 ;    1.0962e-01    2.8891e+05 ;     CB - HB1        CT - HC    
     6     13   1 ;    1.0962e-01    2.8891e+05 ;     CB - HB2        CT - HC    
     7      9   1 ;    1.5270e-01    1.9652e+05 ;     CA - C          CT - C     
     7     14   1 ;    1.0969e-01    2.8804e+05 ;     CA - HA         CT - HC    
     8     10   1 ;    1.3730e-01    3.2321e+05 ;     CG - CD2        C* - C*    
    10     16   1 ;    1.0809e-01    3.0854e+05 ;    CD2 - HD2        C* - HA    
    11     19   1 ;    1.0821e-01    3.0695e+05 ;    CE1 - HE1        C* - HA    

[ pairs ]
;   ai     aj    funct
     1      4      1 ;      O - N     
     1      6      1 ;      O - CB    
     1     14      1 ;      O - HA    
     2      4      1 ;    OXT - N     
     2      6      1 ;    OXT - CB    
     2     14      1 ;    OXT - HA    
     3      7      1 ;    ND1 - CA    
     3     12      1 ;    ND1 - HB1   
     3     13      1 ;    ND1 - HB2   
     3     16      1 ;    ND1 - HD2   
     4      8      1 ;      N - CG    
     4     12      1 ;      N - HB1   
     4     13      1 ;      N - HB2   
     5      6      1 ;    NE2 - CB    
     5     15      1 ;    NE2 - HD1   
     6     11      1 ;     CB - CE1   
     6     15      1 ;     CB - HD1   
     6     16      1 ;     CB - HD2   
     6     17      1 ;     CB - H1    
     6     18      1 ;     CB - H2    
     7     10      1 ;     CA - CD2   
     8      9      1 ;     CG - C     
     8     14      1 ;     CG - HA    
     8     19      1 ;     CG - HE1   
     9     12      1 ;      C - HB1   
     9     13      1 ;      C - HB2   
     9     17      1 ;      C - H1    
     9     18      1 ;      C - H2    
    10     12      1 ;    CD2 - HB1   
    10     13      1 ;    CD2 - HB2   
    10     15      1 ;    CD2 - HD1   
    10     19      1 ;    CD2 - HE1   
    11     16      1 ;    CE1 - HD2   
    12     14      1 ;    HB1 - HA    
    13     14      1 ;    HB2 - HA    
    14     17      1 ;     HA - H1    
    14     18      1 ;     HA - H2    
    15     19      1 ;    HD1 - HE1   
    20      2      1 ;      H - OXT   
    20      7      1 ;      H - CA    

[ angles ]
;   ai     aj     ak    funct   theta         cth
     1      9      2      1 ;    1.2209e+02    8.5379e+02 ;      O - C    - OXT      OH -    C - O   
     1      9      7      1 ;    1.1274e+02    6.4785e+02 ;      O - C    - CA       OH -    C - CT  
     2      9      7      1 ;    1.2290e+02    6.3973e+02 ;    OXT - C    - CA        O -    C - CT  
     3      8      6      1 ;    1.2143e+02    5.4342e+02 ;    ND1 - CG   - CB       NA -   C* - CT  
     3      8     10      1 ;    1.0899e+02    6.0241e+02 ;    ND1 - CG   - CD2      NA -   C* - C*  
     3     11      5      1 ;    1.1302e+02    6.4024e+02 ;    ND1 - CE1  - NE2      NA -   C* - NB  
     3     11     19      1 ;    1.2083e+02    4.0116e+02 ;    ND1 - CE1  - HE1      NA -   C* - HA  
     4      7      6      1 ;    1.1091e+02    5.4794e+02 ;      N - CA   - CB        x -   CT - CT  
     4      7      9      1 ;    1.1096e+02    5.4944e+02 ;      N - CA   - C         x -   CT - C   
     4      7     14      1 ;    1.0812e+02    4.0342e+02 ;      N - CA   - HA        x -   CT - HC  
     5     10      8      1 ;    1.1799e+02    5.8325e+02 ;    NE2 - CD2  - CG       NB -   C* - C*  
     5     10     16      1 ;    1.2076e+02    4.0610e+02 ;    NE2 - CD2  - HD2      NB -   C* - HA  
     5     11     19      1 ;    1.2529e+02    4.0911e+02 ;    NE2 - CE1  - HE1      NB -   C* - HA  
     6      7      9      1 ;    1.1143e+02    5.0509e+02 ;     CB - CA   - C        CT -   CT - C   
     6      7     14      1 ;    1.0959e+02    3.6217e+02 ;     CB - CA   - HA       CT -   CT - HC  
     6      8     10      1 ;    1.2668e+02    5.0258e+02 ;     CB - CG   - CD2      CT -   C* - C*  
     7      4     17      1 ;    1.0961e+02    4.7003e+02 ;     CA - N    - H1       CT -    x - H   
     7      4     18      1 ;    1.0961e+02    4.7003e+02 ;     CA - N    - H2       CT -    x - H   
     7      6      8      1 ;    1.1267e+02    5.0635e+02 ;     CA - CB   - CG       CT -   CT - C*  
     7      6     12      1 ;    1.0968e+02    3.6208e+02 ;     CA - CB   - HB1      CT -   CT - HC  
     7      6     13      1 ;    1.0968e+02    3.6208e+02 ;     CA - CB   - HB2      CT -   CT - HC  
     8      3     11      1 ;    1.1090e+02    6.9279e+02 ;     CG - ND1  - CE1      C* -   NA - C*  
     8      3     15      1 ;    1.2524e+02    4.6384e+02 ;     CG - ND1  - HD1      C* -   NA - H   
     8      6     12      1 ;    1.1062e+02    3.6777e+02 ;     CG - CB   - HB1      C* -   CT - HC  
     8      6     13      1 ;    1.1062e+02    3.6777e+02 ;     CG - CB   - HB2      C* -   CT - HC  
     8     10     16      1 ;    1.2911e+02    3.6777e+02 ;     CG - CD2  - HD2      C* -   C* - HA  
     9      1     20      1 ;    1.0654e+02    5.7287e+02 ;      C - O    - H         C -   OH - HO  
     9      7     14      1 ;    1.0837e+02    3.6602e+02 ;      C - CA   - HA        C -   CT - HC  
    10      5     11      1 ;    1.0915e+02    7.2032e+02 ;    CD2 - NE2  - CE1      C* -   NB - C*  
    11      3     15      1 ;    1.2524e+02    4.6384e+02 ;    CE1 - ND1  - HD1      C* -   NA - H   
    12      6     13      1 ;    1.0773e+02    2.9957e+02 ;    HB1 - CB   - HB2      HC -   CT - HC  
    17      4     18      1 ;    1.0638e+02    4.0074e+02 ;     H1 - N    - H2        H -    x - H   

[ dihedrals ] ; propers
; for gromacs 4.5 or higher, using funct 9
;    i      j      k      l   func   phase     kd      pn
     1      9      7      4      9 ;   180.00   0.00000   2 ;      O-     C-    CA-     N
     1      9      7      6      9 ;   180.00   0.00000   2 ;      O-     C-    CA-    CB
     1      9      7     14      9 ;   180.00   0.00000   2 ;      O-     C-    CA-    HA
     2      9      7      4      9 ;   180.00   0.00000   2 ;    OXT-     C-    CA-     N
     2      9      7      6      9 ;     0.00   2.84512   1 ;    OXT-     C-    CA-    CB
     2      9      7      6      9 ;   180.00   0.83680   2 ;    OXT-     C-    CA-    CB
     2      9      7      6      9 ;   180.00   1.84096   3 ;    OXT-     C-    CA-    CB
     2      9      7     14      9 ;     0.00   3.34720   1 ;    OXT-     C-    CA-    HA
     2      9      7     14      9 ;   180.00   0.33472   3 ;    OXT-     C-    CA-    HA
     3      8      6      7      9 ;     0.00   0.00000   0 ;    ND1-    CG-    CB-    CA
     3      8      6     12      9 ;     0.00   0.00000   0 ;    ND1-    CG-    CB-   HB1
     3      8      6     13      9 ;     0.00   0.00000   0 ;    ND1-    CG-    CB-   HB2
     3      8     10      5      9 ;   180.00  16.73600   2 ;    ND1-    CG-   CD2-   NE2
     3      8     10     16      9 ;   180.00  16.73600   2 ;    ND1-    CG-   CD2-   HD2
     3     11      5     10      9 ;   180.00  19.87400   2 ;    ND1-   CE1-   NE2-   CD2
     4      7      6      8      9 ;     0.00   0.65084   3 ;      N-    CA-    CB-    CG
     4      7      6     12      9 ;     0.00   0.20920   3 ;      N-    CA-    CB-   HB1
     4      7      6     13      9 ;     0.00   0.20920   3 ;      N-    CA-    CB-   HB2
     5     10      8      6      9 ;   180.00  16.73600   2 ;    NE2-   CD2-    CG-    CB
     5     11      3      8      9 ;   180.00   7.11280   2 ;    NE2-   CE1-   ND1-    CG
     5     11      3     15      9 ;   180.00   7.11280   2 ;    NE2-   CE1-   ND1-   HD1
     6      7      4     17      9 ;   180.00   0.12552   3 ;     CB-    CA-     N-    H1
     6      7      4     18      9 ;   180.00   0.12552   3 ;     CB-    CA-     N-    H2
     6      8      3     11      9 ;   180.00   7.11280   2 ;     CB-    CG-   ND1-   CE1
     6      8      3     15      9 ;   180.00   7.11280   2 ;     CB-    CG-   ND1-   HD1
     6      8     10     16      9 ;   180.00  16.73600   2 ;     CB-    CG-   CD2-   HD2
     7      6      8     10      9 ;   180.00   0.65689   3 ;     CA-    CB-    CG-   CD2
     8      3     11     19      9 ;   180.00   7.11280   2 ;     CG-   ND1-   CE1-   HE1
     8      6      7      9      9 ;     0.00   0.65084   3 ;     CG-    CB-    CA-     C
     8      6      7     14      9 ;     0.00   0.65084   3 ;     CG-    CB-    CA-    HA
     8     10      5     11      9 ;   180.00  19.87400   2 ;     CG-   CD2-   NE2-   CE1
     9      7      4     17      9 ;     0.00   1.25520   3 ;      C-    CA-     N-    H1
     9      7      4     18      9 ;     0.00   1.25520   3 ;      C-    CA-     N-    H2
     9      7      6     12      9 ;     0.00   0.65084   3 ;      C-    CA-    CB-   HB1
     9      7      6     13      9 ;     0.00   0.65084   3 ;      C-    CA-    CB-   HB2
    10      5     11     19      9 ;   180.00  19.87400   2 ;    CD2-   NE2-   CE1-   HE1
    10      8      3     11      9 ;   180.00   7.11280   2 ;    CD2-    CG-   ND1-   CE1
    10      8      3     15      9 ;   180.00   7.11280   2 ;    CD2-    CG-   ND1-   HD1
    10      8      6     12      9 ;     0.00   0.00000   0 ;    CD2-    CG-    CB-   HB1
    10      8      6     13      9 ;     0.00   0.00000   0 ;    CD2-    CG-    CB-   HB2
    11      5     10     16      9 ;   180.00  19.87400   2 ;    CE1-   NE2-   CD2-   HD2
    12      6      7     14      9 ;     0.00   0.65084   3 ;    HB1-    CB-    CA-    HA
    13      6      7     14      9 ;     0.00   0.65084   3 ;    HB2-    CB-    CA-    HA
    14      7      4     17      9 ;     0.00   1.25520   3 ;     HA-    CA-     N-    H1
    14      7      4     18      9 ;     0.00   1.25520   3 ;     HA-    CA-     N-    H2
    15      3     11     19      9 ;   180.00   7.11280   2 ;    HD1-   ND1-   CE1-   HE1
    20      1      9      2      9 ;     0.00   7.94960   1 ;      H-     O-     C-   OXT
    20      1      9      2      9 ;   180.00   9.62320   2 ;      H-     O-     C-   OXT
    20      1      9      7      9 ;   180.00   7.53120   2 ;      H-     O-     C-    CA

[ dihedrals ] ; impropers
; treated as propers in GROMACS to use correct AMBER analytical function
;    i      j      k      l   func   phase     kd      pn
     1      9      2      7      4 ;   180.00   4.60240   2 ;      O-     C-   OXT-    CA
     6     10      8      3      4 ;   180.00   4.60240   2 ;     CB-   CD2-    CG-   ND1
     8     11      3     15      4 ;   180.00   4.60240   2 ;     CG-   CE1-   ND1-   HD1
     8     16     10      5      4 ;   180.00   4.60240   2 ;     CG-   HD2-   CD2-   NE2
    19      3     11      5      4 ;   180.00   4.60240   2 ;    HE1-   ND1-   CE1-   NE2
