; histidine_GMX.itp created by acpype (v: 2023.10.27) on Mon Feb  9 17:47:28 2026

[ atomtypes ]
;name   bond_type     mass     charge   ptype   sigma         epsilon       Amb
 oh       oh          0.00000  0.00000   A     3.24287e-01   3.89112e-01 ; 1.82  0.0930
 o        o           0.00000  0.00000   A     3.04812e-01   6.12119e-01 ; 1.71  0.1463
 na       na          0.00000  0.00000   A     3.20581e-01   8.54373e-01 ; 1.80  0.2042
 n8       n8          0.00000  0.00000   A     3.65019e-01   1.35143e-01 ; 2.05  0.0323
 nc       nc          0.00000  0.00000   A     3.38417e-01   3.93714e-01 ; 1.90  0.0941
 c3       c3          0.00000  0.00000   A     3.39771e-01   4.51035e-01 ; 1.91  0.1078
 cd       cd          0.00000  0.00000   A     3.31521e-01   4.13379e-01 ; 1.86  0.0988
 c        c           0.00000  0.00000   A     3.31521e-01   4.13379e-01 ; 1.86  0.0988
 cc       cc          0.00000  0.00000   A     3.31521e-01   4.13379e-01 ; 1.86  0.0988
 hc       hc          0.00000  0.00000   A     2.60018e-01   8.70272e-02 ; 1.46  0.0208
 h1       h1          0.00000  0.00000   A     2.42200e-01   8.70272e-02 ; 1.36  0.0208
 hn       hn          0.00000  0.00000   A     1.10650e-01   4.18400e-02 ; 0.62  0.0100
 h4       h4          0.00000  0.00000   A     2.53639e-01   6.73624e-02 ; 1.42  0.0161
 h5       h5          0.00000  0.00000   A     2.44730e-01   6.73624e-02 ; 1.37  0.0161
 ho       ho          0.00000  0.00000   A     5.37925e-02   1.96648e-02 ; 0.30  0.0047

[ moleculetype ]
;name            nrexcl
 histidine        3

[ atoms ]
;   nr  type  resi  res  atom  cgnr     charge      mass       ; qtot   bond_type
     1   oh     1   HIS     O    1    -0.581100     16.00000 ; qtot -0.581
     2    o     1   HIS   OXT    2    -0.581000     16.00000 ; qtot -1.162
     3   na     1   HIS   ND1    3    -0.306900     14.01000 ; qtot -1.469
     4   n8     1   HIS     N    4    -0.900800     14.01000 ; qtot -2.370
     5   nc     1   HIS   NE2    5    -0.670000     14.01000 ; qtot -3.040
     6   c3     1   HIS    CB    6    -0.038100     12.01000 ; qtot -3.078
     7   c3     1   HIS    CA    7     0.130500     12.01000 ; qtot -2.947
     8   cd     1   HIS    CG    8    -0.239900     12.01000 ; qtot -3.187
     9    c     1   HIS     C    9     0.652100     12.01000 ; qtot -2.535
    10   cc     1   HIS   CD2   10     0.306200     12.01000 ; qtot -2.229
    11   cd     1   HIS   CE1   11     0.393400     12.01000 ; qtot -1.836
    12   hc     1   HIS   HB1   12     0.068200      1.00800 ; qtot -1.767
    13   hc     1   HIS   HB2   13     0.068200      1.00800 ; qtot -1.699
    14   h1     1   HIS    HA   14     0.101700      1.00800 ; qtot -1.597
    15   hn     1   HIS   HD1   15     0.320700      1.00800 ; qtot -1.277
    16   h4     1   HIS   HD2   16     0.040100      1.00800 ; qtot -1.237
    17   hn     1   HIS    H1   17     0.365300      1.00800 ; qtot -0.871
    18   hn     1   HIS    H2   18     0.365300      1.00800 ; qtot -0.506
    19   h5     1   HIS   HE1   19     0.062100      1.00800 ; qtot -0.444
    20   ho     1   HIS     H   20     0.444000      1.00800 ; qtot 0.000

[ bonds ]
;   ai     aj funct   r             k
     1      9   1    1.3556e-01    3.0064e+05 ;      O - C     
     1     20   1    9.7250e-02    4.4811e+05 ;      O - H     
     2      9   1    1.2190e-01    4.9421e+05 ;    OXT - C     
     3      8   1    1.3830e-01    2.7819e+05 ;    ND1 - CG    
     3     11   1    1.3830e-01    2.7819e+05 ;    ND1 - CE1   
     3     15   1    1.0095e-01    4.0315e+05 ;    ND1 - HD1   
     4      7   1    1.4651e-01    2.1239e+05 ;      N - CA    
     4     17   1    1.0192e-01    3.8550e+05 ;      N - H1    
     4     18   1    1.0192e-01    3.8550e+05 ;      N - H2    
     5     10   1    1.3629e-01    2.9793e+05 ;    NE2 - CD2   
     5     11   1    1.3171e-01    3.4961e+05 ;    NE2 - CE1   
     6      7   1    1.5354e-01    1.9154e+05 ;     CB - CA    
     6      8   1    1.5018e-01    2.1244e+05 ;     CB - CG    
     6     12   1    1.0962e-01    2.8891e+05 ;     CB - HB1   
     6     13   1    1.0962e-01    2.8891e+05 ;     CB - HB2   
     7      9   1    1.5270e-01    1.9652e+05 ;     CA - C     
     7     14   1    1.0969e-01    2.8804e+05 ;     CA - HA    
     8     10   1    1.3730e-01    3.2321e+05 ;     CG - CD2   
    10     16   1    1.0809e-01    3.0854e+05 ;    CD2 - HD2   
    11     19   1    1.0821e-01    3.0695e+05 ;    CE1 - HE1   

[ pairs ]
;   ai     aj    funct
     1      4      1 ;      O - N     
     1      6      1 ;      O - CB    
     1     14      1 ;      O - HA    
     2      4      1 ;    OXT - N     
     2      6      1 ;    OXT - CB    
     2     14      1 ;    OXT - HA    
     3      7      1 ;    ND1 - CA    
     3     12      1 ;    ND1 - HB1   
     3     13      1 ;    ND1 - HB2   
     3     16      1 ;    ND1 - HD2   
     4      8      1 ;      N - CG    
     4     12      1 ;      N - HB1   
     4     13      1 ;      N - HB2   
     5      6      1 ;    NE2 - CB    
     5     15      1 ;    NE2 - HD1   
     6     11      1 ;     CB - CE1   
     6     15      1 ;     CB - HD1   
     6     16      1 ;     CB - HD2   
     6     17      1 ;     CB - H1    
     6     18      1 ;     CB - H2    
     7     10      1 ;     CA - CD2   
     8      9      1 ;     CG - C     
     8     14      1 ;     CG - HA    
     8     19      1 ;     CG - HE1   
     9     12      1 ;      C - HB1   
     9     13      1 ;      C - HB2   
     9     17      1 ;      C - H1    
     9     18      1 ;      C - H2    
    10     12      1 ;    CD2 - HB1   
    10     13      1 ;    CD2 - HB2   
    10     15      1 ;    CD2 - HD1   
    10     19      1 ;    CD2 - HE1   
    11     16      1 ;    CE1 - HD2   
    12     14      1 ;    HB1 - HA    
    13     14      1 ;    HB2 - HA    
    14     17      1 ;     HA - H1    
    14     18      1 ;     HA - H2    
    15     19      1 ;    HD1 - HE1   
    20      2      1 ;      H - OXT   
    20      7      1 ;      H - CA    

[ angles ]
;   ai     aj     ak    funct   theta         cth
     1      9      2      1    1.2209e+02    8.5379e+02 ;      O - C      - OXT   
     1      9      7      1    1.1274e+02    6.4785e+02 ;      O - C      - CA    
     2      9      7      1    1.2290e+02    6.3973e+02 ;    OXT - C      - CA    
     3      8      6      1    1.2143e+02    5.4342e+02 ;    ND1 - CG     - CB    
     3      8     10      1    1.0899e+02    6.0241e+02 ;    ND1 - CG     - CD2   
     3     11      5      1    1.1302e+02    6.4024e+02 ;    ND1 - CE1    - NE2   
     3     11     19      1    1.2083e+02    4.0116e+02 ;    ND1 - CE1    - HE1   
     4      7      6      1    1.1091e+02    5.4794e+02 ;      N - CA     - CB    
     4      7      9      1    1.1096e+02    5.4944e+02 ;      N - CA     - C     
     4      7     14      1    1.0812e+02    4.0342e+02 ;      N - CA     - HA    
     5     10      8      1    1.1799e+02    5.8325e+02 ;    NE2 - CD2    - CG    
     5     10     16      1    1.2076e+02    4.0610e+02 ;    NE2 - CD2    - HD2   
     5     11     19      1    1.2529e+02    4.0911e+02 ;    NE2 - CE1    - HE1   
     6      7      9      1    1.1143e+02    5.0509e+02 ;     CB - CA     - C     
     6      7     14      1    1.0959e+02    3.6217e+02 ;     CB - CA     - HA    
     6      8     10      1    1.2668e+02    5.0258e+02 ;     CB - CG     - CD2   
     7      4     17      1    1.0961e+02    4.7003e+02 ;     CA - N      - H1    
     7      4     18      1    1.0961e+02    4.7003e+02 ;     CA - N      - H2    
     7      6      8      1    1.1267e+02    5.0635e+02 ;     CA - CB     - CG    
     7      6     12      1    1.0968e+02    3.6208e+02 ;     CA - CB     - HB1   
     7      6     13      1    1.0968e+02    3.6208e+02 ;     CA - CB     - HB2   
     8      3     11      1    1.1090e+02    6.9279e+02 ;     CG - ND1    - CE1   
     8      3     15      1    1.2524e+02    4.6384e+02 ;     CG - ND1    - HD1   
     8      6     12      1    1.1062e+02    3.6777e+02 ;     CG - CB     - HB1   
     8      6     13      1    1.1062e+02    3.6777e+02 ;     CG - CB     - HB2   
     8     10     16      1    1.2911e+02    3.6777e+02 ;     CG - CD2    - HD2   
     9      1     20      1    1.0654e+02    5.7287e+02 ;      C - O      - H     
     9      7     14      1    1.0837e+02    3.6602e+02 ;      C - CA     - HA    
    10      5     11      1    1.0915e+02    7.2032e+02 ;    CD2 - NE2    - CE1   
    11      3     15      1    1.2524e+02    4.6384e+02 ;    CE1 - ND1    - HD1   
    12      6     13      1    1.0773e+02    2.9957e+02 ;    HB1 - CB     - HB2   
    17      4     18      1    1.0638e+02    4.0074e+02 ;     H1 - N      - H2    

[ dihedrals ] ; propers
; for gromacs 4.5 or higher, using funct 9
;    i      j      k      l   func   phase     kd      pn
     1      9      7      4      9   180.00   0.00000   2 ;      O-     C-    CA-     N
     1      9      7      6      9   180.00   0.00000   2 ;      O-     C-    CA-    CB
     1      9      7     14      9   180.00   0.00000   2 ;      O-     C-    CA-    HA
     2      9      7      4      9   180.00   0.00000   2 ;    OXT-     C-    CA-     N
     2      9      7      6      9     0.00   2.84512   1 ;    OXT-     C-    CA-    CB
     2      9      7      6      9   180.00   0.83680   2 ;    OXT-     C-    CA-    CB
     2      9      7      6      9   180.00   1.84096   3 ;    OXT-     C-    CA-    CB
     2      9      7     14      9     0.00   3.34720   1 ;    OXT-     C-    CA-    HA
     2      9      7     14      9   180.00   0.33472   3 ;    OXT-     C-    CA-    HA
     3      8      6      7      9     0.00   0.00000   0 ;    ND1-    CG-    CB-    CA
     3      8      6     12      9     0.00   0.00000   0 ;    ND1-    CG-    CB-   HB1
     3      8      6     13      9     0.00   0.00000   0 ;    ND1-    CG-    CB-   HB2
     3      8     10      5      9   180.00  16.73600   2 ;    ND1-    CG-   CD2-   NE2
     3      8     10     16      9   180.00  16.73600   2 ;    ND1-    CG-   CD2-   HD2
     3     11      5     10      9   180.00  19.87400   2 ;    ND1-   CE1-   NE2-   CD2
     4      7      6      8      9     0.00   0.65084   3 ;      N-    CA-    CB-    CG
     4      7      6     12      9     0.00   0.20920   3 ;      N-    CA-    CB-   HB1
     4      7      6     13      9     0.00   0.20920   3 ;      N-    CA-    CB-   HB2
     5     10      8      6      9   180.00  16.73600   2 ;    NE2-   CD2-    CG-    CB
     5     11      3      8      9   180.00   7.11280   2 ;    NE2-   CE1-   ND1-    CG
     5     11      3     15      9   180.00   7.11280   2 ;    NE2-   CE1-   ND1-   HD1
     6      7      4     17      9   180.00   0.12552   3 ;     CB-    CA-     N-    H1
     6      7      4     18      9   180.00   0.12552   3 ;     CB-    CA-     N-    H2
     6      8      3     11      9   180.00   7.11280   2 ;     CB-    CG-   ND1-   CE1
     6      8      3     15      9   180.00   7.11280   2 ;     CB-    CG-   ND1-   HD1
     6      8     10     16      9   180.00  16.73600   2 ;     CB-    CG-   CD2-   HD2
     7      6      8     10      9   180.00   0.65689   3 ;     CA-    CB-    CG-   CD2
     8      3     11     19      9   180.00   7.11280   2 ;     CG-   ND1-   CE1-   HE1
     8      6      7      9      9     0.00   0.65084   3 ;     CG-    CB-    CA-     C
     8      6      7     14      9     0.00   0.65084   3 ;     CG-    CB-    CA-    HA
     8     10      5     11      9   180.00  19.87400   2 ;     CG-   CD2-   NE2-   CE1
     9      7      4     17      9     0.00   1.25520   3 ;      C-    CA-     N-    H1
     9      7      4     18      9     0.00   1.25520   3 ;      C-    CA-     N-    H2
     9      7      6     12      9     0.00   0.65084   3 ;      C-    CA-    CB-   HB1
     9      7      6     13      9     0.00   0.65084   3 ;      C-    CA-    CB-   HB2
    10      5     11     19      9   180.00  19.87400   2 ;    CD2-   NE2-   CE1-   HE1
    10      8      3     11      9   180.00   7.11280   2 ;    CD2-    CG-   ND1-   CE1
    10      8      3     15      9   180.00   7.11280   2 ;    CD2-    CG-   ND1-   HD1
    10      8      6     12      9     0.00   0.00000   0 ;    CD2-    CG-    CB-   HB1
    10      8      6     13      9     0.00   0.00000   0 ;    CD2-    CG-    CB-   HB2
    11      5     10     16      9   180.00  19.87400   2 ;    CE1-   NE2-   CD2-   HD2
    12      6      7     14      9     0.00   0.65084   3 ;    HB1-    CB-    CA-    HA
    13      6      7     14      9     0.00   0.65084   3 ;    HB2-    CB-    CA-    HA
    14      7      4     17      9     0.00   1.25520   3 ;     HA-    CA-     N-    H1
    14      7      4     18      9     0.00   1.25520   3 ;     HA-    CA-     N-    H2
    15      3     11     19      9   180.00   7.11280   2 ;    HD1-   ND1-   CE1-   HE1
    20      1      9      2      9     0.00   7.94960   1 ;      H-     O-     C-   OXT
    20      1      9      2      9   180.00   9.62320   2 ;      H-     O-     C-   OXT
    20      1      9      7      9   180.00   7.53120   2 ;      H-     O-     C-    CA

[ dihedrals ] ; impropers
; treated as propers in GROMACS to use correct AMBER analytical function
;    i      j      k      l   func   phase     kd      pn
     1      9      2      7      4   180.00   4.60240   2 ;      O-     C-   OXT-    CA
     6     10      8      3      4   180.00   4.60240   2 ;     CB-   CD2-    CG-   ND1
     8     11      3     15      4   180.00   4.60240   2 ;     CG-   CE1-   ND1-   HD1
     8     16     10      5      4   180.00   4.60240   2 ;     CG-   HD2-   CD2-   NE2
    19      3     11      5      4   180.00   4.60240   2 ;    HE1-   ND1-   CE1-   NE2
