%VERSION  VERSION_STAMP = V0001.000  DATE = 02/09/26  17:47:32                  
%FLAG TITLE                                                                     
%FORMAT(20a4)                                                                   
6274                                                                            
%FLAG POINTERS                                                                  
%FORMAT(10I8)                                                                   
      20      13       9      11      18      14      35      19       0       0
      96       1      11      14      19      17      28      19      15       0
       0       0       0       0       0       0       0       0      20       0
       0
%FLAG ATOM_NAME                                                                 
%FORMAT(20a4)                                                                   
O   OXT ND1 N   NE2 CB  CA  CG  C   CD2 CE1 HB1 HB2 HA  HD1 HD2 H1  H2  HE1 H   
%FLAG CHARGE                                                                    
%FORMAT(5E16.8)                                                                 
 -1.05889785E+01 -1.05871563E+01 -5.59242387E+00 -1.64510924E+01 -1.22089410E+01
 -6.94269630E-01  2.37801015E+00 -4.37152977E+00  1.18827618E+01  5.57966826E+00
  7.16865282E+00  1.24276086E+00  1.24276086E+00  1.85320791E+00  5.84389161E+00
  7.30714230E-01  6.65660619E+00  6.65660619E+00  1.13160483E+00  8.09070120E+00
%FLAG ATOMIC_NUMBER                                                             
%FORMAT(10I8)                                                                   
       8       8       7       7       7       6       6       6       6       6
       6       1       1       1       1       1       1       1       1       1
%FLAG MASS                                                                      
%FORMAT(5E16.8)                                                                 
  1.60000000E+01  1.60000000E+01  1.40100000E+01  1.40100000E+01  1.40100000E+01
  1.20100000E+01  1.20100000E+01  1.20100000E+01  1.20100000E+01  1.20100000E+01
  1.20100000E+01  1.00800000E+00  1.00800000E+00  1.00800000E+00  1.00800000E+00
  1.00800000E+00  1.00800000E+00  1.00800000E+00  1.00800000E+00  1.00800000E+00
%FLAG ATOM_TYPE_INDEX                                                           
%FORMAT(10I8)                                                                   
       1       2       3       4       5       6       6       7       7       7
       7       8       8       9      10      11      10      10      12      13
%FLAG NUMBER_EXCLUDED_ATOMS                                                     
%FORMAT(10I8)                                                                   
       7       6      11       9       7      12       9       9       6       6
       3       2       1       2       1       1       1       1       1       1
%FLAG NONBONDED_PARM_INDEX                                                      
%FORMAT(10I8)                                                                   
       1       2       4       7      11      16      22      29      37      46
      56      67      79       2       3       5       8      12      17      23
      30      38      47      57      68      80       4       5       6       9
      13      18      24      31      39      48      58      69      81       7
       8       9      10      14      19      25      32      40      49      59
      70      82      11      12      13      14      15      20      26      33
      41      50      60      71      83      16      17      18      19      20
      21      27      34      42      51      61      72      84      22      23
      24      25      26      27      28      35      43      52      62      73
      85      29      30      31      32      33      34      35      36      44
      53      63      74      86      37      38      39      40      41      42
      43      44      45      54      64      75      87      46      47      48
      49      50      51      52      53      54      55      65      76      88
      56      57      58      59      60      61      62      63      64      65
      66      77      89      67      68      69      70      71      72      73
      74      75      76      77      78      90      79      80      81      82
      83      84      85      86      87      88      89      90      91
%FLAG RESIDUE_LABEL                                                             
%FORMAT(20a4)                                                                   
HIS 
%FLAG RESIDUE_POINTER                                                           
%FORMAT(10I8)                                                                   
       1
%FLAG BOND_FORCE_CONSTANT                                                       
%FORMAT(5E16.8)                                                                 
  3.59270000E+02  5.35510000E+02  5.90600000E+02  3.32450000E+02  4.81770000E+02
  2.53810000E+02  4.60680000E+02  3.56030000E+02  4.17790000E+02  2.28890000E+02
  2.53870000E+02  3.45250000E+02  2.34850000E+02  3.44220000E+02  3.86240000E+02
  3.68720000E+02  3.66810000E+02
%FLAG BOND_EQUIL_VALUE                                                          
%FORMAT(5E16.8)                                                                 
  1.35560000E+00  9.72500000E-01  1.21900000E+00  1.38300000E+00  1.00950000E+00
  1.46510000E+00  1.01920000E+00  1.36290000E+00  1.31710000E+00  1.53540000E+00
  1.50180000E+00  1.09620000E+00  1.52700000E+00  1.09690000E+00  1.37300000E+00
  1.08090000E+00  1.08210000E+00
%FLAG ANGLE_FORCE_CONSTANT                                                      
%FORMAT(5E16.8)                                                                 
  1.02030000E+02  7.74200000E+01  7.64500000E+01  6.49400000E+01  7.19900000E+01
  7.65100000E+01  4.79400000E+01  6.54800000E+01  6.56600000E+01  4.82100000E+01
  6.97000000E+01  4.85300000E+01  4.88900000E+01  6.03600000E+01  4.32800000E+01
  6.00600000E+01  5.61700000E+01  6.05100000E+01  4.32700000E+01  8.27900000E+01
  5.54300000E+01  4.39500000E+01  4.39500000E+01  6.84600000E+01  4.37400000E+01
  8.60800000E+01  3.58000000E+01  4.78900000E+01
%FLAG ANGLE_EQUIL_VALUE                                                         
%FORMAT(5E16.8)                                                                 
  2.13087340E+00  1.96768504E+00  2.14501057E+00  2.11935422E+00  1.90223517E+00
  1.97257197E+00  2.10888224E+00  1.93574550E+00  1.93661817E+00  1.88705080E+00
  2.05931487E+00  2.10766051E+00  2.18672396E+00  1.94482122E+00  1.91270715E+00
  2.21098404E+00  1.91305621E+00  1.96646331E+00  1.91427794E+00  1.93557097E+00
  2.18585129E+00  1.93068405E+00  2.25339556E+00  1.85947458E+00  1.89141412E+00
  1.90502770E+00  1.88024401E+00  1.85668205E+00
%FLAG DIHEDRAL_FORCE_CONSTANT                                                   
%FORMAT(5E16.8)                                                                 
  0.00000000E+00  1.90000000E+00  2.30000000E+00  6.80000000E-01  2.00000000E-01
  4.40000000E-01  8.00000000E-01  8.00000000E-02  0.00000000E+00  4.00000000E+00
  4.75000000E+00  1.55555556E-01  5.00000000E-02  1.70000000E+00  3.00000000E-02
  1.57000000E-01  1.80000000E+00  3.00000000E-01  1.10000000E+00
%FLAG DIHEDRAL_PERIODICITY                                                      
%FORMAT(5E16.8)                                                                 
  2.00000000E+00  1.00000000E+00  2.00000000E+00  1.00000000E+00  2.00000000E+00
  3.00000000E+00  1.00000000E+00  3.00000000E+00  3.00000000E+00  2.00000000E+00
  2.00000000E+00  3.00000000E+00  3.00000000E+00  2.00000000E+00  3.00000000E+00
  3.00000000E+00  2.00000000E+00  3.00000000E+00  2.00000000E+00
%FLAG DIHEDRAL_PHASE                                                            
%FORMAT(5E16.8)                                                                 
  3.14159400E+00  0.00000000E+00  3.14159400E+00  0.00000000E+00  3.14159400E+00
  3.14159400E+00  0.00000000E+00  3.14159400E+00  0.00000000E+00  3.14159400E+00
  3.14159400E+00  0.00000000E+00  0.00000000E+00  3.14159400E+00  3.14159400E+00
  3.14159400E+00  3.14159400E+00  0.00000000E+00  3.14159400E+00
%FLAG SCEE_SCALE_FACTOR                                                         
%FORMAT(5E16.8)                                                                 
  1.20000000E+00  1.20000000E+00  1.20000000E+00  1.20000000E+00  1.20000000E+00
  1.20000000E+00  1.20000000E+00  1.20000000E+00  1.20000000E+00  1.20000000E+00
  1.20000000E+00  1.20000000E+00  1.20000000E+00  1.20000000E+00  1.20000000E+00
  1.20000000E+00  1.20000000E+00  1.20000000E+00  0.00000000E+00
%FLAG SCNB_SCALE_FACTOR                                                         
%FORMAT(5E16.8)                                                                 
  2.00000000E+00  2.00000000E+00  2.00000000E+00  2.00000000E+00  2.00000000E+00
  2.00000000E+00  2.00000000E+00  2.00000000E+00  2.00000000E+00  2.00000000E+00
  2.00000000E+00  2.00000000E+00  2.00000000E+00  2.00000000E+00  2.00000000E+00
  2.00000000E+00  2.00000000E+00  2.00000000E+00  0.00000000E+00
%FLAG SOLTY                                                                     
%FORMAT(5E16.8)                                                                 
  0.00000000E+00  0.00000000E+00  0.00000000E+00  0.00000000E+00  0.00000000E+00
  0.00000000E+00  0.00000000E+00  0.00000000E+00  0.00000000E+00  0.00000000E+00
  0.00000000E+00  0.00000000E+00  0.00000000E+00  0.00000000E+00  0.00000000E+00
%FLAG LENNARD_JONES_ACOEF                                                       
%FORMAT(5E16.8)                                                                 
  5.03152404E+05  4.37717034E+05  3.76435470E+05  6.96017793E+05  6.04208667E+05
  9.62429652E+05  6.15869455E+05  5.47655232E+05  8.55419239E+05  7.22850509E+05
  6.55497149E+05  5.74782316E+05  9.08092643E+05  7.90296020E+05  8.49322032E+05
  7.18991463E+05  6.30925504E+05  9.96191545E+05  8.65620051E+05  9.31115275E+05
  1.02073671E+06  5.92438683E+05  5.17507491E+05  8.20152428E+05  7.19505991E+05
  7.69642101E+05  8.43969952E+05  6.96551276E+05  6.80216136E+04  5.68021765E+04
  9.33839501E+04  8.99910629E+04  9.11435380E+04  1.00235148E+05  8.12662403E+04
  7.94617769E+03  4.69084694E+04  3.86646725E+04  6.42436358E+04  6.36026248E+04
  6.34160397E+04  6.97998263E+04  5.63013422E+04  5.22955465E+03  3.39005767E+03
  1.36475542E+03  9.87857350E+02  1.82491629E+03  2.35480845E+03  2.01475241E+03
  2.23577481E+03  1.71458823E+03  9.47421632E+01  5.24570081E+01  1.34728399E-01
  5.24591488E+04  4.36069364E+04  7.19580450E+04  7.00036842E+04  7.05112106E+04
  7.75673747E+04  6.27751680E+04  6.02863188E+03  3.94664935E+03  6.76796831E+01
  4.56536476E+03  4.35368956E+04  3.59538577E+04  5.96470418E+04  5.88202078E+04
  5.87815925E+04  6.46910138E+04  5.22195041E+04  4.88692384E+03  3.17496391E+03
  5.02830284E+01  3.69092714E+03  2.97255425E+03  1.74176419E+02  1.15813907E+02
  2.29317644E+02  3.50407390E+02  2.72118326E+02  3.03553352E+02  2.25372434E+02
  8.80612241E+00  4.36660257E+00  2.61760843E-03  6.05535196E+00  4.25484751E+00
  1.10360882E-05
%FLAG LENNARD_JONES_BCOEF                                                       
%FORMAT(5E16.8)                                                                 
  4.32634597E+02  4.51916854E+02  4.69350655E+02  6.19405188E+02  6.46321327E+02
  8.86629877E+02  3.67447838E+02  3.88056827E+02  5.27149826E+02  3.05601515E+02
  4.95260330E+02  5.19385932E+02  7.09588248E+02  4.17467748E+02  5.65406768E+02
  5.36620538E+02  5.62969425E+02  7.68900328E+02  4.52010965E+02  6.12468585E+02
  6.63431737E+02  4.76608379E+02  4.98871431E+02  6.82622272E+02  4.03215362E+02
  5.44830041E+02  5.90251928E+02  5.24668528E+02  1.09393126E+02  1.11953944E+02
  1.56025608E+02  9.65931103E+01  1.27000718E+02  1.37787728E+02  1.21392023E+02
  2.57122925E+01  9.08431526E+01  9.23664132E+01  1.29412081E+02  8.12052260E+01
  1.05935811E+02  1.14981426E+02  1.01040256E+02  2.08590256E+01  1.67944276E+01
  1.29026271E+01  1.22938581E+01  1.81620725E+01  1.30109323E+01  1.57231024E+01
  1.71355763E+01  1.46824710E+01  2.33785449E+00  1.73959275E+00  7.34107347E-02
  9.01089277E+01  9.20079458E+01  1.28466555E+02  7.99093400E+01  1.04776275E+02
  1.13692208E+02  1.00073628E+02  2.10068861E+01  1.69967767E+01  1.85338491E+00
  1.71467049E+01  8.20891825E+01  8.35449674E+01  1.16962018E+02  7.32487761E+01
  9.56653235E+01  1.03827676E+02  9.12729468E+01  1.89134207E+01  1.52447987E+01
  1.59752321E+00  1.54173833E+01  1.38359132E+01  3.81654050E+00  3.48534600E+00
  5.33073545E+00  4.15567637E+00  4.78443613E+00  5.22789272E+00  4.40751799E+00
  5.90150328E-01  4.15568027E-01  8.47240681E-03  4.59018960E-01  3.84771529E-01
  4.55498033E-04
%FLAG BONDS_INC_HYDROGEN                                                        
%FORMAT(10I8)                                                                   
       0      57       2       6      42       5       9      48       7       9
      51       7      15      33      12      15      36      12      18      39
      14      27      45      16      30      54      17
%FLAG BONDS_WITHOUT_HYDROGEN                                                    
%FORMAT(10I8)                                                                   
       0      24       1       3      24       3       6      21       4       6
      30       4       9      18       6      12      27       8      12      30
       9      15      18      10      15      21      11      18      24      13
      21      27      15
%FLAG ANGLES_INC_HYDROGEN                                                       
%FORMAT(10I8)                                                                   
       6      30      54       7       9      18      39      10      12      27
      45      12      12      30      54      13      15      18      39      15
      18       9      48      17      18       9      51      17      18      15
      33      19      18      15      36      19      21       6      42      21
      21      15      33      22      21      15      36      22      21      27
      45      23      24       0      57      24      24      18      39      25
      30       6      42      21      33      15      36      27      48       9
      51      28
%FLAG ANGLES_WITHOUT_HYDROGEN                                                   
%FORMAT(10I8)                                                                   
       0      24       3       1       0      24      18       2       3      24
      18       3       6      21      15       4       6      21      27       5
       6      30      12       6       9      18      15       8       9      18
      24       9      12      27      21      11      15      18      24      14
      15      21      27      16      18      15      21      18      21       6
      30      20      27      12      30      26
%FLAG DIHEDRALS_INC_HYDROGEN                                                    
%FORMAT(10I8)                                                                   
       0      24      18      39       1      57       0      24       3       2
      57       0     -24       3       3       3      24      18      39       7
       3      24     -18      39       8       6      21      15      33       9
       6      21      15      36       9       6      21      27      45      10
       9      18      15      33      13       9      18      15      36      13
      12      30       6      42      14      15      18       9      48      15
      15      18       9      51      15      15      21       6      42      14
      15      21      27      45      10      57       0      24      18      17
      21       6      30      54      14      21      15      18      39      12
      24      18       9      48      18      24      18       9      51      18
      24      18      15      33      12      24      18      15      36      12
      27      12      30      54      11      27      21       6      42      14
      27      21      15      33       9      27      21      15      36       9
      30      12      27      45      11      33      15      18      39      12
      36      15      18      39      12      39      18       9      48      18
      39      18       9      51      18      42       6      30      54      14
      21      30      -6     -42      19      21      45     -27     -12      19
      54       6     -30     -12      19
%FLAG DIHEDRALS_WITHOUT_HYDROGEN                                                
%FORMAT(10I8)                                                                   
       0      24      18       9       1       0      24      18      15       1
       3      24      18       9       1       3      24      18      15       4
       3      24     -18      15       5       3      24     -18      15       6
       6      21      15      18       9       6      21     -27      12      10
       6      30     -12      27      11       9      18      15      21      12
      12      27      21      15      10      12      30      -6      21      14
      15      21       6      30      14      18      15      21      27      16
      21      15      18      24      12      21      27     -12      30      11
      27      21      -6      30      14      15      27     -21      -6      19
       0      24      -3     -18      19
%FLAG EXCLUDED_ATOMS_LIST                                                       
%FORMAT(10I8)                                                                   
       2       4       6       7       9      14      20       4       6       7
       9      14      20       5       6       7       8      10      11      12
      13      15      16      19       6       7       8       9      12      13
      14      17      18       6       8      10      11      15      16      19
       7       8       9      10      11      12      13      14      15      16
      17      18       8       9      10      12      13      14      17      18
      20       9      10      11      12      13      14      15      16      19
      12      13      14      17      18      20      11      12      13      15
      16      19      15      16      19      13      14      14      17      18
      19       0      18       0       0       0
%FLAG HBOND_ACOEF                                                               
%FORMAT(5E16.8)                                                                 

%FLAG HBOND_BCOEF                                                               
%FORMAT(5E16.8)                                                                 

%FLAG HBCUT                                                                     
%FORMAT(5E16.8)                                                                 

%FLAG AMBER_ATOM_TYPE                                                           
%FORMAT(20a4)                                                                   
oh  o   na  n8  nc  c3  c3  cd  c   cc  cd  hc  hc  h1  hn  h4  hn  hn  h5  ho  
%FLAG TREE_CHAIN_CLASSIFICATION                                                 
%FORMAT(20a4)                                                                   
BLA BLA BLA BLA BLA BLA BLA BLA BLA BLA BLA BLA BLA BLA BLA BLA BLA BLA BLA BLA 
%FLAG JOIN_ARRAY                                                                
%FORMAT(10I8)                                                                   
       0       0       0       0       0       0       0       0       0       0
       0       0       0       0       0       0       0       0       0       0
%FLAG IROTAT                                                                    
%FORMAT(10I8)                                                                   
       0       0       0       0       0       0       0       0       0       0
       0       0       0       0       0       0       0       0       0       0
%FLAG RADIUS_SET                                                                
%FORMAT(1a80)                                                                   
modified Bondi radii (mbondi)                                                   
%FLAG RADII                                                                     
%FORMAT(5E16.8)                                                                 
  1.50000000E+00  1.50000000E+00  1.55000000E+00  1.55000000E+00  1.55000000E+00
  1.70000000E+00  1.70000000E+00  1.70000000E+00  1.70000000E+00  1.70000000E+00
  1.70000000E+00  1.30000000E+00  1.30000000E+00  1.30000000E+00  1.30000000E+00
  1.30000000E+00  1.30000000E+00  1.30000000E+00  1.30000000E+00  8.00000000E-01
%FLAG SCREEN                                                                    
%FORMAT(5E16.8)                                                                 
  8.50000000E-01  8.50000000E-01  7.90000000E-01  7.90000000E-01  7.90000000E-01
  7.20000000E-01  7.20000000E-01  7.20000000E-01  7.20000000E-01  7.20000000E-01
  7.20000000E-01  8.50000000E-01  8.50000000E-01  8.50000000E-01  8.50000000E-01
  8.50000000E-01  8.50000000E-01  8.50000000E-01  8.50000000E-01  8.50000000E-01
%FLAG IPOL                                                                      
%FORMAT(1I8)                                                                    
       0
