; histidine_GMX_OPLS.top created by acpype (v: 2023.10.27) on Mon Feb  9 17:47:28 2026

; Include forcefield parameters
#include "ffoplsaa.itp"

; Include histidine_GMX.itp topology
#include "histidine_GMX.itp"

; Ligand position restraints
#ifdef POSRES_LIG
#include "posre_histidine.itp"
#endif

[ system ]
 histidine

[ molecules ]
; Compound        nmols
 histidine        1     
