histidine_GMX.gro created by acpype (v: 2023.10.27) on Mon Feb  9 17:47:28 2026
 20
    1  HIS    O    1  -0.107  -0.169  -0.077
    1  HIS  OXT    2  -0.250  -0.112   0.090
    1  HIS  ND1    3   0.168   0.014   0.116
    1  HIS    N    4  -0.275   0.137  -0.022
    1  HIS  NE2    5   0.282  -0.034  -0.068
    1  HIS   CB    6  -0.036   0.130   0.032
    1  HIS   CA    7  -0.151   0.064  -0.046
    1  HIS   CG    8   0.097   0.060   0.012
    1  HIS    C    9  -0.175  -0.079  -0.001
    1  HIS  CD2   10   0.166   0.032  -0.100
    1  HIS  CE1   11   0.280  -0.043   0.063
    1  HIS  HB1   12  -0.059   0.132   0.140
    1  HIS  HB2   13  -0.024   0.235   0.000
    1  HIS   HA   14  -0.131   0.064  -0.154
    1  HIS  HD1   15   0.144   0.019   0.215
    1  HIS  HD2   16   0.140   0.053  -0.203
    1  HIS   H1   17  -0.264   0.234  -0.053
    1  HIS   H2   18  -0.294   0.142   0.078
    1  HIS  HE1   19   0.357  -0.088   0.125
    1  HIS    H   20  -0.124  -0.261  -0.048
   13.00400     9.91800     8.35000
