; histidine_GMX.top created by acpype (v: 2023.10.27) on Mon Feb  9 17:47:28 2026

[ defaults ]
; nbfunc        comb-rule       gen-pairs       fudgeLJ fudgeQQ
1               2               yes             0.5     0.8333333333

; Include histidine_GMX.itp topology
#include "histidine_GMX.itp"

; Ligand position restraints
#ifdef POSRES_LIG
#include "posre_histidine.itp"
#endif

[ system ]
 histidine

[ molecules ]
; Compound        nmols
 histidine        1     
