methionine_GMX.gro created by acpype (v: 2023.10.27) on Mon Feb  9 17:54:22 2026
 20
    1  MET   SD    1   0.229   0.097   0.028
    1  MET    O    2  -0.116   0.164   0.069
    1  MET  OXT    3  -0.259   0.037  -0.052
    1  MET    N    4  -0.136  -0.188   0.050
    1  MET   CB    5   0.042  -0.081  -0.080
    1  MET   CA    6  -0.057  -0.065   0.037
    1  MET   CG    7   0.127   0.042  -0.112
    1  MET    C    8  -0.155   0.048   0.011
    1  MET   CE    9   0.326  -0.054   0.050
    1  MET  HB1   10   0.106  -0.168  -0.064
    1  MET  HB2   11  -0.015  -0.104  -0.171
    1  MET   HA   12  -0.005  -0.048   0.132
    1  MET  HG1   13   0.063   0.126  -0.142
    1  MET  HG2   14   0.192   0.021  -0.197
    1  MET   H1   15  -0.196  -0.181   0.132
    1  MET   H2   16  -0.074  -0.267   0.067
    1  MET  HE1   17   0.266  -0.133   0.096
    1  MET  HE2   18   0.410  -0.032   0.117
    1  MET  HE3   19   0.367  -0.088  -0.046
    1  MET    H   20  -0.180   0.236   0.053
   13.38000    10.06400     6.58000
