6137
    20
   2.2860000   0.9700000   0.2800000  -1.1610000   1.6400000   0.6920000
  -2.5910000   0.3690000  -0.5240000  -1.3630000  -1.8770000   0.4990000
   0.4160000  -0.8110000  -0.8010000  -0.5660000  -0.6530000   0.3690000
   1.2660000   0.4220000  -1.1210000  -1.5490000   0.4750000   0.1110000
   3.2620000  -0.5350000   0.4960000   1.0600000  -1.6830000  -0.6350000
  -0.1540000  -1.0440000  -1.7130000  -0.0510000  -0.4840000   1.3190000
   0.6280000   1.2590000  -1.4240000   1.9240000   0.2090000  -1.9700000
  -1.9630000  -1.8080000   1.3200000  -0.7440000  -2.6700000   0.6670000
   2.6640000  -1.3260000   0.9560000   4.0990000  -0.3180000   1.1650000
   3.6690000  -0.8790000  -0.4580000  -1.8050000   2.3620000   0.5300000
