; methionine_GMX.top created by acpype (v: 2023.10.27) on Mon Feb  9 17:54:22 2026

[ defaults ]
; nbfunc        comb-rule       gen-pairs       fudgeLJ fudgeQQ
1               2               yes             0.5     0.8333333333

; Include methionine_GMX.itp topology
#include "methionine_GMX.itp"

; Ligand position restraints
#ifdef POSRES_LIG
#include "posre_methionine.itp"
#endif

[ system ]
 methionine

[ molecules ]
; Compound        nmols
 methionine       1     
