; phenylalanine_GMX_OPLS.itp created by acpype (v: 2023.10.27) on Mon Feb  9 17:55:36 2026

; For OPLS atomtypes manual fine tuning
; AC_at:OPLS_at:OPLScode: Possible_Alternatives (see ffoplsaa.atp and ffoplsaanb.itp)
; oh:OH:opls_154: ['167']
; o:O:opls_236: ['272']
; n8:x:opls_x: []
; c3:CT:opls_135: ['136', '137', '149', '157', '158', '206', '209', '210', '223B', '224B', '245', '246', '274', '283', '284', '285', '292', '292B', '293B', '296', '307', '308', '505']
; ca:CA:opls_145: ['166', '501', '502']
; c:C:opls_235: ['271']
; hc:HC:opls_140: []
; h1:HC:opls_140: []
; ha:HA:opls_146: []
; hn:H:opls_240: ['241', '290', '301', '304', '310', '504', '513']
; ho:HO:opls_155: ['168']

[ moleculetype ]
;name            nrexcl
 phenylalanine    3

[ atoms ]
;   nr  type  resi  res  atom  cgnr     charge      mass       ; qtot   bond_type
     1 opls_154     1   PHE     O    1    -0.591100     15.99940 ; qtot -0.591  OH  
     2 opls_236     1   PHE   OXT    2    -0.556000     15.99940 ; qtot -1.147  O   
     3 opls_x     1   PHE     N    3    -0.904800      0.00000 ; qtot -2.052  x   
     4 opls_135     1   PHE    CB    4    -0.075100     12.01100 ; qtot -2.127  CT  
     5 opls_135     1   PHE    CA    5     0.131500     12.01100 ; qtot -1.995  CT  
     6 opls_145     1   PHE    CG    6    -0.090300     12.01100 ; qtot -2.086  CA  
     7 opls_145     1   PHE   CD1    7    -0.122000     12.01100 ; qtot -2.208  CA  
     8 opls_145     1   PHE   CD2    8    -0.122000     12.01100 ; qtot -2.330  CA  
     9 opls_235     1   PHE     C    9     0.646100     12.01100 ; qtot -1.684  C   
    10 opls_145     1   PHE   CE1   10    -0.126500     12.01100 ; qtot -1.810  CA  
    11 opls_145     1   PHE   CE2   11    -0.126500     12.01100 ; qtot -1.937  CA  
    12 opls_145     1   PHE    CZ   12    -0.126000     12.01100 ; qtot -2.063  CA  
    13 opls_140     1   PHE   HB1   13     0.062700      1.00800 ; qtot -2.000  HC  
    14 opls_140     1   PHE   HB2   14     0.062700      1.00800 ; qtot -1.937  HC  
    15 opls_140     1   PHE    HA   15     0.097700      1.00800 ; qtot -1.840  HC  
    16 opls_146     1   PHE   HD1   16     0.134000      1.00800 ; qtot -1.706  HA  
    17 opls_146     1   PHE   HD2   17     0.134000      1.00800 ; qtot -1.572  HA  
    18 opls_240     1   PHE    H1   18     0.363800      1.00800 ; qtot -1.208  H   
    19 opls_240     1   PHE    H2   19     0.363800      1.00800 ; qtot -0.844  H   
    20 opls_146     1   PHE   HE1   20     0.133500      1.00800 ; qtot -0.710  HA  
    21 opls_146     1   PHE   HE2   21     0.133500      1.00800 ; qtot -0.577  HA  
    22 opls_146     1   PHE    HZ   22     0.133000      1.00800 ; qtot -0.444  HA  
    23 opls_155     1   PHE     H   23     0.444000      1.00800 ; qtot  0.000  HO  

[ bonds ]
;   ai     aj funct   r             k
     1      9   1 ;    1.3556e-01    3.0064e+05 ;      O - C          OH - C     
     1     23   1 ;    9.7250e-02    4.4811e+05 ;      O - H          OH - HO    
     2      9   1 ;    1.2190e-01    4.9421e+05 ;    OXT - C           O - C     
     3      5   1 ;    1.4651e-01    2.1239e+05 ;      N - CA          x - CT    
     3     18   1 ;    1.0192e-01    3.8550e+05 ;      N - H1          x - H     
     3     19   1 ;    1.0192e-01    3.8550e+05 ;      N - H2          x - H     
     4      5   1 ;    1.5354e-01    1.9154e+05 ;     CB - CA         CT - CT    
     4      6   1 ;    1.5147e-01    2.0410e+05 ;     CB - CG         CT - CA    
     4     13   1 ;    1.0962e-01    2.8891e+05 ;     CB - HB1        CT - HC    
     4     14   1 ;    1.0962e-01    2.8891e+05 ;     CB - HB2        CT - HC    
     5      9   1 ;    1.5270e-01    1.9652e+05 ;     CA - C          CT - C     
     5     15   1 ;    1.0969e-01    2.8804e+05 ;     CA - HA         CT - HC    
     6      7   1 ;    1.3986e-01    2.9644e+05 ;     CG - CD1        CA - CA    
     6      8   1 ;    1.3986e-01    2.9644e+05 ;     CG - CD2        CA - CA    
     7     10   1 ;    1.3986e-01    2.9644e+05 ;    CD1 - CE1        CA - CA    
     7     16   1 ;    1.0860e-01    3.0183e+05 ;    CD1 - HD1        CA - HA    
     8     11   1 ;    1.3986e-01    2.9644e+05 ;    CD2 - CE2        CA - CA    
     8     17   1 ;    1.0860e-01    3.0183e+05 ;    CD2 - HD2        CA - HA    
    10     12   1 ;    1.3986e-01    2.9644e+05 ;    CE1 - CZ         CA - CA    
    10     20   1 ;    1.0860e-01    3.0183e+05 ;    CE1 - HE1        CA - HA    
    11     12   1 ;    1.3986e-01    2.9644e+05 ;    CE2 - CZ         CA - CA    
    11     21   1 ;    1.0860e-01    3.0183e+05 ;    CE2 - HE2        CA - HA    
    12     22   1 ;    1.0860e-01    3.0183e+05 ;     CZ - HZ         CA - HA    

[ pairs ]
;   ai     aj    funct
     1      3      1 ;      O - N     
     1      4      1 ;      O - CB    
     1     15      1 ;      O - HA    
     2      3      1 ;    OXT - N     
     2      4      1 ;    OXT - CB    
     2     15      1 ;    OXT - HA    
     3      6      1 ;      N - CG    
     3     13      1 ;      N - HB1   
     3     14      1 ;      N - HB2   
     4     10      1 ;     CB - CE1   
     4     11      1 ;     CB - CE2   
     4     16      1 ;     CB - HD1   
     4     17      1 ;     CB - HD2   
     4     18      1 ;     CB - H1    
     4     19      1 ;     CB - H2    
     5      7      1 ;     CA - CD1   
     5      8      1 ;     CA - CD2   
     6      9      1 ;     CG - C     
     6     12      1 ;     CG - CZ    
     6     15      1 ;     CG - HA    
     6     20      1 ;     CG - HE1   
     6     21      1 ;     CG - HE2   
     7     11      1 ;    CD1 - CE2   
     7     13      1 ;    CD1 - HB1   
     7     14      1 ;    CD1 - HB2   
     7     17      1 ;    CD1 - HD2   
     7     22      1 ;    CD1 - HZ    
     8     10      1 ;    CD2 - CE1   
     8     13      1 ;    CD2 - HB1   
     8     14      1 ;    CD2 - HB2   
     8     16      1 ;    CD2 - HD1   
     8     22      1 ;    CD2 - HZ    
     9     13      1 ;      C - HB1   
     9     14      1 ;      C - HB2   
     9     18      1 ;      C - H1    
     9     19      1 ;      C - H2    
    10     21      1 ;    CE1 - HE2   
    11     20      1 ;    CE2 - HE1   
    12     16      1 ;     CZ - HD1   
    12     17      1 ;     CZ - HD2   
    13     15      1 ;    HB1 - HA    
    14     15      1 ;    HB2 - HA    
    15     18      1 ;     HA - H1    
    15     19      1 ;     HA - H2    
    16     20      1 ;    HD1 - HE1   
    17     21      1 ;    HD2 - HE2   
    20     22      1 ;    HE1 - HZ    
    21     22      1 ;    HE2 - HZ    
    23      2      1 ;      H - OXT   
    23      5      1 ;      H - CA    

[ angles ]
;   ai     aj     ak    funct   theta         cth
     1      9      2      1 ;    1.2209e+02    8.5379e+02 ;      O - C    - OXT      OH -    C - O   
     1      9      5      1 ;    1.1274e+02    6.4785e+02 ;      O - C    - CA       OH -    C - CT  
     2      9      5      1 ;    1.2290e+02    6.3973e+02 ;    OXT - C    - CA        O -    C - CT  
     3      5      4      1 ;    1.1091e+02    5.4794e+02 ;      N - CA   - CB        x -   CT - CT  
     3      5      9      1 ;    1.1096e+02    5.4944e+02 ;      N - CA   - C         x -   CT - C   
     3      5     15      1 ;    1.0812e+02    4.0342e+02 ;      N - CA   - HA        x -   CT - HC  
     4      5      9      1 ;    1.1143e+02    5.0509e+02 ;     CB - CA   - C        CT -   CT - C   
     4      5     15      1 ;    1.0959e+02    3.6217e+02 ;     CB - CA   - HA       CT -   CT - HC  
     4      6      7      1 ;    1.2083e+02    5.0827e+02 ;     CB - CG   - CD1      CT -   CA - CA  
     4      6      8      1 ;    1.2083e+02    5.0827e+02 ;     CB - CG   - CD2      CT -   CA - CA  
     5      3     18      1 ;    1.0961e+02    4.7003e+02 ;     CA - N    - H1       CT -    x - H   
     5      3     19      1 ;    1.0961e+02    4.7003e+02 ;     CA - N    - H2       CT -    x - H   
     5      4      6      1 ;    1.1242e+02    5.0484e+02 ;     CA - CB   - CG       CT -   CT - CA  
     5      4     13      1 ;    1.0968e+02    3.6208e+02 ;     CA - CB   - HB1      CT -   CT - HC  
     5      4     14      1 ;    1.0968e+02    3.6208e+02 ;     CA - CB   - HB2      CT -   CT - HC  
     6      4     13      1 ;    1.1063e+02    3.6493e+02 ;     CG - CB   - HB1      CA -   CT - HC  
     6      4     14      1 ;    1.1063e+02    3.6493e+02 ;     CG - CB   - HB2      CA -   CT - HC  
     6      7     10      1 ;    1.2002e+02    5.3279e+02 ;     CG - CD1  - CE1      CA -   CA - CA  
     6      7     16      1 ;    1.1988e+02    3.7572e+02 ;     CG - CD1  - HD1      CA -   CA - HA  
     6      8     11      1 ;    1.2002e+02    5.3279e+02 ;     CG - CD2  - CE2      CA -   CA - CA  
     6      8     17      1 ;    1.1988e+02    3.7572e+02 ;     CG - CD2  - HD2      CA -   CA - HA  
     7      6      8      1 ;    1.2002e+02    5.3279e+02 ;    CD1 - CG   - CD2      CA -   CA - CA  
     7     10     12      1 ;    1.2002e+02    5.3279e+02 ;    CD1 - CE1  - CZ       CA -   CA - CA  
     7     10     20      1 ;    1.1988e+02    3.7572e+02 ;    CD1 - CE1  - HE1      CA -   CA - HA  
     8     11     12      1 ;    1.2002e+02    5.3279e+02 ;    CD2 - CE2  - CZ       CA -   CA - CA  
     8     11     21      1 ;    1.1988e+02    3.7572e+02 ;    CD2 - CE2  - HE2      CA -   CA - HA  
     9      1     23      1 ;    1.0654e+02    5.7287e+02 ;      C - O    - H         C -   OH - HO  
     9      5     15      1 ;    1.0837e+02    3.6602e+02 ;      C - CA   - HA        C -   CT - HC  
    10      7     16      1 ;    1.1988e+02    3.7572e+02 ;    CE1 - CD1  - HD1      CA -   CA - HA  
    10     12     11      1 ;    1.2002e+02    5.3279e+02 ;    CE1 - CZ   - CE2      CA -   CA - CA  
    10     12     22      1 ;    1.1988e+02    3.7572e+02 ;    CE1 - CZ   - HZ       CA -   CA - HA  
    11      8     17      1 ;    1.1988e+02    3.7572e+02 ;    CE2 - CD2  - HD2      CA -   CA - HA  
    11     12     22      1 ;    1.1988e+02    3.7572e+02 ;    CE2 - CZ   - HZ       CA -   CA - HA  
    12     10     20      1 ;    1.1988e+02    3.7572e+02 ;     CZ - CE1  - HE1      CA -   CA - HA  
    12     11     21      1 ;    1.1988e+02    3.7572e+02 ;     CZ - CE2  - HE2      CA -   CA - HA  
    13      4     14      1 ;    1.0773e+02    2.9957e+02 ;    HB1 - CB   - HB2      HC -   CT - HC  
    18      3     19      1 ;    1.0638e+02    4.0074e+02 ;     H1 - N    - H2        H -    x - H   

[ dihedrals ] ; propers
; for gromacs 4.5 or higher, using funct 9
;    i      j      k      l   func   phase     kd      pn
     1      9      5      3      9 ;   180.00   0.00000   2 ;      O-     C-    CA-     N
     1      9      5      4      9 ;   180.00   0.00000   2 ;      O-     C-    CA-    CB
     1      9      5     15      9 ;   180.00   0.00000   2 ;      O-     C-    CA-    HA
     2      9      5      3      9 ;   180.00   0.00000   2 ;    OXT-     C-    CA-     N
     2      9      5      4      9 ;     0.00   2.84512   1 ;    OXT-     C-    CA-    CB
     2      9      5      4      9 ;   180.00   0.83680   2 ;    OXT-     C-    CA-    CB
     2      9      5      4      9 ;   180.00   1.84096   3 ;    OXT-     C-    CA-    CB
     2      9      5     15      9 ;     0.00   3.34720   1 ;    OXT-     C-    CA-    HA
     2      9      5     15      9 ;   180.00   0.33472   3 ;    OXT-     C-    CA-    HA
     3      5      4      6      9 ;   180.00   2.59408   1 ;      N-    CA-    CB-    CG
     3      5      4     13      9 ;     0.00   0.20920   3 ;      N-    CA-    CB-   HB1
     3      5      4     14      9 ;     0.00   0.20920   3 ;      N-    CA-    CB-   HB2
     4      5      3     18      9 ;   180.00   0.12552   3 ;     CB-    CA-     N-    H1
     4      5      3     19      9 ;   180.00   0.12552   3 ;     CB-    CA-     N-    H2
     4      6      7     10      9 ;   180.00  15.16700   2 ;     CB-    CG-   CD1-   CE1
     4      6      7     16      9 ;   180.00  15.16700   2 ;     CB-    CG-   CD1-   HD1
     4      6      8     11      9 ;   180.00  15.16700   2 ;     CB-    CG-   CD2-   CE2
     4      6      8     17      9 ;   180.00  15.16700   2 ;     CB-    CG-   CD2-   HD2
     5      4      6      7      9 ;   180.00   1.00416   2 ;     CA-    CB-    CG-   CD1
     5      4      6      8      9 ;   180.00   1.00416   2 ;     CA-    CB-    CG-   CD2
     6      4      5      9      9 ;     0.00   3.43088   1 ;     CG-    CB-    CA-     C
     6      4      5     15      9 ;     0.00   0.65084   3 ;     CG-    CB-    CA-    HA
     6      7     10     12      9 ;   180.00  15.16700   2 ;     CG-   CD1-   CE1-    CZ
     6      7     10     20      9 ;   180.00  15.16700   2 ;     CG-   CD1-   CE1-   HE1
     6      8     11     12      9 ;   180.00  15.16700   2 ;     CG-   CD2-   CE2-    CZ
     6      8     11     21      9 ;   180.00  15.16700   2 ;     CG-   CD2-   CE2-   HE2
     7      6      4     13      9 ;     0.00   0.00000   0 ;    CD1-    CG-    CB-   HB1
     7      6      4     14      9 ;     0.00   0.00000   0 ;    CD1-    CG-    CB-   HB2
     7      6      8     11      9 ;   180.00  15.16700   2 ;    CD1-    CG-   CD2-   CE2
     7      6      8     17      9 ;   180.00  15.16700   2 ;    CD1-    CG-   CD2-   HD2
     7     10     12     11      9 ;   180.00  15.16700   2 ;    CD1-   CE1-    CZ-   CE2
     7     10     12     22      9 ;   180.00  15.16700   2 ;    CD1-   CE1-    CZ-    HZ
     8      6      4     13      9 ;     0.00   0.00000   0 ;    CD2-    CG-    CB-   HB1
     8      6      4     14      9 ;     0.00   0.00000   0 ;    CD2-    CG-    CB-   HB2
     8      6      7     10      9 ;   180.00  15.16700   2 ;    CD2-    CG-   CD1-   CE1
     8      6      7     16      9 ;   180.00  15.16700   2 ;    CD2-    CG-   CD1-   HD1
     8     11     12     10      9 ;   180.00  15.16700   2 ;    CD2-   CE2-    CZ-   CE1
     8     11     12     22      9 ;   180.00  15.16700   2 ;    CD2-   CE2-    CZ-    HZ
     9      5      3     18      9 ;     0.00   1.25520   3 ;      C-    CA-     N-    H1
     9      5      3     19      9 ;     0.00   1.25520   3 ;      C-    CA-     N-    H2
     9      5      4     13      9 ;     0.00   0.65084   3 ;      C-    CA-    CB-   HB1
     9      5      4     14      9 ;     0.00   0.65084   3 ;      C-    CA-    CB-   HB2
    10     12     11     21      9 ;   180.00  15.16700   2 ;    CE1-    CZ-   CE2-   HE2
    11     12     10     20      9 ;   180.00  15.16700   2 ;    CE2-    CZ-   CE1-   HE1
    12     10      7     16      9 ;   180.00  15.16700   2 ;     CZ-   CE1-   CD1-   HD1
    12     11      8     17      9 ;   180.00  15.16700   2 ;     CZ-   CE2-   CD2-   HD2
    13      4      5     15      9 ;     0.00   0.65084   3 ;    HB1-    CB-    CA-    HA
    14      4      5     15      9 ;     0.00   0.65084   3 ;    HB2-    CB-    CA-    HA
    15      5      3     18      9 ;     0.00   1.25520   3 ;     HA-    CA-     N-    H1
    15      5      3     19      9 ;     0.00   1.25520   3 ;     HA-    CA-     N-    H2
    16      7     10     20      9 ;   180.00  15.16700   2 ;    HD1-   CD1-   CE1-   HE1
    17      8     11     21      9 ;   180.00  15.16700   2 ;    HD2-   CD2-   CE2-   HE2
    20     10     12     22      9 ;   180.00  15.16700   2 ;    HE1-   CE1-    CZ-    HZ
    21     11     12     22      9 ;   180.00  15.16700   2 ;    HE2-   CE2-    CZ-    HZ
    23      1      9      2      9 ;     0.00   7.94960   1 ;      H-     O-     C-   OXT
    23      1      9      2      9 ;   180.00   9.62320   2 ;      H-     O-     C-   OXT
    23      1      9      5      9 ;   180.00   7.53120   2 ;      H-     O-     C-    CA

[ dihedrals ] ; impropers
; treated as propers in GROMACS to use correct AMBER analytical function
;    i      j      k      l   func   phase     kd      pn
     1      9      2      5      4 ;   180.00   4.60240   2 ;      O-     C-   OXT-    CA
     6     10      7     16      4 ;   180.00   4.60240   2 ;     CG-   CE1-   CD1-   HD1
     6     11      8     17      4 ;   180.00   4.60240   2 ;     CG-   CE2-   CD2-   HD2
     7      8      6      4      4 ;   180.00   4.60240   2 ;    CD1-   CD2-    CG-    CB
     7     12     10     20      4 ;   180.00   4.60240   2 ;    CD1-    CZ-   CE1-   HE1
     8     12     11     21      4 ;   180.00   4.60240   2 ;    CD2-    CZ-   CE2-   HE2
    10     11     12     22      4 ;   180.00   4.60240   2 ;    CE1-   CE2-    CZ-    HZ
