; phenylalanine_GMX.top created by acpype (v: 2023.10.27) on Mon Feb  9 17:55:36 2026

[ defaults ]
; nbfunc        comb-rule       gen-pairs       fudgeLJ fudgeQQ
1               2               yes             0.5     0.8333333333

; Include phenylalanine_GMX.itp topology
#include "phenylalanine_GMX.itp"

; Ligand position restraints
#ifdef POSRES_LIG
#include "posre_phenylalanine.itp"
#endif

[ system ]
 phenylalanine

[ molecules ]
; Compound        nmols
 phenylalanine    1     
