%VERSION  VERSION_STAMP = V0001.000  DATE = 02/09/26  17:55:41                  
%FLAG TITLE                                                                     
%FORMAT(20a4)                                                                   
6140                                                                            
%FLAG POINTERS                                                                  
%FORMAT(10I8)                                                                   
      23      10      11      12      22      15      44      20       0       0
     113       1      12      15      20      12      19      19      11       0
       0       0       0       0       0       0       0       0      23       0
       0
%FLAG ATOM_NAME                                                                 
%FORMAT(20a4)                                                                   
O   OXT N   CB  CA  CG  CD1 CD2 C   CE1 CE2 CZ  HB1 HB2 HA  HD1 HD2 H1  H2  HE1 
HE2 HZ  H   
%FLAG CHARGE                                                                    
%FORMAT(5E16.8)                                                                 
 -1.07712015E+01 -1.01315988E+01 -1.64510924E+01 -1.36849473E+00  2.39623245E+00
 -1.64547369E+00 -2.22312060E+00 -2.22312060E+00  1.17734280E+01 -2.30512095E+00
 -2.30512095E+00 -2.29600980E+00  1.14253821E+00  1.14253821E+00  1.78031871E+00
  2.44178820E+00  2.44178820E+00  6.62927274E+00  6.62927274E+00  2.43267705E+00
  2.43267705E+00  2.42356590E+00  8.09070120E+00
%FLAG ATOMIC_NUMBER                                                             
%FORMAT(10I8)                                                                   
       8       8       7       6       6       6       6       6       6       6
       6       6       1       1       1       1       1       1       1       1
       1       1       1
%FLAG MASS                                                                      
%FORMAT(5E16.8)                                                                 
  1.60000000E+01  1.60000000E+01  1.40100000E+01  1.20100000E+01  1.20100000E+01
  1.20100000E+01  1.20100000E+01  1.20100000E+01  1.20100000E+01  1.20100000E+01
  1.20100000E+01  1.20100000E+01  1.00800000E+00  1.00800000E+00  1.00800000E+00
  1.00800000E+00  1.00800000E+00  1.00800000E+00  1.00800000E+00  1.00800000E+00
  1.00800000E+00  1.00800000E+00  1.00800000E+00
%FLAG ATOM_TYPE_INDEX                                                           
%FORMAT(10I8)                                                                   
       1       2       3       4       4       5       5       5       5       5
       5       5       6       6       7       8       8       9       9       8
       8       8      10
%FLAG NUMBER_EXCLUDED_ATOMS                                                     
%FORMAT(10I8)                                                                   
       7       6       9      14      10      13      10       9       6       6
       5       5       2       1       2       1       1       1       1       1
       1       1       1
%FLAG NONBONDED_PARM_INDEX                                                      
%FORMAT(10I8)                                                                   
       1       2       4       7      11      16      22      29      37      46
       2       3       5       8      12      17      23      30      38      47
       4       5       6       9      13      18      24      31      39      48
       7       8       9      10      14      19      25      32      40      49
      11      12      13      14      15      20      26      33      41      50
      16      17      18      19      20      21      27      34      42      51
      22      23      24      25      26      27      28      35      43      52
      29      30      31      32      33      34      35      36      44      53
      37      38      39      40      41      42      43      44      45      54
      46      47      48      49      50      51      52      53      54      55
%FLAG RESIDUE_LABEL                                                             
%FORMAT(20a4)                                                                   
PHE 
%FLAG RESIDUE_POINTER                                                           
%FORMAT(10I8)                                                                   
       1
%FLAG BOND_FORCE_CONSTANT                                                       
%FORMAT(5E16.8)                                                                 
  3.59270000E+02  5.35510000E+02  5.90600000E+02  2.53810000E+02  4.60680000E+02
  2.28890000E+02  2.43910000E+02  3.45250000E+02  2.34850000E+02  3.44220000E+02
  3.54250000E+02  3.60690000E+02
%FLAG BOND_EQUIL_VALUE                                                          
%FORMAT(5E16.8)                                                                 
  1.35560000E+00  9.72500000E-01  1.21900000E+00  1.46510000E+00  1.01920000E+00
  1.53540000E+00  1.51470000E+00  1.09620000E+00  1.52700000E+00  1.09690000E+00
  1.39860000E+00  1.08600000E+00
%FLAG ANGLE_FORCE_CONSTANT                                                      
%FORMAT(5E16.8)                                                                 
  1.02030000E+02  7.74200000E+01  7.64500000E+01  6.54800000E+01  6.56600000E+01
  4.82100000E+01  6.03600000E+01  4.32800000E+01  6.07400000E+01  5.61700000E+01
  6.03300000E+01  4.32700000E+01  4.36100000E+01  6.36700000E+01  4.49000000E+01
  6.84600000E+01  4.37400000E+01  3.58000000E+01  4.78900000E+01
%FLAG ANGLE_EQUIL_VALUE                                                         
%FORMAT(5E16.8)                                                                 
  2.13087340E+00  1.96768504E+00  2.14501057E+00  1.93574550E+00  1.93661817E+00
  1.88705080E+00  1.94482122E+00  1.91270715E+00  2.10888224E+00  1.91305621E+00
  1.96209999E+00  1.91427794E+00  1.93085858E+00  2.09474507E+00  2.09230160E+00
  1.85947458E+00  1.89141412E+00  1.88024401E+00  1.85668205E+00
%FLAG DIHEDRAL_FORCE_CONSTANT                                                   
%FORMAT(5E16.8)                                                                 
  0.00000000E+00  1.90000000E+00  2.30000000E+00  6.80000000E-01  2.00000000E-01
  4.40000000E-01  8.00000000E-01  8.00000000E-02  6.20000000E-01  5.00000000E-02
  3.00000000E-02  3.62500000E+00  2.40000000E-01  1.80000000E+00  8.20000000E-01
  1.55555556E-01  0.00000000E+00  3.00000000E-01  1.10000000E+00
%FLAG DIHEDRAL_PERIODICITY                                                      
%FORMAT(5E16.8)                                                                 
  2.00000000E+00  1.00000000E+00  2.00000000E+00  1.00000000E+00  2.00000000E+00
  3.00000000E+00  1.00000000E+00  3.00000000E+00  1.00000000E+00  3.00000000E+00
  3.00000000E+00  2.00000000E+00  2.00000000E+00  2.00000000E+00  1.00000000E+00
  3.00000000E+00  1.00000000E+00  3.00000000E+00  2.00000000E+00
%FLAG DIHEDRAL_PHASE                                                            
%FORMAT(5E16.8)                                                                 
  3.14159400E+00  0.00000000E+00  3.14159400E+00  0.00000000E+00  3.14159400E+00
  3.14159400E+00  0.00000000E+00  3.14159400E+00  3.14159400E+00  0.00000000E+00
  3.14159400E+00  3.14159400E+00  3.14159400E+00  3.14159400E+00  0.00000000E+00
  0.00000000E+00  0.00000000E+00  0.00000000E+00  3.14159400E+00
%FLAG SCEE_SCALE_FACTOR                                                         
%FORMAT(5E16.8)                                                                 
  1.20000000E+00  1.20000000E+00  1.20000000E+00  1.20000000E+00  1.20000000E+00
  1.20000000E+00  1.20000000E+00  1.20000000E+00  1.20000000E+00  1.20000000E+00
  1.20000000E+00  1.20000000E+00  1.20000000E+00  1.20000000E+00  1.20000000E+00
  1.20000000E+00  1.20000000E+00  1.20000000E+00  0.00000000E+00
%FLAG SCNB_SCALE_FACTOR                                                         
%FORMAT(5E16.8)                                                                 
  2.00000000E+00  2.00000000E+00  2.00000000E+00  2.00000000E+00  2.00000000E+00
  2.00000000E+00  2.00000000E+00  2.00000000E+00  2.00000000E+00  2.00000000E+00
  2.00000000E+00  2.00000000E+00  2.00000000E+00  2.00000000E+00  2.00000000E+00
  2.00000000E+00  2.00000000E+00  2.00000000E+00  0.00000000E+00
%FLAG SOLTY                                                                     
%FORMAT(5E16.8)                                                                 
  0.00000000E+00  0.00000000E+00  0.00000000E+00  0.00000000E+00  0.00000000E+00
  0.00000000E+00  0.00000000E+00  0.00000000E+00  0.00000000E+00  0.00000000E+00
  0.00000000E+00
%FLAG LENNARD_JONES_ACOEF                                                       
%FORMAT(5E16.8)                                                                 
  5.03152404E+05  4.37717034E+05  3.76435470E+05  6.15869455E+05  5.47655232E+05
  7.22850509E+05  7.18991463E+05  6.30925504E+05  8.65620051E+05  1.02073671E+06
  5.92438683E+05  5.17507491E+05  7.19505991E+05  8.43969952E+05  6.96551276E+05
  6.80216136E+04  5.68021765E+04  8.99910629E+04  1.00235148E+05  8.12662403E+04
  7.94617769E+03  4.69084694E+04  3.86646725E+04  6.36026248E+04  6.97998263E+04
  5.63013422E+04  5.22955465E+03  3.39005767E+03  6.30298721E+04  5.27277400E+04
  8.31063842E+04  9.27554496E+04  7.52549148E+04  7.41026906E+03  4.88692384E+03
  6.90855956E+03  1.36475542E+03  9.87857350E+02  2.35480845E+03  2.23577481E+03
  1.71458823E+03  9.47421632E+01  5.24570081E+01  9.04434904E+01  1.34728399E-01
  1.74176419E+02  1.15813907E+02  3.50407390E+02  3.03553352E+02  2.25372434E+02
  8.80612241E+00  4.36660257E+00  8.53132435E+00  2.61760843E-03  1.10360882E-05
%FLAG LENNARD_JONES_BCOEF                                                       
%FORMAT(5E16.8)                                                                 
  4.32634597E+02  4.51916854E+02  4.69350655E+02  3.67447838E+02  3.88056827E+02
  3.05601515E+02  5.36620538E+02  5.62969425E+02  4.52010965E+02  6.63431737E+02
  4.76608379E+02  4.98871431E+02  4.03215362E+02  5.90251928E+02  5.24668528E+02
  1.09393126E+02  1.11953944E+02  9.65931103E+01  1.37787728E+02  1.21392023E+02
  2.57122925E+01  9.08431526E+01  9.23664132E+01  8.12052260E+01  1.14981426E+02
  1.01040256E+02  2.08590256E+01  1.67944276E+01  9.87712192E+01  1.01173582E+02
  8.70671420E+01  1.24325688E+02  1.09570372E+02  2.32899892E+01  1.89134207E+01
  2.10929191E+01  1.29026271E+01  1.22938581E+01  1.30109323E+01  1.71355763E+01
  1.46824710E+01  2.33785449E+00  1.73959275E+00  2.14252117E+00  7.34107347E-02
  3.81654050E+00  3.48534600E+00  4.15567637E+00  5.22789272E+00  4.40751799E+00
  5.90150328E-01  4.15568027E-01  5.44840215E-01  8.47240681E-03  4.55498033E-04
%FLAG BONDS_INC_HYDROGEN                                                        
%FORMAT(10I8)                                                                   
       0      66       2       6      51       5       6      54       5       9
      36       8       9      39       8      12      42      10      18      45
      12      21      48      12      27      57      12      30      60      12
      33      63      12
%FLAG BONDS_WITHOUT_HYDROGEN                                                    
%FORMAT(10I8)                                                                   
       0      24       1       3      24       3       6      12       4       9
      12       6       9      15       7      12      24       9      15      18
      11      15      21      11      18      27      11      21      30      11
      27      33      11      30      33      11
%FLAG ANGLES_INC_HYDROGEN                                                       
%FORMAT(10I8)                                                                   
       6      12      42       6       9      12      42       8      12       6
      51      10      12       6      54      10      12       9      36      12
      12       9      39      12      15       9      36      13      15       9
      39      13      15      18      45      15      15      21      48      15
      18      27      57      15      21      30      60      15      24       0
      66      16      24      12      42      17      27      18      45      15
      27      33      63      15      30      21      48      15      30      33
      63      15      33      27      57      15      33      30      60      15
      36       9      39      18      51       6      54      19
%FLAG ANGLES_WITHOUT_HYDROGEN                                                   
%FORMAT(10I8)                                                                   
       0      24       3       1       0      24      12       2       3      24
      12       3       6      12       9       4       6      12      24       5
       9      12      24       7       9      15      18       9       9      15
      21       9      12       9      15      11      15      18      27      14
      15      21      30      14      18      15      21      14      18      27
      33      14      21      30      33      14      27      33      30      14
%FLAG DIHEDRALS_INC_HYDROGEN                                                    
%FORMAT(10I8)                                                                   
       0      24      12      42       1      66       0      24       3       2
      66       0     -24       3       3       3      24      12      42       7
       3      24     -12      42       8       6      12       9      36      10
       6      12       9      39      10       9      12       6      51      11
       9      12       6      54      11       9      15      18      45      12
       9      15      21      48      12      66       0      24      12      14
      15       9      12      42      16      15      18      27      57      12
      15      21      30      60      12      18      15       9      36      17
      18      15       9      39      17      18      15      21      48      12
      18      27      33      63      12      21      15       9      36      17
      21      15       9      39      17      21      15      18      45      12
      21      30      33      63      12      24      12       6      51      18
      24      12       6      54      18      24      12       9      36      16
      24      12       9      39      16      27      33      30      60      12
      30      33      27      57      12      33      27      18      45      12
      33      30      21      48      12      36       9      12      42      16
      39       9      12      42      16      42      12       6      51      18
      42      12       6      54      18      45      18      27      57      12
      48      21      30      60      12      57      27      33      63      12
      60      30      33      63      12      15      27     -18     -45      19
      15      30     -21     -48      19      18      33     -27     -57      19
      21      33     -30     -60      19      27      30     -33     -63      19
%FLAG DIHEDRALS_WITHOUT_HYDROGEN                                                
%FORMAT(10I8)                                                                   
       0      24      12       6       1       0      24      12       9       1
       3      24      12       6       1       3      24      12       9       4
       3      24     -12       9       5       3      24     -12       9       6
       6      12       9      15       9       9      15      18      27      12
       9      15      21      30      12      12       9      15      18      13
      12       9      15      21      13      15       9      12      24      15
      15      18      27      33      12      15      21     -30      33      12
      18      15      21      30      12      18      27     -33      30      12
      21      15      18      27      12      21      30     -33      27      12
      18      21     -15      -9      19       0      24      -3     -12      19
%FLAG EXCLUDED_ATOMS_LIST                                                       
%FORMAT(10I8)                                                                   
       2       3       4       5       9      15      23       3       4       5
       9      15      23       4       5       6       9      13      14      15
      18      19       5       6       7       8       9      10      11      13
      14      15      16      17      18      19       6       7       8       9
      13      14      15      18      19      23       7       8       9      10
      11      12      13      14      15      16      17      20      21       8
      10      11      12      13      14      16      17      20      22      10
      11      12      13      14      16      17      21      22      13      14
      15      18      19      23      11      12      16      20      21      22
      12      17      20      21      22      16      17      20      21      22
      14      15      15      18      19      20      21      19       0      22
      22       0       0
%FLAG HBOND_ACOEF                                                               
%FORMAT(5E16.8)                                                                 

%FLAG HBOND_BCOEF                                                               
%FORMAT(5E16.8)                                                                 

%FLAG HBCUT                                                                     
%FORMAT(5E16.8)                                                                 

%FLAG AMBER_ATOM_TYPE                                                           
%FORMAT(20a4)                                                                   
oh  o   n8  c3  c3  ca  ca  ca  c   ca  ca  ca  hc  hc  h1  ha  ha  hn  hn  ha  
ha  ha  ho  
%FLAG TREE_CHAIN_CLASSIFICATION                                                 
%FORMAT(20a4)                                                                   
BLA BLA BLA BLA BLA BLA BLA BLA BLA BLA BLA BLA BLA BLA BLA BLA BLA BLA BLA BLA 
BLA BLA BLA 
%FLAG JOIN_ARRAY                                                                
%FORMAT(10I8)                                                                   
       0       0       0       0       0       0       0       0       0       0
       0       0       0       0       0       0       0       0       0       0
       0       0       0
%FLAG IROTAT                                                                    
%FORMAT(10I8)                                                                   
       0       0       0       0       0       0       0       0       0       0
       0       0       0       0       0       0       0       0       0       0
       0       0       0
%FLAG RADIUS_SET                                                                
%FORMAT(1a80)                                                                   
modified Bondi radii (mbondi)                                                   
%FLAG RADII                                                                     
%FORMAT(5E16.8)                                                                 
  1.50000000E+00  1.50000000E+00  1.55000000E+00  1.70000000E+00  1.70000000E+00
  1.70000000E+00  1.70000000E+00  1.70000000E+00  1.70000000E+00  1.70000000E+00
  1.70000000E+00  1.70000000E+00  1.30000000E+00  1.30000000E+00  1.30000000E+00
  1.30000000E+00  1.30000000E+00  1.30000000E+00  1.30000000E+00  1.30000000E+00
  1.30000000E+00  1.30000000E+00  8.00000000E-01
%FLAG SCREEN                                                                    
%FORMAT(5E16.8)                                                                 
  8.50000000E-01  8.50000000E-01  7.90000000E-01  7.20000000E-01  7.20000000E-01
  7.20000000E-01  7.20000000E-01  7.20000000E-01  7.20000000E-01  7.20000000E-01
  7.20000000E-01  7.20000000E-01  8.50000000E-01  8.50000000E-01  8.50000000E-01
  8.50000000E-01  8.50000000E-01  8.50000000E-01  8.50000000E-01  8.50000000E-01
  8.50000000E-01  8.50000000E-01  8.50000000E-01
%FLAG IPOL                                                                      
%FORMAT(1I8)                                                                    
       0
