6140
    23
  -1.5610000  -1.5480000  -1.0370000  -3.1860000  -1.0240000   0.4550000
  -2.7950000   1.6330000  -0.1120000  -0.6090000   0.9810000   0.7900000
  -1.6650000   0.7240000  -0.2960000   0.7590000   0.4610000   0.4140000
   1.1080000  -0.8360000   0.7540000   1.6370000   1.2910000  -0.2630000
  -2.2260000  -0.6860000  -0.2250000   2.3710000  -1.3160000   0.4060000
   2.9000000   0.8110000  -0.6110000   3.2670000  -0.4920000  -0.2760000
  -0.9180000   0.5380000   1.7470000  -0.5160000   2.0590000   0.9860000
  -1.2650000   0.8940000  -1.3020000   0.4190000  -1.4840000   1.2870000
   1.3590000   2.3070000  -0.5310000  -2.4740000   2.5970000  -0.1980000
  -3.1590000   1.5450000   0.8370000   2.6570000  -2.3300000   0.6670000
   3.5970000   1.4520000  -1.1430000   4.2500000  -0.8670000  -0.5470000
  -1.9360000  -2.4530000  -0.9960000
