phenylalanine_GMX.gro created by acpype (v: 2023.10.27) on Mon Feb  9 17:55:36 2026
 23
    1  PHE    O    1  -0.156  -0.155  -0.104
    1  PHE  OXT    2  -0.319  -0.102   0.046
    1  PHE    N    3  -0.280   0.163  -0.011
    1  PHE   CB    4  -0.061   0.098   0.079
    1  PHE   CA    5  -0.167   0.072  -0.030
    1  PHE   CG    6   0.076   0.046   0.041
    1  PHE  CD1    7   0.111  -0.084   0.075
    1  PHE  CD2    8   0.164   0.129  -0.026
    1  PHE    C    9  -0.223  -0.069  -0.023
    1  PHE  CE1   10   0.237  -0.132   0.041
    1  PHE  CE2   11   0.290   0.081  -0.061
    1  PHE   CZ   12   0.327  -0.049  -0.028
    1  PHE  HB1   13  -0.092   0.054   0.175
    1  PHE  HB2   14  -0.052   0.206   0.099
    1  PHE   HA   15  -0.127   0.089  -0.130
    1  PHE  HD1   16   0.042  -0.148   0.129
    1  PHE  HD2   17   0.136   0.231  -0.053
    1  PHE   H1   18  -0.247   0.260  -0.020
    1  PHE   H2   19  -0.316   0.154   0.084
    1  PHE  HE1   20   0.266  -0.233   0.067
    1  PHE  HE2   21   0.360   0.145  -0.114
    1  PHE   HZ   22   0.425  -0.087  -0.055
    1  PHE    H   23  -0.194  -0.245  -0.100
   14.87200    10.10000     6.09800
