; amoxicillin_GMX.itp created by acpype (v: 2023.10.27) on Mon Feb  9 17:25:53 2026

[ atomtypes ]
;name   bond_type     mass     charge   ptype   sigma         epsilon       Amb
 ss       ss          0.00000  0.00000   A     3.53241e-01   1.18156e+00 ; 1.98  0.2824
 o        o           0.00000  0.00000   A     3.04812e-01   6.12119e-01 ; 1.71  0.1463
 oh       oh          0.00000  0.00000   A     3.24287e-01   3.89112e-01 ; 1.82  0.0930
 nj       nj          0.00000  0.00000   A     3.18086e-01   6.84502e-01 ; 1.79  0.1636
 ns       ns          0.00000  0.00000   A     3.26995e-01   4.91202e-01 ; 1.84  0.1174
 n8       n8          0.00000  0.00000   A     3.65019e-01   1.35143e-01 ; 2.05  0.0323
 cy       cy          0.00000  0.00000   A     3.39771e-01   4.51035e-01 ; 1.91  0.1078
 c5       c5          0.00000  0.00000   A     3.39771e-01   4.51035e-01 ; 1.91  0.1078
 c        c           0.00000  0.00000   A     3.31521e-01   4.13379e-01 ; 1.86  0.0988
 c3       c3          0.00000  0.00000   A     3.39771e-01   4.51035e-01 ; 1.91  0.1078
 ca       ca          0.00000  0.00000   A     3.31521e-01   4.13379e-01 ; 1.86  0.0988
 h2       h2          0.00000  0.00000   A     2.24382e-01   8.70272e-02 ; 1.26  0.0208
 h1       h1          0.00000  0.00000   A     2.42200e-01   8.70272e-02 ; 1.36  0.0208
 hc       hc          0.00000  0.00000   A     2.60018e-01   8.70272e-02 ; 1.46  0.0208
 hn       hn          0.00000  0.00000   A     1.10650e-01   4.18400e-02 ; 0.62  0.0100
 ho       ho          0.00000  0.00000   A     5.37925e-02   1.96648e-02 ; 0.30  0.0047
 ha       ha          0.00000  0.00000   A     2.62548e-01   6.73624e-02 ; 1.47  0.0161

[ moleculetype ]
;name            nrexcl
 amoxicillin      3

[ atoms ]
;   nr  type  resi  res  atom  cgnr     charge      mass       ; qtot   bond_type
     1   ss     1   UNL     S    1    -0.308200     32.06000 ; qtot -0.308
     2    o     1   UNL     O    2    -0.514500     16.00000 ; qtot -0.823
     3   oh     1   UNL    O1    3    -0.610100     16.00000 ; qtot -1.433
     4    o     1   UNL   OXT    4    -0.521000     16.00000 ; qtot -1.954
     5    o     1   UNL    O2    5    -0.598100     16.00000 ; qtot -2.552
     6   oh     1   UNL    O3    6    -0.493100     16.00000 ; qtot -3.045
     7   nj     1   UNL     N    7    -0.401800     14.01000 ; qtot -3.447
     8   ns     1   UNL    N1    8    -0.534900     14.01000 ; qtot -3.982
     9   n8     1   UNL    N2    9    -0.927798     14.01000 ; qtot -4.909
    10   cy     1   UNL     C   10     0.096800     12.01000 ; qtot -4.813
    11   c5     1   UNL    C1   11     0.038100     12.01000 ; qtot -4.775
    12   c5     1   UNL    CA   12     0.026700     12.01000 ; qtot -4.748
    13   cy     1   UNL   C13   13     0.028700     12.01000 ; qtot -4.719
    14    c     1   UNL    C2   14     0.654500     12.01000 ; qtot -4.065
    15   c3     1   UNL    C3   15    -0.096100     12.01000 ; qtot -4.161
    16   c3     1   UNL    C4   16    -0.096100     12.01000 ; qtot -4.257
    17    c     1   UNL    C5   17     0.646100     12.01000 ; qtot -3.611
    18    c     1   UNL    C6   18     0.670100     12.01000 ; qtot -2.941
    19   c3     1   UNL   C14   19     0.163800     12.01000 ; qtot -2.777
    20   ca     1   UNL    C7   20    -0.146300     12.01000 ; qtot -2.923
    21   ca     1   UNL    C8   21    -0.073500     12.01000 ; qtot -2.997
    22   ca     1   UNL    C9   22    -0.073500     12.01000 ; qtot -3.070
    23   ca     1   UNL   C10   23    -0.187000     12.01000 ; qtot -3.257
    24   ca     1   UNL   C11   24    -0.187000     12.01000 ; qtot -3.444
    25   ca     1   UNL   C12   25     0.138100     12.01000 ; qtot -3.306
    26   h2     1   UNL     H   26     0.128700      1.00800 ; qtot -3.177
    27   h1     1   UNL    HA   27     0.117700      1.00800 ; qtot -3.060
    28   h1     1   UNL   H16   28     0.132700      1.00800 ; qtot -2.927
    29   hc     1   UNL    H3   29     0.056533      1.00800 ; qtot -2.870
    30   hc     1   UNL    H4   30     0.056533      1.00800 ; qtot -2.814
    31   hc     1   UNL    H5   31     0.056533      1.00800 ; qtot -2.757
    32   hc     1   UNL    H6   32     0.056533      1.00800 ; qtot -2.701
    33   hc     1   UNL    H7   33     0.056533      1.00800 ; qtot -2.644
    34   hc     1   UNL    H8   34     0.056533      1.00800 ; qtot -2.588
    35   hn     1   UNL    H9   35     0.340500      1.00800 ; qtot -2.247
    36   h1     1   UNL   H17   36     0.062700      1.00800 ; qtot -2.185
    37   ho     1   UNL   H10   37     0.448000      1.00800 ; qtot -1.737
    38   hn     1   UNL    H1   38     0.368800      1.00800 ; qtot -1.368
    39   hn     1   UNL    H2   39     0.368800      1.00800 ; qtot -0.999
    40   ha     1   UNL   H11   40     0.142500      1.00800 ; qtot -0.856
    41   ha     1   UNL   H12   41     0.142500      1.00800 ; qtot -0.714
    42   ha     1   UNL   H13   42     0.146000      1.00800 ; qtot -0.568
    43   ha     1   UNL   H14   43     0.146000      1.00800 ; qtot -0.422
    44   ho     1   UNL   H15   44     0.422000      1.00800 ; qtot 0.000

[ bonds ]
;   ai     aj funct   r             k
     1     10   1    1.8499e-01    1.5103e+05 ;      S - C     
     1     11   1    1.8509e-01    1.5064e+05 ;      S - C1    
     2     14   1    1.2190e-01    4.9421e+05 ;      O - C2    
     3     17   1    1.3556e-01    3.0064e+05 ;     O1 - C5    
     3     37   1    9.7250e-02    4.4811e+05 ;     O1 - H10   
     4     17   1    1.2190e-01    4.9421e+05 ;    OXT - C5    
     5     18   1    1.2190e-01    4.9421e+05 ;     O2 - C6    
     6     25   1    1.3644e-01    2.9167e+05 ;     O3 - C12   
     6     44   1    9.7250e-02    4.4811e+05 ;     O3 - H15   
     7     10   1    1.4751e-01    2.0574e+05 ;      N - C     
     7     12   1    1.4508e-01    2.2237e+05 ;      N - CA    
     7     14   1    1.4011e-01    2.6177e+05 ;      N - C2    
     8     13   1    1.4312e-01    2.3698e+05 ;     N1 - C13   
     8     18   1    1.3798e-01    2.8122e+05 ;     N1 - C6    
     8     35   1    1.0132e-01    3.9630e+05 ;     N1 - H9    
     9     19   1    1.4651e-01    2.1239e+05 ;     N2 - C14   
     9     38   1    1.0192e-01    3.8550e+05 ;     N2 - H1    
     9     39   1    1.0192e-01    3.8550e+05 ;     N2 - H2    
    10     13   1    1.5578e-01    1.7898e+05 ;      C - C13   
    10     26   1    1.0930e-01    2.9288e+05 ;      C - H     
    11     12   1    1.5483e-01    1.8418e+05 ;     C1 - CA    
    11     15   1    1.5372e-01    1.9049e+05 ;     C1 - C3    
    11     16   1    1.5372e-01    1.9049e+05 ;     C1 - C4    
    12     17   1    1.5346e-01    1.9200e+05 ;     CA - C5    
    12     27   1    1.0972e-01    2.8768e+05 ;     CA - HA    
    13     14   1    1.5520e-01    1.8214e+05 ;    C13 - C2    
    13     28   1    1.0946e-01    2.9088e+05 ;    C13 - H16   
    15     29   1    1.0962e-01    2.8891e+05 ;     C3 - H3    
    15     30   1    1.0962e-01    2.8891e+05 ;     C3 - H4    
    15     31   1    1.0962e-01    2.8891e+05 ;     C3 - H5    
    16     32   1    1.0962e-01    2.8891e+05 ;     C4 - H6    
    16     33   1    1.0962e-01    2.8891e+05 ;     C4 - H7    
    16     34   1    1.0962e-01    2.8891e+05 ;     C4 - H8    
    18     19   1    1.5270e-01    1.9652e+05 ;     C6 - C14   
    19     20   1    1.5147e-01    2.0410e+05 ;    C14 - C7    
    19     36   1    1.0969e-01    2.8804e+05 ;    C14 - H17   
    20     21   1    1.3986e-01    2.9644e+05 ;     C7 - C8    
    20     22   1    1.3986e-01    2.9644e+05 ;     C7 - C9    
    21     23   1    1.3986e-01    2.9644e+05 ;     C8 - C10   
    21     40   1    1.0860e-01    3.0183e+05 ;     C8 - H11   
    22     24   1    1.3986e-01    2.9644e+05 ;     C9 - C11   
    22     41   1    1.0860e-01    3.0183e+05 ;     C9 - H12   
    23     25   1    1.3986e-01    2.9644e+05 ;    C10 - C12   
    23     42   1    1.0860e-01    3.0183e+05 ;    C10 - H13   
    24     25   1    1.3986e-01    2.9644e+05 ;    C11 - C12   
    24     43   1    1.0860e-01    3.0183e+05 ;    C11 - H14   

[ pairs ]
;   ai     aj    funct
     1      8      1 ;      S - N1    
     1     14      1 ;      S - C2    
     1     17      1 ;      S - C5    
     1     27      1 ;      S - HA    
     1     28      1 ;      S - H16   
     1     29      1 ;      S - H3    
     1     30      1 ;      S - H4    
     1     31      1 ;      S - H5    
     1     32      1 ;      S - H6    
     1     33      1 ;      S - H7    
     1     34      1 ;      S - H8    
     2      8      1 ;      O - N1    
     2     10      1 ;      O - C     
     2     12      1 ;      O - CA    
     2     28      1 ;      O - H16   
     3      7      1 ;     O1 - N     
     3     11      1 ;     O1 - C1    
     3     27      1 ;     O1 - HA    
     4      7      1 ;    OXT - N     
     4     11      1 ;    OXT - C1    
     4     27      1 ;    OXT - HA    
     4     37      1 ;    OXT - H10   
     5      9      1 ;     O2 - N2    
     5     13      1 ;     O2 - C13   
     5     20      1 ;     O2 - C7    
     5     35      1 ;     O2 - H9    
     5     36      1 ;     O2 - H17   
     6     21      1 ;     O3 - C8    
     6     22      1 ;     O3 - C9    
     6     42      1 ;     O3 - H13   
     6     43      1 ;     O3 - H14   
     7      8      1 ;      N - N1    
     7     15      1 ;      N - C3    
     7     16      1 ;      N - C4    
     7     28      1 ;      N - H16   
     8      9      1 ;     N1 - N2    
     8     20      1 ;     N1 - C7    
     8     26      1 ;     N1 - H     
     8     36      1 ;     N1 - H17   
     9     21      1 ;     N2 - C8    
     9     22      1 ;     N2 - C9    
    10     15      1 ;      C - C3    
    10     16      1 ;      C - C4    
    10     17      1 ;      C - C5    
    10     18      1 ;      C - C6    
    10     27      1 ;      C - HA    
    10     35      1 ;      C - H9    
    11     13      1 ;     C1 - C13   
    11     14      1 ;     C1 - C2    
    11     26      1 ;     C1 - H     
    12     13      1 ;     CA - C13   
    12     26      1 ;     CA - H     
    12     29      1 ;     CA - H3    
    12     30      1 ;     CA - H4    
    12     31      1 ;     CA - H5    
    12     32      1 ;     CA - H6    
    12     33      1 ;     CA - H7    
    12     34      1 ;     CA - H8    
    12     37      1 ;     CA - H10   
    13     19      1 ;    C13 - C14   
    14     17      1 ;     C2 - C5    
    14     18      1 ;     C2 - C6    
    14     26      1 ;     C2 - H     
    14     27      1 ;     C2 - HA    
    14     35      1 ;     C2 - H9    
    15     17      1 ;     C3 - C5    
    15     27      1 ;     C3 - HA    
    15     32      1 ;     C3 - H6    
    15     33      1 ;     C3 - H7    
    15     34      1 ;     C3 - H8    
    16     17      1 ;     C4 - C5    
    16     27      1 ;     C4 - HA    
    16     29      1 ;     C4 - H3    
    16     30      1 ;     C4 - H4    
    16     31      1 ;     C4 - H5    
    18     21      1 ;     C6 - C8    
    18     22      1 ;     C6 - C9    
    18     28      1 ;     C6 - H16   
    18     38      1 ;     C6 - H1    
    18     39      1 ;     C6 - H2    
    19     23      1 ;    C14 - C10   
    19     24      1 ;    C14 - C11   
    19     35      1 ;    C14 - H9    
    19     40      1 ;    C14 - H11   
    19     41      1 ;    C14 - H12   
    20     25      1 ;     C7 - C12   
    20     38      1 ;     C7 - H1    
    20     39      1 ;     C7 - H2    
    20     42      1 ;     C7 - H13   
    20     43      1 ;     C7 - H14   
    21     24      1 ;     C8 - C11   
    21     36      1 ;     C8 - H17   
    21     41      1 ;     C8 - H12   
    22     23      1 ;     C9 - C10   
    22     36      1 ;     C9 - H17   
    22     40      1 ;     C9 - H11   
    23     43      1 ;    C10 - H14   
    23     44      1 ;    C10 - H15   
    24     42      1 ;    C11 - H13   
    24     44      1 ;    C11 - H15   
    25     40      1 ;    C12 - H11   
    25     41      1 ;    C12 - H12   
    26     28      1 ;      H - H16   
    28     35      1 ;    H16 - H9    
    36     38      1 ;    H17 - H1    
    36     39      1 ;    H17 - H2    
    40     42      1 ;    H11 - H13   
    41     43      1 ;    H12 - H14   

[ angles ]
;   ai     aj     ak    funct   theta         cth
     1     10      7      1    1.0514e+02    5.7572e+02 ;      S - C      - N     
     1     10     13      1    1.1827e+02    5.0434e+02 ;      S - C      - C13   
     1     10     26      1    1.0966e+02    3.4836e+02 ;      S - C      - H     
     1     11     12      1    1.0620e+02    5.3287e+02 ;      S - C1     - CA    
     1     11     15      1    1.0982e+02    5.2509e+02 ;      S - C1     - C3    
     1     11     16      1    1.0982e+02    5.2509e+02 ;      S - C1     - C4    
     2     14      7      1    1.3307e+02    6.9463e+02 ;      O - C2     - N     
     2     14     13      1    1.3523e+02    6.0208e+02 ;      O - C2     - C13   
     3     17      4      1    1.2209e+02    8.5379e+02 ;     O1 - C5     - OXT   
     3     17     12      1    1.1206e+02    6.4777e+02 ;     O1 - C5     - CA    
     4     17     12      1    1.2567e+02    6.3019e+02 ;    OXT - C5     - CA    
     5     18      8      1    1.2305e+02    7.2977e+02 ;     O2 - C6     - N1    
     5     18     19      1    1.2290e+02    6.3973e+02 ;     O2 - C6     - C14   
     6     25     23      1    1.1990e+02    6.5990e+02 ;     O3 - C12    - C10   
     6     25     24      1    1.1990e+02    6.5990e+02 ;     O3 - C12    - C11   
     7     10     13      1    8.8660e+01    6.0601e+02 ;      N - C      - C13   
     7     10     26      1    1.1453e+02    3.8987e+02 ;      N - C      - H     
     7     12     11      1    1.0683e+02    5.5798e+02 ;      N - CA     - C1    
     7     12     17      1    1.1019e+02    5.5220e+02 ;      N - CA     - C5    
     7     12     27      1    1.0834e+02    4.0635e+02 ;      N - CA     - HA    
     7     14     13      1    9.1690e+01    6.0978e+02 ;      N - C2     - C13   
     8     13     10      1    1.1963e+02    5.2827e+02 ;     N1 - C13    - C     
     8     13     14      1    1.1742e+02    5.3446e+02 ;     N1 - C13    - C2    
     8     13     28      1    1.0814e+02    4.1154e+02 ;     N1 - C13    - H16   
     8     18     19      1    1.1503e+02    5.5312e+02 ;     N1 - C6     - C14   
     9     19     18      1    1.1096e+02    5.4944e+02 ;     N2 - C14    - C6    
     9     19     20      1    1.1160e+02    5.5028e+02 ;     N2 - C14    - C7    
     9     19     36      1    1.0812e+02    4.0342e+02 ;     N2 - C14    - H17   
    10      1     11      1    9.4490e+01    7.9220e+02 ;      C - S      - C1    
    10      7     12      1    1.1692e+02    6.3773e+02 ;      C - N      - CA    
    10      7     14      1    9.3980e+01    7.2274e+02 ;      C - N      - C2    
    10     13     14      1    8.5160e+01    5.6894e+02 ;      C - C13    - C2    
    10     13     28      1    1.1317e+02    3.5179e+02 ;      C - C13    - H16   
    11     12     17      1    1.0786e+02    5.0995e+02 ;     C1 - CA     - C5    
    11     12     27      1    1.1117e+02    3.5690e+02 ;     C1 - CA     - HA    
    11     15     29      1    1.1053e+02    3.6033e+02 ;     C1 - C3     - H3    
    11     15     30      1    1.1053e+02    3.6033e+02 ;     C1 - C3     - H4    
    11     15     31      1    1.1053e+02    3.6033e+02 ;     C1 - C3     - H5    
    11     16     32      1    1.1053e+02    3.6033e+02 ;     C1 - C4     - H6    
    11     16     33      1    1.1053e+02    3.6033e+02 ;     C1 - C4     - H7    
    11     16     34      1    1.1053e+02    3.6033e+02 ;     C1 - C4     - H8    
    12      7     14      1    1.2747e+02    6.2634e+02 ;     CA - N      - C2    
    12     11     15      1    1.1360e+02    4.9647e+02 ;     CA - C1     - C3    
    12     11     16      1    1.1360e+02    4.9647e+02 ;     CA - C1     - C4    
    13      8     18      1    1.2179e+02    6.5003e+02 ;    C13 - N1     - C6    
    13      8     35      1    1.1918e+02    4.6083e+02 ;    C13 - N1     - H9    
    13     10     26      1    1.1679e+02    3.4635e+02 ;    C13 - C      - H     
    14     13     28      1    1.1298e+02    3.5330e+02 ;     C2 - C13    - H16   
    15     11     16      1    1.1028e+02    5.0576e+02 ;     C3 - C1     - C4    
    17      3     37      1    1.0654e+02    5.7287e+02 ;     C5 - O1     - H10   
    17     12     27      1    1.0855e+02    3.6409e+02 ;     C5 - CA     - HA    
    18      8     35      1    1.1726e+02    4.8007e+02 ;     C6 - N1     - H9    
    18     19     20      1    1.1116e+02    5.0911e+02 ;     C6 - C14    - C7    
    18     19     36      1    1.0837e+02    3.6602e+02 ;     C6 - C14    - H17   
    19      9     38      1    1.0961e+02    4.7003e+02 ;    C14 - N2     - H1    
    19      9     39      1    1.0961e+02    4.7003e+02 ;    C14 - N2     - H2    
    19     20     21      1    1.2083e+02    5.0827e+02 ;    C14 - C7     - C8    
    19     20     22      1    1.2083e+02    5.0827e+02 ;    C14 - C7     - C9    
    20     19     36      1    1.0960e+02    3.6660e+02 ;     C7 - C14    - H17   
    20     21     23      1    1.2002e+02    5.3279e+02 ;     C7 - C8     - C10   
    20     21     40      1    1.1988e+02    3.7572e+02 ;     C7 - C8     - H11   
    20     22     24      1    1.2002e+02    5.3279e+02 ;     C7 - C9     - C11   
    20     22     41      1    1.1988e+02    3.7572e+02 ;     C7 - C9     - H12   
    21     20     22      1    1.2002e+02    5.3279e+02 ;     C8 - C7     - C9    
    21     23     25      1    1.2002e+02    5.3279e+02 ;     C8 - C10    - C12   
    21     23     42      1    1.1988e+02    3.7572e+02 ;     C8 - C10    - H13   
    22     24     25      1    1.2002e+02    5.3279e+02 ;     C9 - C11    - C12   
    22     24     43      1    1.1988e+02    3.7572e+02 ;     C9 - C11    - H14   
    23     21     40      1    1.1988e+02    3.7572e+02 ;    C10 - C8     - H11   
    23     25     24      1    1.2002e+02    5.3279e+02 ;    C10 - C12    - C11   
    24     22     41      1    1.1988e+02    3.7572e+02 ;    C11 - C9     - H12   
    25      6     44      1    1.0858e+02    5.6409e+02 ;    C12 - O3     - H15   
    25     23     42      1    1.1988e+02    3.7572e+02 ;    C12 - C10    - H13   
    25     24     43      1    1.1988e+02    3.7572e+02 ;    C12 - C11    - H14   
    29     15     30      1    1.0773e+02    2.9957e+02 ;     H3 - C3     - H4    
    29     15     31      1    1.0773e+02    2.9957e+02 ;     H3 - C3     - H5    
    30     15     31      1    1.0773e+02    2.9957e+02 ;     H4 - C3     - H5    
    32     16     33      1    1.0773e+02    2.9957e+02 ;     H6 - C4     - H7    
    32     16     34      1    1.0773e+02    2.9957e+02 ;     H6 - C4     - H8    
    33     16     34      1    1.0773e+02    2.9957e+02 ;     H7 - C4     - H8    
    38      9     39      1    1.0638e+02    4.0074e+02 ;     H1 - N2     - H2    

[ dihedrals ] ; propers
; for gromacs 4.5 or higher, using funct 9
;    i      j      k      l   func   phase     kd      pn
     1     10      7     12      9     0.00   0.00000   0 ;      S-     C-     N-    CA
     1     10      7     14      9     0.00   0.00000   0 ;      S-     C-     N-    C2
     1     10     13      8      9     0.00   0.65084   3 ;      S-     C-   C13-    N1
     1     10     13     14      9     0.00   0.65084   3 ;      S-     C-   C13-    C2
     1     10     13     28      9     0.00   0.65084   3 ;      S-     C-   C13-   H16
     1     11     12      7      9     0.00   0.65084   3 ;      S-    C1-    CA-     N
     1     11     12     17      9     0.00   0.65084   3 ;      S-    C1-    CA-    C5
     1     11     12     27      9     0.00   0.65084   3 ;      S-    C1-    CA-    HA
     1     11     15     29      9     0.00   0.65084   3 ;      S-    C1-    C3-    H3
     1     11     15     30      9     0.00   0.65084   3 ;      S-    C1-    C3-    H4
     1     11     15     31      9     0.00   0.65084   3 ;      S-    C1-    C3-    H5
     1     11     16     32      9     0.00   0.65084   3 ;      S-    C1-    C4-    H6
     1     11     16     33      9     0.00   0.65084   3 ;      S-    C1-    C4-    H7
     1     11     16     34      9     0.00   0.65084   3 ;      S-    C1-    C4-    H8
     2     14      7     10      9   180.00  10.46000   2 ;      O-    C2-     N-     C
     2     14      7     12      9   180.00  10.46000   2 ;      O-    C2-     N-    CA
     2     14     13      8      9   180.00   0.00000   2 ;      O-    C2-   C13-    N1
     2     14     13     10      9   180.00   0.00000   2 ;      O-    C2-   C13-     C
     2     14     13     28      9   180.00   0.00000   2 ;      O-    C2-   C13-   H16
     3     17     12      7      9   180.00   0.00000   2 ;     O1-    C5-    CA-     N
     3     17     12     11      9   180.00   0.00000   2 ;     O1-    C5-    CA-    C1
     3     17     12     27      9   180.00   0.00000   2 ;     O1-    C5-    CA-    HA
     4     17      3     37      9     0.00   7.94960   1 ;    OXT-    C5-    O1-   H10
     4     17      3     37      9   180.00   9.62320   2 ;    OXT-    C5-    O1-   H10
     4     17     12      7      9   180.00   0.00000   2 ;    OXT-    C5-    CA-     N
     4     17     12     11      9     0.00   2.84512   1 ;    OXT-    C5-    CA-    C1
     4     17     12     11      9   180.00   0.83680   2 ;    OXT-    C5-    CA-    C1
     4     17     12     11      9   180.00   1.84096   3 ;    OXT-    C5-    CA-    C1
     4     17     12     27      9     0.00   3.34720   1 ;    OXT-    C5-    CA-    HA
     4     17     12     27      9   180.00   0.33472   3 ;    OXT-    C5-    CA-    HA
     5     18      8     13      9   180.00  10.46000   2 ;     O2-    C6-    N1-   C13
     5     18      8     35      9     0.00   8.36800   1 ;     O2-    C6-    N1-    H9
     5     18      8     35      9   180.00  10.46000   2 ;     O2-    C6-    N1-    H9
     5     18     19      9      9   180.00   0.00000   2 ;     O2-    C6-   C14-    N2
     5     18     19     20      9   180.00   0.00000   2 ;     O2-    C6-   C14-    C7
     5     18     19     36      9     0.00   3.34720   1 ;     O2-    C6-   C14-   H17
     5     18     19     36      9   180.00   0.33472   3 ;     O2-    C6-   C14-   H17
     6     25     23     21      9   180.00  15.16700   2 ;     O3-   C12-   C10-    C8
     6     25     23     42      9   180.00  15.16700   2 ;     O3-   C12-   C10-   H13
     6     25     24     22      9   180.00  15.16700   2 ;     O3-   C12-   C11-    C9
     6     25     24     43      9   180.00  15.16700   2 ;     O3-   C12-   C11-   H14
     7     10     13      8      9     0.00   0.65084   3 ;      N-     C-   C13-    N1
     7     10     13     14      9     0.00   0.65084   3 ;      N-     C-   C13-    C2
     7     10     13     28      9     0.00   0.65084   3 ;      N-     C-   C13-   H16
     7     12     11     15      9     0.00   0.41840   3 ;      N-    CA-    C1-    C3
     7     12     11     16      9     0.00   0.41840   3 ;      N-    CA-    C1-    C4
     7     14     13      8      9   180.00   0.00000   2 ;      N-    C2-   C13-    N1
     7     14     13     10      9   180.00   0.00000   2 ;      N-    C2-   C13-     C
     7     14     13     28      9   180.00   0.00000   2 ;      N-    C2-   C13-   H16
     8     13     10     26      9     0.00   0.65084   3 ;     N1-   C13-     C-     H
     8     18     19      9      9   180.00   0.00000   2 ;     N1-    C6-   C14-    N2
     8     18     19     20      9   180.00   0.00000   2 ;     N1-    C6-   C14-    C7
     8     18     19     36      9   180.00   0.00000   2 ;     N1-    C6-   C14-   H17
     9     19     20     21      9     0.00   0.00000   0 ;     N2-   C14-    C7-    C8
     9     19     20     22      9     0.00   0.00000   0 ;     N2-   C14-    C7-    C9
    10      1     11     12      9     0.00   1.39467   3 ;      C-     S-    C1-    CA
    10      1     11     15      9     0.00   1.39467   3 ;      C-     S-    C1-    C3
    10      1     11     16      9     0.00   1.39467   3 ;      C-     S-    C1-    C4
    10      7     12     11      9     0.00   0.00000   0 ;      C-     N-    CA-    C1
    10      7     12     17      9     0.00   0.00000   0 ;      C-     N-    CA-    C5
    10      7     12     27      9     0.00   0.00000   0 ;      C-     N-    CA-    HA
    10      7     14     13      9   180.00  10.46000   2 ;      C-     N-    C2-   C13
    10     13      8     18      9     0.00   0.00000   0 ;      C-   C13-    N1-    C6
    10     13      8     35      9     0.00   0.00000   0 ;      C-   C13-    N1-    H9
    11      1     10      7      9     0.00   1.39467   3 ;     C1-     S-     C-     N
    11      1     10     13      9   180.00   0.83680   1 ;     C1-     S-     C-   C13
    11      1     10     26      9     0.00   0.92048   3 ;     C1-     S-     C-     H
    11     12      7     14      9     0.00   9.45584   1 ;     C1-    CA-     N-    C2
    11     12      7     14      9   180.00   0.12552   3 ;     C1-    CA-     N-    C2
    11     12      7     14      9   180.00   2.71960   4 ;     C1-    CA-     N-    C2
    12      7     10     13      9     0.00   0.00000   0 ;     CA-     N-     C-   C13
    12      7     10     26      9     0.00   0.00000   0 ;     CA-     N-     C-     H
    12      7     14     13      9   180.00  10.46000   2 ;     CA-     N-    C2-   C13
    12     11     15     29      9     0.00   0.54392   3 ;     CA-    C1-    C3-    H3
    12     11     15     30      9     0.00   0.54392   3 ;     CA-    C1-    C3-    H4
    12     11     15     31      9     0.00   0.54392   3 ;     CA-    C1-    C3-    H5
    12     11     16     32      9     0.00   0.54392   3 ;     CA-    C1-    C4-    H6
    12     11     16     33      9     0.00   0.54392   3 ;     CA-    C1-    C4-    H7
    12     11     16     34      9     0.00   0.54392   3 ;     CA-    C1-    C4-    H8
    12     17      3     37      9   180.00   7.53120   2 ;     CA-    C5-    O1-   H10
    13      8     18     19      9   180.00  10.46000   2 ;    C13-    N1-    C6-   C14
    13     10      7     14      9     0.00   0.00000   0 ;    C13-     C-     N-    C2
    14      7     10     26      9     0.00   0.00000   0 ;     C2-     N-     C-     H
    14      7     12     17      9     0.00   2.67776   1 ;     C2-     N-    CA-    C5
    14      7     12     17      9   180.00   1.63176   2 ;     C2-     N-    CA-    C5
    14      7     12     27      9   180.00   0.00000   2 ;     C2-     N-    CA-    HA
    14     13      8     18      9     0.00   0.00000   0 ;     C2-   C13-    N1-    C6
    14     13      8     35      9     0.00   0.00000   0 ;     C2-   C13-    N1-    H9
    14     13     10     26      9     0.00   0.65084   3 ;     C2-   C13-     C-     H
    15     11     12     17      9     0.00   0.00000   0 ;     C3-    C1-    CA-    C5
    15     11     12     17      9     0.00   0.16736   2 ;     C3-    C1-    CA-    C5
    15     11     12     17      9   180.00   1.92464   1 ;     C3-    C1-    CA-    C5
    15     11     12     27      9     0.00   0.65084   3 ;     C3-    C1-    CA-    HA
    15     11     16     32      9     0.00   0.54392   3 ;     C3-    C1-    C4-    H6
    15     11     16     33      9     0.00   0.54392   3 ;     C3-    C1-    C4-    H7
    15     11     16     34      9     0.00   0.54392   3 ;     C3-    C1-    C4-    H8
    16     11     12     17      9     0.00   0.00000   0 ;     C4-    C1-    CA-    C5
    16     11     12     17      9     0.00   0.16736   2 ;     C4-    C1-    CA-    C5
    16     11     12     17      9   180.00   1.92464   1 ;     C4-    C1-    CA-    C5
    16     11     12     27      9     0.00   0.65084   3 ;     C4-    C1-    CA-    HA
    16     11     15     29      9     0.00   0.54392   3 ;     C4-    C1-    C3-    H3
    16     11     15     30      9     0.00   0.54392   3 ;     C4-    C1-    C3-    H4
    16     11     15     31      9     0.00   0.54392   3 ;     C4-    C1-    C3-    H5
    18      8     13     28      9     0.00   0.00000   0 ;     C6-    N1-   C13-   H16
    18     19      9     38      9     0.00   1.25520   3 ;     C6-   C14-    N2-    H1
    18     19      9     39      9     0.00   1.25520   3 ;     C6-   C14-    N2-    H2
    18     19     20     21      9     0.00   0.00000   0 ;     C6-   C14-    C7-    C8
    18     19     20     22      9     0.00   0.00000   0 ;     C6-   C14-    C7-    C9
    19     18      8     35      9   180.00  10.46000   2 ;    C14-    C6-    N1-    H9
    19     20     21     23      9   180.00  15.16700   2 ;    C14-    C7-    C8-   C10
    19     20     21     40      9   180.00  15.16700   2 ;    C14-    C7-    C8-   H11
    19     20     22     24      9   180.00  15.16700   2 ;    C14-    C7-    C9-   C11
    19     20     22     41      9   180.00  15.16700   2 ;    C14-    C7-    C9-   H12
    20     19      9     38      9     0.00   1.25520   3 ;     C7-   C14-    N2-    H1
    20     19      9     39      9     0.00   1.25520   3 ;     C7-   C14-    N2-    H2
    20     21     23     25      9   180.00  15.16700   2 ;     C7-    C8-   C10-   C12
    20     21     23     42      9   180.00  15.16700   2 ;     C7-    C8-   C10-   H13
    20     22     24     25      9   180.00  15.16700   2 ;     C7-    C9-   C11-   C12
    20     22     24     43      9   180.00  15.16700   2 ;     C7-    C9-   C11-   H14
    21     20     19     36      9     0.00   0.00000   0 ;     C8-    C7-   C14-   H17
    21     20     22     24      9   180.00  15.16700   2 ;     C8-    C7-    C9-   C11
    21     20     22     41      9   180.00  15.16700   2 ;     C8-    C7-    C9-   H12
    21     23     25     24      9   180.00  15.16700   2 ;     C8-   C10-   C12-   C11
    22     20     19     36      9     0.00   0.00000   0 ;     C9-    C7-   C14-   H17
    22     20     21     23      9   180.00  15.16700   2 ;     C9-    C7-    C8-   C10
    22     20     21     40      9   180.00  15.16700   2 ;     C9-    C7-    C8-   H11
    22     24     25     23      9   180.00  15.16700   2 ;     C9-   C11-   C12-   C10
    23     25      6     44      9   180.00   3.57732   2 ;    C10-   C12-    O3-   H15
    23     25     24     43      9   180.00  15.16700   2 ;    C10-   C12-   C11-   H14
    24     25      6     44      9   180.00   3.57732   2 ;    C11-   C12-    O3-   H15
    24     25     23     42      9   180.00  15.16700   2 ;    C11-   C12-   C10-   H13
    25     23     21     40      9   180.00  15.16700   2 ;    C12-   C10-    C8-   H11
    25     24     22     41      9   180.00  15.16700   2 ;    C12-   C11-    C9-   H12
    26     10     13     28      9     0.00   0.65084   3 ;      H-     C-   C13-   H16
    28     13      8     35      9     0.00   0.00000   0 ;    H16-   C13-    N1-    H9
    36     19      9     38      9     0.00   1.25520   3 ;    H17-   C14-    N2-    H1
    36     19      9     39      9     0.00   1.25520   3 ;    H17-   C14-    N2-    H2
    40     21     23     42      9   180.00  15.16700   2 ;    H11-    C8-   C10-   H13
    41     22     24     43      9   180.00  15.16700   2 ;    H12-    C9-   C11-   H14

[ dihedrals ] ; impropers
; treated as propers in GROMACS to use correct AMBER analytical function
;    i      j      k      l   func   phase     kd      pn
    12      4     17      3      4   180.00   4.60240   2 ;     CA-   OXT-    C5-    O1
    13      7     14      2      4   180.00  43.93200   2 ;    C13-     N-    C2-     O
    14     12      7     10      4   180.00   4.60240   2 ;     C2-    CA-     N-     C
    18     13      8     35      4   180.00   4.60240   2 ;     C6-   C13-    N1-    H9
    19      8     18      5      4   180.00  43.93200   2 ;    C14-    N1-    C6-    O2
    20     23     21     40      4   180.00   4.60240   2 ;     C7-   C10-    C8-   H11
    20     24     22     41      4   180.00   4.60240   2 ;     C7-   C11-    C9-   H12
    21     22     20     19      4   180.00   4.60240   2 ;     C8-    C9-    C7-   C14
    21     25     23     42      4   180.00   4.60240   2 ;     C8-   C12-   C10-   H13
    22     25     24     43      4   180.00   4.60240   2 ;     C9-   C12-   C11-   H14
    23     24     25      6      4   180.00   4.60240   2 ;    C10-   C11-   C12-    O3
