33613
    44
   0.8130000  -0.5300000   1.0470000   2.5410000   1.9380000  -2.1380000
   5.1160000  -1.8060000  -0.0670000   4.3750000  -0.4800000   1.6330000
  -1.1800000   2.4440000   1.6020000  -4.1590000  -3.4890000   0.0830000
   2.7860000   0.7500000  -0.1150000  -0.1500000   1.9690000  -0.4200000
  -3.5720000   2.8270000   0.2760000   1.8060000   1.0060000   0.9420000
   1.8290000  -1.4420000  -0.2180000   3.1210000  -0.6200000  -0.4280000
   1.2350000   2.1190000   0.0480000   2.2950000   1.6810000  -0.9810000
   2.0780000  -2.8720000   0.2740000   1.0040000  -1.4980000  -1.5150000
   4.2480000  -0.9380000   0.5070000  -1.2580000   2.1470000   0.4110000
  -2.5840000   1.9140000  -0.3060000  -3.0060000   0.4640000  -0.2010000
  -3.1870000  -0.2710000  -1.3590000  -3.2020000  -0.0930000   1.0500000
  -3.5780000  -1.6070000  -1.2630000  -3.5920000  -1.4290000   1.1470000
  -3.7800000  -2.1850000  -0.0100000   2.2560000   1.3400000   1.8810000
   3.4770000  -0.6650000  -1.4650000   1.4210000   3.1320000   0.4240000
   1.1390000  -3.4300000   0.3740000   2.7070000  -3.4210000  -0.4350000
   2.5760000  -2.8960000   1.2500000   1.5600000  -2.0260000  -2.2990000
   0.0600000  -2.0370000  -1.3700000   0.7630000  -0.5050000  -1.9060000
  -0.3220000   1.7160000  -1.3900000  -2.4630000   2.1960000  -1.3590000
   5.8620000  -2.0270000   0.5310000  -4.4540000   2.7370000  -0.2290000
  -3.2690000   3.7910000   0.1370000  -3.0310000   0.1680000  -2.3400000
  -3.0660000   0.4820000   1.9620000  -3.7210000  -2.1920000  -2.1670000
  -3.7470000  -1.8670000   2.1290000  -4.2530000  -3.7240000   1.0230000
