%VERSION  VERSION_STAMP = V0001.000  DATE = 02/09/26  17:28:54                  
%FLAG TITLE                                                                     
%FORMAT(20a4)                                                                   
33613                                                                           
%FLAG POINTERS                                                                  
%FORMAT(10I8)                                                                   
      44      14      19      27      39      42      78      72       0       0
     242       1      27      42      72      28      54      31      17       0
       0       0       0       0       0       0       0       0      44       0
       0
%FLAG ATOM_NAME                                                                 
%FORMAT(20a4)                                                                   
S   O   O1  OXT O2  O3  N   N1  N2  C   C1  CA  C13 C2  C3  C4  C5  C6  C14 C7  
C8  C9  C10 C11 C12 H   HA  H16 H3  H4  H5  H6  H7  H8  H9  H17 H10 H1  H2  H11 
H12 H13 H14 H15 
%FLAG CHARGE                                                                    
%FORMAT(5E16.8)                                                                 
 -5.61611286E+00 -9.37537335E+00 -1.11174252E+01 -9.49381830E+00 -1.08987576E+01
 -8.98541613E+00 -7.32172014E+00 -9.74710827E+00 -1.69066499E+01  1.76391864E+00
  6.94269630E-01  4.86535410E-01  5.22980010E-01  1.19264953E+01 -1.75116303E+00
 -1.75116303E+00  1.17734280E+01  1.22107632E+01  2.98481274E+00 -2.66592249E+00
 -1.33933905E+00 -1.33933905E+00 -3.40757010E+00 -3.40757010E+00  2.51649963E+00
  2.34521001E+00  2.14476471E+00  2.41809921E+00  1.03016129E+00  1.03016129E+00
  1.03016129E+00  1.03016129E+00  1.03016129E+00  1.03016129E+00  6.20469315E+00
  1.14253821E+00  8.16359040E+00  6.72038424E+00  6.72038424E+00  2.59667775E+00
  2.59667775E+00  2.66045580E+00  2.66045580E+00  7.68981060E+00
%FLAG ATOMIC_NUMBER                                                             
%FORMAT(10I8)                                                                   
      16       8       8       8       8       8       7       7       7       6
       6       6       6       6       6       6       6       6       6       6
       6       6       6       6       6       1       1       1       1       1
       1       1       1       1       1       1       1       1       1       1
       1       1       1       1
%FLAG MASS                                                                      
%FORMAT(5E16.8)                                                                 
  3.20600000E+01  1.60000000E+01  1.60000000E+01  1.60000000E+01  1.60000000E+01
  1.60000000E+01  1.40100000E+01  1.40100000E+01  1.40100000E+01  1.20100000E+01
  1.20100000E+01  1.20100000E+01  1.20100000E+01  1.20100000E+01  1.20100000E+01
  1.20100000E+01  1.20100000E+01  1.20100000E+01  1.20100000E+01  1.20100000E+01
  1.20100000E+01  1.20100000E+01  1.20100000E+01  1.20100000E+01  1.20100000E+01
  1.00800000E+00  1.00800000E+00  1.00800000E+00  1.00800000E+00  1.00800000E+00
  1.00800000E+00  1.00800000E+00  1.00800000E+00  1.00800000E+00  1.00800000E+00
  1.00800000E+00  1.00800000E+00  1.00800000E+00  1.00800000E+00  1.00800000E+00
  1.00800000E+00  1.00800000E+00  1.00800000E+00  1.00800000E+00
%FLAG ATOM_TYPE_INDEX                                                           
%FORMAT(10I8)                                                                   
       1       2       3       2       2       3       4       5       6       7
       7       7       7       8       7       7       8       8       7       8
       8       8       8       8       8       9      10      10      11      11
      11      11      11      11      12      10      13      12      12      14
      14      14      14      13
%FLAG NUMBER_EXCLUDED_ATOMS                                                     
%FORMAT(10I8)                                                                   
      19       7       7       6       8       8      12      11       8      12
      14      14       6       6       9       8       2       9      11      12
       8       7       6       5       5       1       1       1       2       1
       1       2       1       1       1       2       1       1       1       1
       1       1       1       1
%FLAG NONBONDED_PARM_INDEX                                                      
%FORMAT(10I8)                                                                   
       1       2       4       7      11      16      22      29      37      46
      56      67      79      92       2       3       5       8      12      17
      23      30      38      47      57      68      80      93       4       5
       6       9      13      18      24      31      39      48      58      69
      81      94       7       8       9      10      14      19      25      32
      40      49      59      70      82      95      11      12      13      14
      15      20      26      33      41      50      60      71      83      96
      16      17      18      19      20      21      27      34      42      51
      61      72      84      97      22      23      24      25      26      27
      28      35      43      52      62      73      85      98      29      30
      31      32      33      34      35      36      44      53      63      74
      86      99      37      38      39      40      41      42      43      44
      45      54      64      75      87     100      46      47      48      49
      50      51      52      53      54      55      65      76      88     101
      56      57      58      59      60      61      62      63      64      65
      66      77      89     102      67      68      69      70      71      72
      73      74      75      76      77      78      90     103      79      80
      81      82      83      84      85      86      87      88      89      90
      91     104      92      93      94      95      96      97      98      99
     100     101     102     103     104     105
%FLAG RESIDUE_LABEL                                                             
%FORMAT(20a4)                                                                   
UNL 
%FLAG RESIDUE_POINTER                                                           
%FORMAT(10I8)                                                                   
       1
%FLAG BOND_FORCE_CONSTANT                                                       
%FORMAT(5E16.8)                                                                 
  1.80480000E+02  1.80020000E+02  5.90600000E+02  3.59270000E+02  5.35510000E+02
  3.48550000E+02  2.45860000E+02  2.65740000E+02  3.12820000E+02  2.83200000E+02
  3.36070000E+02  4.73590000E+02  2.53810000E+02  4.60680000E+02  2.13890000E+02
  3.50000000E+02  2.20100000E+02  2.27640000E+02  2.29450000E+02  3.43780000E+02
  2.17660000E+02  3.47610000E+02  3.45250000E+02  2.34850000E+02  2.43910000E+02
  3.44220000E+02  3.54250000E+02  3.60690000E+02
%FLAG BOND_EQUIL_VALUE                                                          
%FORMAT(5E16.8)                                                                 
  1.84990000E+00  1.85090000E+00  1.21900000E+00  1.35560000E+00  9.72500000E-01
  1.36440000E+00  1.47510000E+00  1.45080000E+00  1.40110000E+00  1.43120000E+00
  1.37980000E+00  1.01320000E+00  1.46510000E+00  1.01920000E+00  1.55780000E+00
  1.09300000E+00  1.54830000E+00  1.53720000E+00  1.53460000E+00  1.09720000E+00
  1.55200000E+00  1.09460000E+00  1.09620000E+00  1.52700000E+00  1.51470000E+00
  1.09690000E+00  1.39860000E+00  1.08600000E+00
%FLAG ANGLE_FORCE_CONSTANT                                                      
%FORMAT(5E16.8)                                                                 
  6.88000000E+01  6.02700000E+01  4.16300000E+01  6.36800000E+01  6.27500000E+01
  8.30100000E+01  7.19500000E+01  1.02030000E+02  7.74100000E+01  7.53100000E+01
  8.72100000E+01  7.64500000E+01  7.88600000E+01  7.24200000E+01  4.65900000E+01
  6.66800000E+01  6.59900000E+01  4.85600000E+01  7.28700000E+01  6.31300000E+01
  6.38700000E+01  4.91800000E+01  6.61000000E+01  6.56600000E+01  6.57600000E+01
  4.82100000E+01  9.46700000E+01  7.62100000E+01  8.63700000E+01  6.79900000E+01
  4.20400000E+01  6.09400000E+01  4.26500000E+01  4.30600000E+01  7.48500000E+01
  5.93300000E+01  7.76800000E+01  5.50700000E+01  4.13900000E+01  4.22200000E+01
  6.04400000E+01  6.84600000E+01  4.35100000E+01  5.73700000E+01  6.08400000E+01
  4.37400000E+01  5.61700000E+01  6.07400000E+01  4.38100000E+01  6.36700000E+01
  4.49000000E+01  6.74100000E+01  3.58000000E+01  4.78900000E+01
%FLAG ANGLE_EQUIL_VALUE                                                         
%FORMAT(5E16.8)                                                                 
  1.83503996E+00  2.06420179E+00  1.91392888E+00  1.85354046E+00  1.91672141E+00
  2.32251063E+00  2.36020976E+00  2.13087340E+00  1.95581680E+00  2.19335621E+00
  2.14762857E+00  2.14501057E+00  2.09265067E+00  1.54740958E+00  1.99892645E+00
  1.86453604E+00  1.92317913E+00  1.89089052E+00  1.60029308E+00  2.08793828E+00
  2.04936649E+00  1.88739986E+00  2.00765310E+00  1.93661817E+00  1.94778828E+00
  1.88705080E+00  1.64916232E+00  2.04063984E+00  1.64026113E+00  1.48632303E+00
  1.97518996E+00  1.88251294E+00  1.94028336E+00  1.92911325E+00  2.22477215E+00
  1.98269488E+00  2.12563741E+00  2.08008429E+00  2.03837091E+00  1.97187383E+00
  1.92474992E+00  1.85947458E+00  1.89455572E+00  2.04657396E+00  1.94010883E+00
  1.89141412E+00  1.91305621E+00  2.10888224E+00  1.91288168E+00  2.09474507E+00
  2.09230160E+00  1.89507931E+00  1.88024401E+00  1.85668205E+00
%FLAG DIHEDRAL_FORCE_CONSTANT                                                   
%FORMAT(5E16.8)                                                                 
  0.00000000E+00  1.55555556E-01  2.50000000E+00  0.00000000E+00  1.90000000E+00
  2.30000000E+00  6.80000000E-01  2.00000000E-01  4.40000000E-01  8.00000000E-01
  8.00000000E-02  2.00000000E+00  3.62500000E+00  3.33333333E-01  1.00000000E-01
  2.00000000E-01  2.20000000E-01  2.26000000E+00  3.00000000E-02  6.50000000E-01
  1.30000000E-01  1.80000000E+00  6.40000000E-01  3.90000000E-01  4.60000000E-01
  4.00000000E-02  0.00000000E+00  3.00000000E-01  8.55000000E-01  1.10000000E+00
  1.05000000E+01
%FLAG DIHEDRAL_PERIODICITY                                                      
%FORMAT(5E16.8)                                                                 
  2.00000000E+00  3.00000000E+00  2.00000000E+00  2.00000000E+00  1.00000000E+00
  2.00000000E+00  1.00000000E+00  2.00000000E+00  3.00000000E+00  1.00000000E+00
  3.00000000E+00  1.00000000E+00  2.00000000E+00  3.00000000E+00  3.00000000E+00
  1.00000000E+00  3.00000000E+00  1.00000000E+00  3.00000000E+00  4.00000000E+00
  3.00000000E+00  2.00000000E+00  1.00000000E+00  2.00000000E+00  1.00000000E+00
  2.00000000E+00  3.00000000E+00  3.00000000E+00  2.00000000E+00  2.00000000E+00
  2.00000000E+00
%FLAG DIHEDRAL_PHASE                                                            
%FORMAT(5E16.8)                                                                 
  0.00000000E+00  0.00000000E+00  3.14159400E+00  3.14159400E+00  0.00000000E+00
  3.14159400E+00  0.00000000E+00  3.14159400E+00  3.14159400E+00  0.00000000E+00
  3.14159400E+00  0.00000000E+00  3.14159400E+00  0.00000000E+00  0.00000000E+00
  3.14159400E+00  0.00000000E+00  0.00000000E+00  3.14159400E+00  3.14159400E+00
  0.00000000E+00  3.14159400E+00  0.00000000E+00  3.14159400E+00  3.14159400E+00
  0.00000000E+00  0.00000000E+00  0.00000000E+00  3.14159400E+00  3.14159400E+00
  3.14159400E+00
%FLAG SCEE_SCALE_FACTOR                                                         
%FORMAT(5E16.8)                                                                 
  1.20000000E+00  1.20000000E+00  1.20000000E+00  1.20000000E+00  1.20000000E+00
  1.20000000E+00  1.20000000E+00  1.20000000E+00  1.20000000E+00  1.20000000E+00
  1.20000000E+00  1.20000000E+00  1.20000000E+00  1.20000000E+00  1.20000000E+00
  1.20000000E+00  1.20000000E+00  1.20000000E+00  1.20000000E+00  1.20000000E+00
  1.20000000E+00  1.20000000E+00  1.20000000E+00  1.20000000E+00  1.20000000E+00
  1.20000000E+00  1.20000000E+00  1.20000000E+00  1.20000000E+00  0.00000000E+00
  0.00000000E+00
%FLAG SCNB_SCALE_FACTOR                                                         
%FORMAT(5E16.8)                                                                 
  2.00000000E+00  2.00000000E+00  2.00000000E+00  2.00000000E+00  2.00000000E+00
  2.00000000E+00  2.00000000E+00  2.00000000E+00  2.00000000E+00  2.00000000E+00
  2.00000000E+00  2.00000000E+00  2.00000000E+00  2.00000000E+00  2.00000000E+00
  2.00000000E+00  2.00000000E+00  2.00000000E+00  2.00000000E+00  2.00000000E+00
  2.00000000E+00  2.00000000E+00  2.00000000E+00  2.00000000E+00  2.00000000E+00
  2.00000000E+00  2.00000000E+00  2.00000000E+00  2.00000000E+00  0.00000000E+00
  0.00000000E+00
%FLAG SOLTY                                                                     
%FORMAT(5E16.8)                                                                 
  0.00000000E+00  0.00000000E+00  0.00000000E+00  0.00000000E+00  0.00000000E+00
  0.00000000E+00  0.00000000E+00  0.00000000E+00  0.00000000E+00  0.00000000E+00
  0.00000000E+00  0.00000000E+00  0.00000000E+00  0.00000000E+00  0.00000000E+00
  0.00000000E+00  0.00000000E+00
%FLAG LENNARD_JONES_ACOEF                                                       
%FORMAT(5E16.8)                                                                 
  4.26366419E+06  1.30884564E+06  3.76435470E+05  1.48082758E+06  4.37717034E+05
  5.03152404E+05  1.75889445E+06  5.15491878E+05  5.94682930E+05  7.02078680E+05
  1.74537186E+06  5.17814271E+05  5.94304835E+05  7.02755693E+05  7.01825028E+05
  1.75839512E+06  5.47655232E+05  6.15869455E+05  7.32902744E+05  7.25299868E+05
  7.22850509E+05  2.09089895E+06  6.30925504E+05  7.18991463E+05  8.52084164E+05
  8.48258258E+05  8.65620051E+05  1.02073671E+06  1.73376823E+06  5.17507491E+05
  5.92438683E+05  7.01106848E+05  6.99381362E+05  7.19505991E+05  8.43969952E+05
  6.96551276E+05  1.03252037E+05  2.59855087E+04  3.19666529E+04  3.69926172E+04
  3.81023323E+04  4.44898963E+04  4.80619274E+04  3.85565555E+04  1.35510742E+03
  1.48672098E+05  3.86646725E+04  4.69084694E+04  5.45183252E+04  5.58085097E+04
  6.36026248E+04  6.97998263E+04  5.63013422E+04  2.16218723E+03  3.39005767E+03
  2.11783234E+05  5.68021765E+04  6.80216136E+04  7.93773615E+04  8.07866982E+04
  8.99910629E+04  1.00235148E+05  8.12662403E+04  3.39005767E+03  5.22955465E+03
  7.94617769E+03  5.15374979E+03  9.87857350E+02  1.36475542E+03  1.52360475E+03
  1.65195713E+03  2.35480845E+03  2.23577481E+03  1.71458823E+03  2.81680913E+01
  5.24570081E+01  9.47421632E+01  1.34728399E-01  7.35778500E+02  1.15813907E+02
  1.74176419E+02  1.89434762E+02  2.13197010E+02  3.50407390E+02  3.03553352E+02
  2.25372434E+02  2.07292270E+00  4.36660257E+00  8.80612241E+00  2.61760843E-03
  1.10360882E-05  1.95762765E+05  5.27277400E+04  6.30298721E+04  7.35931098E+04
  7.48403283E+04  8.31063842E+04  9.27554496E+04  7.52549148E+04  3.17496391E+03
  4.88692384E+03  7.41026906E+03  9.04434904E+01  8.53132435E+00  6.90855956E+03
%FLAG LENNARD_JONES_BCOEF                                                       
%FORMAT(5E16.8)                                                                 
  2.19459223E+03  1.03157656E+03  4.69350655E+02  9.79758754E+02  4.51916854E+02
  4.32634597E+02  1.22973599E+03  5.64804067E+02  5.41675626E+02  6.77820248E+02
  1.12747567E+03  5.21008860E+02  4.98393522E+02  6.24158704E+02  5.74088001E+02
  8.19605821E+02  3.88056827E+02  3.67447838E+02  4.61635953E+02  4.22674891E+02
  3.05601515E+02  1.20800124E+03  5.62969425E+02  5.36620538E+02  6.72777963E+02
  6.17825399E+02  4.52010965E+02  6.63431737E+02  1.07629402E+03  4.98871431E+02
  4.76608379E+02  5.97113873E+02  5.48900066E+02  4.03215362E+02  5.90251928E+02
  5.24668528E+02  1.77914489E+02  7.57220777E+01  7.49920368E+01  9.29071597E+01
  8.67837942E+01  6.79167908E+01  9.54115851E+01  8.36149973E+01  1.06181419E+01
  2.13489607E+02  9.23664132E+01  9.08431526E+01  1.12788003E+02  1.05029928E+02
  8.12052260E+01  1.14981426E+02  1.01040256E+02  1.34124560E+01  1.67944276E+01
  2.54804909E+02  1.11953944E+02  1.09393126E+02  1.36094315E+02  1.26366740E+02
  9.65931103E+01  1.37787728E+02  1.21392023E+02  1.67944276E+01  2.08590256E+01
  2.57122925E+01  3.30984635E+01  1.22938581E+01  1.29026271E+01  1.57004457E+01
  1.50468782E+01  1.30109323E+01  1.71355763E+01  1.46824710E+01  1.27474859E+00
  1.73959275E+00  2.33785449E+00  7.34107347E-02  1.03548588E+01  3.48534600E+00
  3.81654050E+00  4.58384710E+00  4.47571103E+00  4.15567637E+00  5.22789272E+00
  4.40751799E+00  2.86326700E-01  4.15568027E-01  5.90150328E-01  8.47240681E-03
  4.55498033E-04  2.29782888E+02  1.01173582E+02  9.87712192E+01  1.22913863E+02
  1.14083104E+02  8.70671420E+01  1.24325688E+02  1.09570372E+02  1.52447987E+01
  1.89134207E+01  2.32899892E+01  2.14252117E+00  5.44840215E-01  2.10929191E+01
%FLAG BONDS_INC_HYDROGEN                                                        
%FORMAT(10I8)                                                                   
       6     108       5      15     129       5      21     102      12      24
     111      14      24     114      14      27      75      16      33      78
      20      36      81      22      42      84      23      42      87      23
      42      90      23      45      93      23      45      96      23      45
      99      23      54     105      26      60     117      28      63     120
      28      66     123      28      69     126      28
%FLAG BONDS_WITHOUT_HYDROGEN                                                    
%FORMAT(10I8)                                                                   
       0      27       1       0      30       2       3      39       3       6
      48       4       9      48       3      12      51       3      15      72
       6      18      27       7      18      33       8      18      39       9
      21      36      10      21      51      11      24      54      13      27
      36      15      30      33      17      30      42      18      30      45
      18      33      48      19      36      39      21      51      54      24
      54      57      25      57      60      27      57      63      27      60
      66      27      63      69      27      66      72      27      69      72
      27
%FLAG ANGLES_INC_HYDROGEN                                                       
%FORMAT(10I8)                                                                   
       0      27      75       3      18      27      75      15      18      33
      78      18      21      36      81      22      24      54     105      26
      27      36      81      31      30      33      78      33      30      42
      84      34      30      42      87      34      30      42      90      34
      30      45      93      34      30      45      96      34      30      45
      99      34      36      21     102      38      36      27      75      39
      39      36      81      40      48       6     108      42      48      33
      78      43      51      21     102      44      51      54     105      46
      54      24     111      47      54      24     114      47      57      54
     105      49      57      60     117      51      57      63     120      51
      60      66     123      51      63      69     126      51      66      60
     117      51      69      63     120      51      72      15     129      52
      72      66     123      51      72      69     126      51      84      42
      87      53      84      42      90      53      87      42      90      53
      93      45      96      53      93      45      99      53      96      45
      99      53     111      24     114      54
%FLAG ANGLES_WITHOUT_HYDROGEN                                                   
%FORMAT(10I8)                                                                   
       0      27      18       1       0      27      36       2       0      30
      33       4       0      30      42       5       0      30      45       5
       3      39      18       6       3      39      36       7       6      48
       9       8       6      48      33       9       9      48      33      10
      12      51      21      11      12      51      54      12      15      72
      66      13      15      72      69      13      18      27      36      14
      18      33      30      16      18      33      48      17      18      39
      36      19      21      36      27      20      21      36      39      21
      21      51      54      23      24      54      51      24      24      54
      57      25      27       0      30      27      27      18      33      28
      27      18      39      29      27      36      39      30      30      33
      48      32      33      18      39      35      33      30      42      36
      33      30      45      36      36      21      51      37      42      30
      45      41      51      54      57      45      54      57      60      48
      54      57      63      48      57      60      66      50      57      63
      69      50      60      57      63      50      60      66      72      50
      63      69      72      50      66      72      69      50
%FLAG DIHEDRALS_INC_HYDROGEN                                                    
%FORMAT(10I8)                                                                   
       0      27      36      81       2       0      30      33      78       2
       0      30      42      84       2       0      30      42      87       2
       0      30      42      90       2       0      30      45      93       2
       0      30      45      96       2       0      30      45      99       2
       3      39      36      81       4       6      48      33      78       4
       9      48       6     108       5       9      48      -6     108       6
       9      48      33      78      10       9      48     -33      78      11
      12      51      21     102      12      12      51     -21     102       3
      12      51      54     105      10      12      51     -54     105      11
      15      72      66     123      13      15      72      69     126      13
      18      27      36      81       2      18      39     -36      81       4
      21      36      27      75       2      21      51      54     105       4
      27      18      33      78       1      27      36      21     102       1
      30       0      27      75      17      33      18      27      75       1
      33      30      42      84      21      33      30      42      87      21
      33      30      42      90      21      33      30      45      93      21
      33      30      45      96      21      33      30      45      99      21
      33      48       6     108      22      39      18      27      75       1
      39      18      33      78       4      39      36      21     102       1
      39      36     -27      75       2      42      30      33      78       2
      42      30      45      93      21      42      30      45      96      21
      42      30      45      99      21      45      30      33      78       2
      45      30      42      84      21      45      30      42      87      21
      45      30      42      90      21      51      21      36      81       1
      51      54      24     111      28      51      54      24     114      28
      54      51      21     102       3      54      57      60     117      13
      54      57      63     120      13      57      54      24     111      28
      57      54      24     114      28      57      60      66     123      13
      57      63      69     126      13      60      57      54     105       1
      60      57      63     120      13      63      57      54     105       1
      63      57      60     117      13      66      72      15     129      29
      66      72      69     126      13      69      72      15     129      29
      69      72      66     123      13      72      66      60     117      13
      72      69      63     120      13      75      27      36      81       2
      81      36      21     102       1     105      54      24     111      28
     105      54      24     114      28     117      60      66     123      13
     120      63      69     126      13      51      36     -21    -102      30
      57      66     -60    -117      30      57      69     -63    -120      30
      60      72     -66    -123      30      63      72     -69    -126      30
%FLAG DIHEDRALS_WITHOUT_HYDROGEN                                                
%FORMAT(10I8)                                                                   
       0      27     -18      33       1       0      27      18      39       1
       0      27      36      21       2       0      27     -36      39       2
       0      30     -33      18       2       0      30      33      48       2
       3      39      18      27       3       3      39      18      33       3
       3      39      36      21       4       3      39     -36      27       4
       6      48      33      18       4       6      48      33      30       4
       9      48      33      18       4       9      48      33      30       7
       9      48     -33      30       8       9      48     -33      30       9
      12      51      21      36       3      12      51      54      24       4
      12      51      54      57       4      15      72      66      60      13
      15      72      69      63      13      30       0     -27      18      14
      18      27      36      21       2      18      27     -36      39       2
      18      33      30      42      15      18      33      30      45      15
      18      39     -36      21       4      18      39     -36      27       4
      21      51      54      24       4      21      51      54      57       4
      24      54      57      60       1      24      54      57      63       1
      27       0     -30      33      14      27       0      30      42      14
      27       0      30      45      14      27      18     -33      30       1
      27      18      33      48       1      27      18     -39      36       3
      27      36      21      51       1      30       0      27      36      16
      30      33      18      39      18      30      33     -18      39      19
      30      33     -18      39      20      33      18      27      36       1
      33      18     -39      36       3      36      21      51      54       3
      36      27     -18      39       1      39      18      33      48      23
      39      18     -33      48      24      39      36      21      51       1
      42      30      33      48      25      42      30     -33      48      26
      42      30     -33      48      27      45      30      33      48      25
      45      30     -33      48      26      45      30     -33      48      27
      51      54      57      60       1      51      54      57      63       1
      54      57      60      66      13      54      57      63      69      13
      57      60      66      72      13      57      63     -69      72      13
      60      57      63      69      13      60      66     -72      69      13
      63      57      60      66      13      63      69     -72      66      13
      39      33     -18     -27      30      36      18     -39      -3      31
      33       9     -48      -6      30      54      21     -51     -12      31
      60      63     -57     -54      30      66      69     -72     -15      30
%FLAG EXCLUDED_ATOMS_LIST                                                       
%FORMAT(10I8)                                                                   
       7       8      10      11      12      13      14      15      16      17
      26      27      28      29      30      31      32      33      34       7
       8      10      12      13      14      28       4       7      11      12
      17      27      37       7      11      12      17      27      37       8
       9      13      18      19      20      35      36      21      22      23
      24      25      42      43      44       8      10      11      12      13
      14      15      16      17      26      27      28       9      10      13
      14      18      19      20      26      28      35      36      18      19
      20      21      22      36      38      39      11      12      13      14
      15      16      17      18      26      27      28      35      12      13
      14      15      16      17      26      27      29      30      31      32
      33      34      13      14      15      16      17      26      27      29
      30      31      32      33      34      37      14      18      19      26
      28      35      17      18      26      27      28      35      16      17
      27      29      30      31      32      33      34      17      27      29
      30      31      32      33      34      27      37      19      20      21
      22      28      35      36      38      39      20      21      22      23
      24      35      36      38      39      40      41      21      22      23
      24      25      36      38      39      40      41      42      43      22
      23      24      25      36      40      41      42      23      24      25
      36      40      41      43      24      25      40      42      43      44
      25      41      42      43      44      40      41      42      43      44
      28       0      35      30      31      31       0      33      34      34
       0       0      38      39       0      39       0      42      43       0
       0       0
%FLAG HBOND_ACOEF                                                               
%FORMAT(5E16.8)                                                                 

%FLAG HBOND_BCOEF                                                               
%FORMAT(5E16.8)                                                                 

%FLAG HBCUT                                                                     
%FORMAT(5E16.8)                                                                 

%FLAG AMBER_ATOM_TYPE                                                           
%FORMAT(20a4)                                                                   
ss  o   oh  o   o   oh  nj  ns  n8  cy  c5  c5  cy  c   c3  c3  c   c   c3  ca  
ca  ca  ca  ca  ca  h2  h1  h1  hc  hc  hc  hc  hc  hc  hn  h1  ho  hn  hn  ha  
ha  ha  ha  ho  
%FLAG TREE_CHAIN_CLASSIFICATION                                                 
%FORMAT(20a4)                                                                   
BLA BLA BLA BLA BLA BLA BLA BLA BLA BLA BLA BLA BLA BLA BLA BLA BLA BLA BLA BLA 
BLA BLA BLA BLA BLA BLA BLA BLA BLA BLA BLA BLA BLA BLA BLA BLA BLA BLA BLA BLA 
BLA BLA BLA BLA 
%FLAG JOIN_ARRAY                                                                
%FORMAT(10I8)                                                                   
       0       0       0       0       0       0       0       0       0       0
       0       0       0       0       0       0       0       0       0       0
       0       0       0       0       0       0       0       0       0       0
       0       0       0       0       0       0       0       0       0       0
       0       0       0       0
%FLAG IROTAT                                                                    
%FORMAT(10I8)                                                                   
       0       0       0       0       0       0       0       0       0       0
       0       0       0       0       0       0       0       0       0       0
       0       0       0       0       0       0       0       0       0       0
       0       0       0       0       0       0       0       0       0       0
       0       0       0       0
%FLAG RADIUS_SET                                                                
%FORMAT(1a80)                                                                   
modified Bondi radii (mbondi)                                                   
%FLAG RADII                                                                     
%FORMAT(5E16.8)                                                                 
  1.80000000E+00  1.50000000E+00  1.50000000E+00  1.50000000E+00  1.50000000E+00
  1.50000000E+00  1.55000000E+00  1.55000000E+00  1.55000000E+00  1.70000000E+00
  1.70000000E+00  1.70000000E+00  1.70000000E+00  1.70000000E+00  1.70000000E+00
  1.70000000E+00  1.70000000E+00  1.70000000E+00  1.70000000E+00  1.70000000E+00
  1.70000000E+00  1.70000000E+00  1.70000000E+00  1.70000000E+00  1.70000000E+00
  1.30000000E+00  1.30000000E+00  1.30000000E+00  1.30000000E+00  1.30000000E+00
  1.30000000E+00  1.30000000E+00  1.30000000E+00  1.30000000E+00  1.30000000E+00
  1.30000000E+00  8.00000000E-01  1.30000000E+00  1.30000000E+00  1.30000000E+00
  1.30000000E+00  1.30000000E+00  1.30000000E+00  8.00000000E-01
%FLAG SCREEN                                                                    
%FORMAT(5E16.8)                                                                 
  9.60000000E-01  8.50000000E-01  8.50000000E-01  8.50000000E-01  8.50000000E-01
  8.50000000E-01  7.90000000E-01  7.90000000E-01  7.90000000E-01  7.20000000E-01
  7.20000000E-01  7.20000000E-01  7.20000000E-01  7.20000000E-01  7.20000000E-01
  7.20000000E-01  7.20000000E-01  7.20000000E-01  7.20000000E-01  7.20000000E-01
  7.20000000E-01  7.20000000E-01  7.20000000E-01  7.20000000E-01  7.20000000E-01
  8.50000000E-01  8.50000000E-01  8.50000000E-01  8.50000000E-01  8.50000000E-01
  8.50000000E-01  8.50000000E-01  8.50000000E-01  8.50000000E-01  8.50000000E-01
  8.50000000E-01  8.50000000E-01  8.50000000E-01  8.50000000E-01  8.50000000E-01
  8.50000000E-01  8.50000000E-01  8.50000000E-01  8.50000000E-01
%FLAG IPOL                                                                      
%FORMAT(1I8)                                                                    
       0
