amoxicillin_GMX.gro created by acpype (v: 2023.10.27) on Mon Feb  9 17:25:53 2026
 44
    1  UNL    S    1   0.081  -0.053   0.105
    1  UNL    O    2   0.254   0.194  -0.214
    1  UNL   O1    3   0.512  -0.181  -0.007
    1  UNL  OXT    4   0.438  -0.048   0.163
    1  UNL   O2    5  -0.118   0.244   0.160
    1  UNL   O3    6  -0.416  -0.349   0.008
    1  UNL    N    7   0.279   0.075  -0.012
    1  UNL   N1    8  -0.015   0.197  -0.042
    1  UNL   N2    9  -0.357   0.283   0.028
    1  UNL    C   10   0.181   0.101   0.094
    1  UNL   C1   11   0.183  -0.144  -0.022
    1  UNL   CA   12   0.312  -0.062  -0.043
    1  UNL  C13   13   0.124   0.212   0.005
    1  UNL   C2   14   0.230   0.168  -0.098
    1  UNL   C3   15   0.208  -0.287   0.027
    1  UNL   C4   16   0.100  -0.150  -0.151
    1  UNL   C5   17   0.425  -0.094   0.051
    1  UNL   C6   18  -0.126   0.215   0.041
    1  UNL  C14   19  -0.258   0.191  -0.031
    1  UNL   C7   20  -0.301   0.046  -0.020
    1  UNL   C8   21  -0.319  -0.027  -0.136
    1  UNL   C9   22  -0.320  -0.009   0.105
    1  UNL  C10   23  -0.358  -0.161  -0.126
    1  UNL  C11   24  -0.359  -0.143   0.115
    1  UNL  C12   25  -0.378  -0.219  -0.001
    1  UNL    H   26   0.226   0.134   0.188
    1  UNL   HA   27   0.348  -0.067  -0.147
    1  UNL  H16   28   0.142   0.313   0.042
    1  UNL   H3   29   0.114  -0.343   0.037
    1  UNL   H4   30   0.271  -0.342  -0.044
    1  UNL   H5   31   0.258  -0.290   0.125
    1  UNL   H6   32   0.156  -0.203  -0.230
    1  UNL   H7   33   0.006  -0.204  -0.137
    1  UNL   H8   34   0.076  -0.051  -0.191
    1  UNL   H9   35  -0.032   0.172  -0.139
    1  UNL  H17   36  -0.246   0.220  -0.136
    1  UNL  H10   37   0.586  -0.203   0.053
    1  UNL   H1   38  -0.445   0.274  -0.023
    1  UNL   H2   39  -0.327   0.379   0.014
    1  UNL  H11   40  -0.303   0.017  -0.234
    1  UNL  H12   41  -0.307   0.048   0.196
    1  UNL  H13   42  -0.372  -0.219  -0.217
    1  UNL  H14   43  -0.375  -0.187   0.213
    1  UNL  H15   44  -0.425  -0.372   0.102
   20.63200    15.03000     8.93800
