6036
    24
   0.8170000   0.9670000  -0.2370000   0.3540000  -1.6650000  -1.2460000
  -2.0580000  -1.9910000   0.0970000  -2.7810000   0.7900000   0.4200000
  -0.8270000   2.5840000  -0.5960000   3.4740000   0.6140000   0.3590000
   0.2830000  -1.3700000   0.1500000  -1.1480000  -0.9790000   0.5200000
   1.2350000  -0.2110000   0.4650000  -1.5390000   0.3500000  -0.1270000
  -0.4790000   1.4190000   0.1510000   2.6690000  -0.5070000   0.0440000
   0.5760000  -2.2820000   0.6820000  -1.2390000  -0.9040000   1.6110000
   1.2230000   0.0170000   1.5390000  -1.6970000   0.2210000  -1.2040000
  -0.4760000   1.6990000   1.2120000   2.7540000  -0.6760000  -1.0340000
   3.0650000  -1.3810000   0.5700000   0.2460000  -0.8340000  -1.7400000
  -2.9540000  -1.6950000   0.3330000  -2.9930000   1.6460000   0.0080000
  -0.4250000   3.3440000  -0.1420000   3.1070000   1.3820000  -0.1110000
