galactose_GMX.gro created by acpype (v: 2023.10.27) on Mon Feb  9 17:46:11 2026
 24
    1  UNL    O    1   0.082   0.097  -0.024
    1  UNL   O1    2   0.035  -0.167  -0.125
    1  UNL   O2    3  -0.206  -0.199   0.010
    1  UNL   O3    4  -0.278   0.079   0.042
    1  UNL   O4    5  -0.083   0.258  -0.060
    1  UNL   O5    6   0.347   0.061   0.036
    1  UNL    C    7   0.028  -0.137   0.015
    1  UNL   C1    8  -0.115  -0.098   0.052
    1  UNL   C2    9   0.124  -0.021   0.047
    1  UNL   C3   10  -0.154   0.035  -0.013
    1  UNL   C4   11  -0.048   0.142   0.015
    1  UNL   C5   12   0.267  -0.051   0.004
    1  UNL    H   13   0.058  -0.228   0.068
    1  UNL   H1   14  -0.124  -0.090   0.161
    1  UNL   H2   15   0.122   0.002   0.154
    1  UNL   H3   16  -0.170   0.022  -0.120
    1  UNL   H4   17  -0.048   0.170   0.121
    1  UNL   H5   18   0.275  -0.068  -0.103
    1  UNL   H6   19   0.306  -0.138   0.057
    1  UNL   H7   20   0.025  -0.083  -0.174
    1  UNL   H8   21  -0.295  -0.170   0.033
    1  UNL   H9   22  -0.299   0.165   0.001
    1  UNL  H10   23  -0.043   0.334  -0.014
    1  UNL  H11   24   0.311   0.138  -0.011
   12.93400    11.25200     6.70200
