; galactose_GMX.top created by acpype (v: 2023.10.27) on Mon Feb  9 17:46:11 2026

[ defaults ]
; nbfunc        comb-rule       gen-pairs       fudgeLJ fudgeQQ
1               2               yes             0.5     0.8333333333

; Include galactose_GMX.itp topology
#include "galactose_GMX.itp"

; Ligand position restraints
#ifdef POSRES_LIG
#include "posre_galactose.itp"
#endif

[ system ]
 galactose

[ molecules ]
; Compound        nmols
 galactose        1     
