; galactose_GMX_OPLS.top created by acpype (v: 2023.10.27) on Mon Feb  9 17:46:11 2026

; Include forcefield parameters
#include "ffoplsaa.itp"

; Include galactose_GMX.itp topology
#include "galactose_GMX.itp"

; Ligand position restraints
#ifdef POSRES_LIG
#include "posre_galactose.itp"
#endif

[ system ]
 galactose

[ molecules ]
; Compound        nmols
 galactose        1     
