%VERSION  VERSION_STAMP = V0001.000  DATE = 02/09/26  18:01:21                  
%FLAG TITLE                                                                     
%FORMAT(20a4)                                                                   
6029                                                                            
%FLAG POINTERS                                                                  
%FORMAT(10I8)                                                                   
      29      13      12      18      26      26      59      55       0       0
     161       1      18      26      55      19      37      33      16       0
       0       0       0       0       0       0       0       0      29       0
       0
%FLAG ATOM_NAME                                                                 
%FORMAT(20a4)                                                                   
O4* O2* O3* O5* O2  O4  N1  N3  C2* C3* C1* C4* C5* C2  C6  C5  C4  H2* H3* H1* 
H4* H5*1H5*2H7  H8  H6  H5* H3  H5  
%FLAG CHARGE                                                                    
%FORMAT(5E16.8)                                                                 
 -7.40918718E+00 -1.08568463E+01 -1.04559557E+01 -1.08568463E+01 -1.23456082E+01
 -1.09971581E+01 -7.30714230E+00 -1.05962675E+01  1.60538463E+00  2.48005503E+00
  5.05668825E+00  9.12937230E-01  2.04818652E+00  1.47691742E+01  1.04960448E+00
 -5.92589196E+00  1.30234778E+01  1.41587271E+00  1.72565181E+00  1.92609711E+00
  1.70742951E+00  1.06053786E+00  1.06053786E+00  8.14536810E+00  7.79914440E+00
  3.73557150E+00  7.48936530E+00  6.44158305E+00  3.33468090E+00
%FLAG ATOMIC_NUMBER                                                             
%FORMAT(10I8)                                                                   
       8       8       8       8       8       8       7       7       6       6
       6       6       6       6       6       6       6       1       1       1
       1       1       1       1       1       1       1       1       1
%FLAG MASS                                                                      
%FORMAT(5E16.8)                                                                 
  1.60000000E+01  1.60000000E+01  1.60000000E+01  1.60000000E+01  1.60000000E+01
  1.60000000E+01  1.40100000E+01  1.40100000E+01  1.20100000E+01  1.20100000E+01
  1.20100000E+01  1.20100000E+01  1.20100000E+01  1.20100000E+01  1.20100000E+01
  1.20100000E+01  1.20100000E+01  1.00800000E+00  1.00800000E+00  1.00800000E+00
  1.00800000E+00  1.00800000E+00  1.00800000E+00  1.00800000E+00  1.00800000E+00
  1.00800000E+00  1.00800000E+00  1.00800000E+00  1.00800000E+00
%FLAG ATOM_TYPE_INDEX                                                           
%FORMAT(10I8)                                                                   
       1       2       2       2       3       3       4       5       6       6
       6       6       6       7       7       7       7       8       8       9
       8       8       8      10      10      11      10      12      13
%FLAG NUMBER_EXCLUDED_ATOMS                                                     
%FORMAT(10I8)                                                                   
      17      10       9       7       7       7      14       7      12      11
      11       9       5       6       5       4       3       3       2       1
       2       2       1       1       1       1       1       1       1
%FLAG NONBONDED_PARM_INDEX                                                      
%FORMAT(10I8)                                                                   
       1       2       4       7      11      16      22      29      37      46
      56      67      79       2       3       5       8      12      17      23
      30      38      47      57      68      80       4       5       6       9
      13      18      24      31      39      48      58      69      81       7
       8       9      10      14      19      25      32      40      49      59
      70      82      11      12      13      14      15      20      26      33
      41      50      60      71      83      16      17      18      19      20
      21      27      34      42      51      61      72      84      22      23
      24      25      26      27      28      35      43      52      62      73
      85      29      30      31      32      33      34      35      36      44
      53      63      74      86      37      38      39      40      41      42
      43      44      45      54      64      75      87      46      47      48
      49      50      51      52      53      54      55      65      76      88
      56      57      58      59      60      61      62      63      64      65
      66      77      89      67      68      69      70      71      72      73
      74      75      76      77      78      90      79      80      81      82
      83      84      85      86      87      88      89      90      91
%FLAG RESIDUE_LABEL                                                             
%FORMAT(20a4)                                                                   
U1  
%FLAG RESIDUE_POINTER                                                           
%FORMAT(10I8)                                                                   
       1
%FLAG BOND_FORCE_CONSTANT                                                       
%FORMAT(5E16.8)                                                                 
  2.75610000E+02  2.89690000E+02  5.35510000E+02  2.85150000E+02  5.90600000E+02
  2.51070000E+02  3.17460000E+02  3.31660000E+02  3.36070000E+02  4.73590000E+02
  2.20100000E+02  3.43780000E+02  3.46280000E+02  2.27640000E+02  3.44220000E+02
  3.86240000E+02  3.68720000E+02  2.78120000E+02  3.64600000E+02
%FLAG BOND_EQUIL_VALUE                                                          
%FORMAT(5E16.8)                                                                 
  1.43460000E+00  1.41940000E+00  9.72500000E-01  1.42420000E+00  1.21900000E+00
  1.46850000E+00  1.39670000E+00  1.38370000E+00  1.37980000E+00  1.01320000E+00
  1.54830000E+00  1.09720000E+00  1.09550000E+00  1.53720000E+00  1.09690000E+00
  1.37300000E+00  1.08090000E+00  1.47280000E+00  1.08350000E+00
%FLAG ANGLE_FORCE_CONSTANT                                                      
%FORMAT(5E16.8)                                                                 
  8.34900000E+01  7.74300000E+01  5.62000000E+01  7.67500000E+01  5.64400000E+01
  7.58300000E+01  5.64700000E+01  7.66700000E+01  5.62900000E+01  8.66800000E+01
  8.72100000E+01  7.83100000E+01  6.73400000E+01  4.86200000E+01  7.40500000E+01
  6.79700000E+01  4.91300000E+01  6.84100000E+01  6.54000000E+01  6.18400000E+01
  4.26500000E+01  4.27800000E+01  5.93300000E+01  8.96100000E+01  7.72200000E+01
  7.70800000E+01  4.32800000E+01  6.51300000E+01  4.33100000E+01  7.86400000E+01
  7.72200000E+01  5.73700000E+01  6.21000000E+01  4.52500000E+01  4.39500000E+01
  4.36500000E+01  3.56400000E+01
%FLAG ANGLE_EQUIL_VALUE                                                         
%FORMAT(5E16.8)                                                                 
  1.90572583E+00  1.85249326E+00  1.91061275E+00  1.90188610E+00  1.89298492E+00
  1.94813735E+00  1.92457539E+00  1.91724501E+00  1.92649525E+00  2.13925098E+00
  2.14762857E+00  2.15914774E+00  1.80920908E+00  1.84830447E+00  1.99613392E+00
  2.13279326E+00  2.00747857E+00  1.95826026E+00  1.87047016E+00  1.81217614E+00
  1.94028336E+00  1.92911325E+00  1.98269488E+00  1.90694756E+00  2.06821605E+00
  2.09247614E+00  1.90904195E+00  1.87430989E+00  1.90659849E+00  2.12249581E+00
  2.23489507E+00  2.04657396E+00  2.11743436E+00  2.12406661E+00  2.25339556E+00
  2.03121505E+00  1.89455572E+00
%FLAG DIHEDRAL_FORCE_CONSTANT                                                   
%FORMAT(5E16.8)                                                                 
  0.00000000E+00  2.49000000E+00  1.15000000E+00  4.30000000E-01  5.90000000E-01
  1.26000000E+00  7.90000000E-01  1.55555556E-01  2.50000000E-01  0.00000000E+00
  1.00000000E+00  1.44000000E+00  1.80000000E-01  1.01000000E-01  2.50000000E+00
  2.00000000E+00  2.87500000E+00  3.83333333E-01  1.00000000E-01  4.00000000E+00
  6.00000000E-02  5.20000000E-01  8.80000000E-01  8.00000000E-02  7.50000000E-01
  2.26000000E+00  3.00000000E-02  6.50000000E-01  3.37000000E-01  1.65000000E+00
  1.23000000E-01  1.10000000E+00  1.05000000E+01
%FLAG DIHEDRAL_PERIODICITY                                                      
%FORMAT(5E16.8)                                                                 
  2.00000000E+00  1.00000000E+00  2.00000000E+00  3.00000000E+00  1.00000000E+00
  2.00000000E+00  3.00000000E+00  3.00000000E+00  1.00000000E+00  3.00000000E+00
  1.00000000E+00  3.00000000E+00  3.00000000E+00  3.00000000E+00  2.00000000E+00
  1.00000000E+00  2.00000000E+00  3.00000000E+00  3.00000000E+00  2.00000000E+00
  3.00000000E+00  3.00000000E+00  1.00000000E+00  2.00000000E+00  3.00000000E+00
  1.00000000E+00  3.00000000E+00  4.00000000E+00  3.00000000E+00  2.00000000E+00
  3.00000000E+00  2.00000000E+00  2.00000000E+00
%FLAG DIHEDRAL_PHASE                                                            
%FORMAT(5E16.8)                                                                 
  0.00000000E+00  0.00000000E+00  0.00000000E+00  0.00000000E+00  0.00000000E+00
  0.00000000E+00  0.00000000E+00  0.00000000E+00  0.00000000E+00  0.00000000E+00
  0.00000000E+00  0.00000000E+00  0.00000000E+00  0.00000000E+00  3.14159400E+00
  0.00000000E+00  3.14159400E+00  0.00000000E+00  0.00000000E+00  3.14159400E+00
  0.00000000E+00  0.00000000E+00  3.14159400E+00  0.00000000E+00  0.00000000E+00
  0.00000000E+00  3.14159400E+00  3.14159400E+00  0.00000000E+00  3.14159400E+00
  0.00000000E+00  3.14159400E+00  3.14159400E+00
%FLAG SCEE_SCALE_FACTOR                                                         
%FORMAT(5E16.8)                                                                 
  1.20000000E+00  1.20000000E+00  1.20000000E+00  1.20000000E+00  1.20000000E+00
  1.20000000E+00  1.20000000E+00  1.20000000E+00  1.20000000E+00  1.20000000E+00
  1.20000000E+00  1.20000000E+00  1.20000000E+00  1.20000000E+00  1.20000000E+00
  1.20000000E+00  1.20000000E+00  1.20000000E+00  1.20000000E+00  1.20000000E+00
  1.20000000E+00  1.20000000E+00  1.20000000E+00  1.20000000E+00  1.20000000E+00
  1.20000000E+00  1.20000000E+00  1.20000000E+00  1.20000000E+00  1.20000000E+00
  1.20000000E+00  0.00000000E+00  0.00000000E+00
%FLAG SCNB_SCALE_FACTOR                                                         
%FORMAT(5E16.8)                                                                 
  2.00000000E+00  2.00000000E+00  2.00000000E+00  2.00000000E+00  2.00000000E+00
  2.00000000E+00  2.00000000E+00  2.00000000E+00  2.00000000E+00  2.00000000E+00
  2.00000000E+00  2.00000000E+00  2.00000000E+00  2.00000000E+00  2.00000000E+00
  2.00000000E+00  2.00000000E+00  2.00000000E+00  2.00000000E+00  2.00000000E+00
  2.00000000E+00  2.00000000E+00  2.00000000E+00  2.00000000E+00  2.00000000E+00
  2.00000000E+00  2.00000000E+00  2.00000000E+00  2.00000000E+00  2.00000000E+00
  2.00000000E+00  0.00000000E+00  0.00000000E+00
%FLAG SOLTY                                                                     
%FORMAT(5E16.8)                                                                 
  0.00000000E+00  0.00000000E+00  0.00000000E+00  0.00000000E+00  0.00000000E+00
  0.00000000E+00  0.00000000E+00  0.00000000E+00  0.00000000E+00  0.00000000E+00
  0.00000000E+00  0.00000000E+00  0.00000000E+00  0.00000000E+00  0.00000000E+00
  0.00000000E+00
%FLAG LENNARD_JONES_ACOEF                                                       
%FORMAT(5E16.8)                                                                 
  2.83662575E+05  3.78207390E+05  5.03152404E+05  3.27367585E+05  4.37717034E+05
  3.76435470E+05  4.46307018E+05  5.94682930E+05  5.15491878E+05  7.02078680E+05
  4.47026838E+05  5.94304835E+05  5.17814271E+05  7.02755693E+05  7.01825028E+05
  5.42502534E+05  7.18991463E+05  6.30925504E+05  8.52084164E+05  8.48258258E+05
  1.02073671E+06  4.46121722E+05  5.92438683E+05  5.17507491E+05  7.01106848E+05
  6.99381362E+05  8.43969952E+05  6.96551276E+05  3.44374471E+04  4.69084694E+04
  3.86646725E+04  5.45183252E+04  5.58085097E+04  6.97998263E+04  5.63013422E+04
  3.39005767E+03  2.33261683E+04  3.19666529E+04  2.59855087E+04  3.69926172E+04
  3.81023323E+04  4.80619274E+04  3.85565555E+04  2.16218723E+03  1.35510742E+03
  1.16469347E+02  1.74176419E+02  1.15813907E+02  1.89434762E+02  2.13197010E+02
  3.03553352E+02  2.25372434E+02  4.36660257E+00  2.07292270E+00  1.10360882E-05
  3.86549715E+04  5.24591488E+04  4.36069364E+04  6.11299385E+04  6.23418310E+04
  7.75673747E+04  6.27751680E+04  3.94664935E+03  2.54392426E+03  6.05535196E+00
  4.56536476E+03  9.46795083E+02  1.36475542E+03  9.87857350E+02  1.52360475E+03
  1.65195713E+03  2.23577481E+03  1.71458823E+03  5.24570081E+01  2.81680913E+01
  2.61760843E-03  6.76796831E+01  1.34728399E-01  4.65732396E+04  6.30298721E+04
  5.27277400E+04  7.35931098E+04  7.48403283E+04  9.27554496E+04  7.52549148E+04
  4.88692384E+03  3.17496391E+03  8.53132435E+00  5.62610481E+03  9.04434904E+01
  6.90855956E+03
%FLAG LENNARD_JONES_BCOEF                                                       
%FORMAT(5E16.8)                                                                 
  2.87011518E+02  3.52573684E+02  4.32634597E+02  3.67361018E+02  4.51916854E+02
  4.69350655E+02  4.41089616E+02  5.41675626E+02  5.64804067E+02  6.77820248E+02
  4.06301077E+02  4.98393522E+02  5.21008860E+02  6.24158704E+02  5.74088001E+02
  4.38146883E+02  5.36620538E+02  5.62969425E+02  6.72777963E+02  6.17825399E+02
  6.63431737E+02  3.88758656E+02  4.76608379E+02  4.98871431E+02  5.97113873E+02
  5.48900066E+02  5.90251928E+02  5.24668528E+02  7.31636661E+01  9.08431526E+01
  9.23664132E+01  1.12788003E+02  1.05029928E+02  1.14981426E+02  1.01040256E+02
  1.67944276E+01  6.02145835E+01  7.49920368E+01  7.57220777E+01  9.29071597E+01
  8.67837942E+01  9.54115851E+01  8.36149973E+01  1.34124560E+01  1.06181419E+01
  2.93355636E+00  3.81654050E+00  3.48534600E+00  4.58384710E+00  4.47571103E+00
  5.22789272E+00  4.40751799E+00  4.15568027E-01  2.86326700E-01  4.55498033E-04
  7.27065100E+01  9.01089277E+01  9.20079458E+01  1.12023534E+02  1.04122183E+02
  1.13692208E+02  1.00073628E+02  1.69967767E+01  1.36459692E+01  4.59018960E-01
  1.71467049E+01  1.01016461E+01  1.29026271E+01  1.22938581E+01  1.57004457E+01
  1.50468782E+01  1.71355763E+01  1.46824710E+01  1.73959275E+00  1.27474859E+00
  8.47240681E-03  1.85338491E+00  7.34107347E-02  7.98066064E+01  9.87712192E+01
  1.01173582E+02  1.22913863E+02  1.14083104E+02  1.24325688E+02  1.09570372E+02
  1.89134207E+01  1.52447987E+01  5.44840215E-01  1.90347353E+01  2.14252117E+00
  2.10929191E+01
%FLAG BONDS_INC_HYDROGEN                                                        
%FORMAT(10I8)                                                                   
       3      69       3       6      72       3       9      78       3      21
      81      10      24      51      12      27      54      12      30      57
      13      33      60      12      36      63      15      36      66      15
      42      75      17      45      84      19
%FLAG BONDS_WITHOUT_HYDROGEN                                                    
%FORMAT(10I8)                                                                   
       0      30       1       0      33       1       3      24       2       6
      27       2       9      36       4      12      39       5      15      48
       5      18      30       6      18      39       7      18      42       8
      21      39       9      21      48       9      24      27      11      24
      30      11      27      33      11      33      36      14      42      45
      16      45      48      18
%FLAG ANGLES_INC_HYDROGEN                                                       
%FORMAT(10I8)                                                                   
       0      30      57       3       0      33      60       5       3      24
      51       7       6      27      54       7       9      36      63       9
       9      36      66       9      18      30      57      14      18      42
      75      17      24       3      69      19      24      27      54      21
      24      30      57      22      27       6      72      19      27      24
      51      21      27      33      60      21      30      24      51      21
      33      27      54      21      33      36      63      27      33      36
      66      27      36       9      78      28      36      33      60      29
      39      21      81      32      42      45      84      34      45      42
      75      35      48      21      81      32      48      45      84      36
      63      36      66      37
%FLAG ANGLES_WITHOUT_HYDROGEN                                                   
%FORMAT(10I8)                                                                   
       0      30      18       1       0      30      24       2       0      33
      27       2       0      33      36       4       3      24      27       6
       3      24      30       6       6      27      24       6       6      27
      33       6       9      36      33       8      12      39      18      10
      12      39      21      11      15      48      21      11      15      48
      45      12      18      30      24      13      18      39      21      15
      18      42      45      16      21      48      45      18      24      27
      33      20      27      24      30      20      27      33      36      23
      30       0      33      24      30      18      39      25      30      18
      42      26      39      18      42      30      39      21      48      31
      42      45      48      33
%FLAG DIHEDRALS_INC_HYDROGEN                                                    
%FORMAT(10I8)                                                                   
       0      30      24      51       9       0      30     -24      51      10
       0      33      27      54       9       0      33     -27      54      10
       0      33      36      63       9       0      33     -36      63      10
       0      33      36      66       9       0      33     -36      66      10
       3      24      27      54       9       3      24     -27      54      10
       3      24      30      57       8       6      27      24      51       9
       6      27     -24      51      10       6      27      33      60       9
       6      27     -33      60      10       9      36      33      60       9
       9      36     -33      60      10      12      39      21      81      16
      12      39     -21      81      15      15      48      21      81      16
      15      48     -21      81      15      15      48      45      84      17
      18      30      24      51       8      18      39      21      81      15
      18      42      45      84      20      21      48      45      84      17
      24      27       6      72      21      24      27      33      60       8
      27      24       3      69      21      27      24      30      57       8
      27      33      36      63       8      27      33      36      66       8
      30       0      33      60      29      30      18      42      75      30
      30      24       3      69      21      30      24      27      54       8
      33       0      30      57      18      33      27       6      72      21
      33      27      24      51       8      33      36       9      78      21
      36      33      27      54       8      39      18      30      57       1
      39      18      42      75      30      42      18      30      57       1
      45      48      21      81      15      48      45      42      75      20
      51      24       3      69      31      51      24      27      54       8
      51      24      30      57       8      54      27       6      72      31
      54      27      33      60       8      60      33      36      63       8
      60      33      36      66       8      63      36       9      78      31
      66      36       9      78      31      75      42      45      84      20
      39      48     -21     -81      32      45      75     -42     -18      32
      48      42     -45     -84      32
%FLAG DIHEDRALS_WITHOUT_HYDROGEN                                                
%FORMAT(10I8)                                                                   
       0      30      18      39       1       0      30      18      42       2
       0      30     -18      42       3       0      30     -18      42       4
       0      30      24       3       5       0      30     -24       3       6
       0      30     -24       3       7       0      30     -24      27       8
       0      33      27       6       5       0      33     -27       6       6
       0      33     -27       6       7       0      33     -27      24       8
       0      33      36       9       5       0      33     -36       9       6
       0      33     -36       9       7       3      24      27       6      11
       3      24     -27       6      12       3      24      27      33      13
       3      24      30      18      14       6      27      24      30      13
       6      27      33      36      13       9      36      33      27      13
      12      39      18      30      15      12      39      18      42      15
      12      39      21      48      15      15      48      21      39      15
      15      48      45      42      17      33       0      30      18      18
      18      30      24      27      19      18      39      21      48      15
      18      42     -45      48      20      21      39      18      30      15
      21      39      18      42      15      21      48     -45      42      17
      24      27      33      36      22      33       0     -30      24      23
      33       0     -30      24      24      33       0     -30      24      25
      24      30      18      39      26      24      30     -18      39      27
      24      30     -18      39      28      24      30      18      42       1
      30       0     -33      27      23      30       0     -33      27      24
      30       0     -33      27      25      30       0      33      36      23
      30       0     -33      36      24      30       0     -33      36      25
      30      18      42      45      30      30      24     -27      33      22
      39      18      42      45      30      39      21     -48      45      15
      39      30     -18     -42      32      18      21     -39     -12      33
      45      21     -48     -15      33
%FLAG EXCLUDED_ATOMS_LIST                                                       
%FORMAT(10I8)                                                                   
       2       3       4       7       9      10      11      12      13      14
      15      18      19      20      21      22      23       3       7       9
      10      11      12      18      19      20      24       9      10      11
      12      13      18      19      21      25      10      12      13      21
      22      23      27       7       8      11      14      15      17      28
       8      14      15      16      17      28      29       8       9      10
      11      12      14      15      16      17      18      20      26      28
      29      11      14      15      16      17      28      29      10      11
      12      13      14      15      18      19      20      21      24      25
      11      12      13      18      19      20      21      22      23      24
      25      12      13      14      15      16      18      19      20      21
      24      26      13      18      19      20      21      22      23      25
      27      19      21      22      23      27      15      16      17      20
      26      28      16      17      20      26      29      17      26      28
      29      26      28      29      19      20      24      21      25       0
      22      23      23      27      27       0       0      29       0       0
       0
%FLAG HBOND_ACOEF                                                               
%FORMAT(5E16.8)                                                                 

%FLAG HBOND_BCOEF                                                               
%FORMAT(5E16.8)                                                                 

%FLAG HBCUT                                                                     
%FORMAT(5E16.8)                                                                 

%FLAG AMBER_ATOM_TYPE                                                           
%FORMAT(20a4)                                                                   
os  oh  oh  oh  o   o   n   ns  c5  c5  c5  c5  c3  c   cc  cd  c   h1  h1  h2  
h1  h1  h1  ho  ho  h4  ho  hn  ha  
%FLAG TREE_CHAIN_CLASSIFICATION                                                 
%FORMAT(20a4)                                                                   
BLA BLA BLA BLA BLA BLA BLA BLA BLA BLA BLA BLA BLA BLA BLA BLA BLA BLA BLA BLA 
BLA BLA BLA BLA BLA BLA BLA BLA BLA 
%FLAG JOIN_ARRAY                                                                
%FORMAT(10I8)                                                                   
       0       0       0       0       0       0       0       0       0       0
       0       0       0       0       0       0       0       0       0       0
       0       0       0       0       0       0       0       0       0
%FLAG IROTAT                                                                    
%FORMAT(10I8)                                                                   
       0       0       0       0       0       0       0       0       0       0
       0       0       0       0       0       0       0       0       0       0
       0       0       0       0       0       0       0       0       0
%FLAG RADIUS_SET                                                                
%FORMAT(1a80)                                                                   
modified Bondi radii (mbondi)                                                   
%FLAG RADII                                                                     
%FORMAT(5E16.8)                                                                 
  1.50000000E+00  1.50000000E+00  1.50000000E+00  1.50000000E+00  1.50000000E+00
  1.50000000E+00  1.55000000E+00  1.55000000E+00  1.70000000E+00  1.70000000E+00
  1.70000000E+00  1.70000000E+00  1.70000000E+00  1.70000000E+00  1.70000000E+00
  1.70000000E+00  1.70000000E+00  1.30000000E+00  1.30000000E+00  1.30000000E+00
  1.30000000E+00  1.30000000E+00  1.30000000E+00  8.00000000E-01  8.00000000E-01
  1.30000000E+00  8.00000000E-01  1.30000000E+00  1.30000000E+00
%FLAG SCREEN                                                                    
%FORMAT(5E16.8)                                                                 
  8.50000000E-01  8.50000000E-01  8.50000000E-01  8.50000000E-01  8.50000000E-01
  8.50000000E-01  7.90000000E-01  7.90000000E-01  7.20000000E-01  7.20000000E-01
  7.20000000E-01  7.20000000E-01  7.20000000E-01  7.20000000E-01  7.20000000E-01
  7.20000000E-01  7.20000000E-01  8.50000000E-01  8.50000000E-01  8.50000000E-01
  8.50000000E-01  8.50000000E-01  8.50000000E-01  8.50000000E-01  8.50000000E-01
  8.50000000E-01  8.50000000E-01  8.50000000E-01  8.50000000E-01
%FLAG IPOL                                                                      
%FORMAT(1I8)                                                                    
       0
