6029
    29
  -1.3650000  -0.5410000   1.0220000  -1.2430000   2.3470000  -1.1010000
  -3.4090000   1.5470000   0.3500000  -2.3210000  -3.0730000   0.2880000
   1.5410000   2.3480000   0.7090000   4.5490000  -0.9630000  -0.4010000
   0.7130000   0.2100000   0.2590000   3.0370000   0.6980000   0.1560000
  -1.3670000   0.9710000  -0.8020000  -2.7970000   0.5760000  -0.4990000
  -0.6540000   0.5850000   0.4820000  -2.6100000  -0.7010000   0.3080000
  -2.5030000  -1.9500000  -0.5570000   1.7410000   1.1720000   0.3980000
   1.0250000  -1.0980000  -0.0940000   2.2650000  -1.5350000  -0.3220000
   3.3970000  -0.5940000  -0.1980000  -0.9990000   0.3960000  -1.6600000
  -3.4240000   0.4670000  -1.3870000  -0.6900000   1.3960000   1.2190000
  -3.3920000  -0.8360000   1.0640000  -1.6680000  -1.9070000  -1.2610000
  -3.4270000  -2.0950000  -1.1260000  -0.2950000   2.5390000  -1.2000000
  -2.9270000   1.5810000   1.1930000   0.2130000  -1.8040000  -0.1870000
  -2.2680000  -3.8570000  -0.2850000   3.7920000   1.3720000   0.2500000
   2.4710000  -2.5630000  -0.5940000
