uridine_GMX.gro created by acpype (v: 2023.10.27) on Mon Feb  9 18:01:11 2026
 29
    1   U1  O4*    1  -0.137  -0.054   0.102
    1   U1  O2*    2  -0.124   0.235  -0.110
    1   U1  O3*    3  -0.341   0.155   0.035
    1   U1  O5*    4  -0.232  -0.307   0.029
    1   U1   O2    5   0.154   0.235   0.071
    1   U1   O4    6   0.455  -0.096  -0.040
    1   U1   N1    7   0.071   0.021   0.026
    1   U1   N3    8   0.304   0.070   0.016
    1   U1  C2*    9  -0.137   0.097  -0.080
    1   U1  C3*   10  -0.280   0.058  -0.050
    1   U1  C1*   11  -0.065   0.058   0.048
    1   U1  C4*   12  -0.261  -0.070   0.031
    1   U1  C5*   13  -0.250  -0.195  -0.056
    1   U1   C2   14   0.174   0.117   0.040
    1   U1   C6   15   0.102  -0.110  -0.009
    1   U1   C5   16   0.227  -0.153  -0.032
    1   U1   C4   17   0.340  -0.059  -0.020
    1   U1  H2*   18  -0.100   0.040  -0.166
    1   U1  H3*   19  -0.342   0.047  -0.139
    1   U1  H1*   20  -0.069   0.140   0.122
    1   U1  H4*   21  -0.339  -0.084   0.106
    1   U1 H5*1   22  -0.167  -0.191  -0.126
    1   U1 H5*2   23  -0.343  -0.210  -0.113
    1   U1   H7   24  -0.029   0.254  -0.120
    1   U1   H8   25  -0.293   0.158   0.119
    1   U1   H6   26   0.021  -0.180  -0.019
    1   U1  H5*   27  -0.227  -0.386  -0.028
    1   U1   H3   28   0.379   0.137   0.025
    1   U1   H5   29   0.247  -0.256  -0.059
   15.95200    12.79200     5.75800
