; uridine_GMX_OPLS.top created by acpype (v: 2023.10.27) on Mon Feb  9 18:01:11 2026

; Include forcefield parameters
#include "ffoplsaa.itp"

; Include uridine_GMX.itp topology
#include "uridine_GMX.itp"

; Ligand position restraints
#ifdef POSRES_LIG
#include "posre_uridine.itp"
#endif

[ system ]
 uridine

[ molecules ]
; Compound        nmols
 uridine          1     
