; arginine_GMX_OPLS.top created by acpype (v: 2023.10.27) on Mon Feb  9 17:29:07 2026

; Include forcefield parameters
#include "ffoplsaa.itp"

; Include arginine_GMX.itp topology
#include "arginine_GMX.itp"

; Ligand position restraints
#ifdef POSRES_LIG
#include "posre_arginine.itp"
#endif

[ system ]
 arginine

[ molecules ]
; Compound        nmols
 arginine         1     
