arginine_GMX.gro created by acpype (v: 2023.10.27) on Mon Feb  9 17:29:07 2026
 26
    1  ARG    O    1  -0.230  -0.195  -0.020
    1  ARG  OXT    2  -0.344  -0.053   0.115
    1  ARG    N    3  -0.289   0.160  -0.033
    1  ARG   NE    4   0.196  -0.024   0.005
    1  ARG  NH1    5   0.392  -0.142  -0.035
    1  ARG  NH2    6   0.414   0.076   0.028
    1  ARG   CB    7  -0.077   0.049  -0.087
    1  ARG   CG    8  -0.017   0.088   0.049
    1  ARG   CA    9  -0.230   0.036  -0.081
    1  ARG   CD   10   0.135   0.103   0.044
    1  ARG    C   11  -0.275  -0.072   0.016
    1  ARG   CZ   12   0.326  -0.026   0.001
    1  ARG  HB1   13  -0.034  -0.045  -0.122
    1  ARG  HB2   14  -0.050   0.125  -0.161
    1  ARG  HG1   15  -0.059   0.182   0.085
    1  ARG  HG2   16  -0.042   0.011   0.124
    1  ARG   HA   17  -0.270   0.012  -0.180
    1  ARG  HD1   18   0.160   0.182  -0.028
    1  ARG  HD2   19   0.170   0.134   0.143
    1  ARG   H1   20  -0.391   0.154  -0.039
    1  ARG   H2   21  -0.262   0.237  -0.095
    1  ARG    H   22  -0.260  -0.265   0.042
    1  ARG HH11   23   0.341  -0.226  -0.058
    1  ARG HH12   24   0.493  -0.146  -0.039
    1  ARG HH21   25   0.514   0.062   0.021
    1  ARG HH22   26   0.382   0.169   0.056
   18.09400    10.03400     6.46800
