6322
    26
  -2.3030000  -1.9540000  -0.2040000  -3.4440000  -0.5310000   1.1470000
  -2.8920000   1.6020000  -0.3340000   1.9640000  -0.2360000   0.0500000
   3.9180000  -1.4170000  -0.3500000   4.1370000   0.7630000   0.2810000
  -0.7700000   0.4930000  -0.8700000  -0.1710000   0.8750000   0.4920000
  -2.2990000   0.3560000  -0.8130000   1.3450000   1.0330000   0.4370000
  -2.7460000  -0.7210000   0.1590000   3.2600000  -0.2630000   0.0060000
  -0.3370000  -0.4540000  -1.2150000  -0.4990000   1.2540000  -1.6130000
  -0.5950000   1.8210000   0.8470000  -0.4190000   0.1090000   1.2370000
  -2.7020000   0.1200000  -1.8040000   1.6010000   1.8200000  -0.2820000
   1.6950000   1.3400000   1.4300000  -3.9080000   1.5420000  -0.3880000
  -2.6210000   2.3690000  -0.9490000  -2.6030000  -2.6480000   0.4210000
   3.4060000  -2.2610000  -0.5820000   4.9310000  -1.4590000  -0.3900000
   5.1390000   0.6250000   0.2130000   3.8210000   1.6860000   0.5560000
