; arginine_GMX_OPLS.itp created by acpype (v: 2023.10.27) on Mon Feb  9 17:29:07 2026

; For OPLS atomtypes manual fine tuning
; AC_at:OPLS_at:OPLScode: Possible_Alternatives (see ffoplsaa.atp and ffoplsaanb.itp)
; oh:OH:opls_154: ['167']
; o:O:opls_236: ['272']
; n8:x:opls_x: []
; n2:x:opls_x: []
; nv:x:opls_x: []
; c3:CT:opls_135: ['136', '137', '149', '157', '158', '206', '209', '210', '223B', '224B', '245', '246', '274', '283', '284', '285', '292', '292B', '293B', '296', '307', '308', '505']
; c:C:opls_235: ['271']
; c2:CR:opls_509: ['510']
; hc:HC:opls_140: []
; h1:HC:opls_140: []
; hn:H:opls_240: ['241', '290', '301', '304', '310', '504', '513']
; ho:HO:opls_155: ['168']

[ moleculetype ]
;name            nrexcl
 arginine         3

[ atoms ]
;   nr  type  resi  res  atom  cgnr     charge      mass       ; qtot   bond_type
     1 opls_154     1   ARG     O    1    -0.599100     15.99940 ; qtot -0.599  OH  
     2 opls_236     1   ARG   OXT    2    -0.565000     15.99940 ; qtot -1.164  O   
     3 opls_x     1   ARG     N    3    -0.894800      0.00000 ; qtot -2.059  x   
     4 opls_x     1   ARG    NE    4    -0.713900      0.00000 ; qtot -2.773  x   
     5 opls_x     1   ARG   NH1    5    -0.900300      0.00000 ; qtot -3.673  x   
     6 opls_x     1   ARG   NH2    6    -0.900300      0.00000 ; qtot -4.573  x   
     7 opls_135     1   ARG    CB    7    -0.073400     12.01100 ; qtot -4.647  CT  
     8 opls_135     1   ARG    CG    8    -0.073400     12.01100 ; qtot -4.720  CT  
     9 opls_135     1   ARG    CA    9     0.136500     12.01100 ; qtot -4.584  CT  
    10 opls_135     1   ARG    CD   10     0.137800     12.01100 ; qtot -4.446  CT  
    11 opls_235     1   ARG     C   11     0.590100     12.01100 ; qtot -3.856  C   
    12 opls_509     1   ARG    CZ   12     0.736100     12.01100 ; qtot -3.120  CR  
    13 opls_140     1   ARG   HB1   13     0.067700      1.00800 ; qtot -3.052  HC  
    14 opls_140     1   ARG   HB2   14     0.067700      1.00800 ; qtot -2.984  HC  
    15 opls_140     1   ARG   HG1   15     0.050700      1.00800 ; qtot -2.934  HC  
    16 opls_140     1   ARG   HG2   16     0.050700      1.00800 ; qtot -2.883  HC  
    17 opls_140     1   ARG    HA   17     0.089700      1.00800 ; qtot -2.793  HC  
    18 opls_140     1   ARG   HD1   18     0.027200      1.00800 ; qtot -2.766  HC  
    19 opls_140     1   ARG   HD2   19     0.027200      1.00800 ; qtot -2.739  HC  
    20 opls_240     1   ARG    H1   20     0.362800      1.00800 ; qtot -2.376  H   
    21 opls_240     1   ARG    H2   21     0.362800      1.00800 ; qtot -2.013  H   
    22 opls_155     1   ARG     H   22     0.443000      1.00800 ; qtot -1.570  HO  
    23 opls_240     1   ARG  HH11   23     0.392550      1.00800 ; qtot -1.178  H   
    24 opls_240     1   ARG  HH12   24     0.392550      1.00800 ; qtot -0.785  H   
    25 opls_240     1   ARG  HH21   25     0.392550      1.00800 ; qtot -0.393  H   
    26 opls_240     1   ARG  HH22   26     0.392550      1.00800 ; qtot -0.000  H   

[ bonds ]
;   ai     aj funct   r             k
     1     11   1 ;    1.3556e-01    3.0064e+05 ;      O - C          OH - C     
     1     22   1 ;    9.7250e-02    4.4811e+05 ;      O - H          OH - HO    
     2     11   1 ;    1.2190e-01    4.9421e+05 ;    OXT - C           O - C     
     3      9   1 ;    1.4651e-01    2.1239e+05 ;      N - CA          x - CT    
     3     20   1 ;    1.0192e-01    3.8550e+05 ;      N - H1          x - H     
     3     21   1 ;    1.0192e-01    3.8550e+05 ;      N - H2          x - H     
     4     10   1 ;    1.4566e-01    2.1825e+05 ;     NE - CD          x - CT    
     4     12   1 ;    1.2809e-01    3.9831e+05 ;     NE - CZ          x - CR    
     5     12   1 ;    1.3901e-01    2.7161e+05 ;    NH1 - CZ          x - CR    
     5     23   1 ;    1.0114e-01    3.9961e+05 ;    NH1 - HH11        x - H     
     5     24   1 ;    1.0114e-01    3.9961e+05 ;    NH1 - HH12        x - H     
     6     12   1 ;    1.3901e-01    2.7161e+05 ;    NH2 - CZ          x - CR    
     6     25   1 ;    1.0114e-01    3.9961e+05 ;    NH2 - HH21        x - H     
     6     26   1 ;    1.0114e-01    3.9961e+05 ;    NH2 - HH22        x - H     
     7      8   1 ;    1.5354e-01    1.9154e+05 ;     CB - CG         CT - CT    
     7      9   1 ;    1.5354e-01    1.9154e+05 ;     CB - CA         CT - CT    
     7     13   1 ;    1.0962e-01    2.8891e+05 ;     CB - HB1        CT - HC    
     7     14   1 ;    1.0962e-01    2.8891e+05 ;     CB - HB2        CT - HC    
     8     10   1 ;    1.5354e-01    1.9154e+05 ;     CG - CD         CT - CT    
     8     15   1 ;    1.0962e-01    2.8891e+05 ;     CG - HG1        CT - HC    
     8     16   1 ;    1.0962e-01    2.8891e+05 ;     CG - HG2        CT - HC    
     9     11   1 ;    1.5270e-01    1.9652e+05 ;     CA - C          CT - C     
     9     17   1 ;    1.0969e-01    2.8804e+05 ;     CA - HA         CT - HC    
    10     18   1 ;    1.0969e-01    2.8804e+05 ;     CD - HD1        CT - HC    
    10     19   1 ;    1.0969e-01    2.8804e+05 ;     CD - HD2        CT - HC    

[ pairs ]
;   ai     aj    funct
     1      3      1 ;      O - N     
     1      7      1 ;      O - CB    
     1     17      1 ;      O - HA    
     2      3      1 ;    OXT - N     
     2      7      1 ;    OXT - CB    
     2     17      1 ;    OXT - HA    
     3      8      1 ;      N - CG    
     3     13      1 ;      N - HB1   
     3     14      1 ;      N - HB2   
     4      7      1 ;     NE - CB    
     4     15      1 ;     NE - HG1   
     4     16      1 ;     NE - HG2   
     4     23      1 ;     NE - HH11  
     4     24      1 ;     NE - HH12  
     4     25      1 ;     NE - HH21  
     4     26      1 ;     NE - HH22  
     5     10      1 ;    NH1 - CD    
     5     25      1 ;    NH1 - HH21  
     5     26      1 ;    NH1 - HH22  
     6     10      1 ;    NH2 - CD    
     6     23      1 ;    NH2 - HH11  
     6     24      1 ;    NH2 - HH12  
     7     18      1 ;     CB - HD1   
     7     19      1 ;     CB - HD2   
     7     20      1 ;     CB - H1    
     7     21      1 ;     CB - H2    
     8     11      1 ;     CG - C     
     8     12      1 ;     CG - CZ    
     8     17      1 ;     CG - HA    
     9     10      1 ;     CA - CD    
     9     15      1 ;     CA - HG1   
     9     16      1 ;     CA - HG2   
    10     13      1 ;     CD - HB1   
    10     14      1 ;     CD - HB2   
    11     13      1 ;      C - HB1   
    11     14      1 ;      C - HB2   
    11     20      1 ;      C - H1    
    11     21      1 ;      C - H2    
    12     18      1 ;     CZ - HD1   
    12     19      1 ;     CZ - HD2   
    13     15      1 ;    HB1 - HG1   
    13     16      1 ;    HB1 - HG2   
    13     17      1 ;    HB1 - HA    
    14     15      1 ;    HB2 - HG1   
    14     16      1 ;    HB2 - HG2   
    14     17      1 ;    HB2 - HA    
    15     18      1 ;    HG1 - HD1   
    15     19      1 ;    HG1 - HD2   
    16     18      1 ;    HG2 - HD1   
    16     19      1 ;    HG2 - HD2   
    17     20      1 ;     HA - H1    
    17     21      1 ;     HA - H2    
    22      2      1 ;      H - OXT   
    22      9      1 ;      H - CA    

[ angles ]
;   ai     aj     ak    funct   theta         cth
     1     11      2      1 ;    1.2209e+02    8.5379e+02 ;      O - C    - OXT      OH -    C - O   
     1     11      9      1 ;    1.1274e+02    6.4785e+02 ;      O - C    - CA       OH -    C - CT  
     2     11      9      1 ;    1.2290e+02    6.3973e+02 ;    OXT - C    - CA        O -    C - CT  
     3      9      7      1 ;    1.1091e+02    5.4794e+02 ;      N - CA   - CB        x -   CT - CT  
     3      9     11      1 ;    1.1096e+02    5.4944e+02 ;      N - CA   - C         x -   CT - C   
     3      9     17      1 ;    1.0812e+02    4.0342e+02 ;      N - CA   - HA        x -   CT - HC  
     4     10      8      1 ;    1.1017e+02    5.5112e+02 ;     NE - CD   - CG        x -   CT - CT  
     4     10     18      1 ;    1.1066e+02    4.0074e+02 ;     NE - CD   - HD1       x -   CT - HC  
     4     10     19      1 ;    1.1066e+02    4.0074e+02 ;     NE - CD   - HD2       x -   CT - HC  
     4     12      5      1 ;    1.2720e+02    6.0877e+02 ;     NE - CZ   - NH1       x -   CR - x   
     4     12      6      1 ;    1.2720e+02    6.0877e+02 ;     NE - CZ   - NH2       x -   CR - x   
     5     12      6      1 ;    1.1646e+02    6.1329e+02 ;    NH1 - CZ   - NH2       x -   CR - x   
     7      8     10      1 ;    1.1263e+02    5.0099e+02 ;     CB - CG   - CD       CT -   CT - CT  
     7      8     15      1 ;    1.0968e+02    3.6208e+02 ;     CB - CG   - HG1      CT -   CT - HC  
     7      8     16      1 ;    1.0968e+02    3.6208e+02 ;     CB - CG   - HG2      CT -   CT - HC  
     7      9     11      1 ;    1.1143e+02    5.0509e+02 ;     CB - CA   - C        CT -   CT - C   
     7      9     17      1 ;    1.0959e+02    3.6217e+02 ;     CB - CA   - HA       CT -   CT - HC  
     8      7      9      1 ;    1.1263e+02    5.0099e+02 ;     CG - CB   - CA       CT -   CT - CT  
     8      7     13      1 ;    1.0968e+02    3.6208e+02 ;     CG - CB   - HB1      CT -   CT - HC  
     8      7     14      1 ;    1.0968e+02    3.6208e+02 ;     CG - CB   - HB2      CT -   CT - HC  
     8     10     18      1 ;    1.0959e+02    3.6217e+02 ;     CG - CD   - HD1      CT -   CT - HC  
     8     10     19      1 ;    1.0959e+02    3.6217e+02 ;     CG - CD   - HD2      CT -   CT - HC  
     9      3     20      1 ;    1.0961e+02    4.7003e+02 ;     CA - N    - H1       CT -    x - H   
     9      3     21      1 ;    1.0961e+02    4.7003e+02 ;     CA - N    - H2       CT -    x - H   
     9      7     13      1 ;    1.0968e+02    3.6208e+02 ;     CA - CB   - HB1      CT -   CT - HC  
     9      7     14      1 ;    1.0968e+02    3.6208e+02 ;     CA - CB   - HB2      CT -   CT - HC  
    10      4     12      1 ;    1.2078e+02    6.6526e+02 ;     CD - NE   - CZ       CT -    x - CR  
    10      8     15      1 ;    1.0968e+02    3.6208e+02 ;     CD - CG   - HG1      CT -   CT - HC  
    10      8     16      1 ;    1.0968e+02    3.6208e+02 ;     CD - CG   - HG2      CT -   CT - HC  
    11      1     22      1 ;    1.0654e+02    5.7287e+02 ;      C - O    - H         C -   OH - HO  
    11      9     17      1 ;    1.0837e+02    3.6602e+02 ;      C - CA   - HA        C -   CT - HC  
    12      5     23      1 ;    1.1505e+02    4.8166e+02 ;     CZ - NH1  - HH11     CR -    x - H   
    12      5     24      1 ;    1.1505e+02    4.8166e+02 ;     CZ - NH1  - HH12     CR -    x - H   
    12      6     25      1 ;    1.1505e+02    4.8166e+02 ;     CZ - NH2  - HH21     CR -    x - H   
    12      6     26      1 ;    1.1505e+02    4.8166e+02 ;     CZ - NH2  - HH22     CR -    x - H   
    13      7     14      1 ;    1.0773e+02    2.9957e+02 ;    HB1 - CB   - HB2      HC -   CT - HC  
    15      8     16      1 ;    1.0773e+02    2.9957e+02 ;    HG1 - CG   - HG2      HC -   CT - HC  
    18     10     19      1 ;    1.0855e+02    2.9824e+02 ;    HD1 - CD   - HD2      HC -   CT - HC  
    20      3     21      1 ;    1.0638e+02    4.0074e+02 ;     H1 - N    - H2        H -    x - H   
    23      5     24      1 ;    1.1528e+02    3.8794e+02 ;   HH11 - NH1  - HH12      H -    x - H   
    25      6     26      1 ;    1.1528e+02    3.8794e+02 ;   HH21 - NH2  - HH22      H -    x - H   

[ dihedrals ] ; propers
; for gromacs 4.5 or higher, using funct 9
;    i      j      k      l   func   phase     kd      pn
     1     11      9      3      9 ;   180.00   0.00000   2 ;      O-     C-    CA-     N
     1     11      9      7      9 ;   180.00   0.00000   2 ;      O-     C-    CA-    CB
     1     11      9     17      9 ;   180.00   0.00000   2 ;      O-     C-    CA-    HA
     2     11      9      3      9 ;   180.00   0.00000   2 ;    OXT-     C-    CA-     N
     2     11      9      7      9 ;     0.00   2.84512   1 ;    OXT-     C-    CA-    CB
     2     11      9      7      9 ;   180.00   0.83680   2 ;    OXT-     C-    CA-    CB
     2     11      9      7      9 ;   180.00   1.84096   3 ;    OXT-     C-    CA-    CB
     2     11      9     17      9 ;     0.00   3.34720   1 ;    OXT-     C-    CA-    HA
     2     11      9     17      9 ;   180.00   0.33472   3 ;    OXT-     C-    CA-    HA
     3      9      7      8      9 ;     0.00   2.17568   3 ;      N-    CA-    CB-    CG
     3      9      7     13      9 ;     0.00   0.20920   3 ;      N-    CA-    CB-   HB1
     3      9      7     14      9 ;     0.00   0.20920   3 ;      N-    CA-    CB-   HB2
     4     10      8      7      9 ;     0.00   0.65084   3 ;     NE-    CD-    CG-    CB
     4     10      8     15      9 ;     0.00   0.65084   3 ;     NE-    CD-    CG-   HG1
     4     10      8     16      9 ;     0.00   0.65084   3 ;     NE-    CD-    CG-   HG2
     4     12      5     23      9 ;   180.00   2.82420   2 ;     NE-    CZ-   NH1-  HH11
     4     12      5     24      9 ;   180.00   2.82420   2 ;     NE-    CZ-   NH1-  HH12
     4     12      6     25      9 ;   180.00   2.82420   2 ;     NE-    CZ-   NH2-  HH21
     4     12      6     26      9 ;   180.00   2.82420   2 ;     NE-    CZ-   NH2-  HH22
     5     12      4     10      9 ;   180.00  17.36360   2 ;    NH1-    CZ-    NE-    CD
     5     12      6     25      9 ;   180.00   2.82420   2 ;    NH1-    CZ-   NH2-  HH21
     5     12      6     26      9 ;   180.00   2.82420   2 ;    NH1-    CZ-   NH2-  HH22
     6     12      4     10      9 ;   180.00  17.36360   2 ;    NH2-    CZ-    NE-    CD
     6     12      5     23      9 ;   180.00   2.82420   2 ;    NH2-    CZ-   NH1-  HH11
     6     12      5     24      9 ;   180.00   2.82420   2 ;    NH2-    CZ-   NH1-  HH12
     7      8     10     18      9 ;     0.00   0.65084   3 ;     CB-    CG-    CD-   HD1
     7      8     10     19      9 ;     0.00   0.65084   3 ;     CB-    CG-    CD-   HD2
     7      9      3     20      9 ;   180.00   0.12552   3 ;     CB-    CA-     N-    H1
     7      9      3     21      9 ;   180.00   0.12552   3 ;     CB-    CA-     N-    H2
     8      7      9     11      9 ;     0.00   0.00000   0 ;     CG-    CB-    CA-     C
     8      7      9     11      9 ;     0.00   0.16736   2 ;     CG-    CB-    CA-     C
     8      7      9     11      9 ;   180.00   1.92464   1 ;     CG-    CB-    CA-     C
     8      7      9     17      9 ;     0.00   0.65084   3 ;     CG-    CB-    CA-    HA
     8     10      4     12      9 ;     0.00   0.00000   0 ;     CG-    CD-    NE-    CZ
     9      7      8     10      9 ;     0.00   2.17568   3 ;     CA-    CB-    CG-    CD
     9      7      8     15      9 ;     0.00   0.54392   3 ;     CA-    CB-    CG-   HG1
     9      7      8     16      9 ;     0.00   0.54392   3 ;     CA-    CB-    CG-   HG2
    10      8      7     13      9 ;     0.00   0.54392   3 ;     CD-    CG-    CB-   HB1
    10      8      7     14      9 ;     0.00   0.54392   3 ;     CD-    CG-    CB-   HB2
    11      9      3     20      9 ;     0.00   1.25520   3 ;      C-    CA-     N-    H1
    11      9      3     21      9 ;     0.00   1.25520   3 ;      C-    CA-     N-    H2
    11      9      7     13      9 ;     0.00   0.65084   3 ;      C-    CA-    CB-   HB1
    11      9      7     14      9 ;     0.00   0.65084   3 ;      C-    CA-    CB-   HB2
    12      4     10     18      9 ;   180.00   1.40164   3 ;     CZ-    NE-    CD-   HD1
    12      4     10     19      9 ;   180.00   1.40164   3 ;     CZ-    NE-    CD-   HD2
    13      7      8     15      9 ;     0.00   0.50208   3 ;    HB1-    CB-    CG-   HG1
    13      7      8     16      9 ;     0.00   0.50208   3 ;    HB1-    CB-    CG-   HG2
    13      7      9     17      9 ;     0.00   0.65084   3 ;    HB1-    CB-    CA-    HA
    14      7      8     15      9 ;     0.00   0.50208   3 ;    HB2-    CB-    CG-   HG1
    14      7      8     16      9 ;     0.00   0.50208   3 ;    HB2-    CB-    CG-   HG2
    14      7      9     17      9 ;     0.00   0.65084   3 ;    HB2-    CB-    CA-    HA
    15      8     10     18      9 ;     0.00   0.65084   3 ;    HG1-    CG-    CD-   HD1
    15      8     10     19      9 ;     0.00   0.65084   3 ;    HG1-    CG-    CD-   HD2
    16      8     10     18      9 ;     0.00   0.65084   3 ;    HG2-    CG-    CD-   HD1
    16      8     10     19      9 ;     0.00   0.65084   3 ;    HG2-    CG-    CD-   HD2
    17      9      3     20      9 ;     0.00   1.25520   3 ;     HA-    CA-     N-    H1
    17      9      3     21      9 ;     0.00   1.25520   3 ;     HA-    CA-     N-    H2
    22      1     11      2      9 ;     0.00   7.94960   1 ;      H-     O-     C-   OXT
    22      1     11      2      9 ;   180.00   9.62320   2 ;      H-     O-     C-   OXT
    22      1     11      9      9 ;   180.00   7.53120   2 ;      H-     O-     C-    CA

[ dihedrals ] ; impropers
; treated as propers in GROMACS to use correct AMBER analytical function
;    i      j      k      l   func   phase     kd      pn
     1     11      2      9      4 ;   180.00   4.60240   2 ;      O-     C-   OXT-    CA
     4      5     12      6      4 ;   180.00   4.60240   2 ;     NE-   NH1-    CZ-   NH2
    12     23      5     24      4 ;   180.00   4.60240   2 ;     CZ-  HH11-   NH1-  HH12
    12     25      6     26      4 ;   180.00   4.60240   2 ;     CZ-  HH21-   NH2-  HH22
