%VERSION  VERSION_STAMP = V0001.000  DATE = 02/09/26  17:29:14                  
%FLAG TITLE                                                                     
%FORMAT(20a4)                                                                   
6322                                                                            
%FLAG POINTERS                                                                  
%FORMAT(10I8)                                                                   
      26      11      14      11      28      13      47      17       0       0
     125       1      11      13      17      13      23      23      12       0
       0       0       0       0       0       0       0       0      26       0
       0
%FLAG ATOM_NAME                                                                 
%FORMAT(20a4)                                                                   
O   OXT N   NE  NH1 NH2 CB  CG  CA  CD  C   CZ  HB1 HB2 HG1 HG2 HA  HD1 HD2 H1  
H2  H   HH11HH12HH21HH22
%FLAG CHARGE                                                                    
%FORMAT(5E16.8)                                                                 
 -1.09169799E+01 -1.02955995E+01 -1.63053140E+01 -1.30089000E+01 -1.63964255E+01
 -1.63964255E+01 -1.33751682E+00 -1.33751682E+00  2.48734395E+00  2.51103294E+00
  1.07529792E+01  1.34134350E+01  1.23364971E+00  1.23364971E+00  9.23870610E-01
  9.23870610E-01  1.63454031E+00  4.95646560E-01  4.95646560E-01  6.61105044E+00
  6.61105044E+00  8.07247890E+00  7.15316387E+00  7.15316387E+00  7.15316387E+00
  7.15316387E+00
%FLAG ATOMIC_NUMBER                                                             
%FORMAT(10I8)                                                                   
       8       8       7       7       7       7       6       6       6       6
       6       6       1       1       1       1       1       1       1       1
       1       1       1       1       1       1
%FLAG MASS                                                                      
%FORMAT(5E16.8)                                                                 
  1.60000000E+01  1.60000000E+01  1.40100000E+01  1.40100000E+01  1.40100000E+01
  1.40100000E+01  1.20100000E+01  1.20100000E+01  1.20100000E+01  1.20100000E+01
  1.20100000E+01  1.20100000E+01  1.00800000E+00  1.00800000E+00  1.00800000E+00
  1.00800000E+00  1.00800000E+00  1.00800000E+00  1.00800000E+00  1.00800000E+00
  1.00800000E+00  1.00800000E+00  1.00800000E+00  1.00800000E+00  1.00800000E+00
  1.00800000E+00
%FLAG ATOM_TYPE_INDEX                                                           
%FORMAT(10I8)                                                                   
       1       2       3       4       5       5       6       6       6       6
       7       7       8       8       8       8       9       9       9      10
      10      11      10      10      10      10
%FLAG NUMBER_EXCLUDED_ATOMS                                                     
%FORMAT(10I8)                                                                   
       7       6       9      14       7       6      13      11      10       7
       6       6       4       3       3       2       2       1       1       1
       1       1       1       1       1       1
%FLAG NONBONDED_PARM_INDEX                                                      
%FORMAT(10I8)                                                                   
       1       2       4       7      11      16      22      29      37      46
      56       2       3       5       8      12      17      23      30      38
      47      57       4       5       6       9      13      18      24      31
      39      48      58       7       8       9      10      14      19      25
      32      40      49      59      11      12      13      14      15      20
      26      33      41      50      60      16      17      18      19      20
      21      27      34      42      51      61      22      23      24      25
      26      27      28      35      43      52      62      29      30      31
      32      33      34      35      36      44      53      63      37      38
      39      40      41      42      43      44      45      54      64      46
      47      48      49      50      51      52      53      54      55      65
      56      57      58      59      60      61      62      63      64      65
      66
%FLAG RESIDUE_LABEL                                                             
%FORMAT(20a4)                                                                   
ARG 
%FLAG RESIDUE_POINTER                                                           
%FORMAT(10I8)                                                                   
       1
%FLAG BOND_FORCE_CONSTANT                                                       
%FORMAT(5E16.8)                                                                 
  3.59270000E+02  5.35510000E+02  5.90600000E+02  2.53810000E+02  4.60680000E+02
  2.60820000E+02  4.75990000E+02  3.24580000E+02  4.77540000E+02  2.28890000E+02
  3.45250000E+02  2.34850000E+02  3.44220000E+02
%FLAG BOND_EQUIL_VALUE                                                          
%FORMAT(5E16.8)                                                                 
  1.35560000E+00  9.72500000E-01  1.21900000E+00  1.46510000E+00  1.01920000E+00
  1.45660000E+00  1.28090000E+00  1.39010000E+00  1.01140000E+00  1.53540000E+00
  1.09620000E+00  1.52700000E+00  1.09690000E+00
%FLAG ANGLE_FORCE_CONSTANT                                                      
%FORMAT(5E16.8)                                                                 
  1.02030000E+02  7.74200000E+01  7.64500000E+01  6.54800000E+01  6.56600000E+01
  4.82100000E+01  6.58600000E+01  4.78900000E+01  7.27500000E+01  7.32900000E+01
  5.98700000E+01  4.32700000E+01  6.03600000E+01  4.32800000E+01  5.61700000E+01
  7.95000000E+01  6.84600000E+01  4.37400000E+01  5.75600000E+01  3.58000000E+01
  3.56400000E+01  4.78900000E+01  4.63600000E+01
%FLAG ANGLE_EQUIL_VALUE                                                         
%FORMAT(5E16.8)                                                                 
  2.13087340E+00  1.96768504E+00  2.14501057E+00  1.93574550E+00  1.93661817E+00
  1.88705080E+00  1.92283006E+00  1.93138218E+00  2.22005976E+00  2.03261132E+00
  1.96576518E+00  1.91427794E+00  1.94482122E+00  1.91270715E+00  1.91305621E+00
  2.10800957E+00  1.85947458E+00  1.89141412E+00  2.00800217E+00  1.88024401E+00
  1.89455572E+00  1.85668205E+00  2.01201642E+00
%FLAG DIHEDRAL_FORCE_CONSTANT                                                   
%FORMAT(5E16.8)                                                                 
  0.00000000E+00  1.90000000E+00  2.30000000E+00  6.80000000E-01  2.00000000E-01
  4.40000000E-01  8.00000000E-01  8.00000000E-02  5.20000000E-01  5.00000000E-02
  1.55555556E-01  6.75000000E-01  4.15000000E+00  3.00000000E-02  4.60000000E-01
  4.00000000E-02  0.00000000E+00  1.30000000E-01  1.80000000E+00  3.00000000E-01
  3.35000000E-01  1.20000000E-01  1.10000000E+00
%FLAG DIHEDRAL_PERIODICITY                                                      
%FORMAT(5E16.8)                                                                 
  2.00000000E+00  1.00000000E+00  2.00000000E+00  1.00000000E+00  2.00000000E+00
  3.00000000E+00  1.00000000E+00  3.00000000E+00  3.00000000E+00  3.00000000E+00
  3.00000000E+00  2.00000000E+00  2.00000000E+00  3.00000000E+00  1.00000000E+00
  2.00000000E+00  3.00000000E+00  3.00000000E+00  2.00000000E+00  3.00000000E+00
  3.00000000E+00  3.00000000E+00  2.00000000E+00
%FLAG DIHEDRAL_PHASE                                                            
%FORMAT(5E16.8)                                                                 
  3.14159400E+00  0.00000000E+00  3.14159400E+00  0.00000000E+00  3.14159400E+00
  3.14159400E+00  0.00000000E+00  3.14159400E+00  0.00000000E+00  0.00000000E+00
  0.00000000E+00  3.14159400E+00  3.14159400E+00  3.14159400E+00  3.14159400E+00
  0.00000000E+00  0.00000000E+00  0.00000000E+00  3.14159400E+00  0.00000000E+00
  3.14159400E+00  0.00000000E+00  3.14159400E+00
%FLAG SCEE_SCALE_FACTOR                                                         
%FORMAT(5E16.8)                                                                 
  1.20000000E+00  1.20000000E+00  1.20000000E+00  1.20000000E+00  1.20000000E+00
  1.20000000E+00  1.20000000E+00  1.20000000E+00  1.20000000E+00  1.20000000E+00
  1.20000000E+00  1.20000000E+00  1.20000000E+00  1.20000000E+00  1.20000000E+00
  1.20000000E+00  1.20000000E+00  1.20000000E+00  1.20000000E+00  1.20000000E+00
  1.20000000E+00  1.20000000E+00  0.00000000E+00
%FLAG SCNB_SCALE_FACTOR                                                         
%FORMAT(5E16.8)                                                                 
  2.00000000E+00  2.00000000E+00  2.00000000E+00  2.00000000E+00  2.00000000E+00
  2.00000000E+00  2.00000000E+00  2.00000000E+00  2.00000000E+00  2.00000000E+00
  2.00000000E+00  2.00000000E+00  2.00000000E+00  2.00000000E+00  2.00000000E+00
  2.00000000E+00  2.00000000E+00  2.00000000E+00  2.00000000E+00  2.00000000E+00
  2.00000000E+00  2.00000000E+00  0.00000000E+00
%FLAG SOLTY                                                                     
%FORMAT(5E16.8)                                                                 
  0.00000000E+00  0.00000000E+00  0.00000000E+00  0.00000000E+00  0.00000000E+00
  0.00000000E+00  0.00000000E+00  0.00000000E+00  0.00000000E+00  0.00000000E+00
  0.00000000E+00  0.00000000E+00
%FLAG LENNARD_JONES_ACOEF                                                       
%FORMAT(5E16.8)                                                                 
  5.03152404E+05  4.37717034E+05  3.76435470E+05  6.15869455E+05  5.47655232E+05
  7.22850509E+05  6.55497149E+05  5.74782316E+05  7.90296020E+05  8.49322032E+05
  6.94638423E+05  6.08567325E+05  8.38899112E+05  9.00584118E+05  9.54875571E+05
  7.18991463E+05  6.30925504E+05  8.65620051E+05  9.31115275E+05  9.87370297E+05
  1.02073671E+06  5.92438683E+05  5.17507491E+05  7.19505991E+05  7.69642101E+05
  8.15855629E+05  8.43969952E+05  6.96551276E+05  6.80216136E+04  5.68021765E+04
  8.99910629E+04  9.11435380E+04  9.62844277E+04  1.00235148E+05  8.12662403E+04
  7.94617769E+03  4.69084694E+04  3.86646725E+04  6.36026248E+04  6.34160397E+04
  6.69267216E+04  6.97998263E+04  5.63013422E+04  5.22955465E+03  3.39005767E+03
  1.36475542E+03  9.87857350E+02  2.35480845E+03  2.01475241E+03  2.10567903E+03
  2.23577481E+03  1.71458823E+03  9.47421632E+01  5.24570081E+01  1.34728399E-01
  1.74176419E+02  1.15813907E+02  3.50407390E+02  2.72118326E+02  2.82631147E+02
  3.03553352E+02  2.25372434E+02  8.80612241E+00  4.36660257E+00  2.61760843E-03
  1.10360882E-05
%FLAG LENNARD_JONES_BCOEF                                                       
%FORMAT(5E16.8)                                                                 
  4.32634597E+02  4.51916854E+02  4.69350655E+02  3.67447838E+02  3.88056827E+02
  3.05601515E+02  4.95260330E+02  5.19385932E+02  4.17467748E+02  5.65406768E+02
  5.32518426E+02  5.58212938E+02  4.49251979E+02  6.08126668E+02  6.54052181E+02
  5.36620538E+02  5.62969425E+02  4.52010965E+02  6.12468585E+02  6.58763033E+02
  6.63431737E+02  4.76608379E+02  4.98871431E+02  4.03215362E+02  5.44830041E+02
  5.85909304E+02  5.90251928E+02  5.24668528E+02  1.09393126E+02  1.11953944E+02
  9.65931103E+01  1.27000718E+02  1.36341592E+02  1.37787728E+02  1.21392023E+02
  2.57122925E+01  9.08431526E+01  9.23664132E+01  8.12052260E+01  1.05935811E+02
  1.13671113E+02  1.14981426E+02  1.01040256E+02  2.08590256E+01  1.67944276E+01
  1.29026271E+01  1.22938581E+01  1.30109323E+01  1.57231024E+01  1.67892226E+01
  1.71355763E+01  1.46824710E+01  2.33785449E+00  1.73959275E+00  7.34107347E-02
  3.81654050E+00  3.48534600E+00  4.15567637E+00  4.78443613E+00  5.09294489E+00
  5.22789272E+00  4.40751799E+00  5.90150328E-01  4.15568027E-01  8.47240681E-03
  4.55498033E-04
%FLAG BONDS_INC_HYDROGEN                                                        
%FORMAT(10I8)                                                                   
       0      63       2       6      57       5       6      60       5      12
      66       9      12      69       9      15      72       9      15      75
       9      18      36      11      18      39      11      21      42      11
      21      45      11      24      48      13      27      51      13      27
      54      13
%FLAG BONDS_WITHOUT_HYDROGEN                                                    
%FORMAT(10I8)                                                                   
       0      30       1       3      30       3       6      24       4       9
      27       6       9      33       7      12      33       8      15      33
       8      18      21      10      18      24      10      21      27      10
      24      30      12
%FLAG ANGLES_INC_HYDROGEN                                                       
%FORMAT(10I8)                                                                   
       6      24      48       6       9      27      51       8       9      27
      54       8      18      21      42      12      18      21      45      12
      18      24      48      14      21      18      36      12      21      18
      39      12      21      27      51      14      21      27      54      14
      24       6      57      15      24       6      60      15      24      18
      36      12      24      18      39      12      27      21      42      12
      27      21      45      12      30       0      63      17      30      24
      48      18      33      12      66      19      33      12      69      19
      33      15      72      19      33      15      75      19      36      18
      39      20      42      21      45      20      51      27      54      21
      57       6      60      22      66      12      69      23      72      15
      75      23
%FLAG ANGLES_WITHOUT_HYDROGEN                                                   
%FORMAT(10I8)                                                                   
       0      30       3       1       0      30      24       2       3      30
      24       3       6      24      18       4       6      24      30       5
       9      27      21       7       9      33      12       9       9      33
      15       9      12      33      15      10      18      21      27      11
      18      24      30      13      21      18      24      11      27       9
      33      16
%FLAG DIHEDRALS_INC_HYDROGEN                                                    
%FORMAT(10I8)                                                                   
       0      30      24      48       1      63       0      30       3       2
      63       0     -30       3       3       3      30      24      48       7
       3      30     -24      48       8       6      24      18      36      10
       6      24      18      39      10       9      27      21      42      11
       9      27      21      45      11       9      33      12      66      12
       9      33      12      69      12       9      33      15      72      12
       9      33      15      75      12      12      33      15      72      12
      12      33      15      75      12      15      33      12      66      12
      15      33      12      69      12      18      21      27      51      11
      18      21      27      54      11      18      24       6      57      14
      18      24       6      60      14      21      18      24      48      11
      24      18      21      42      18      24      18      21      45      18
      63       0      30      24      19      27      21      18      36      18
      27      21      18      39      18      30      24       6      57      20
      30      24       6      60      20      30      24      18      36      11
      30      24      18      39      11      33       9      27      51      21
      33       9      27      54      21      36      18      21      42      22
      36      18      21      45      22      36      18      24      48      11
      39      18      21      42      22      39      18      21      45      22
      39      18      24      48      11      42      21      27      51      11
      42      21      27      54      11      45      21      27      51      11
      45      21      27      54      11      48      24       6      57      20
      48      24       6      60      20      33      66     -12     -69      23
      33      72     -15     -75      23
%FLAG DIHEDRALS_WITHOUT_HYDROGEN                                                
%FORMAT(10I8)                                                                   
       0      30      24       6       1       0      30      24      18       1
       3      30      24       6       1       3      30      24      18       4
       3      30     -24      18       5       3      30     -24      18       6
       6      24      18      21       9       9      27      21      18      11
      12      33       9      27      13      15      33       9      27      13
      21      18      24      30      15      21      18     -24      30      16
      21      18     -24      30      17      21      27       9      33      17
      24      18      21      27       9       0      30      -3     -24      23
       9      12     -33     -15      23
%FLAG EXCLUDED_ATOMS_LIST                                                       
%FORMAT(10I8)                                                                   
       2       3       7       9      11      17      22       3       7       9
      11      17      22       7       8       9      11      13      14      17
      20      21       5       6       7       8      10      12      15      16
      18      19      23      24      25      26       6      10      12      23
      24      25      26      10      12      23      24      25      26       8
       9      10      11      13      14      15      16      17      18      19
      20      21       9      10      11      12      13      14      15      16
      17      18      19      10      11      13      14      15      16      17
      20      21      22      12      13      14      15      16      18      19
      13      14      17      20      21      22      18      19      23      24
      25      26      14      15      16      17      15      16      17      16
      18      19      18      19      20      21      19       0      21       0
       0      24       0      26       0
%FLAG HBOND_ACOEF                                                               
%FORMAT(5E16.8)                                                                 

%FLAG HBOND_BCOEF                                                               
%FORMAT(5E16.8)                                                                 

%FLAG HBCUT                                                                     
%FORMAT(5E16.8)                                                                 

%FLAG AMBER_ATOM_TYPE                                                           
%FORMAT(20a4)                                                                   
oh  o   n8  n2  nv  nv  c3  c3  c3  c3  c   c2  hc  hc  hc  hc  h1  h1  h1  hn  
hn  ho  hn  hn  hn  hn  
%FLAG TREE_CHAIN_CLASSIFICATION                                                 
%FORMAT(20a4)                                                                   
BLA BLA BLA BLA BLA BLA BLA BLA BLA BLA BLA BLA BLA BLA BLA BLA BLA BLA BLA BLA 
BLA BLA BLA BLA BLA BLA 
%FLAG JOIN_ARRAY                                                                
%FORMAT(10I8)                                                                   
       0       0       0       0       0       0       0       0       0       0
       0       0       0       0       0       0       0       0       0       0
       0       0       0       0       0       0
%FLAG IROTAT                                                                    
%FORMAT(10I8)                                                                   
       0       0       0       0       0       0       0       0       0       0
       0       0       0       0       0       0       0       0       0       0
       0       0       0       0       0       0
%FLAG RADIUS_SET                                                                
%FORMAT(1a80)                                                                   
modified Bondi radii (mbondi)                                                   
%FLAG RADII                                                                     
%FORMAT(5E16.8)                                                                 
  1.50000000E+00  1.50000000E+00  1.55000000E+00  1.55000000E+00  1.55000000E+00
  1.55000000E+00  1.70000000E+00  1.70000000E+00  1.70000000E+00  1.70000000E+00
  1.70000000E+00  1.70000000E+00  1.30000000E+00  1.30000000E+00  1.30000000E+00
  1.30000000E+00  1.30000000E+00  1.30000000E+00  1.30000000E+00  1.30000000E+00
  1.30000000E+00  8.00000000E-01  1.30000000E+00  1.30000000E+00  1.30000000E+00
  1.30000000E+00
%FLAG SCREEN                                                                    
%FORMAT(5E16.8)                                                                 
  8.50000000E-01  8.50000000E-01  7.90000000E-01  7.90000000E-01  7.90000000E-01
  7.90000000E-01  7.20000000E-01  7.20000000E-01  7.20000000E-01  7.20000000E-01
  7.20000000E-01  7.20000000E-01  8.50000000E-01  8.50000000E-01  8.50000000E-01
  8.50000000E-01  8.50000000E-01  8.50000000E-01  8.50000000E-01  8.50000000E-01
  8.50000000E-01  8.50000000E-01  8.50000000E-01  8.50000000E-01  8.50000000E-01
  8.50000000E-01
%FLAG IPOL                                                                      
%FORMAT(1I8)                                                                    
       0
