; stigmasterol_GMX.itp created by acpype (v: 2023.10.27) on Mon Feb  9 17:57:31 2026

[ atomtypes ]
;name   bond_type     mass     charge   ptype   sigma         epsilon       Amb
 oh       oh          0.00000  0.00000   A     3.24287e-01   3.89112e-01 ; 1.82  0.0930
 c5       c5          0.00000  0.00000   A     3.39771e-01   4.51035e-01 ; 1.91  0.1078
 c6       c6          0.00000  0.00000   A     3.39771e-01   4.51035e-01 ; 1.91  0.1078
 c3       c3          0.00000  0.00000   A     3.39771e-01   4.51035e-01 ; 1.91  0.1078
 c2       c2          0.00000  0.00000   A     3.31521e-01   4.13379e-01 ; 1.86  0.0988
 hc       hc          0.00000  0.00000   A     2.60018e-01   8.70272e-02 ; 1.46  0.0208
 ha       ha          0.00000  0.00000   A     2.62548e-01   6.73624e-02 ; 1.47  0.0161
 h1       h1          0.00000  0.00000   A     2.42200e-01   8.70272e-02 ; 1.36  0.0208
 ho       ho          0.00000  0.00000   A     5.37925e-02   1.96648e-02 ; 0.30  0.0047

[ moleculetype ]
;name            nrexcl
 stigmasterol     3

[ atoms ]
;   nr  type  resi  res  atom  cgnr     charge      mass       ; qtot   bond_type
     1   oh     1   UNL     O    1    -0.594801     16.00000 ; qtot -0.595
     2   c5     1   UNL     C    2    -0.045000     12.01000 ; qtot -0.640
     3   c5     1   UNL    C1    3    -0.064700     12.01000 ; qtot -0.705
     4   c6     1   UNL    C2    4    -0.046700     12.01000 ; qtot -0.751
     5   c6     1   UNL    C3    5    -0.048700     12.01000 ; qtot -0.800
     6   c5     1   UNL    C4    6    -0.051700     12.01000 ; qtot -0.852
     7   c6     1   UNL    C5    7    -0.065400     12.01000 ; qtot -0.917
     8   c6     1   UNL    C6    8    -0.000800     12.01000 ; qtot -0.918
     9   c5     1   UNL    C7    9    -0.074400     12.01000 ; qtot -0.992
    10   c6     1   UNL    C8   10    -0.075400     12.01000 ; qtot -1.068
    11   c5     1   UNL    C9   11    -0.078400     12.01000 ; qtot -1.146
    12   c6     1   UNL   C10   12    -0.043200     12.01000 ; qtot -1.189
    13   c3     1   UNL   C11   13    -0.082100     12.01000 ; qtot -1.271
    14   c2     1   UNL   C12   14    -0.109400     12.01000 ; qtot -1.381
    15   c3     1   UNL   C13   15    -0.026500     12.01000 ; qtot -1.407
    16   c6     1   UNL   C14   16    -0.067400     12.01000 ; qtot -1.475
    17   c2     1   UNL   C15   17    -0.163200     12.01000 ; qtot -1.638
    18   c3     1   UNL   C16   18    -0.082100     12.01000 ; qtot -1.720
    19   c6     1   UNL   C17   19    -0.072200     12.01000 ; qtot -1.792
    20   c6     1   UNL   C18   20    -0.110400     12.01000 ; qtot -1.903
    21   c6     1   UNL   C19   21     0.142100     12.01000 ; qtot -1.760
    22   c3     1   UNL   C20   22    -0.087100     12.01000 ; qtot -1.848
    23   c2     1   UNL   C21   23    -0.169200     12.01000 ; qtot -2.017
    24   c2     1   UNL   C22   24    -0.161200     12.01000 ; qtot -2.178
    25   c3     1   UNL   C23   25    -0.030500     12.01000 ; qtot -2.208
    26   c3     1   UNL   C24   26    -0.058700     12.01000 ; qtot -2.267
    27   c3     1   UNL   C25   27    -0.073400     12.01000 ; qtot -2.341
    28   c3     1   UNL   C26   28    -0.091600     12.01000 ; qtot -2.432
    29   c3     1   UNL   C27   29    -0.091600     12.01000 ; qtot -2.524
    30   c3     1   UNL   C28   30    -0.093100     12.01000 ; qtot -2.617
    31   hc     1   UNL     H   31     0.045700      1.00800 ; qtot -2.571
    32   hc     1   UNL    H1   32     0.058700      1.00800 ; qtot -2.512
    33   hc     1   UNL    H2   33     0.048700      1.00800 ; qtot -2.464
    34   hc     1   UNL    H3   34     0.046700      1.00800 ; qtot -2.417
    35   hc     1   UNL    H4   35     0.041200      1.00800 ; qtot -2.376
    36   hc     1   UNL    H5   36     0.041200      1.00800 ; qtot -2.335
    37   hc     1   UNL    H6   37     0.041700      1.00800 ; qtot -2.293
    38   hc     1   UNL    H7   38     0.041700      1.00800 ; qtot -2.251
    39   hc     1   UNL    H8   39     0.040700      1.00800 ; qtot -2.211
    40   hc     1   UNL    H9   40     0.040700      1.00800 ; qtot -2.170
    41   hc     1   UNL   H10   41     0.043700      1.00800 ; qtot -2.126
    42   hc     1   UNL   H11   42     0.043700      1.00800 ; qtot -2.082
    43   hc     1   UNL   H12   43     0.049700      1.00800 ; qtot -2.033
    44   hc     1   UNL   H13   44     0.049700      1.00800 ; qtot -1.983
    45   hc     1   UNL   H14   45     0.035700      1.00800 ; qtot -1.947
    46   hc     1   UNL   H15   46     0.035700      1.00800 ; qtot -1.912
    47   hc     1   UNL   H16   47     0.035700      1.00800 ; qtot -1.876
    48   hc     1   UNL   H17   48     0.053700      1.00800 ; qtot -1.822
    49   hc     1   UNL   H18   49     0.045200      1.00800 ; qtot -1.777
    50   hc     1   UNL   H19   50     0.045200      1.00800 ; qtot -1.732
    51   ha     1   UNL   H20   51     0.121000      1.00800 ; qtot -1.611
    52   hc     1   UNL   H21   52     0.036033      1.00800 ; qtot -1.575
    53   hc     1   UNL   H22   53     0.036033      1.00800 ; qtot -1.539
    54   hc     1   UNL   H23   54     0.036033      1.00800 ; qtot -1.503
    55   hc     1   UNL   H24   55     0.051700      1.00800 ; qtot -1.451
    56   hc     1   UNL   H25   56     0.051700      1.00800 ; qtot -1.399
    57   hc     1   UNL   H26   57     0.047200      1.00800 ; qtot -1.352
    58   hc     1   UNL   H27   58     0.047200      1.00800 ; qtot -1.305
    59   h1     1   UNL   H28   59     0.079700      1.00800 ; qtot -1.225
    60   hc     1   UNL   H29   60     0.035367      1.00800 ; qtot -1.190
    61   hc     1   UNL   H30   61     0.035367      1.00800 ; qtot -1.154
    62   hc     1   UNL   H31   62     0.035367      1.00800 ; qtot -1.119
    63   ha     1   UNL   H32   63     0.121000      1.00800 ; qtot -0.998
    64   ha     1   UNL   H33   64     0.121000      1.00800 ; qtot -0.877
    65   ho     1   UNL   H34   65     0.395000      1.00800 ; qtot -0.482
    66   hc     1   UNL   H35   66     0.050700      1.00800 ; qtot -0.431
    67   hc     1   UNL   H36   67     0.044700      1.00800 ; qtot -0.387
    68   hc     1   UNL   H37   68     0.039200      1.00800 ; qtot -0.348
    69   hc     1   UNL   H38   69     0.039200      1.00800 ; qtot -0.308
    70   hc     1   UNL   H39   70     0.034367      1.00800 ; qtot -0.274
    71   hc     1   UNL   H40   71     0.034367      1.00800 ; qtot -0.240
    72   hc     1   UNL   H41   72     0.034367      1.00800 ; qtot -0.205
    73   hc     1   UNL   H42   73     0.034367      1.00800 ; qtot -0.171
    74   hc     1   UNL   H43   74     0.034367      1.00800 ; qtot -0.136
    75   hc     1   UNL   H44   75     0.034367      1.00800 ; qtot -0.102
    76   hc     1   UNL   H45   76     0.034033      1.00800 ; qtot -0.068
    77   hc     1   UNL   H46   77     0.034033      1.00800 ; qtot -0.034
    78   hc     1   UNL   H47   78     0.034033      1.00800 ; qtot 0.000

[ bonds ]
;   ai     aj funct   r             k
     1     21   1    1.4241e-01    2.3870e+05 ;      O - C19   
     1     65   1    9.7250e-02    4.4811e+05 ;      O - H34   
     2      3   1    1.5483e-01    1.8418e+05 ;      C - C1    
     2      6   1    1.5483e-01    1.8418e+05 ;      C - C4    
     2      7   1    1.5389e-01    1.8951e+05 ;      C - C5    
     2     13   1    1.5372e-01    1.9049e+05 ;      C - C11   
     3      4   1    1.5389e-01    1.8951e+05 ;     C1 - C2    
     3      9   1    1.5483e-01    1.8418e+05 ;     C1 - C7    
     3     31   1    1.0954e-01    2.8989e+05 ;     C1 - H     
     4      5   1    1.5384e-01    1.8979e+05 ;     C2 - C3    
     4     12   1    1.5384e-01    1.8979e+05 ;     C2 - C10   
     4     32   1    1.0979e-01    2.8681e+05 ;     C2 - H1    
     5      8   1    1.5384e-01    1.8979e+05 ;     C3 - C6    
     5     10   1    1.5384e-01    1.8979e+05 ;     C3 - C8    
     5     33   1    1.0979e-01    2.8681e+05 ;     C3 - H2    
     6     11   1    1.5483e-01    1.8418e+05 ;     C4 - C9    
     6     15   1    1.5372e-01    1.9049e+05 ;     C4 - C13   
     6     34   1    1.0954e-01    2.8989e+05 ;     C4 - H3    
     7     10   1    1.5384e-01    1.8979e+05 ;     C5 - C8    
     7     35   1    1.0979e-01    2.8681e+05 ;     C5 - H4    
     7     36   1    1.0979e-01    2.8681e+05 ;     C5 - H5    
     8     14   1    1.5133e-01    2.0498e+05 ;     C6 - C12   
     8     16   1    1.5384e-01    1.8979e+05 ;     C6 - C14   
     8     18   1    1.5428e-01    1.8728e+05 ;     C6 - C16   
     9     11   1    1.5483e-01    1.8418e+05 ;     C7 - C9    
     9     37   1    1.0954e-01    2.8989e+05 ;     C7 - H6    
     9     38   1    1.0954e-01    2.8989e+05 ;     C7 - H7    
    10     39   1    1.0979e-01    2.8681e+05 ;     C8 - H8    
    10     40   1    1.0979e-01    2.8681e+05 ;     C8 - H9    
    11     41   1    1.0954e-01    2.8989e+05 ;     C9 - H10   
    11     42   1    1.0954e-01    2.8989e+05 ;     C9 - H11   
    12     17   1    1.5133e-01    2.0498e+05 ;    C10 - C15   
    12     43   1    1.0979e-01    2.8681e+05 ;    C10 - H12   
    12     44   1    1.0979e-01    2.8681e+05 ;    C10 - H13   
    13     45   1    1.0962e-01    2.8891e+05 ;    C11 - H14   
    13     46   1    1.0962e-01    2.8891e+05 ;    C11 - H15   
    13     47   1    1.0962e-01    2.8891e+05 ;    C11 - H16   
    14     17   1    1.3379e-01    3.6484e+05 ;    C12 - C15   
    14     19   1    1.5133e-01    2.0498e+05 ;    C12 - C17   
    15     22   1    1.5354e-01    1.9154e+05 ;    C13 - C20   
    15     23   1    1.5088e-01    2.0786e+05 ;    C13 - C21   
    15     48   1    1.0962e-01    2.8891e+05 ;    C13 - H17   
    16     20   1    1.5384e-01    1.8979e+05 ;    C14 - C18   
    16     49   1    1.0979e-01    2.8681e+05 ;    C14 - H18   
    16     50   1    1.0979e-01    2.8681e+05 ;    C14 - H19   
    17     51   1    1.0882e-01    2.9898e+05 ;    C15 - H20   
    18     52   1    1.0962e-01    2.8891e+05 ;    C16 - H21   
    18     53   1    1.0962e-01    2.8891e+05 ;    C16 - H22   
    18     54   1    1.0962e-01    2.8891e+05 ;    C16 - H23   
    19     21   1    1.5384e-01    1.8979e+05 ;    C17 - C19   
    19     55   1    1.0979e-01    2.8681e+05 ;    C17 - H24   
    19     56   1    1.0979e-01    2.8681e+05 ;    C17 - H25   
    20     21   1    1.5384e-01    1.8979e+05 ;    C18 - C19   
    20     57   1    1.0979e-01    2.8681e+05 ;    C18 - H26   
    20     58   1    1.0979e-01    2.8681e+05 ;    C18 - H27   
    21     59   1    1.0984e-01    2.8620e+05 ;    C19 - H28   
    22     60   1    1.0962e-01    2.8891e+05 ;    C20 - H29   
    22     61   1    1.0962e-01    2.8891e+05 ;    C20 - H30   
    22     62   1    1.0962e-01    2.8891e+05 ;    C20 - H31   
    23     24   1    1.3379e-01    3.6484e+05 ;    C21 - C22   
    23     63   1    1.0882e-01    2.9898e+05 ;    C21 - H32   
    24     25   1    1.5088e-01    2.0786e+05 ;    C22 - C23   
    24     64   1    1.0882e-01    2.9898e+05 ;    C22 - H33   
    25     26   1    1.5354e-01    1.9154e+05 ;    C23 - C24   
    25     27   1    1.5354e-01    1.9154e+05 ;    C23 - C25   
    25     66   1    1.0962e-01    2.8891e+05 ;    C23 - H35   
    26     28   1    1.5354e-01    1.9154e+05 ;    C24 - C26   
    26     29   1    1.5354e-01    1.9154e+05 ;    C24 - C27   
    26     67   1    1.0962e-01    2.8891e+05 ;    C24 - H36   
    27     30   1    1.5354e-01    1.9154e+05 ;    C25 - C28   
    27     68   1    1.0962e-01    2.8891e+05 ;    C25 - H37   
    27     69   1    1.0962e-01    2.8891e+05 ;    C25 - H38   
    28     70   1    1.0962e-01    2.8891e+05 ;    C26 - H39   
    28     71   1    1.0962e-01    2.8891e+05 ;    C26 - H40   
    28     72   1    1.0962e-01    2.8891e+05 ;    C26 - H41   
    29     73   1    1.0962e-01    2.8891e+05 ;    C27 - H42   
    29     74   1    1.0962e-01    2.8891e+05 ;    C27 - H43   
    29     75   1    1.0962e-01    2.8891e+05 ;    C27 - H44   
    30     76   1    1.0962e-01    2.8891e+05 ;    C28 - H45   
    30     77   1    1.0962e-01    2.8891e+05 ;    C28 - H46   
    30     78   1    1.0962e-01    2.8891e+05 ;    C28 - H47   

[ pairs ]
;   ai     aj    funct
     1     14      1 ;      O - C12   
     1     16      1 ;      O - C14   
     1     55      1 ;      O - H24   
     1     56      1 ;      O - H25   
     1     57      1 ;      O - H26   
     1     58      1 ;      O - H27   
     2      5      1 ;      C - C3    
     2     12      1 ;      C - C10   
     2     22      1 ;      C - C20   
     2     23      1 ;      C - C21   
     2     32      1 ;      C - H1    
     2     37      1 ;      C - H6    
     2     38      1 ;      C - H7    
     2     39      1 ;      C - H8    
     2     40      1 ;      C - H9    
     2     41      1 ;      C - H10   
     2     42      1 ;      C - H11   
     2     48      1 ;      C - H17   
     3      8      1 ;     C1 - C6    
     3     10      1 ;     C1 - C8    
     3     15      1 ;     C1 - C13   
     3     17      1 ;     C1 - C15   
     3     33      1 ;     C1 - H2    
     3     34      1 ;     C1 - H3    
     3     35      1 ;     C1 - H4    
     3     36      1 ;     C1 - H5    
     3     41      1 ;     C1 - H10   
     3     42      1 ;     C1 - H11   
     3     43      1 ;     C1 - H12   
     3     44      1 ;     C1 - H13   
     3     45      1 ;     C1 - H14   
     3     46      1 ;     C1 - H15   
     3     47      1 ;     C1 - H16   
     4      6      1 ;     C2 - C4    
     4      7      1 ;     C2 - C5    
     4     11      1 ;     C2 - C9    
     4     13      1 ;     C2 - C11   
     4     14      1 ;     C2 - C12   
     4     16      1 ;     C2 - C14   
     4     18      1 ;     C2 - C16   
     4     37      1 ;     C2 - H6    
     4     38      1 ;     C2 - H7    
     4     39      1 ;     C2 - H8    
     4     40      1 ;     C2 - H9    
     4     51      1 ;     C2 - H20   
     5      9      1 ;     C3 - C7    
     5     17      1 ;     C3 - C15   
     5     19      1 ;     C3 - C17   
     5     20      1 ;     C3 - C18   
     5     31      1 ;     C3 - H     
     5     35      1 ;     C3 - H4    
     5     36      1 ;     C3 - H5    
     5     43      1 ;     C3 - H12   
     5     44      1 ;     C3 - H13   
     5     49      1 ;     C3 - H18   
     5     50      1 ;     C3 - H19   
     5     52      1 ;     C3 - H21   
     5     53      1 ;     C3 - H22   
     5     54      1 ;     C3 - H23   
     6     10      1 ;     C4 - C8    
     6     24      1 ;     C4 - C22   
     6     31      1 ;     C4 - H     
     6     35      1 ;     C4 - H4    
     6     36      1 ;     C4 - H5    
     6     37      1 ;     C4 - H6    
     6     38      1 ;     C4 - H7    
     6     45      1 ;     C4 - H14   
     6     46      1 ;     C4 - H15   
     6     47      1 ;     C4 - H16   
     6     60      1 ;     C4 - H29   
     6     61      1 ;     C4 - H30   
     6     62      1 ;     C4 - H31   
     6     63      1 ;     C4 - H32   
     7      8      1 ;     C5 - C6    
     7      9      1 ;     C5 - C7    
     7     11      1 ;     C5 - C9    
     7     15      1 ;     C5 - C13   
     7     31      1 ;     C5 - H     
     7     33      1 ;     C5 - H2    
     7     34      1 ;     C5 - H3    
     7     45      1 ;     C5 - H14   
     7     46      1 ;     C5 - H15   
     7     47      1 ;     C5 - H16   
     8     12      1 ;     C6 - C10   
     8     21      1 ;     C6 - C19   
     8     32      1 ;     C6 - H1    
     8     39      1 ;     C6 - H8    
     8     40      1 ;     C6 - H9    
     8     51      1 ;     C6 - H20   
     8     55      1 ;     C6 - H24   
     8     56      1 ;     C6 - H25   
     8     57      1 ;     C6 - H26   
     8     58      1 ;     C6 - H27   
     9     12      1 ;     C7 - C10   
     9     13      1 ;     C7 - C11   
     9     15      1 ;     C7 - C13   
     9     32      1 ;     C7 - H1    
     9     34      1 ;     C7 - H3    
    10     12      1 ;     C8 - C10   
    10     13      1 ;     C8 - C11   
    10     14      1 ;     C8 - C12   
    10     16      1 ;     C8 - C14   
    10     18      1 ;     C8 - C16   
    10     32      1 ;     C8 - H1    
    11     13      1 ;     C9 - C11   
    11     22      1 ;     C9 - C20   
    11     23      1 ;     C9 - C21   
    11     31      1 ;     C9 - H     
    11     48      1 ;     C9 - H17   
    12     19      1 ;    C10 - C17   
    12     31      1 ;    C10 - H     
    12     33      1 ;    C10 - H2    
    13     15      1 ;    C11 - C13   
    13     31      1 ;    C11 - H     
    13     34      1 ;    C11 - H3    
    13     35      1 ;    C11 - H4    
    13     36      1 ;    C11 - H5    
    14     20      1 ;    C12 - C18   
    14     33      1 ;    C12 - H2    
    14     43      1 ;    C12 - H12   
    14     44      1 ;    C12 - H13   
    14     49      1 ;    C12 - H18   
    14     50      1 ;    C12 - H19   
    14     52      1 ;    C12 - H21   
    14     53      1 ;    C12 - H22   
    14     54      1 ;    C12 - H23   
    14     59      1 ;    C12 - H28   
    15     25      1 ;    C13 - C23   
    15     41      1 ;    C13 - H10   
    15     42      1 ;    C13 - H11   
    15     64      1 ;    C13 - H33   
    16     17      1 ;    C14 - C15   
    16     19      1 ;    C14 - C17   
    16     33      1 ;    C14 - H2    
    16     52      1 ;    C14 - H21   
    16     53      1 ;    C14 - H22   
    16     54      1 ;    C14 - H23   
    16     59      1 ;    C14 - H28   
    17     18      1 ;    C15 - C16   
    17     21      1 ;    C15 - C19   
    17     32      1 ;    C15 - H1    
    17     55      1 ;    C15 - H24   
    17     56      1 ;    C15 - H25   
    18     19      1 ;    C16 - C17   
    18     20      1 ;    C16 - C18   
    18     33      1 ;    C16 - H2    
    18     49      1 ;    C16 - H18   
    18     50      1 ;    C16 - H19   
    19     51      1 ;    C17 - H20   
    19     57      1 ;    C17 - H26   
    19     58      1 ;    C17 - H27   
    20     55      1 ;    C18 - H24   
    20     56      1 ;    C18 - H25   
    21     49      1 ;    C19 - H18   
    21     50      1 ;    C19 - H19   
    22     24      1 ;    C20 - C22   
    22     34      1 ;    C20 - H3    
    22     63      1 ;    C20 - H32   
    23     26      1 ;    C21 - C24   
    23     27      1 ;    C21 - C25   
    23     34      1 ;    C21 - H3    
    23     60      1 ;    C21 - H29   
    23     61      1 ;    C21 - H30   
    23     62      1 ;    C21 - H31   
    23     66      1 ;    C21 - H35   
    24     28      1 ;    C22 - C26   
    24     29      1 ;    C22 - C27   
    24     30      1 ;    C22 - C28   
    24     48      1 ;    C22 - H17   
    24     67      1 ;    C22 - H36   
    24     68      1 ;    C22 - H37   
    24     69      1 ;    C22 - H38   
    25     63      1 ;    C23 - H32   
    25     70      1 ;    C23 - H39   
    25     71      1 ;    C23 - H40   
    25     72      1 ;    C23 - H41   
    25     73      1 ;    C23 - H42   
    25     74      1 ;    C23 - H43   
    25     75      1 ;    C23 - H44   
    25     76      1 ;    C23 - H45   
    25     77      1 ;    C23 - H46   
    25     78      1 ;    C23 - H47   
    26     30      1 ;    C24 - C28   
    26     64      1 ;    C24 - H33   
    26     68      1 ;    C24 - H37   
    26     69      1 ;    C24 - H38   
    27     28      1 ;    C25 - C26   
    27     29      1 ;    C25 - C27   
    27     64      1 ;    C25 - H33   
    27     67      1 ;    C25 - H36   
    28     66      1 ;    C26 - H35   
    28     73      1 ;    C26 - H42   
    28     74      1 ;    C26 - H43   
    28     75      1 ;    C26 - H44   
    29     66      1 ;    C27 - H35   
    29     70      1 ;    C27 - H39   
    29     71      1 ;    C27 - H40   
    29     72      1 ;    C27 - H41   
    30     66      1 ;    C28 - H35   
    31     32      1 ;      H - H1    
    31     37      1 ;      H - H6    
    31     38      1 ;      H - H7    
    32     33      1 ;     H1 - H2    
    32     43      1 ;     H1 - H12   
    32     44      1 ;     H1 - H13   
    33     39      1 ;     H2 - H8    
    33     40      1 ;     H2 - H9    
    34     41      1 ;     H3 - H10   
    34     42      1 ;     H3 - H11   
    34     48      1 ;     H3 - H17   
    35     39      1 ;     H4 - H8    
    35     40      1 ;     H4 - H9    
    36     39      1 ;     H5 - H8    
    36     40      1 ;     H5 - H9    
    37     41      1 ;     H6 - H10   
    37     42      1 ;     H6 - H11   
    38     41      1 ;     H7 - H10   
    38     42      1 ;     H7 - H11   
    43     51      1 ;    H12 - H20   
    44     51      1 ;    H13 - H20   
    48     60      1 ;    H17 - H29   
    48     61      1 ;    H17 - H30   
    48     62      1 ;    H17 - H31   
    48     63      1 ;    H17 - H32   
    49     57      1 ;    H18 - H26   
    49     58      1 ;    H18 - H27   
    50     57      1 ;    H19 - H26   
    50     58      1 ;    H19 - H27   
    55     59      1 ;    H24 - H28   
    56     59      1 ;    H25 - H28   
    57     59      1 ;    H26 - H28   
    58     59      1 ;    H27 - H28   
    63     64      1 ;    H32 - H33   
    64     66      1 ;    H33 - H35   
    65     19      1 ;    H34 - C17   
    65     20      1 ;    H34 - C18   
    65     59      1 ;    H34 - H28   
    66     67      1 ;    H35 - H36   
    66     68      1 ;    H35 - H37   
    66     69      1 ;    H35 - H38   
    67     70      1 ;    H36 - H39   
    67     71      1 ;    H36 - H40   
    67     72      1 ;    H36 - H41   
    67     73      1 ;    H36 - H42   
    67     74      1 ;    H36 - H43   
    67     75      1 ;    H36 - H44   
    68     76      1 ;    H37 - H45   
    68     77      1 ;    H37 - H46   
    68     78      1 ;    H37 - H47   
    69     76      1 ;    H38 - H45   
    69     77      1 ;    H38 - H46   
    69     78      1 ;    H38 - H47   

[ angles ]
;   ai     aj     ak    funct   theta         cth
     1     21     19      1    1.1005e+02    6.4065e+02 ;      O - C19    - C17   
     1     21     20      1    1.1005e+02    6.4065e+02 ;      O - C19    - C18   
     1     21     59      1    1.0996e+02    4.7187e+02 ;      O - C19    - H28   
     2      3      4      1    1.1375e+02    4.9589e+02 ;      C - C1     - C2    
     2      3      9      1    1.0383e+02    5.1748e+02 ;      C - C1     - C7    
     2      3     31      1    1.1117e+02    3.5690e+02 ;      C - C1     - H     
     2      6     11      1    1.0383e+02    5.1748e+02 ;      C - C4     - C9    
     2      6     15      1    1.1360e+02    4.9647e+02 ;      C - C4     - C13   
     2      6     34      1    1.1117e+02    3.5690e+02 ;      C - C4     - H3    
     2      7     10      1    1.1104e+02    5.0350e+02 ;      C - C5     - C8    
     2      7     35      1    1.0934e+02    3.6183e+02 ;      C - C5     - H4    
     2      7     36      1    1.0934e+02    3.6183e+02 ;      C - C5     - H5    
     2     13     45      1    1.1053e+02    3.6033e+02 ;      C - C11    - H14   
     2     13     46      1    1.1053e+02    3.6033e+02 ;      C - C11    - H15   
     2     13     47      1    1.1053e+02    3.6033e+02 ;      C - C11    - H16   
     3      2      6      1    1.0383e+02    5.1748e+02 ;     C1 - C      - C4    
     3      2      7      1    1.1375e+02    4.9589e+02 ;     C1 - C      - C5    
     3      2     13      1    1.1360e+02    4.9647e+02 ;     C1 - C      - C11   
     3      4      5      1    1.1104e+02    5.0350e+02 ;     C1 - C2     - C3    
     3      4     12      1    1.1104e+02    5.0350e+02 ;     C1 - C2     - C10   
     3      4     32      1    1.0934e+02    3.6183e+02 ;     C1 - C2     - H1    
     3      9     11      1    1.0383e+02    5.1748e+02 ;     C1 - C7     - C9    
     3      9     37      1    1.1117e+02    3.5690e+02 ;     C1 - C7     - H6    
     3      9     38      1    1.1117e+02    3.5690e+02 ;     C1 - C7     - H7    
     4      3      9      1    1.1375e+02    4.9589e+02 ;     C2 - C1     - C7    
     4      3     31      1    1.0642e+02    3.6685e+02 ;     C2 - C1     - H     
     4      5      8      1    1.1106e+02    5.0359e+02 ;     C2 - C3     - C6    
     4      5     10      1    1.1106e+02    5.0359e+02 ;     C2 - C3     - C8    
     4      5     33      1    1.0945e+02    3.6175e+02 ;     C2 - C3     - H2    
     4     12     17      1    1.1141e+02    5.0685e+02 ;     C2 - C10    - C15   
     4     12     43      1    1.0945e+02    3.6175e+02 ;     C2 - C10    - H12   
     4     12     44      1    1.0945e+02    3.6175e+02 ;     C2 - C10    - H13   
     5      4     12      1    1.1106e+02    5.0359e+02 ;     C3 - C2     - C10   
     5      4     32      1    1.0945e+02    3.6175e+02 ;     C3 - C2     - H1    
     5      8     14      1    1.1141e+02    5.0685e+02 ;     C3 - C6     - C12   
     5      8     16      1    1.1106e+02    5.0359e+02 ;     C3 - C6     - C14   
     5      8     18      1    1.1143e+02    5.0200e+02 ;     C3 - C6     - C16   
     5     10      7      1    1.1106e+02    5.0359e+02 ;     C3 - C8     - C5    
     5     10     39      1    1.0945e+02    3.6175e+02 ;     C3 - C8     - H8    
     5     10     40      1    1.0945e+02    3.6175e+02 ;     C3 - C8     - H9    
     6      2      7      1    1.1375e+02    4.9589e+02 ;     C4 - C      - C5    
     6      2     13      1    1.1360e+02    4.9647e+02 ;     C4 - C      - C11   
     6     11      9      1    1.0383e+02    5.1748e+02 ;     C4 - C9     - C7    
     6     11     41      1    1.1117e+02    3.5690e+02 ;     C4 - C9     - H10   
     6     11     42      1    1.1117e+02    3.5690e+02 ;     C4 - C9     - H11   
     6     15     22      1    1.1370e+02    4.9840e+02 ;     C4 - C13    - C20   
     6     15     23      1    1.1388e+02    5.0225e+02 ;     C4 - C13    - C21   
     6     15     48      1    1.1053e+02    3.6033e+02 ;     C4 - C13    - H17   
     7      2     13      1    1.1056e+02    5.0484e+02 ;     C5 - C      - C11   
     7     10     39      1    1.0945e+02    3.6175e+02 ;     C5 - C8     - H8    
     7     10     40      1    1.0945e+02    3.6175e+02 ;     C5 - C8     - H9    
     8      5     10      1    1.1106e+02    5.0359e+02 ;     C6 - C3     - C8    
     8      5     33      1    1.0945e+02    3.6175e+02 ;     C6 - C3     - H2    
     8     14     17      1    1.2302e+02    5.1246e+02 ;     C6 - C12    - C15   
     8     14     19      1    1.1596e+02    5.0099e+02 ;     C6 - C12    - C17   
     8     16     20      1    1.1106e+02    5.0359e+02 ;     C6 - C14    - C18   
     8     16     49      1    1.0945e+02    3.6175e+02 ;     C6 - C14    - H18   
     8     16     50      1    1.0945e+02    3.6175e+02 ;     C6 - C14    - H19   
     8     18     52      1    1.1063e+02    3.5890e+02 ;     C6 - C16    - H21   
     8     18     53      1    1.1063e+02    3.5890e+02 ;     C6 - C16    - H22   
     8     18     54      1    1.1063e+02    3.5890e+02 ;     C6 - C16    - H23   
     9      3     31      1    1.1117e+02    3.5690e+02 ;     C7 - C1     - H     
     9     11     41      1    1.1117e+02    3.5690e+02 ;     C7 - C9     - H10   
     9     11     42      1    1.1117e+02    3.5690e+02 ;     C7 - C9     - H11   
    10      5     33      1    1.0945e+02    3.6175e+02 ;     C8 - C3     - H2    
    10      7     35      1    1.0945e+02    3.6175e+02 ;     C8 - C5     - H4    
    10      7     36      1    1.0945e+02    3.6175e+02 ;     C8 - C5     - H5    
    11      6     15      1    1.1360e+02    4.9647e+02 ;     C9 - C4     - C13   
    11      6     34      1    1.1117e+02    3.5690e+02 ;     C9 - C4     - H3    
    11      9     37      1    1.1117e+02    3.5690e+02 ;     C9 - C7     - H6    
    11      9     38      1    1.1117e+02    3.5690e+02 ;     C9 - C7     - H7    
    12      4     32      1    1.0945e+02    3.6175e+02 ;    C10 - C2     - H1    
    12     17     14      1    1.2302e+02    5.1246e+02 ;    C10 - C15    - C12   
    12     17     51      1    1.1657e+02    3.5606e+02 ;    C10 - C15    - H20   
    14      8     16      1    1.1141e+02    5.0685e+02 ;    C12 - C6     - C14   
    14      8     18      1    1.0977e+02    5.0986e+02 ;    C12 - C6     - C16   
    14     17     51      1    1.2039e+02    3.8802e+02 ;    C12 - C15    - H20   
    14     19     21      1    1.1141e+02    5.0685e+02 ;    C12 - C17    - C19   
    14     19     55      1    1.0931e+02    3.6736e+02 ;    C12 - C17    - H24   
    14     19     56      1    1.0931e+02    3.6736e+02 ;    C12 - C17    - H25   
    15      6     34      1    1.0779e+02    3.6484e+02 ;    C13 - C4     - H3    
    15     22     60      1    1.0968e+02    3.6208e+02 ;    C13 - C20    - H29   
    15     22     61      1    1.0968e+02    3.6208e+02 ;    C13 - C20    - H30   
    15     22     62      1    1.0968e+02    3.6208e+02 ;    C13 - C20    - H31   
    15     23     24      1    1.2495e+02    5.0944e+02 ;    C13 - C21    - C22   
    15     23     63      1    1.1505e+02    3.5941e+02 ;    C13 - C21    - H32   
    16      8     18      1    1.1143e+02    5.0200e+02 ;    C14 - C6     - C16   
    16     20     21      1    1.1106e+02    5.0359e+02 ;    C14 - C18    - C19   
    16     20     57      1    1.0945e+02    3.6175e+02 ;    C14 - C18    - H26   
    16     20     58      1    1.0945e+02    3.6175e+02 ;    C14 - C18    - H27   
    17     12     43      1    1.0931e+02    3.6736e+02 ;    C15 - C10    - H12   
    17     12     44      1    1.0931e+02    3.6736e+02 ;    C15 - C10    - H13   
    17     14     19      1    1.2302e+02    5.1246e+02 ;    C15 - C12    - C17   
    19     21     20      1    1.1106e+02    5.0359e+02 ;    C17 - C19    - C18   
    19     21     59      1    1.0918e+02    3.6217e+02 ;    C17 - C19    - H28   
    20     16     49      1    1.0945e+02    3.6175e+02 ;    C18 - C14    - H18   
    20     16     50      1    1.0945e+02    3.6175e+02 ;    C18 - C14    - H19   
    20     21     59      1    1.0918e+02    3.6217e+02 ;    C18 - C19    - H28   
    21      1     65      1    1.0707e+02    5.4584e+02 ;    C19 - O      - H34   
    21     19     55      1    1.0945e+02    3.6175e+02 ;    C19 - C17    - H24   
    21     19     56      1    1.0945e+02    3.6175e+02 ;    C19 - C17    - H25   
    21     20     57      1    1.0945e+02    3.6175e+02 ;    C19 - C18    - H26   
    21     20     58      1    1.0945e+02    3.6175e+02 ;    C19 - C18    - H27   
    22     15     23      1    1.1258e+02    5.0543e+02 ;    C20 - C13    - C21   
    22     15     48      1    1.0968e+02    3.6208e+02 ;    C20 - C13    - H17   
    23     15     48      1    1.1065e+02    3.6618e+02 ;    C21 - C13    - H17   
    23     24     25      1    1.2495e+02    5.0944e+02 ;    C21 - C22    - C23   
    23     24     64      1    1.2039e+02    3.8802e+02 ;    C21 - C22    - H33   
    24     23     63      1    1.2039e+02    3.8802e+02 ;    C22 - C21    - H32   
    24     25     26      1    1.1258e+02    5.0543e+02 ;    C22 - C23    - C24   
    24     25     27      1    1.1258e+02    5.0543e+02 ;    C22 - C23    - C25   
    24     25     66      1    1.1065e+02    3.6618e+02 ;    C22 - C23    - H35   
    25     24     64      1    1.1505e+02    3.5941e+02 ;    C23 - C22    - H33   
    25     26     28      1    1.1263e+02    5.0099e+02 ;    C23 - C24    - C26   
    25     26     29      1    1.1263e+02    5.0099e+02 ;    C23 - C24    - C27   
    25     26     67      1    1.0968e+02    3.6208e+02 ;    C23 - C24    - H36   
    25     27     30      1    1.1263e+02    5.0099e+02 ;    C23 - C25    - C28   
    25     27     68      1    1.0968e+02    3.6208e+02 ;    C23 - C25    - H37   
    25     27     69      1    1.0968e+02    3.6208e+02 ;    C23 - C25    - H38   
    26     25     27      1    1.1263e+02    5.0099e+02 ;    C24 - C23    - C25   
    26     25     66      1    1.0968e+02    3.6208e+02 ;    C24 - C23    - H35   
    26     28     70      1    1.0968e+02    3.6208e+02 ;    C24 - C26    - H39   
    26     28     71      1    1.0968e+02    3.6208e+02 ;    C24 - C26    - H40   
    26     28     72      1    1.0968e+02    3.6208e+02 ;    C24 - C26    - H41   
    26     29     73      1    1.0968e+02    3.6208e+02 ;    C24 - C27    - H42   
    26     29     74      1    1.0968e+02    3.6208e+02 ;    C24 - C27    - H43   
    26     29     75      1    1.0968e+02    3.6208e+02 ;    C24 - C27    - H44   
    27     25     66      1    1.0968e+02    3.6208e+02 ;    C25 - C23    - H35   
    27     30     76      1    1.0968e+02    3.6208e+02 ;    C25 - C28    - H45   
    27     30     77      1    1.0968e+02    3.6208e+02 ;    C25 - C28    - H46   
    27     30     78      1    1.0968e+02    3.6208e+02 ;    C25 - C28    - H47   
    28     26     29      1    1.1263e+02    5.0099e+02 ;    C26 - C24    - C27   
    28     26     67      1    1.0968e+02    3.6208e+02 ;    C26 - C24    - H36   
    29     26     67      1    1.0968e+02    3.6208e+02 ;    C27 - C24    - H36   
    30     27     68      1    1.0968e+02    3.6208e+02 ;    C28 - C25    - H37   
    30     27     69      1    1.0968e+02    3.6208e+02 ;    C28 - C25    - H38   
    35      7     36      1    1.0662e+02    3.0066e+02 ;     H4 - C5     - H5    
    37      9     38      1    1.0722e+02    3.0049e+02 ;     H6 - C7     - H7    
    39     10     40      1    1.0662e+02    3.0066e+02 ;     H8 - C8     - H9    
    41     11     42      1    1.0722e+02    3.0049e+02 ;    H10 - C9     - H11   
    43     12     44      1    1.0662e+02    3.0066e+02 ;    H12 - C10    - H13   
    45     13     46      1    1.0773e+02    2.9957e+02 ;    H14 - C11    - H15   
    45     13     47      1    1.0773e+02    2.9957e+02 ;    H14 - C11    - H16   
    46     13     47      1    1.0773e+02    2.9957e+02 ;    H15 - C11    - H16   
    49     16     50      1    1.0662e+02    3.0066e+02 ;    H18 - C14    - H19   
    52     18     53      1    1.0773e+02    2.9957e+02 ;    H21 - C16    - H22   
    52     18     54      1    1.0773e+02    2.9957e+02 ;    H21 - C16    - H23   
    53     18     54      1    1.0773e+02    2.9957e+02 ;    H22 - C16    - H23   
    55     19     56      1    1.0662e+02    3.0066e+02 ;    H24 - C17    - H25   
    57     20     58      1    1.0662e+02    3.0066e+02 ;    H26 - C18    - H27   
    60     22     61      1    1.0773e+02    2.9957e+02 ;    H29 - C20    - H30   
    60     22     62      1    1.0773e+02    2.9957e+02 ;    H29 - C20    - H31   
    61     22     62      1    1.0773e+02    2.9957e+02 ;    H30 - C20    - H31   
    68     27     69      1    1.0773e+02    2.9957e+02 ;    H37 - C25    - H38   
    70     28     71      1    1.0773e+02    2.9957e+02 ;    H39 - C26    - H40   
    70     28     72      1    1.0773e+02    2.9957e+02 ;    H39 - C26    - H41   
    71     28     72      1    1.0773e+02    2.9957e+02 ;    H40 - C26    - H41   
    73     29     74      1    1.0773e+02    2.9957e+02 ;    H42 - C27    - H43   
    73     29     75      1    1.0773e+02    2.9957e+02 ;    H42 - C27    - H44   
    74     29     75      1    1.0773e+02    2.9957e+02 ;    H43 - C27    - H44   
    76     30     77      1    1.0773e+02    2.9957e+02 ;    H45 - C28    - H46   
    76     30     78      1    1.0773e+02    2.9957e+02 ;    H45 - C28    - H47   
    77     30     78      1    1.0773e+02    2.9957e+02 ;    H46 - C28    - H47   

[ dihedrals ] ; propers
; for gromacs 4.5 or higher, using funct 9
;    i      j      k      l   func   phase     kd      pn
     1     21     19     14      9     0.00   0.65084   3 ;      O-   C19-   C17-   C12
     1     21     19     55      9     0.00   0.37656   3 ;      O-   C19-   C17-   H24
     1     21     19     56      9     0.00   0.37656   3 ;      O-   C19-   C17-   H25
     1     21     20     16      9     0.00   0.75312   3 ;      O-   C19-   C18-   C14
     1     21     20     57      9     0.00   0.37656   3 ;      O-   C19-   C18-   H26
     1     21     20     58      9     0.00   0.37656   3 ;      O-   C19-   C18-   H27
     2      3      4      5      9     0.00   2.17568   3 ;      C-    C1-    C2-    C3
     2      3      4     12      9     0.00   2.17568   3 ;      C-    C1-    C2-   C10
     2      3      4     32      9     0.00   0.54392   3 ;      C-    C1-    C2-    H1
     2      3      9     11      9     0.00   2.17568   3 ;      C-    C1-    C7-    C9
     2      3      9     37      9     0.00   0.54392   3 ;      C-    C1-    C7-    H6
     2      3      9     38      9     0.00   0.54392   3 ;      C-    C1-    C7-    H7
     2      6     11      9      9     0.00   2.17568   3 ;      C-    C4-    C9-    C7
     2      6     11     41      9     0.00   0.54392   3 ;      C-    C4-    C9-   H10
     2      6     11     42      9     0.00   0.54392   3 ;      C-    C4-    C9-   H11
     2      6     15     22      9     0.00   2.17568   3 ;      C-    C4-   C13-   C20
     2      6     15     23      9     0.00   0.65084   3 ;      C-    C4-   C13-   C21
     2      6     15     48      9     0.00   0.54392   3 ;      C-    C4-   C13-   H17
     2      7     10      5      9     0.00   2.17568   3 ;      C-    C5-    C8-    C3
     2      7     10     39      9     0.00   0.54392   3 ;      C-    C5-    C8-    H8
     2      7     10     40      9     0.00   0.54392   3 ;      C-    C5-    C8-    H9
     3      2      6     11      9     0.00   2.17568   3 ;     C1-     C-    C4-    C9
     3      2      6     15      9     0.00   2.17568   3 ;     C1-     C-    C4-   C13
     3      2      6     34      9     0.00   0.54392   3 ;     C1-     C-    C4-    H3
     3      2      7     10      9     0.00   2.17568   3 ;     C1-     C-    C5-    C8
     3      2      7     35      9     0.00   0.54392   3 ;     C1-     C-    C5-    H4
     3      2      7     36      9     0.00   0.54392   3 ;     C1-     C-    C5-    H5
     3      2     13     45      9     0.00   0.54392   3 ;     C1-     C-   C11-   H14
     3      2     13     46      9     0.00   0.54392   3 ;     C1-     C-   C11-   H15
     3      2     13     47      9     0.00   0.54392   3 ;     C1-     C-   C11-   H16
     3      4      5      8      9     0.00   2.17568   3 ;     C1-    C2-    C3-    C6
     3      4      5     10      9     0.00   2.17568   3 ;     C1-    C2-    C3-    C8
     3      4      5     33      9     0.00   0.54392   3 ;     C1-    C2-    C3-    H2
     3      4     12     17      9     0.00   0.65084   3 ;     C1-    C2-   C10-   C15
     3      4     12     43      9     0.00   0.54392   3 ;     C1-    C2-   C10-   H12
     3      4     12     44      9     0.00   0.54392   3 ;     C1-    C2-   C10-   H13
     3      9     11      6      9     0.00   2.17568   3 ;     C1-    C7-    C9-    C4
     3      9     11     41      9     0.00   0.54392   3 ;     C1-    C7-    C9-   H10
     3      9     11     42      9     0.00   0.54392   3 ;     C1-    C7-    C9-   H11
     4      3      2      6      9     0.00   2.17568   3 ;     C2-    C1-     C-    C4
     4      3      2      7      9     0.00   2.17568   3 ;     C2-    C1-     C-    C5
     4      3      2     13      9     0.00   2.17568   3 ;     C2-    C1-     C-   C11
     4      3      9     11      9     0.00   2.17568   3 ;     C2-    C1-    C7-    C9
     4      3      9     37      9     0.00   0.54392   3 ;     C2-    C1-    C7-    H6
     4      3      9     38      9     0.00   0.54392   3 ;     C2-    C1-    C7-    H7
     4      5      8     14      9     0.00   0.65084   3 ;     C2-    C3-    C6-   C12
     4      5      8     16      9     0.00   2.17568   3 ;     C2-    C3-    C6-   C14
     4      5      8     18      9     0.00   2.17568   3 ;     C2-    C3-    C6-   C16
     4      5     10      7      9     0.00   2.17568   3 ;     C2-    C3-    C8-    C5
     4      5     10     39      9     0.00   0.54392   3 ;     C2-    C3-    C8-    H8
     4      5     10     40      9     0.00   0.54392   3 ;     C2-    C3-    C8-    H9
     4     12     17     14      9     0.00   0.00000   0 ;     C2-   C10-   C15-   C12
     4     12     17     51      9     0.00   0.00000   0 ;     C2-   C10-   C15-   H20
     5      4      3      9      9     0.00   2.17568   3 ;     C3-    C2-    C1-    C7
     5      4      3     31      9     0.00   0.54392   3 ;     C3-    C2-    C1-     H
     5      4     12     17      9     0.00   0.65084   3 ;     C3-    C2-   C10-   C15
     5      4     12     43      9     0.00   0.54392   3 ;     C3-    C2-   C10-   H12
     5      4     12     44      9     0.00   0.54392   3 ;     C3-    C2-   C10-   H13
     5      8     14     17      9     0.00   0.00000   0 ;     C3-    C6-   C12-   C15
     5      8     14     19      9     0.00   0.00000   0 ;     C3-    C6-   C12-   C17
     5      8     16     20      9     0.00   2.17568   3 ;     C3-    C6-   C14-   C18
     5      8     16     49      9     0.00   0.54392   3 ;     C3-    C6-   C14-   H18
     5      8     16     50      9     0.00   0.54392   3 ;     C3-    C6-   C14-   H19
     5      8     18     52      9     0.00   0.54392   3 ;     C3-    C6-   C16-   H21
     5      8     18     53      9     0.00   0.54392   3 ;     C3-    C6-   C16-   H22
     5      8     18     54      9     0.00   0.54392   3 ;     C3-    C6-   C16-   H23
     5     10      7     35      9     0.00   0.54392   3 ;     C3-    C8-    C5-    H4
     5     10      7     36      9     0.00   0.54392   3 ;     C3-    C8-    C5-    H5
     6      2      3      9      9     0.00   2.17568   3 ;     C4-     C-    C1-    C7
     6      2      3     31      9     0.00   0.54392   3 ;     C4-     C-    C1-     H
     6      2      7     10      9     0.00   2.17568   3 ;     C4-     C-    C5-    C8
     6      2      7     35      9     0.00   0.54392   3 ;     C4-     C-    C5-    H4
     6      2      7     36      9     0.00   0.54392   3 ;     C4-     C-    C5-    H5
     6      2     13     45      9     0.00   0.54392   3 ;     C4-     C-   C11-   H14
     6      2     13     46      9     0.00   0.54392   3 ;     C4-     C-   C11-   H15
     6      2     13     47      9     0.00   0.54392   3 ;     C4-     C-   C11-   H16
     6     11      9     37      9     0.00   0.54392   3 ;     C4-    C9-    C7-    H6
     6     11      9     38      9     0.00   0.54392   3 ;     C4-    C9-    C7-    H7
     6     15     22     60      9     0.00   0.54392   3 ;     C4-   C13-   C20-   H29
     6     15     22     61      9     0.00   0.54392   3 ;     C4-   C13-   C20-   H30
     6     15     22     62      9     0.00   0.54392   3 ;     C4-   C13-   C20-   H31
     6     15     23     24      9     0.00   0.00000   0 ;     C4-   C13-   C21-   C22
     6     15     23     63      9     0.00   0.00000   0 ;     C4-   C13-   C21-   H32
     7      2      3      9      9     0.00   2.17568   3 ;     C5-     C-    C1-    C7
     7      2      3     31      9     0.00   0.54392   3 ;     C5-     C-    C1-     H
     7      2      6     11      9     0.00   2.17568   3 ;     C5-     C-    C4-    C9
     7      2      6     15      9     0.00   2.17568   3 ;     C5-     C-    C4-   C13
     7      2      6     34      9     0.00   0.54392   3 ;     C5-     C-    C4-    H3
     7      2     13     45      9     0.00   0.54392   3 ;     C5-     C-   C11-   H14
     7      2     13     46      9     0.00   0.54392   3 ;     C5-     C-   C11-   H15
     7      2     13     47      9     0.00   0.54392   3 ;     C5-     C-   C11-   H16
     7     10      5      8      9     0.00   2.17568   3 ;     C5-    C8-    C3-    C6
     7     10      5     33      9     0.00   0.54392   3 ;     C5-    C8-    C3-    H2
     8      5      4     12      9     0.00   2.17568   3 ;     C6-    C3-    C2-   C10
     8      5      4     32      9     0.00   0.54392   3 ;     C6-    C3-    C2-    H1
     8      5     10     39      9     0.00   0.54392   3 ;     C6-    C3-    C8-    H8
     8      5     10     40      9     0.00   0.54392   3 ;     C6-    C3-    C8-    H9
     8     14     17     12      9     0.00   0.62760   1 ;     C6-   C12-   C15-   C10
     8     14     17     12      9   180.00   5.56472   3 ;     C6-   C12-   C15-   C10
     8     14     17     12      9   180.00  24.18352   2 ;     C6-   C12-   C15-   C10
     8     14     17     51      9   180.00  27.82360   2 ;     C6-   C12-   C15-   H20
     8     14     19     21      9     0.00   0.00000   0 ;     C6-   C12-   C17-   C19
     8     14     19     55      9     0.00   0.62760   3 ;     C6-   C12-   C17-   H24
     8     14     19     56      9     0.00   0.62760   3 ;     C6-   C12-   C17-   H25
     8     16     20     21      9     0.00   2.17568   3 ;     C6-   C14-   C18-   C19
     8     16     20     57      9     0.00   0.54392   3 ;     C6-   C14-   C18-   H26
     8     16     20     58      9     0.00   0.54392   3 ;     C6-   C14-   C18-   H27
     9      3      2     13      9     0.00   2.17568   3 ;     C7-    C1-     C-   C11
     9      3      4     12      9     0.00   2.17568   3 ;     C7-    C1-    C2-   C10
     9      3      4     32      9     0.00   0.54392   3 ;     C7-    C1-    C2-    H1
     9     11      6     15      9     0.00   2.17568   3 ;     C7-    C9-    C4-   C13
     9     11      6     34      9     0.00   0.54392   3 ;     C7-    C9-    C4-    H3
    10      5      4     12      9     0.00   2.17568   3 ;     C8-    C3-    C2-   C10
    10      5      4     32      9     0.00   0.54392   3 ;     C8-    C3-    C2-    H1
    10      5      8     14      9     0.00   0.65084   3 ;     C8-    C3-    C6-   C12
    10      5      8     16      9     0.00   2.17568   3 ;     C8-    C3-    C6-   C14
    10      5      8     18      9     0.00   2.17568   3 ;     C8-    C3-    C6-   C16
    10      7      2     13      9     0.00   2.17568   3 ;     C8-    C5-     C-   C11
    11      6      2     13      9     0.00   2.17568   3 ;     C9-    C4-     C-   C11
    11      6     15     22      9     0.00   2.17568   3 ;     C9-    C4-   C13-   C20
    11      6     15     23      9     0.00   0.65084   3 ;     C9-    C4-   C13-   C21
    11      6     15     48      9     0.00   0.54392   3 ;     C9-    C4-   C13-   H17
    11      9      3     31      9     0.00   0.54392   3 ;     C9-    C7-    C1-     H
    12      4      3     31      9     0.00   0.54392   3 ;    C10-    C2-    C1-     H
    12      4      5     33      9     0.00   0.54392   3 ;    C10-    C2-    C3-    H2
    12     17     14     19      9     0.00   0.62760   1 ;    C10-   C15-   C12-   C17
    12     17     14     19      9   180.00   5.56472   3 ;    C10-   C15-   C12-   C17
    12     17     14     19      9   180.00  24.18352   2 ;    C10-   C15-   C12-   C17
    13      2      3     31      9     0.00   0.54392   3 ;    C11-     C-    C1-     H
    13      2      6     15      9     0.00   2.17568   3 ;    C11-     C-    C4-   C13
    13      2      6     34      9     0.00   0.54392   3 ;    C11-     C-    C4-    H3
    13      2      7     35      9     0.00   0.54392   3 ;    C11-     C-    C5-    H4
    13      2      7     36      9     0.00   0.54392   3 ;    C11-     C-    C5-    H5
    14      8      5     33      9     0.00   0.65084   3 ;    C12-    C6-    C3-    H2
    14      8     16     20      9     0.00   0.65084   3 ;    C12-    C6-   C14-   C18
    14      8     16     49      9     0.00   0.65084   3 ;    C12-    C6-   C14-   H18
    14      8     16     50      9     0.00   0.65084   3 ;    C12-    C6-   C14-   H19
    14      8     18     52      9     0.00   0.65084   3 ;    C12-    C6-   C16-   H21
    14      8     18     53      9     0.00   0.65084   3 ;    C12-    C6-   C16-   H22
    14      8     18     54      9     0.00   0.65084   3 ;    C12-    C6-   C16-   H23
    14     17     12     43      9   180.00   1.08784   3 ;    C12-   C15-   C10-   H12
    14     17     12     44      9   180.00   1.08784   3 ;    C12-   C15-   C10-   H13
    14     19     21     20      9     0.00   0.65084   3 ;    C12-   C17-   C19-   C18
    14     19     21     59      9     0.00   0.65084   3 ;    C12-   C17-   C19-   H28
    15      6     11     41      9     0.00   0.54392   3 ;    C13-    C4-    C9-   H10
    15      6     11     42      9     0.00   0.54392   3 ;    C13-    C4-    C9-   H11
    15     23     24     25      9     0.00   0.62760   1 ;    C13-   C21-   C22-   C23
    15     23     24     25      9   180.00   5.56472   3 ;    C13-   C21-   C22-   C23
    15     23     24     25      9   180.00  24.18352   2 ;    C13-   C21-   C22-   C23
    15     23     24     64      9   180.00  27.82360   2 ;    C13-   C21-   C22-   H33
    16      8      5     33      9     0.00   0.54392   3 ;    C14-    C6-    C3-    H2
    16      8     14     17      9     0.00   0.00000   0 ;    C14-    C6-   C12-   C15
    16      8     14     19      9     0.00   0.00000   0 ;    C14-    C6-   C12-   C17
    16      8     18     52      9     0.00   0.54392   3 ;    C14-    C6-   C16-   H21
    16      8     18     53      9     0.00   0.54392   3 ;    C14-    C6-   C16-   H22
    16      8     18     54      9     0.00   0.54392   3 ;    C14-    C6-   C16-   H23
    16     20     21     19      9     0.00   2.17568   3 ;    C14-   C18-   C19-   C17
    16     20     21     59      9     0.00   0.65084   3 ;    C14-   C18-   C19-   H28
    17     12      4     32      9     0.00   0.65084   3 ;    C15-   C10-    C2-    H1
    17     14      8     18      9     0.00   0.00000   0 ;    C15-   C12-    C6-   C16
    17     14     19     21      9     0.00   0.00000   0 ;    C15-   C12-   C17-   C19
    17     14     19     55      9   180.00   1.08784   3 ;    C15-   C12-   C17-   H24
    17     14     19     56      9   180.00   1.08784   3 ;    C15-   C12-   C17-   H25
    18      8      5     33      9     0.00   0.54392   3 ;    C16-    C6-    C3-    H2
    18      8     14     19      9     0.00   0.00000   0 ;    C16-    C6-   C12-   C17
    18      8     16     20      9     0.00   2.17568   3 ;    C16-    C6-   C14-   C18
    18      8     16     49      9     0.00   0.54392   3 ;    C16-    C6-   C14-   H18
    18      8     16     50      9     0.00   0.54392   3 ;    C16-    C6-   C14-   H19
    19     14     17     51      9   180.00  27.82360   2 ;    C17-   C12-   C15-   H20
    19     21     20     57      9     0.00   0.54392   3 ;    C17-   C19-   C18-   H26
    19     21     20     58      9     0.00   0.54392   3 ;    C17-   C19-   C18-   H27
    20     21     19     55      9     0.00   0.54392   3 ;    C18-   C19-   C17-   H24
    20     21     19     56      9     0.00   0.54392   3 ;    C18-   C19-   C17-   H25
    21     20     16     49      9     0.00   0.54392   3 ;    C19-   C18-   C14-   H18
    21     20     16     50      9     0.00   0.54392   3 ;    C19-   C18-   C14-   H19
    22     15      6     34      9     0.00   0.54392   3 ;    C20-   C13-    C4-    H3
    22     15     23     24      9     0.00   0.00000   0 ;    C20-   C13-   C21-   C22
    22     15     23     63      9     0.00   0.00000   0 ;    C20-   C13-   C21-   H32
    23     15      6     34      9     0.00   0.65084   3 ;    C21-   C13-    C4-    H3
    23     15     22     60      9     0.00   0.65084   3 ;    C21-   C13-   C20-   H29
    23     15     22     61      9     0.00   0.65084   3 ;    C21-   C13-   C20-   H30
    23     15     22     62      9     0.00   0.65084   3 ;    C21-   C13-   C20-   H31
    23     24     25     26      9     0.00   0.00000   0 ;    C21-   C22-   C23-   C24
    23     24     25     27      9     0.00   0.00000   0 ;    C21-   C22-   C23-   C25
    23     24     25     66      9   180.00   1.08784   3 ;    C21-   C22-   C23-   H35
    24     23     15     48      9   180.00   1.08784   3 ;    C22-   C21-   C13-   H17
    24     25     26     28      9     0.00   0.65084   3 ;    C22-   C23-   C24-   C26
    24     25     26     29      9     0.00   0.65084   3 ;    C22-   C23-   C24-   C27
    24     25     26     67      9     0.00   0.65084   3 ;    C22-   C23-   C24-   H36
    24     25     27     30      9     0.00   0.65084   3 ;    C22-   C23-   C25-   C28
    24     25     27     68      9     0.00   0.65084   3 ;    C22-   C23-   C25-   H37
    24     25     27     69      9     0.00   0.65084   3 ;    C22-   C23-   C25-   H38
    25     24     23     63      9   180.00  27.82360   2 ;    C23-   C22-   C21-   H32
    25     26     28     70      9     0.00   0.54392   3 ;    C23-   C24-   C26-   H39
    25     26     28     71      9     0.00   0.54392   3 ;    C23-   C24-   C26-   H40
    25     26     28     72      9     0.00   0.54392   3 ;    C23-   C24-   C26-   H41
    25     26     29     73      9     0.00   0.54392   3 ;    C23-   C24-   C27-   H42
    25     26     29     74      9     0.00   0.54392   3 ;    C23-   C24-   C27-   H43
    25     26     29     75      9     0.00   0.54392   3 ;    C23-   C24-   C27-   H44
    25     27     30     76      9     0.00   0.54392   3 ;    C23-   C25-   C28-   H45
    25     27     30     77      9     0.00   0.54392   3 ;    C23-   C25-   C28-   H46
    25     27     30     78      9     0.00   0.54392   3 ;    C23-   C25-   C28-   H47
    26     25     24     64      9     0.00   0.00000   0 ;    C24-   C23-   C22-   H33
    26     25     27     30      9     0.00   2.17568   3 ;    C24-   C23-   C25-   C28
    26     25     27     68      9     0.00   0.54392   3 ;    C24-   C23-   C25-   H37
    26     25     27     69      9     0.00   0.54392   3 ;    C24-   C23-   C25-   H38
    27     25     24     64      9     0.00   0.00000   0 ;    C25-   C23-   C22-   H33
    27     25     26     28      9     0.00   2.17568   3 ;    C25-   C23-   C24-   C26
    27     25     26     29      9     0.00   2.17568   3 ;    C25-   C23-   C24-   C27
    27     25     26     67      9     0.00   0.54392   3 ;    C25-   C23-   C24-   H36
    28     26     25     66      9     0.00   0.54392   3 ;    C26-   C24-   C23-   H35
    28     26     29     73      9     0.00   0.54392   3 ;    C26-   C24-   C27-   H42
    28     26     29     74      9     0.00   0.54392   3 ;    C26-   C24-   C27-   H43
    28     26     29     75      9     0.00   0.54392   3 ;    C26-   C24-   C27-   H44
    29     26     25     66      9     0.00   0.54392   3 ;    C27-   C24-   C23-   H35
    29     26     28     70      9     0.00   0.54392   3 ;    C27-   C24-   C26-   H39
    29     26     28     71      9     0.00   0.54392   3 ;    C27-   C24-   C26-   H40
    29     26     28     72      9     0.00   0.54392   3 ;    C27-   C24-   C26-   H41
    30     27     25     66      9     0.00   0.54392   3 ;    C28-   C25-   C23-   H35
    31      3      4     32      9     0.00   0.50208   3 ;      H-    C1-    C2-    H1
    31      3      9     37      9     0.00   0.50208   3 ;      H-    C1-    C7-    H6
    31      3      9     38      9     0.00   0.50208   3 ;      H-    C1-    C7-    H7
    32      4      5     33      9     0.00   0.50208   3 ;     H1-    C2-    C3-    H2
    32      4     12     43      9     0.00   0.50208   3 ;     H1-    C2-   C10-   H12
    32      4     12     44      9     0.00   0.50208   3 ;     H1-    C2-   C10-   H13
    33      5     10     39      9     0.00   0.50208   3 ;     H2-    C3-    C8-    H8
    33      5     10     40      9     0.00   0.50208   3 ;     H2-    C3-    C8-    H9
    34      6     11     41      9     0.00   0.50208   3 ;     H3-    C4-    C9-   H10
    34      6     11     42      9     0.00   0.50208   3 ;     H3-    C4-    C9-   H11
    34      6     15     48      9     0.00   0.50208   3 ;     H3-    C4-   C13-   H17
    35      7     10     39      9     0.00   0.50208   3 ;     H4-    C5-    C8-    H8
    35      7     10     40      9     0.00   0.50208   3 ;     H4-    C5-    C8-    H9
    36      7     10     39      9     0.00   0.50208   3 ;     H5-    C5-    C8-    H8
    36      7     10     40      9     0.00   0.50208   3 ;     H5-    C5-    C8-    H9
    37      9     11     41      9     0.00   0.50208   3 ;     H6-    C7-    C9-   H10
    37      9     11     42      9     0.00   0.50208   3 ;     H6-    C7-    C9-   H11
    38      9     11     41      9     0.00   0.50208   3 ;     H7-    C7-    C9-   H10
    38      9     11     42      9     0.00   0.50208   3 ;     H7-    C7-    C9-   H11
    43     12     17     51      9     0.00   0.00000   0 ;    H12-   C10-   C15-   H20
    44     12     17     51      9     0.00   0.00000   0 ;    H13-   C10-   C15-   H20
    48     15     22     60      9     0.00   0.50208   3 ;    H17-   C13-   C20-   H29
    48     15     22     61      9     0.00   0.50208   3 ;    H17-   C13-   C20-   H30
    48     15     22     62      9     0.00   0.50208   3 ;    H17-   C13-   C20-   H31
    48     15     23     63      9     0.00   0.00000   0 ;    H17-   C13-   C21-   H32
    49     16     20     57      9     0.00   0.50208   3 ;    H18-   C14-   C18-   H26
    49     16     20     58      9     0.00   0.50208   3 ;    H18-   C14-   C18-   H27
    50     16     20     57      9     0.00   0.50208   3 ;    H19-   C14-   C18-   H26
    50     16     20     58      9     0.00   0.50208   3 ;    H19-   C14-   C18-   H27
    55     19     21     59      9     0.00   0.65084   3 ;    H24-   C17-   C19-   H28
    56     19     21     59      9     0.00   0.65084   3 ;    H25-   C17-   C19-   H28
    57     20     21     59      9     0.00   0.65084   3 ;    H26-   C18-   C19-   H28
    58     20     21     59      9     0.00   0.65084   3 ;    H27-   C18-   C19-   H28
    63     23     24     64      9   180.00  27.82360   2 ;    H32-   C21-   C22-   H33
    64     24     25     66      9     0.00   0.00000   0 ;    H33-   C22-   C23-   H35
    65      1     21     19      9     0.00   0.25104   3 ;    H34-     O-   C19-   C17
    65      1     21     20      9     0.00   0.25104   3 ;    H34-     O-   C19-   C18
    65      1     21     59      9     0.00   0.51463   3 ;    H34-     O-   C19-   H28
    66     25     26     67      9     0.00   0.50208   3 ;    H35-   C23-   C24-   H36
    66     25     27     68      9     0.00   0.50208   3 ;    H35-   C23-   C25-   H37
    66     25     27     69      9     0.00   0.50208   3 ;    H35-   C23-   C25-   H38
    67     26     28     70      9     0.00   0.50208   3 ;    H36-   C24-   C26-   H39
    67     26     28     71      9     0.00   0.50208   3 ;    H36-   C24-   C26-   H40
    67     26     28     72      9     0.00   0.50208   3 ;    H36-   C24-   C26-   H41
    67     26     29     73      9     0.00   0.50208   3 ;    H36-   C24-   C27-   H42
    67     26     29     74      9     0.00   0.50208   3 ;    H36-   C24-   C27-   H43
    67     26     29     75      9     0.00   0.50208   3 ;    H36-   C24-   C27-   H44
    68     27     30     76      9     0.00   0.50208   3 ;    H37-   C25-   C28-   H45
    68     27     30     77      9     0.00   0.50208   3 ;    H37-   C25-   C28-   H46
    68     27     30     78      9     0.00   0.50208   3 ;    H37-   C25-   C28-   H47
    69     27     30     76      9     0.00   0.50208   3 ;    H38-   C25-   C28-   H45
    69     27     30     77      9     0.00   0.50208   3 ;    H38-   C25-   C28-   H46
    69     27     30     78      9     0.00   0.50208   3 ;    H38-   C25-   C28-   H47

[ dihedrals ] ; impropers
; treated as propers in GROMACS to use correct AMBER analytical function
;    i      j      k      l   func   phase     kd      pn
    14     12     17     51      4   180.00   4.60240   2 ;    C12-   C10-   C15-   H20
    17      8     14     19      4   180.00   4.60240   2 ;    C15-    C6-   C12-   C17
    23     25     24     64      4   180.00   4.60240   2 ;    C21-   C23-   C22-   H33
    24     15     23     63      4   180.00   4.60240   2 ;    C22-   C13-   C21-   H32
