%VERSION  VERSION_STAMP = V0001.000  DATE = 02/09/26  17:59:14                  
%FLAG TITLE                                                                     
%FORMAT(20a4)                                                                   
5280794                                                                         
%FLAG POINTERS                                                                  
%FORMAT(10I8)                                                                   
      78       7      48      33     112      51     196      80       0       0
     506       1      33      51      80      16      36      16       9       0
       0       0       0       0       0       0       0       0      78       0
       0
%FLAG ATOM_NAME                                                                 
%FORMAT(20a4)                                                                   
O   C   C1  C2  C3  C4  C5  C6  C7  C8  C9  C10 C11 C12 C13 C14 C15 C16 C17 C18 
C19 C20 C21 C22 C23 C24 C25 C26 C27 C28 H   H1  H2  H3  H4  H5  H6  H7  H8  H9  
H10 H11 H12 H13 H14 H15 H16 H17 H18 H19 H20 H21 H22 H23 H24 H25 H26 H27 H28 H29 
H30 H31 H32 H33 H34 H35 H36 H37 H38 H39 H40 H41 H42 H43 H44 H45 H46 H47 
%FLAG CHARGE                                                                    
%FORMAT(5E16.8)                                                                 
 -1.08750686E+01 -8.20003500E-01 -1.17898281E+00 -8.50981410E-01 -8.87426010E-01
 -9.42092910E-01 -1.19173842E+00 -1.45778400E-02 -1.35573912E+00 -1.37396142E+00
 -1.42862832E+00 -7.87203360E-01 -1.49605083E+00 -1.99351962E+00 -4.82890950E-01
 -1.22818302E+00 -2.97387936E+00 -1.49605083E+00 -1.31565006E+00 -2.01174192E+00
  2.58938883E+00 -1.58716233E+00 -3.08321316E+00 -2.93743476E+00 -5.55780150E-01
 -1.06964901E+00 -1.33751682E+00 -1.66916268E+00 -1.66916268E+00 -1.69649613E+00
  8.32759110E-01  1.06964901E+00  8.87426010E-01  8.50981410E-01  7.50758760E-01
  7.50758760E-01  7.59869910E-01  7.59869910E-01  7.41647610E-01  7.41647610E-01
  7.96314510E-01  7.96314510E-01  9.05648310E-01  9.05648310E-01  6.50536110E-01
  6.50536110E-01  6.50536110E-01  9.78537510E-01  8.23647960E-01  8.23647960E-01
  2.20489830E+00  6.56604136E-01  6.56604136E-01  6.56604136E-01  9.42092910E-01
  9.42092910E-01  8.60092560E-01  8.60092560E-01  1.45231731E+00  6.44468084E-01
  6.44468084E-01  6.44468084E-01  2.20489830E+00  2.20489830E+00  7.19780850E+00
  9.23870610E-01  8.14536810E-01  7.14314160E-01  7.14314160E-01  6.26245784E-01
  6.26245784E-01  6.26245784E-01  6.26245784E-01  6.26245784E-01  6.26245784E-01
  6.20159536E-01  6.20159536E-01  6.20159536E-01
%FLAG ATOMIC_NUMBER                                                             
%FORMAT(10I8)                                                                   
       8       6       6       6       6       6       6       6       6       6
       6       6       6       6       6       6       6       6       6       6
       6       6       6       6       6       6       6       6       6       6
       1       1       1       1       1       1       1       1       1       1
       1       1       1       1       1       1       1       1       1       1
       1       1       1       1       1       1       1       1       1       1
       1       1       1       1       1       1       1       1       1       1
       1       1       1       1       1       1       1       1
%FLAG MASS                                                                      
%FORMAT(5E16.8)                                                                 
  1.60000000E+01  1.20100000E+01  1.20100000E+01  1.20100000E+01  1.20100000E+01
  1.20100000E+01  1.20100000E+01  1.20100000E+01  1.20100000E+01  1.20100000E+01
  1.20100000E+01  1.20100000E+01  1.20100000E+01  1.20100000E+01  1.20100000E+01
  1.20100000E+01  1.20100000E+01  1.20100000E+01  1.20100000E+01  1.20100000E+01
  1.20100000E+01  1.20100000E+01  1.20100000E+01  1.20100000E+01  1.20100000E+01
  1.20100000E+01  1.20100000E+01  1.20100000E+01  1.20100000E+01  1.20100000E+01
  1.00800000E+00  1.00800000E+00  1.00800000E+00  1.00800000E+00  1.00800000E+00
  1.00800000E+00  1.00800000E+00  1.00800000E+00  1.00800000E+00  1.00800000E+00
  1.00800000E+00  1.00800000E+00  1.00800000E+00  1.00800000E+00  1.00800000E+00
  1.00800000E+00  1.00800000E+00  1.00800000E+00  1.00800000E+00  1.00800000E+00
  1.00800000E+00  1.00800000E+00  1.00800000E+00  1.00800000E+00  1.00800000E+00
  1.00800000E+00  1.00800000E+00  1.00800000E+00  1.00800000E+00  1.00800000E+00
  1.00800000E+00  1.00800000E+00  1.00800000E+00  1.00800000E+00  1.00800000E+00
  1.00800000E+00  1.00800000E+00  1.00800000E+00  1.00800000E+00  1.00800000E+00
  1.00800000E+00  1.00800000E+00  1.00800000E+00  1.00800000E+00  1.00800000E+00
  1.00800000E+00  1.00800000E+00  1.00800000E+00
%FLAG ATOM_TYPE_INDEX                                                           
%FORMAT(10I8)                                                                   
       1       2       2       2       2       2       2       2       2       2
       2       2       2       3       2       2       3       2       2       2
       2       2       3       3       2       2       2       2       2       2
       4       4       4       4       4       4       4       4       4       4
       4       4       4       4       4       4       4       4       4       4
       5       4       4       4       4       4       4       4       6       4
       4       4       5       5       7       4       4       4       4       4
       4       4       4       4       4       4       4       4
%FLAG NUMBER_EXCLUDED_ATOMS                                                     
%FORMAT(10I8)                                                                   
      11      28      27      23      25      25      16      23      11      11
      11       9       8      18      13      14       9       8       9       9
       8       8      12      13      20      15      11       9       8       6
       3       3       2       3       3       2       3       2       1       1
       1       1       2       1       2       1       1       4       3       2
       1       2       1       1       2       1       2       1       1       2
       1       1       1       1       1       3       6       4       3       2
       1       1       2       1       1       2       1       1
%FLAG NONBONDED_PARM_INDEX                                                      
%FORMAT(10I8)                                                                   
       1       2       4       7      11      16      22       2       3       5
       8      12      17      23       4       5       6       9      13      18
      24       7       8       9      10      14      19      25      11      12
      13      14      15      20      26      16      17      18      19      20
      21      27      22      23      24      25      26      27      28
%FLAG RESIDUE_LABEL                                                             
%FORMAT(20a4)                                                                   
UNL 
%FLAG RESIDUE_POINTER                                                           
%FORMAT(10I8)                                                                   
       1
%FLAG BOND_FORCE_CONSTANT                                                       
%FORMAT(5E16.8)                                                                 
  2.85250000E+02  5.35510000E+02  2.20100000E+02  2.26470000E+02  2.27640000E+02
  3.46430000E+02  2.26810000E+02  3.42750000E+02  2.44960000E+02  2.23800000E+02
  3.45250000E+02  4.36000000E+02  2.28890000E+02  2.48400000E+02  3.57290000E+02
  3.42020000E+02
%FLAG BOND_EQUIL_VALUE                                                          
%FORMAT(5E16.8)                                                                 
  1.42410000E+00  9.72500000E-01  1.54830000E+00  1.53890000E+00  1.53720000E+00
  1.09540000E+00  1.53840000E+00  1.09790000E+00  1.51330000E+00  1.54280000E+00
  1.09620000E+00  1.33790000E+00  1.53540000E+00  1.50880000E+00  1.08820000E+00
  1.09840000E+00
%FLAG ANGLE_FORCE_CONSTANT                                                      
%FORMAT(5E16.8)                                                                 
  7.65600000E+01  5.63900000E+01  5.92600000E+01  6.18400000E+01  4.26500000E+01
  5.93300000E+01  6.01700000E+01  4.32400000E+01  4.30600000E+01  4.38400000E+01
  6.01800000E+01  4.32300000E+01  6.05700000E+01  5.99900000E+01  5.95600000E+01
  6.00200000E+01  6.03300000E+01  6.12400000E+01  5.98700000E+01  4.28900000E+01
  4.25500000E+01  6.09300000E+01  4.63700000E+01  4.39000000E+01  4.36000000E+01
  4.32700000E+01  6.08800000E+01  4.29500000E+01  4.32800000E+01  6.52300000E+01
  6.04000000E+01  4.37600000E+01  5.98700000E+01  3.59300000E+01  3.59100000E+01
  3.58000000E+01
%FLAG ANGLE_EQUIL_VALUE                                                         
%FORMAT(5E16.8)                                                                 
  1.92073567E+00  1.91916487E+00  1.98531288E+00  1.81217614E+00  1.94028336E+00
  1.98269488E+00  1.93801443E+00  1.90834382E+00  1.92911325E+00  1.85738019E+00
  1.93836350E+00  1.91026369E+00  1.94447215E+00  1.94482122E+00  1.98444021E+00
  1.98758180E+00  1.92963685E+00  2.14710497E+00  2.02388467E+00  1.93085858E+00
  2.03453118E+00  1.91584874E+00  2.10120279E+00  1.90782022E+00  1.88129121E+00
  1.91427794E+00  2.18078984E+00  2.00800217E+00  1.90555129E+00  1.86872483E+00
  1.96489251E+00  1.93120765E+00  1.96576518E+00  1.86087085E+00  1.87134283E+00
  1.88024401E+00
%FLAG DIHEDRAL_FORCE_CONSTANT                                                   
%FORMAT(5E16.8)                                                                 
  1.55555556E-01  9.00000000E-02  1.80000000E-01  5.20000000E-01  1.30000000E-01
  0.00000000E+00  1.50000000E-01  5.78000000E+00  1.33000000E+00  6.65000000E+00
  1.50000000E-01  2.60000000E-01  6.00000000E-02  1.20000000E-01  1.23000000E-01
  1.10000000E+00
%FLAG DIHEDRAL_PERIODICITY                                                      
%FORMAT(5E16.8)                                                                 
  3.00000000E+00  3.00000000E+00  3.00000000E+00  3.00000000E+00  3.00000000E+00
  2.00000000E+00  1.00000000E+00  2.00000000E+00  3.00000000E+00  2.00000000E+00
  3.00000000E+00  3.00000000E+00  3.00000000E+00  3.00000000E+00  3.00000000E+00
  2.00000000E+00
%FLAG DIHEDRAL_PHASE                                                            
%FORMAT(5E16.8)                                                                 
  0.00000000E+00  0.00000000E+00  0.00000000E+00  0.00000000E+00  0.00000000E+00
  0.00000000E+00  0.00000000E+00  3.14159400E+00  3.14159400E+00  3.14159400E+00
  0.00000000E+00  3.14159400E+00  0.00000000E+00  0.00000000E+00  0.00000000E+00
  3.14159400E+00
%FLAG SCEE_SCALE_FACTOR                                                         
%FORMAT(5E16.8)                                                                 
  1.20000000E+00  1.20000000E+00  1.20000000E+00  1.20000000E+00  1.20000000E+00
  1.20000000E+00  1.20000000E+00  1.20000000E+00  1.20000000E+00  1.20000000E+00
  1.20000000E+00  1.20000000E+00  1.20000000E+00  1.20000000E+00  1.20000000E+00
  0.00000000E+00
%FLAG SCNB_SCALE_FACTOR                                                         
%FORMAT(5E16.8)                                                                 
  2.00000000E+00  2.00000000E+00  2.00000000E+00  2.00000000E+00  2.00000000E+00
  2.00000000E+00  2.00000000E+00  2.00000000E+00  2.00000000E+00  2.00000000E+00
  2.00000000E+00  2.00000000E+00  2.00000000E+00  2.00000000E+00  2.00000000E+00
  0.00000000E+00
%FLAG SOLTY                                                                     
%FORMAT(5E16.8)                                                                 
  0.00000000E+00  0.00000000E+00  0.00000000E+00  0.00000000E+00  0.00000000E+00
  0.00000000E+00  0.00000000E+00  0.00000000E+00  0.00000000E+00
%FLAG LENNARD_JONES_ACOEF                                                       
%FORMAT(5E16.8)                                                                 
  5.03152404E+05  7.18991463E+05  1.02073671E+06  5.92438683E+05  8.43969952E+05
  6.96551276E+05  6.80216136E+04  1.00235148E+05  8.12662403E+04  7.94617769E+03
  6.30298721E+04  9.27554496E+04  7.52549148E+04  7.41026906E+03  6.90855956E+03
  4.69084694E+04  6.97998263E+04  5.63013422E+04  5.22955465E+03  4.88692384E+03
  3.39005767E+03  1.74176419E+02  3.03553352E+02  2.25372434E+02  8.80612241E+00
  8.53132435E+00  4.36660257E+00  1.10360882E-05
%FLAG LENNARD_JONES_BCOEF                                                       
%FORMAT(5E16.8)                                                                 
  4.32634597E+02  5.36620538E+02  6.63431737E+02  4.76608379E+02  5.90251928E+02
  5.24668528E+02  1.09393126E+02  1.37787728E+02  1.21392023E+02  2.57122925E+01
  9.87712192E+01  1.24325688E+02  1.09570372E+02  2.32899892E+01  2.10929191E+01
  9.08431526E+01  1.14981426E+02  1.01040256E+02  2.08590256E+01  1.89134207E+01
  1.67944276E+01  3.81654050E+00  5.22789272E+00  4.40751799E+00  5.90150328E-01
  5.44840215E-01  4.15568027E-01  4.55498033E-04
%FLAG BONDS_INC_HYDROGEN                                                        
%FORMAT(10I8)                                                                   
       0     192       2       6      90       6       9      93       8      12
      96       8      15      99       6      18     102       8      18     105
       8      24     108       6      24     111       6      27     114       8
      27     117       8      30     120       6      30     123       6      33
     126       8      33     129       8      36     132      11      36     135
      11      36     138      11      42     141      11      45     144       8
      45     147       8      48     150      15      51     153      11      51
     156      11      51     159      11      54     162       8      54     165
       8      57     168       8      57     171       8      60     174      16
      63     177      11      63     180      11      63     183      11      66
     186      15      69     189      15      72     195      11      75     198
      11      78     201      11      78     204      11      81     207      11
      81     210      11      81     213      11      84     216      11      84
     219      11      84     222      11      87     225      11      87     228
      11      87     231      11
%FLAG BONDS_WITHOUT_HYDROGEN                                                    
%FORMAT(10I8)                                                                   
       0      60       1       3       6       3       3      15       3       3
      18       4       3      36       5       6       9       4       6      24
       3       9      12       7       9      33       7      12      21       7
      12      27       7      15      30       3      15      42       5      18
      27       7      21      39       9      21      45       7      21      51
      10      24      30       3      33      48       9      39      48      12
      39      54       9      42      63      13      42      66      14      45
      57       7      54      60       7      57      60       7      66      69
      12      69      72      14      72      75      13      72      78      13
      75      81      13      75      84      13      78      87      13
%FLAG ANGLES_INC_HYDROGEN                                                       
%FORMAT(10I8)                                                                   
       0      60     174       2       3       6      90       5       3      15
      99       5       3      18     102       8       3      18     105       8
       3      36     132       9       3      36     135       9       3      36
     138       9       6       9      93       8       6      24     108       5
       6      24     111       5       9       6      90      10       9      12
      96      12       9      33     126      12       9      33     129      12
      12       9      93      12      12      27     114      12      12      27
     117      12      15      30     120       5      15      30     123       5
      15      42     141       9      18      27     114      12      18      27
     117      12      21      12      96      12      21      45     144      12
      21      45     147      12      21      51     153      20      21      51
     156      20      21      51     159      20      24       6      90       5
      24      30     120       5      24      30     123       5      27      12
      96      12      27      18     102      12      27      18     105      12
      30      15      99       5      30      24     108       5      30      24
     111       5      33       9      93      12      33      48     150      21
      39      48     150      23      39      54     162      24      39      54
     165      24      42      15      99      25      42      63     177      26
      42      63     180      26      42      63     183      26      42      66
     186      28      45      57     168      12      45      57     171      12
      48      33     126      24      48      33     129      24      54      60
     174      29      57      45     144      12      57      45     147      12
      57      60     174      29      60       0     192      30      60      54
     162      12      60      54     165      12      60      57     168      12
      60      57     171      12      63      42     141      26      66      42
     141      32      66      69     189      23      69      66     186      23
      69      72     195      32      72      69     189      28      72      75
     198      26      72      78     201      26      72      78     204      26
      75      72     195      26      75      81     207      26      75      81
     210      26      75      81     213      26      75      84     216      26
      75      84     219      26      75      84     222      26      78      72
     195      26      78      87     225      26      78      87     228      26
      78      87     231      26      81      75     198      26      84      75
     198      26      87      78     201      26      87      78     204      26
     102      18     105      34     108      24     111      35     114      27
     117      34     120      30     123      35     126      33     129      34
     132      36     135      36     132      36     138      36     135      36
     138      36     144      45     147      34     153      51     156      36
     153      51     159      36     156      51     159      36     162      54
     165      34     168      57     171      34     177      63     180      36
     177      63     183      36     180      63     183      36     201      78
     204      36     207      81     210      36     207      81     213      36
     210      81     213      36     216      84     219      36     216      84
     222      36     219      84     222      36     225      87     228      36
     225      87     231      36     228      87     231      36
%FLAG ANGLES_WITHOUT_HYDROGEN                                                   
%FORMAT(10I8)                                                                   
       0      60      54       1       0      60      57       1       3       6
       9       3       3       6      24       4       3      15      30       4
       3      15      42       6       3      18      27       7       6       3
      15       4       6       3      18       3       6       3      36       6
       6       9      12       7       6       9      33       7       6      24
      30       4       9       6      24       3       9      12      21      11
       9      12      27      11       9      33      48      13      12       9
      33      11      12      21      39      13      12      21      45      11
      12      21      51      14      12      27      18      11      15       3
      18       3      15       3      36       6      15      30      24       4
      15      42      63      15      15      42      66      16      18       3
      36      17      21      12      27      11      21      39      48      18
      21      39      54      19      21      45      57      11      30      15
      42       6      33      48      39      18      39      21      45      13
      39      21      51      22      39      54      60      13      42      66
      69      27      45      21      51      14      45      57      60      11
      48      39      54      18      54      60      57      11      63      42
      66      31      66      69      72      27      69      72      75      31
      69      72      78      31      72      75      81      33      72      75
      84      33      72      78      87      33      75      72      78      33
      81      75      84      33
%FLAG DIHEDRALS_INC_HYDROGEN                                                    
%FORMAT(10I8)                                                                   
       0      60      54     162       2       0      60      54     165       2
       0      60      57     168       2       0      60      57     171       2
       3       6       9      93       5       3       6      24     108       5
       3       6      24     111       5       3      15      30     120       5
       3      15      30     123       5       3      15      42     141       5
       3      18      27     114       5       3      18      27     117       5
       6       3      15      99       5       6       3      18     102       5
       6       3      18     105       5       6       3      36     132       5
       6       3      36     135       5       6       3      36     138       5
       6       9      12      96       5       6       9      33     126       5
       6       9      33     129       5       6      24      30     120       5
       6      24      30     123       5       9       6      24     108       5
       9       6      24     111       5       9      12      27     114       5
       9      12      27     117       5       9      33      48     150       6
      12       9       6      90       5      12       9      33     126       5
      12       9      33     129       5      12      21      45     144       5
      12      21      45     147       5      12      21      51     153       5
      12      21      51     156       5      12      21      51     159       5
      12      27      18     102       5      12      27      18     105       5
      15       3       6      90       5      15       3      18     102       5
      15       3      18     105       5      15       3      36     132       5
      15       3      36     135       5      15       3      36     138       5
      15      30      24     108       5      15      30      24     111       5
      15      42      63     177       5      15      42      63     180       5
      15      42      63     183       5      15      42      66     186       6
      18       3       6      90       5      18       3      15      99       5
      18       3      36     132       5      18       3      36     135       5
      18       3      36     138       5      18      27      12      96       5
      21      12       9      93       5      21      12      27     114       5
      21      12      27     117       5      21      39      48     150      10
      21      39      54     162      11      21      39      54     165      11
      21      45      57     168       5      21      45      57     171       5
      24       6       9      93       5      24      30      15      99       5
      27      12       9      93       5      30      15      42     141       5
      30      24       6      90       5      33       9       6      90       5
      33       9      12      96       5      36       3       6      90       5
      36       3      15      99       5      36       3      18     102       5
      36       3      18     105       5      39      21      12      96       1
      39      21      45     144       1      39      21      45     147       1
      39      21      51     153       1      39      21      51     156       1
      39      21      51     159       1      39      48      33     126      12
      39      48      33     129      12      39      54      60     174       1
      42      15      30     120       5      42      15      30     123       5
      42      66      69     189      10      45      21      12      96       5
      45      21      51     153       5      45      21      51     156       5
      45      21      51     159       5      45      57      60     174       1
      48      33       9      93       1      48      39      54     162      12
      48      39      54     165      12      51      21      12      96       5
      51      21      45     144       5      51      21      45     147       5
      54      39      48     150      10     192       0      60      54      13
      54      60      57     168       5      54      60      57     171       5
     192       0      60      57      13      57      60      54     162       5
      57      60      54     165       5      60      57      45     144       5
      60      57      45     147       5      63      42      15      99       5
      63      42      66     186       6      66      42      15      99       1
      66      42      63     177       1      66      42      63     180       1
      66      42      63     183       1      66      69      72     195      12
      69      66      42     141      12      69      72      75     198       1
      69      72      78     201       1      69      72      78     204       1
      72      69      66     186      10      72      75      81     207       5
      72      75      81     210       5      72      75      81     213       5
      72      75      84     216       5      72      75      84     219       5
      72      75      84     222       5      72      78      87     225       5
      72      78      87     228       5      72      78      87     231       5
      75      72      69     189       6      75      72      78     201       5
      75      72      78     204       5      78      72      69     189       6
      78      72      75     198       5      81      75      72     195       5
      81      75      84     216       5      81      75      84     219       5
      81      75      84     222       5      84      75      72     195       5
      84      75      81     207       5      84      75      81     210       5
      84      75      81     213       5      87      78      72     195       5
      90       6       9      93      14      90       6      24     108      14
      90       6      24     111      14      93       9      12      96      14
      93       9      33     126      14      93       9      33     129      14
      96      12      27     114      14      96      12      27     117      14
      99      15      30     120      14      99      15      30     123      14
      99      15      42     141      14     102      18      27     114      14
     102      18      27     117      14     105      18      27     114      14
     105      18      27     117      14     108      24      30     120      14
     108      24      30     123      14     111      24      30     120      14
     111      24      30     123      14     126      33      48     150       6
     129      33      48     150       6     141      42      63     177      14
     141      42      63     180      14     141      42      63     183      14
     141      42      66     186       6     144      45      57     168      14
     144      45      57     171      14     147      45      57     168      14
     147      45      57     171      14     162      54      60     174       1
     165      54      60     174       1     168      57      60     174       1
     171      57      60     174       1     192       0      60     174      15
     186      66      69     189      10     189      69      72     195       6
     195      72      75     198      14     195      72      78     201      14
     195      72      78     204      14     198      75      81     207      14
     198      75      81     210      14     198      75      81     213      14
     198      75      84     216      14     198      75      84     219      14
     198      75      84     222      14     201      78      87     225      14
     201      78      87     228      14     201      78      87     231      14
     204      78      87     225      14     204      78      87     228      14
     204      78      87     231      14      39      33     -48    -150      16
      69      42     -66    -186      16      66      72     -69    -189      16
%FLAG DIHEDRALS_WITHOUT_HYDROGEN                                                
%FORMAT(10I8)                                                                   
       0      60      54      39       1       0      60      57      45       3
       3       6       9      12       4       3       6       9      33       4
       3       6     -24      30       4       3      15     -30      24       4
       3      15      42      63       4       3      15      42      66       1
       3      18     -27      12       4       6       3     -15      30       4
       6       3      15      42       4       6       3      18      27       4
       6       9      12      21       4       6       9     -12      27       4
       6       9      33      48       1       6      24     -30      15       4
       9       6       3      15       4       9       6       3      18       4
       9       6       3      36       4       9       6      24      30       4
       9      12      21      39       1       9      12      21      45       4
       9      12      21      51       4       9      12     -27      18       4
       9      33     -48      39       6      12       9       6      24       4
      12       9      33      48       1      12      21     -39      48       6
      12      21      39      54       6      12      21      45      57       4
      15       3      -6      24       4      15       3      18      27       4
      15      42      66      69       6      18       3       6      24       4
      18       3      15      30       4      18       3      15      42       4
      18      27      12      21       4      21      12       9      33       4
      21      39     -48      33       7      21      39     -48      33       8
      21      39     -48      33       9      21      39      54      60       6
      21      45     -57      60       4      24       6       3      36       4
      24       6       9      33       4      24      30      15      42       4
      27      12       9      33       4      27      12      21      39       1
      27      12      21      45       4      27      12      21      51       4
      27      18       3      36       4      30      15       3      36       4
      30      15      42      63       4      30      15      42      66       1
      33      48      39      54       7      33      48     -39      54       8
      33      48     -39      54       9      36       3      15      42       4
      39      21      45      57       1      39      54     -60      57       1
      42      66      69      72       7      42      66     -69      72       8
      42      66     -69      72       9      45      21      39      48       6
      45      21      39      54       6      45      57     -60      54       4
      48      39      21      51       6      48      39      54      60       6
      51      21      39      54       6      51      21      45      57       4
      63      42      66      69       6      66      69      72      75       6
      66      69      72      78       6      69      72      75      81       1
      69      72      75      84       1      69      72      78      87       1
      75      72      78      87       4      78      72      75      81       4
      78      72      75      84       4      48      21     -39     -54      16
%FLAG EXCLUDED_ATOMS_LIST                                                       
%FORMAT(10I8)                                                                   
      14      16      19      20      21      55      56      57      58      59
      65       3       4       5       6       7       9      10      11      12
      13      15      22      23      31      32      34      35      36      37
      38      39      40      41      42      45      46      47      48       4
       5       6       7       8       9      10      11      12      13      15
      17      31      32      33      34      35      36      37      38      41
      42      43      44      45      46      47       5       6       7       8
       9      10      11      12      13      14      16      17      18      31
      32      33      37      38      39      40      43      44      51       7
       8       9      10      12      14      16      17      18      19      20
      31      32      33      35      36      39      40      43      44      49
      50      52      53      54       7       9      10      11      13      15
      22      23      24      31      34      35      36      37      38      41
      42      45      46      47      48      60      61      62      63       8
       9      10      11      13      15      31      33      34      35      36
      39      40      45      46      47      10      12      14      16      17
      18      19      20      21      32      33      39      40      49      50
      51      52      53      54      55      56      57      58      11      12
      13      15      31      32      34      37      38      41      42      12
      13      14      16      18      32      33      35      36      39      40
      13      15      22      23      31      34      37      38      41      42
      48      14      17      19      31      32      33      43      44      51
      15      31      34      35      36      45      46      47      16      17
      18      19      20      21      33      43      44      49      50      51
      52      53      54      55      56      59      22      23      24      25
      34      41      42      48      60      61      62      63      64      17
      18      19      20      21      33      49      50      52      53      54
      57      58      59      18      19      21      32      43      44      51
      55      56      19      20      33      49      50      52      53      54
      20      21      51      55      56      57      58      59      65      21
      49      50      55      56      57      58      59      65      49      50
      55      56      57      58      59      65      23      24      34      48
      60      61      62      63      24      25      26      27      34      48
      60      61      62      63      64      66      25      26      27      28
      29      30      48      63      64      66      67      68      69      26
      27      28      29      30      63      64      66      67      68      69
      70      71      72      73      74      75      76      77      78      27
      28      29      30      64      66      67      68      69      70      71
      72      73      74      75      28      29      30      64      66      67
      68      69      76      77      78      29      66      67      70      71
      72      73      74      75      66      67      70      71      72      73
      74      75      66      68      69      76      77      78      32      37
      38      33      43      44      39      40      41      42      48      36
      39      40      39      40      38      41      42      41      42      40
       0      42       0      44      51      51      46      47      47       0
      60      61      62      63      50      57      58      57      58       0
      53      54      54       0      56      59      59      58      59      59
      65      61      62      62       0      64      66       0      67      68
      69      70      71      72      73      74      75      69      76      77
      78      76      77      78      71      72      72       0      74      75
      75       0      77      78      78       0
%FLAG HBOND_ACOEF                                                               
%FORMAT(5E16.8)                                                                 

%FLAG HBOND_BCOEF                                                               
%FORMAT(5E16.8)                                                                 

%FLAG HBCUT                                                                     
%FORMAT(5E16.8)                                                                 

%FLAG AMBER_ATOM_TYPE                                                           
%FORMAT(20a4)                                                                   
oh  c5  c5  c6  c6  c5  c6  c6  c5  c6  c5  c6  c3  c2  c3  c6  c2  c3  c6  c6  
c6  c3  c2  c2  c3  c3  c3  c3  c3  c3  hc  hc  hc  hc  hc  hc  hc  hc  hc  hc  
hc  hc  hc  hc  hc  hc  hc  hc  hc  hc  ha  hc  hc  hc  hc  hc  hc  hc  h1  hc  
hc  hc  ha  ha  ho  hc  hc  hc  hc  hc  hc  hc  hc  hc  hc  hc  hc  hc  
%FLAG TREE_CHAIN_CLASSIFICATION                                                 
%FORMAT(20a4)                                                                   
BLA BLA BLA BLA BLA BLA BLA BLA BLA BLA BLA BLA BLA BLA BLA BLA BLA BLA BLA BLA 
BLA BLA BLA BLA BLA BLA BLA BLA BLA BLA BLA BLA BLA BLA BLA BLA BLA BLA BLA BLA 
BLA BLA BLA BLA BLA BLA BLA BLA BLA BLA BLA BLA BLA BLA BLA BLA BLA BLA BLA BLA 
BLA BLA BLA BLA BLA BLA BLA BLA BLA BLA BLA BLA BLA BLA BLA BLA BLA BLA 
%FLAG JOIN_ARRAY                                                                
%FORMAT(10I8)                                                                   
       0       0       0       0       0       0       0       0       0       0
       0       0       0       0       0       0       0       0       0       0
       0       0       0       0       0       0       0       0       0       0
       0       0       0       0       0       0       0       0       0       0
       0       0       0       0       0       0       0       0       0       0
       0       0       0       0       0       0       0       0       0       0
       0       0       0       0       0       0       0       0       0       0
       0       0       0       0       0       0       0       0
%FLAG IROTAT                                                                    
%FORMAT(10I8)                                                                   
       0       0       0       0       0       0       0       0       0       0
       0       0       0       0       0       0       0       0       0       0
       0       0       0       0       0       0       0       0       0       0
       0       0       0       0       0       0       0       0       0       0
       0       0       0       0       0       0       0       0       0       0
       0       0       0       0       0       0       0       0       0       0
       0       0       0       0       0       0       0       0       0       0
       0       0       0       0       0       0       0       0
%FLAG RADIUS_SET                                                                
%FORMAT(1a80)                                                                   
modified Bondi radii (mbondi)                                                   
%FLAG RADII                                                                     
%FORMAT(5E16.8)                                                                 
  1.50000000E+00  1.70000000E+00  1.70000000E+00  1.50000000E+00  1.50000000E+00
  1.70000000E+00  1.50000000E+00  1.50000000E+00  1.70000000E+00  1.50000000E+00
  1.70000000E+00  1.50000000E+00  1.70000000E+00  1.70000000E+00  1.70000000E+00
  1.50000000E+00  1.70000000E+00  1.70000000E+00  1.50000000E+00  1.50000000E+00
  1.50000000E+00  1.70000000E+00  1.70000000E+00  1.70000000E+00  1.70000000E+00
  1.70000000E+00  1.70000000E+00  1.70000000E+00  1.70000000E+00  1.70000000E+00
  1.30000000E+00  1.30000000E+00  1.30000000E+00  1.30000000E+00  1.30000000E+00
  1.30000000E+00  1.30000000E+00  1.30000000E+00  1.30000000E+00  1.30000000E+00
  1.30000000E+00  1.30000000E+00  1.30000000E+00  1.30000000E+00  1.30000000E+00
  1.30000000E+00  1.30000000E+00  1.30000000E+00  1.30000000E+00  1.30000000E+00
  1.30000000E+00  1.30000000E+00  1.30000000E+00  1.30000000E+00  1.30000000E+00
  1.30000000E+00  1.30000000E+00  1.30000000E+00  1.30000000E+00  1.30000000E+00
  1.30000000E+00  1.30000000E+00  1.30000000E+00  1.30000000E+00  8.00000000E-01
  1.30000000E+00  1.30000000E+00  1.30000000E+00  1.30000000E+00  1.30000000E+00
  1.30000000E+00  1.30000000E+00  1.30000000E+00  1.30000000E+00  1.30000000E+00
  1.30000000E+00  1.30000000E+00  1.30000000E+00
%FLAG SCREEN                                                                    
%FORMAT(5E16.8)                                                                 
  8.50000000E-01  7.20000000E-01  7.20000000E-01  8.00000000E-01  8.00000000E-01
  7.20000000E-01  8.00000000E-01  8.00000000E-01  7.20000000E-01  8.00000000E-01
  7.20000000E-01  8.00000000E-01  7.20000000E-01  7.20000000E-01  7.20000000E-01
  8.00000000E-01  7.20000000E-01  7.20000000E-01  8.00000000E-01  8.00000000E-01
  8.00000000E-01  7.20000000E-01  7.20000000E-01  7.20000000E-01  7.20000000E-01
  7.20000000E-01  7.20000000E-01  7.20000000E-01  7.20000000E-01  7.20000000E-01
  8.50000000E-01  8.50000000E-01  8.50000000E-01  8.50000000E-01  8.50000000E-01
  8.50000000E-01  8.50000000E-01  8.50000000E-01  8.50000000E-01  8.50000000E-01
  8.50000000E-01  8.50000000E-01  8.50000000E-01  8.50000000E-01  8.50000000E-01
  8.50000000E-01  8.50000000E-01  8.50000000E-01  8.50000000E-01  8.50000000E-01
  8.50000000E-01  8.50000000E-01  8.50000000E-01  8.50000000E-01  8.50000000E-01
  8.50000000E-01  8.50000000E-01  8.50000000E-01  8.50000000E-01  8.50000000E-01
  8.50000000E-01  8.50000000E-01  8.50000000E-01  8.50000000E-01  8.50000000E-01
  8.50000000E-01  8.50000000E-01  8.50000000E-01  8.50000000E-01  8.50000000E-01
  8.50000000E-01  8.50000000E-01  8.50000000E-01  8.50000000E-01  8.50000000E-01
  8.50000000E-01  8.50000000E-01  8.50000000E-01
%FLAG IPOL                                                                      
%FORMAT(1I8)                                                                    
       0
