stigmasterol_GMX.gro created by acpype (v: 2023.10.27) on Mon Feb  9 17:57:31 2026
 78
    1  UNL    O    1   0.841  -0.015   0.040
    1  UNL    C    2  -0.028   0.054  -0.024
    1  UNL   C1    3   0.045  -0.073   0.025
    1  UNL   C2    4   0.190  -0.083  -0.024
    1  UNL   C3    5   0.269   0.042   0.024
    1  UNL   C4    6  -0.168   0.028   0.037
    1  UNL   C5    7   0.046   0.175   0.035
    1  UNL   C6    8   0.418   0.039  -0.027
    1  UNL   C7    9  -0.052  -0.185  -0.010
    1  UNL   C8   10   0.195   0.176  -0.006
    1  UNL   C9   11  -0.192  -0.123   0.010
    1  UNL  C10   12   0.256  -0.211   0.029
    1  UNL  C11   13  -0.035   0.067  -0.178
    1  UNL  C12   14   0.479  -0.101  -0.009
    1  UNL  C13   15  -0.281   0.116  -0.014
    1  UNL  C14   16   0.501   0.142   0.056
    1  UNL  C15   17   0.405  -0.210   0.017
    1  UNL  C16   18   0.428   0.076  -0.177
    1  UNL  C17   19   0.630  -0.113  -0.021
    1  UNL  C18   20   0.652   0.131   0.038
    1  UNL  C19   21   0.702  -0.010   0.067
    1  UNL  C20   22  -0.253   0.263   0.015
    1  UNL  C21   23  -0.412   0.075   0.051
    1  UNL  C22   24  -0.518   0.031  -0.018
    1  UNL  C23   25  -0.649  -0.009   0.047
    1  UNL  C24   26  -0.685  -0.159   0.023
    1  UNL  C25   27  -0.759   0.089  -0.001
    1  UNL  C26   28  -0.582  -0.258   0.080
    1  UNL  C27   29  -0.708  -0.189  -0.126
    1  UNL  C28   30  -0.736   0.233   0.043
    1  UNL    H   31   0.049  -0.070   0.135
    1  UNL   H1   32   0.191  -0.087  -0.133
    1  UNL   H2   33   0.273   0.035   0.134
    1  UNL   H3   34  -0.161   0.040   0.146
    1  UNL   H4   35   0.040   0.173   0.145
    1  UNL   H5   36   0.004   0.270   0.003
    1  UNL   H6   37  -0.039  -0.273   0.054
    1  UNL   H7   38  -0.040  -0.218  -0.114
    1  UNL   H8   39   0.201   0.200  -0.113
    1  UNL   H9   40   0.244   0.258   0.047
    1  UNL  H10   41  -0.253  -0.140  -0.080
    1  UNL  H11   42  -0.243  -0.169   0.095
    1  UNL  H12   43   0.217  -0.297  -0.027
    1  UNL  H13   44   0.231  -0.227   0.134
    1  UNL  H14   45   0.063   0.064  -0.226
    1  UNL  H15   46  -0.095  -0.013  -0.224
    1  UNL  H16   47  -0.080   0.163  -0.208
    1  UNL  H17   48  -0.292   0.104  -0.122
    1  UNL  H18   49   0.479   0.128   0.163
    1  UNL  H19   50   0.470   0.244   0.031
    1  UNL  H20   51   0.454  -0.306   0.032
    1  UNL  H21   52   0.529   0.064  -0.217
    1  UNL  H22   53   0.362   0.013  -0.239
    1  UNL  H23   54   0.400   0.180  -0.195
    1  UNL  H24   55   0.664  -0.213   0.007
    1  UNL  H25   56   0.659  -0.101  -0.126
    1  UNL  H26   57   0.680   0.162  -0.064
    1  UNL  H27   58   0.703   0.202   0.104
    1  UNL  H28   59   0.687  -0.034   0.173
    1  UNL  H29   60  -0.186   0.307  -0.060
    1  UNL  H30   61  -0.345   0.322   0.009
    1  UNL  H31   62  -0.211   0.279   0.115
    1  UNL  H32   63  -0.418   0.082   0.159
    1  UNL  H33   64  -0.512   0.025  -0.127
    1  UNL  H34   65   0.855   0.005  -0.054
    1  UNL  H35   66  -0.640   0.003   0.155
    1  UNL  H36   67  -0.780  -0.178   0.075
    1  UNL  H37   68  -0.768   0.088  -0.110
    1  UNL  H38   69  -0.855   0.056   0.040
    1  UNL  H39   70  -0.564  -0.237   0.186
    1  UNL  H40   71  -0.487  -0.252   0.027
    1  UNL  H41   72  -0.619  -0.360   0.071
    1  UNL  H42   73  -0.617  -0.174  -0.185
    1  UNL  H43   74  -0.787  -0.127  -0.168
    1  UNL  H44   75  -0.738  -0.293  -0.139
    1  UNL  H45   76  -0.723   0.240   0.152
    1  UNL  H46   77  -0.647   0.276  -0.004
    1  UNL  H47   78  -0.821   0.295   0.015
   34.21200    13.65400     8.49200
