5280794
    78
   8.4150000  -0.1500000   0.4020000  -0.2770000   0.5410000  -0.2400000
   0.4460000  -0.7300000   0.2480000   1.8960000  -0.8270000  -0.2390000
   2.6890000   0.4240000   0.2390000  -1.6770000   0.2790000   0.3660000
   0.4640000   1.7490000   0.3510000   4.1850000   0.3910000  -0.2720000
  -0.5230000  -1.8550000  -0.1010000   1.9470000   1.7560000  -0.0600000
  -1.9150000  -1.2260000   0.0990000   2.5610000  -2.1070000   0.2870000
  -0.3510000   0.6720000  -1.7820000   4.7930000  -1.0070000  -0.0880000
  -2.8130000   1.1570000  -0.1380000   5.0080000   1.4180000   0.5610000
   4.0520000  -2.0980000   0.1730000   4.2760000   0.7570000  -1.7730000
   6.2950000  -1.1270000  -0.2050000   6.5210000   1.3120000   0.3750000
   7.0160000  -0.1000000   0.6650000  -2.5260000   2.6330000   0.1470000
  -4.1170000   0.7500000   0.5050000  -5.1830000   0.3110000  -0.1810000
  -6.4930000  -0.0910000   0.4650000  -6.8480000  -1.5890000   0.2290000
  -7.5880000   0.8920000  -0.0060000  -5.8230000  -2.5750000   0.8000000
  -7.0750000  -1.8890000  -1.2600000  -7.3550000   2.3300000   0.4340000
   0.4890000  -0.6980000   1.3500000   1.9090000  -0.8730000  -1.3330000
   2.7250000   0.3530000   1.3380000  -1.6050000   0.4010000   1.4590000
   0.4030000   1.7340000   1.4470000   0.0440000   2.7020000   0.0270000
  -0.3850000  -2.7290000   0.5430000  -0.3990000  -2.1840000  -1.1390000
   2.0060000   1.9980000  -1.1250000   2.4400000   2.5790000   0.4690000
  -2.5250000  -1.4010000  -0.7950000  -2.4300000  -1.6920000   0.9460000
   2.1720000  -2.9680000  -0.2700000   2.3060000  -2.2710000   1.3420000
   0.6340000   0.6360000  -2.2550000  -0.9460000  -0.1250000  -2.2400000
  -0.8000000   1.6250000  -2.0800000  -2.9220000   1.0450000  -1.2240000
   4.7910000   1.2820000   1.6300000   4.7040000   2.4420000   0.3130000
   4.5420000  -3.0580000   0.3150000   5.2900000   0.6420000  -2.1690000
   3.6240000   0.1270000  -2.3860000   3.9990000   1.8010000  -1.9510000
   6.6450000  -2.1300000   0.0730000   6.5920000  -1.0070000  -1.2550000
   6.8050000   1.6160000  -0.6400000   7.0270000   2.0210000   1.0420000
   6.8700000  -0.3370000   1.7250000  -1.8620000   3.0660000  -0.6040000
  -3.4500000   3.2230000   0.0900000  -2.1090000   2.7900000   1.1470000
  -4.1760000   0.8230000   1.5890000  -5.1220000   0.2520000  -1.2650000
   8.5520000   0.0500000  -0.5400000  -6.4010000   0.0320000   1.5540000
  -7.7970000  -1.7810000   0.7470000  -7.6820000   0.8800000  -1.0980000
  -8.5540000   0.5630000   0.3970000  -5.6410000  -2.3720000   1.8600000
  -4.8670000  -2.5150000   0.2710000  -6.1880000  -3.6040000   0.7140000
  -6.1680000  -1.7400000  -1.8550000  -7.8730000  -1.2730000  -1.6820000
  -7.3800000  -2.9330000  -1.3900000  -7.2340000   2.3950000   1.5200000
  -6.4690000   2.7620000  -0.0400000  -8.2130000   2.9510000   0.1530000
