; tryptophan_GMX.itp created by acpype (v: 2023.10.27) on Mon Feb  9 18:00:44 2026

[ atomtypes ]
;name   bond_type     mass     charge   ptype   sigma         epsilon       Amb
 oh       oh          0.00000  0.00000   A     3.24287e-01   3.89112e-01 ; 1.82  0.0930
 o        o           0.00000  0.00000   A     3.04812e-01   6.12119e-01 ; 1.71  0.1463
 na       na          0.00000  0.00000   A     3.20581e-01   8.54373e-01 ; 1.80  0.2042
 n8       n8          0.00000  0.00000   A     3.65019e-01   1.35143e-01 ; 2.05  0.0323
 cc       cc          0.00000  0.00000   A     3.31521e-01   4.13379e-01 ; 1.86  0.0988
 c3       c3          0.00000  0.00000   A     3.39771e-01   4.51035e-01 ; 1.91  0.1078
 ca       ca          0.00000  0.00000   A     3.31521e-01   4.13379e-01 ; 1.86  0.0988
 cd       cd          0.00000  0.00000   A     3.31521e-01   4.13379e-01 ; 1.86  0.0988
 c        c           0.00000  0.00000   A     3.31521e-01   4.13379e-01 ; 1.86  0.0988
 hc       hc          0.00000  0.00000   A     2.60018e-01   8.70272e-02 ; 1.46  0.0208
 h1       h1          0.00000  0.00000   A     2.42200e-01   8.70272e-02 ; 1.36  0.0208
 h4       h4          0.00000  0.00000   A     2.53639e-01   6.73624e-02 ; 1.42  0.0161
 hn       hn          0.00000  0.00000   A     1.10650e-01   4.18400e-02 ; 0.62  0.0100
 ha       ha          0.00000  0.00000   A     2.62548e-01   6.73624e-02 ; 1.47  0.0161
 ho       ho          0.00000  0.00000   A     5.37925e-02   1.96648e-02 ; 0.30  0.0047

[ moleculetype ]
;name            nrexcl
 tryptophan       3

[ atoms ]
;   nr  type  resi  res  atom  cgnr     charge      mass       ; qtot   bond_type
     1   oh     1   TRP     O    1    -0.616100     16.00000 ; qtot -0.616
     2    o     1   TRP   OXT    2    -0.547000     16.00000 ; qtot -1.163
     3   na     1   TRP   NE1    3    -0.192400     14.01000 ; qtot -1.355
     4   n8     1   TRP     N    4    -0.910800     14.01000 ; qtot -2.266
     5   cc     1   TRP    CG    5    -0.153400     12.01000 ; qtot -2.420
     6   c3     1   TRP    CB    6    -0.009200     12.01000 ; qtot -2.429
     7   ca     1   TRP   CD2    7    -0.089800     12.01000 ; qtot -2.519
     8   c3     1   TRP    CA    8     0.140500     12.01000 ; qtot -2.378
     9   ca     1   TRP   CE2    9    -0.047200     12.01000 ; qtot -2.425
    10   cd     1   TRP   CD1   10    -0.104100     12.01000 ; qtot -2.529
    11   ca     1   TRP   CE3   11    -0.082000     12.01000 ; qtot -2.611
    12   ca     1   TRP   CZ2   12    -0.149000     12.01000 ; qtot -2.760
    13    c     1   TRP     C   13     0.644100     12.01000 ; qtot -2.116
    14   ca     1   TRP   CZ3   14    -0.158000     12.01000 ; qtot -2.274
    15   ca     1   TRP   CH2   15    -0.111000     12.01000 ; qtot -2.385
    16   hc     1   TRP   HB1   16     0.073700      1.00800 ; qtot -2.312
    17   hc     1   TRP   HB2   17     0.073700      1.00800 ; qtot -2.238
    18   h1     1   TRP    HA   18     0.053700      1.00800 ; qtot -2.184
    19   h4     1   TRP   HD1   19     0.162000      1.00800 ; qtot -2.022
    20   hn     1   TRP   HE1   20     0.298700      1.00800 ; qtot -1.724
    21   ha     1   TRP   HE3   21     0.158000      1.00800 ; qtot -1.566
    22   ha     1   TRP   HZ2   22     0.131000      1.00800 ; qtot -1.435
    23   ha     1   TRP   HZ3   23     0.131000      1.00800 ; qtot -1.304
    24   hn     1   TRP    H1   24     0.364800      1.00800 ; qtot -0.939
    25   hn     1   TRP    H2   25     0.364800      1.00800 ; qtot -0.574
    26   ha     1   TRP   HH2   26     0.129000      1.00800 ; qtot -0.445
    27   ho     1   TRP     H   27     0.445000      1.00800 ; qtot -0.000

[ bonds ]
;   ai     aj funct   r             k
     1     13   1    1.3556e-01    3.0064e+05 ;      O - C     
     1     27   1    9.7250e-02    4.4811e+05 ;      O - H     
     2     13   1    1.2190e-01    4.9421e+05 ;    OXT - C     
     3      9   1    1.3858e-01    2.7557e+05 ;    NE1 - CE2   
     3     10   1    1.3830e-01    2.7819e+05 ;    NE1 - CD1   
     3     20   1    1.0095e-01    4.0315e+05 ;    NE1 - HE1   
     4      8   1    1.4651e-01    2.1239e+05 ;      N - CA    
     4     24   1    1.0192e-01    3.8550e+05 ;      N - H1    
     4     25   1    1.0192e-01    3.8550e+05 ;      N - H2    
     5      6   1    1.5002e-01    2.1350e+05 ;     CG - CB    
     5      7   1    1.4528e-01    2.4811e+05 ;     CG - CD2   
     5     10   1    1.3730e-01    3.2321e+05 ;     CG - CD1   
     6      8   1    1.5354e-01    1.9154e+05 ;     CB - CA    
     6     16   1    1.0962e-01    2.8891e+05 ;     CB - HB1   
     6     17   1    1.0962e-01    2.8891e+05 ;     CB - HB2   
     7      9   1    1.3986e-01    2.9644e+05 ;    CD2 - CE2   
     7     11   1    1.3986e-01    2.9644e+05 ;    CD2 - CE3   
     8     13   1    1.5270e-01    1.9652e+05 ;     CA - C     
     8     18   1    1.0969e-01    2.8804e+05 ;     CA - HA    
     9     12   1    1.3986e-01    2.9644e+05 ;    CE2 - CZ2   
    10     19   1    1.0818e-01    3.0735e+05 ;    CD1 - HD1   
    11     14   1    1.3986e-01    2.9644e+05 ;    CE3 - CZ3   
    11     21   1    1.0860e-01    3.0183e+05 ;    CE3 - HE3   
    12     15   1    1.3986e-01    2.9644e+05 ;    CZ2 - CH2   
    12     22   1    1.0860e-01    3.0183e+05 ;    CZ2 - HZ2   
    14     15   1    1.3986e-01    2.9644e+05 ;    CZ3 - CH2   
    14     23   1    1.0860e-01    3.0183e+05 ;    CZ3 - HZ3   
    15     26   1    1.0860e-01    3.0183e+05 ;    CH2 - HH2   

[ pairs ]
;   ai     aj    funct
     1      4      1 ;      O - N     
     1      6      1 ;      O - CB    
     1     18      1 ;      O - HA    
     2      4      1 ;    OXT - N     
     2      6      1 ;    OXT - CB    
     2     18      1 ;    OXT - HA    
     3      6      1 ;    NE1 - CB    
     3     11      1 ;    NE1 - CE3   
     3     15      1 ;    NE1 - CH2   
     3     22      1 ;    NE1 - HZ2   
     4      5      1 ;      N - CG    
     4     16      1 ;      N - HB1   
     4     17      1 ;      N - HB2   
     5     12      1 ;     CG - CZ2   
     5     13      1 ;     CG - C     
     5     14      1 ;     CG - CZ3   
     5     18      1 ;     CG - HA    
     5     20      1 ;     CG - HE1   
     5     21      1 ;     CG - HE3   
     6      9      1 ;     CB - CE2   
     6     11      1 ;     CB - CE3   
     6     19      1 ;     CB - HD1   
     6     24      1 ;     CB - H1    
     6     25      1 ;     CB - H2    
     7      8      1 ;    CD2 - CA    
     7     15      1 ;    CD2 - CH2   
     7     16      1 ;    CD2 - HB1   
     7     17      1 ;    CD2 - HB2   
     7     19      1 ;    CD2 - HD1   
     7     20      1 ;    CD2 - HE1   
     7     22      1 ;    CD2 - HZ2   
     7     23      1 ;    CD2 - HZ3   
     8     10      1 ;     CA - CD1   
     9     14      1 ;    CE2 - CZ3   
     9     19      1 ;    CE2 - HD1   
     9     21      1 ;    CE2 - HE3   
     9     26      1 ;    CE2 - HH2   
    10     11      1 ;    CD1 - CE3   
    10     12      1 ;    CD1 - CZ2   
    10     16      1 ;    CD1 - HB1   
    10     17      1 ;    CD1 - HB2   
    11     12      1 ;    CE3 - CZ2   
    11     26      1 ;    CE3 - HH2   
    12     20      1 ;    CZ2 - HE1   
    12     23      1 ;    CZ2 - HZ3   
    13     16      1 ;      C - HB1   
    13     17      1 ;      C - HB2   
    13     24      1 ;      C - H1    
    13     25      1 ;      C - H2    
    14     22      1 ;    CZ3 - HZ2   
    15     21      1 ;    CH2 - HE3   
    16     18      1 ;    HB1 - HA    
    17     18      1 ;    HB2 - HA    
    18     24      1 ;     HA - H1    
    18     25      1 ;     HA - H2    
    19     20      1 ;    HD1 - HE1   
    21     23      1 ;    HE3 - HZ3   
    22     26      1 ;    HZ2 - HH2   
    23     26      1 ;    HZ3 - HH2   
    27      2      1 ;      H - OXT   
    27      8      1 ;      H - CA    

[ angles ]
;   ai     aj     ak    funct   theta         cth
     1     13      2      1    1.2209e+02    8.5379e+02 ;      O - C      - OXT   
     1     13      8      1    1.1274e+02    6.4785e+02 ;      O - C      - CA    
     2     13      8      1    1.2290e+02    6.3973e+02 ;    OXT - C      - CA    
     3      9      7      1    1.2031e+02    5.6752e+02 ;    NE1 - CE2    - CD2   
     3      9     12      1    1.2031e+02    5.6752e+02 ;    NE1 - CE2    - CZ2   
     3     10      5      1    1.0899e+02    6.0241e+02 ;    NE1 - CD1    - CG    
     3     10     19      1    1.2017e+02    4.0233e+02 ;    NE1 - CD1    - HD1   
     4      8      6      1    1.1091e+02    5.4794e+02 ;      N - CA     - CB    
     4      8     13      1    1.1096e+02    5.4944e+02 ;      N - CA     - C     
     4      8     18      1    1.0812e+02    4.0342e+02 ;      N - CA     - HA    
     5      6      8      1    1.1296e+02    5.0593e+02 ;     CG - CB     - CA    
     5      6     16      1    1.1036e+02    3.6853e+02 ;     CG - CB     - HB1   
     5      6     17      1    1.1036e+02    3.6853e+02 ;     CG - CB     - HB2   
     5      7      9      1    1.2091e+02    5.2041e+02 ;     CG - CD2    - CE2   
     5      7     11      1    1.2091e+02    5.2041e+02 ;     CG - CD2    - CE3   
     5     10     19      1    1.2764e+02    3.6987e+02 ;     CG - CD1    - HD1   
     6      5      7      1    1.2634e+02    4.9170e+02 ;     CB - CG     - CD2   
     6      5     10      1    1.2771e+02    5.0091e+02 ;     CB - CG     - CD1   
     6      8     13      1    1.1143e+02    5.0509e+02 ;     CB - CA     - C     
     6      8     18      1    1.0959e+02    3.6217e+02 ;     CB - CA     - HA    
     7      5     10      1    1.1603e+02    5.3555e+02 ;    CD2 - CG     - CD1   
     7      9     12      1    1.2002e+02    5.3279e+02 ;    CD2 - CE2    - CZ2   
     7     11     14      1    1.2002e+02    5.3279e+02 ;    CD2 - CE3    - CZ3   
     7     11     21      1    1.1988e+02    3.7572e+02 ;    CD2 - CE3    - HE3   
     8      4     24      1    1.0961e+02    4.7003e+02 ;     CA - N      - H1    
     8      4     25      1    1.0961e+02    4.7003e+02 ;     CA - N      - H2    
     8      6     16      1    1.0968e+02    3.6208e+02 ;     CA - CB     - HB1   
     8      6     17      1    1.0968e+02    3.6208e+02 ;     CA - CB     - HB2   
     9      3     10      1    1.0877e+02    6.9881e+02 ;    CE2 - NE1    - CD1   
     9      3     20      1    1.2551e+02    4.6250e+02 ;    CE2 - NE1    - HE1   
     9      7     11      1    1.2002e+02    5.3279e+02 ;    CE2 - CD2    - CE3   
     9     12     15      1    1.2002e+02    5.3279e+02 ;    CE2 - CZ2    - CH2   
     9     12     22      1    1.1988e+02    3.7572e+02 ;    CE2 - CZ2    - HZ2   
    10      3     20      1    1.2524e+02    4.6384e+02 ;    CD1 - NE1    - HE1   
    11     14     15      1    1.2002e+02    5.3279e+02 ;    CE3 - CZ3    - CH2   
    11     14     23      1    1.1988e+02    3.7572e+02 ;    CE3 - CZ3    - HZ3   
    12     15     14      1    1.2002e+02    5.3279e+02 ;    CZ2 - CH2    - CZ3   
    12     15     26      1    1.1988e+02    3.7572e+02 ;    CZ2 - CH2    - HH2   
    13      1     27      1    1.0654e+02    5.7287e+02 ;      C - O      - H     
    13      8     18      1    1.0837e+02    3.6602e+02 ;      C - CA     - HA    
    14     11     21      1    1.1988e+02    3.7572e+02 ;    CZ3 - CE3    - HE3   
    14     15     26      1    1.1988e+02    3.7572e+02 ;    CZ3 - CH2    - HH2   
    15     12     22      1    1.1988e+02    3.7572e+02 ;    CH2 - CZ2    - HZ2   
    15     14     23      1    1.1988e+02    3.7572e+02 ;    CH2 - CZ3    - HZ3   
    16      6     17      1    1.0773e+02    2.9957e+02 ;    HB1 - CB     - HB2   
    24      4     25      1    1.0638e+02    4.0074e+02 ;     H1 - N      - H2    

[ dihedrals ] ; propers
; for gromacs 4.5 or higher, using funct 9
;    i      j      k      l   func   phase     kd      pn
     1     13      8      4      9   180.00   0.00000   2 ;      O-     C-    CA-     N
     1     13      8      6      9   180.00   0.00000   2 ;      O-     C-    CA-    CB
     1     13      8     18      9   180.00   0.00000   2 ;      O-     C-    CA-    HA
     2     13      8      4      9   180.00   0.00000   2 ;    OXT-     C-    CA-     N
     2     13      8      6      9     0.00   2.84512   1 ;    OXT-     C-    CA-    CB
     2     13      8      6      9   180.00   0.83680   2 ;    OXT-     C-    CA-    CB
     2     13      8      6      9   180.00   1.84096   3 ;    OXT-     C-    CA-    CB
     2     13      8     18      9     0.00   3.34720   1 ;    OXT-     C-    CA-    HA
     2     13      8     18      9   180.00   0.33472   3 ;    OXT-     C-    CA-    HA
     3      9      7      5      9   180.00  15.16700   2 ;    NE1-   CE2-   CD2-    CG
     3      9      7     11      9   180.00  15.16700   2 ;    NE1-   CE2-   CD2-   CE3
     3      9     12     15      9   180.00  15.16700   2 ;    NE1-   CE2-   CZ2-   CH2
     3      9     12     22      9   180.00  15.16700   2 ;    NE1-   CE2-   CZ2-   HZ2
     3     10      5      6      9   180.00  16.73600   2 ;    NE1-   CD1-    CG-    CB
     3     10      5      7      9   180.00  16.73600   2 ;    NE1-   CD1-    CG-   CD2
     4      8      6      5      9     0.00   0.65084   3 ;      N-    CA-    CB-    CG
     4      8      6     16      9     0.00   0.20920   3 ;      N-    CA-    CB-   HB1
     4      8      6     17      9     0.00   0.20920   3 ;      N-    CA-    CB-   HB2
     5      6      8     13      9     0.00   0.65084   3 ;     CG-    CB-    CA-     C
     5      6      8     18      9     0.00   0.65084   3 ;     CG-    CB-    CA-    HA
     5      7      9     12      9   180.00  15.16700   2 ;     CG-   CD2-   CE2-   CZ2
     5      7     11     14      9   180.00  15.16700   2 ;     CG-   CD2-   CE3-   CZ3
     5      7     11     21      9   180.00  15.16700   2 ;     CG-   CD2-   CE3-   HE3
     5     10      3      9      9   180.00   7.11280   2 ;     CG-   CD1-   NE1-   CE2
     5     10      3     20      9   180.00   7.11280   2 ;     CG-   CD1-   NE1-   HE1
     6      5      7      9      9   180.00   2.51040   2 ;     CB-    CG-   CD2-   CE2
     6      5      7     11      9   180.00   2.51040   2 ;     CB-    CG-   CD2-   CE3
     6      5     10     19      9   180.00  16.73600   2 ;     CB-    CG-   CD1-   HD1
     6      8      4     24      9   180.00   0.12552   3 ;     CB-    CA-     N-    H1
     6      8      4     25      9   180.00   0.12552   3 ;     CB-    CA-     N-    H2
     7      5      6      8      9     0.00   1.55645   3 ;    CD2-    CG-    CB-    CA
     7      5      6     16      9     0.00   0.00000   0 ;    CD2-    CG-    CB-   HB1
     7      5      6     17      9     0.00   0.00000   0 ;    CD2-    CG-    CB-   HB2
     7      5     10     19      9   180.00  16.73600   2 ;    CD2-    CG-   CD1-   HD1
     7      9      3     10      9   180.00   1.25520   2 ;    CD2-   CE2-   NE1-   CD1
     7      9      3     20      9   180.00   1.25520   2 ;    CD2-   CE2-   NE1-   HE1
     7      9     12     15      9   180.00  15.16700   2 ;    CD2-   CE2-   CZ2-   CH2
     7      9     12     22      9   180.00  15.16700   2 ;    CD2-   CE2-   CZ2-   HZ2
     7     11     14     15      9   180.00  15.16700   2 ;    CD2-   CE3-   CZ3-   CH2
     7     11     14     23      9   180.00  15.16700   2 ;    CD2-   CE3-   CZ3-   HZ3
     8      6      5     10      9   180.00   0.65689   3 ;     CA-    CB-    CG-   CD1
     9      3     10     19      9   180.00   7.11280   2 ;    CE2-   NE1-   CD1-   HD1
     9      7      5     10      9   180.00   2.44764   2 ;    CE2-   CD2-    CG-   CD1
     9      7     11     14      9   180.00  15.16700   2 ;    CE2-   CD2-   CE3-   CZ3
     9      7     11     21      9   180.00  15.16700   2 ;    CE2-   CD2-   CE3-   HE3
     9     12     15     14      9   180.00  15.16700   2 ;    CE2-   CZ2-   CH2-   CZ3
     9     12     15     26      9   180.00  15.16700   2 ;    CE2-   CZ2-   CH2-   HH2
    10      3      9     12      9   180.00   1.25520   2 ;    CD1-   NE1-   CE2-   CZ2
    10      5      6     16      9     0.00   0.00000   0 ;    CD1-    CG-    CB-   HB1
    10      5      6     17      9     0.00   0.00000   0 ;    CD1-    CG-    CB-   HB2
    10      5      7     11      9   180.00   2.44764   2 ;    CD1-    CG-   CD2-   CE3
    11      7      9     12      9   180.00  15.16700   2 ;    CE3-   CD2-   CE2-   CZ2
    11     14     15     12      9   180.00  15.16700   2 ;    CE3-   CZ3-   CH2-   CZ2
    11     14     15     26      9   180.00  15.16700   2 ;    CE3-   CZ3-   CH2-   HH2
    12      9      3     20      9   180.00   1.25520   2 ;    CZ2-   CE2-   NE1-   HE1
    12     15     14     23      9   180.00  15.16700   2 ;    CZ2-   CH2-   CZ3-   HZ3
    13      8      4     24      9     0.00   1.25520   3 ;      C-    CA-     N-    H1
    13      8      4     25      9     0.00   1.25520   3 ;      C-    CA-     N-    H2
    13      8      6     16      9     0.00   0.65084   3 ;      C-    CA-    CB-   HB1
    13      8      6     17      9     0.00   0.65084   3 ;      C-    CA-    CB-   HB2
    14     15     12     22      9   180.00  15.16700   2 ;    CZ3-   CH2-   CZ2-   HZ2
    15     14     11     21      9   180.00  15.16700   2 ;    CH2-   CZ3-   CE3-   HE3
    16      6      8     18      9     0.00   0.65084   3 ;    HB1-    CB-    CA-    HA
    17      6      8     18      9     0.00   0.65084   3 ;    HB2-    CB-    CA-    HA
    18      8      4     24      9     0.00   1.25520   3 ;     HA-    CA-     N-    H1
    18      8      4     25      9     0.00   1.25520   3 ;     HA-    CA-     N-    H2
    19     10      3     20      9   180.00   7.11280   2 ;    HD1-   CD1-   NE1-   HE1
    21     11     14     23      9   180.00  15.16700   2 ;    HE3-   CE3-   CZ3-   HZ3
    22     12     15     26      9   180.00  15.16700   2 ;    HZ2-   CZ2-   CH2-   HH2
    23     14     15     26      9   180.00  15.16700   2 ;    HZ3-   CZ3-   CH2-   HH2
    27      1     13      2      9     0.00   7.94960   1 ;      H-     O-     C-   OXT
    27      1     13      2      9   180.00   9.62320   2 ;      H-     O-     C-   OXT
    27      1     13      8      9   180.00   7.53120   2 ;      H-     O-     C-    CA

[ dihedrals ] ; impropers
; treated as propers in GROMACS to use correct AMBER analytical function
;    i      j      k      l   func   phase     kd      pn
     1     13      2      8      4   180.00   4.60240   2 ;      O-     C-   OXT-    CA
     5     19     10      3      4   180.00   4.60240   2 ;     CG-   HD1-   CD1-   NE1
     6      7      5     10      4   180.00   4.60240   2 ;     CB-   CD2-    CG-   CD1
     7     12      9      3      4   180.00   4.60240   2 ;    CD2-   CZ2-   CE2-   NE1
     7     14     11     21      4   180.00   4.60240   2 ;    CD2-   CZ3-   CE3-   HE3
     9     10      3     20      4   180.00   4.60240   2 ;    CE2-   CD1-   NE1-   HE1
     9     11      7      5      4   180.00   4.60240   2 ;    CE2-   CE3-   CD2-    CG
     9     15     12     22      4   180.00   4.60240   2 ;    CE2-   CH2-   CZ2-   HZ2
    11     15     14     23      4   180.00   4.60240   2 ;    CE3-   CH2-   CZ3-   HZ3
    12     14     15     26      4   180.00   4.60240   2 ;    CZ2-   CZ3-   CH2-   HH2
