%VERSION  VERSION_STAMP = V0001.000  DATE = 02/09/26  18:01:02                  
%FLAG TITLE                                                                     
%FORMAT(20a4)                                                                   
6305                                                                            
%FLAG POINTERS                                                                  
%FORMAT(10I8)                                                                   
      27      12      12      16      24      22      49      34       0       0
     139       1      16      22      34      18      29      23      15       0
       0       0       0       0       0       0       0       0      27       0
       0
%FLAG ATOM_NAME                                                                 
%FORMAT(20a4)                                                                   
O   OXT NE1 N   CG  CB  CD2 CA  CE2 CD1 CE3 CZ2 C   CZ3 CH2 HB1 HB2 HA  HD1 HE1 
HE3 HZ2 HZ3 H1  H2  HH2 H   
%FLAG CHARGE                                                                    
%FORMAT(5E16.8)                                                                 
 -1.12267590E+01 -9.96759810E+00 -3.50597052E+00 -1.66150931E+01 -2.79530082E+00
 -1.67645160E-01 -1.63636254E+00  2.56023315E+00 -8.60092560E-01 -1.89694143E+00
 -1.49422860E+00 -2.71512270E+00  1.17369834E+01 -2.87912340E+00 -2.02267530E+00
  1.34298351E+00  1.34298351E+00  9.78537510E-01  2.95201260E+00  5.44300101E+00
  2.87912340E+00  2.38712130E+00  2.38712130E+00  6.64749504E+00  6.64749504E+00
  2.35067670E+00  8.10892350E+00
%FLAG ATOMIC_NUMBER                                                             
%FORMAT(10I8)                                                                   
       8       8       7       7       6       6       6       6       6       6
       6       6       6       6       6       1       1       1       1       1
       1       1       1       1       1       1       1
%FLAG MASS                                                                      
%FORMAT(5E16.8)                                                                 
  1.60000000E+01  1.60000000E+01  1.40100000E+01  1.40100000E+01  1.20100000E+01
  1.20100000E+01  1.20100000E+01  1.20100000E+01  1.20100000E+01  1.20100000E+01
  1.20100000E+01  1.20100000E+01  1.20100000E+01  1.20100000E+01  1.20100000E+01
  1.00800000E+00  1.00800000E+00  1.00800000E+00  1.00800000E+00  1.00800000E+00
  1.00800000E+00  1.00800000E+00  1.00800000E+00  1.00800000E+00  1.00800000E+00
  1.00800000E+00  1.00800000E+00
%FLAG ATOM_TYPE_INDEX                                                           
%FORMAT(10I8)                                                                   
       1       2       3       4       5       6       5       6       5       5
       5       5       5       5       5       7       7       8       9      10
      11      11      11      10      10      11      12
%FLAG NUMBER_EXCLUDED_ATOMS                                                     
%FORMAT(10I8)                                                                   
       7       6      11       9      15      12      14       8      10       6
       6       6       6       5       4       2       1       2       1       1
       1       1       1       1       1       1       1
%FLAG NONBONDED_PARM_INDEX                                                      
%FORMAT(10I8)                                                                   
       1       2       4       7      11      16      22      29      37      46
      56      67       2       3       5       8      12      17      23      30
      38      47      57      68       4       5       6       9      13      18
      24      31      39      48      58      69       7       8       9      10
      14      19      25      32      40      49      59      70      11      12
      13      14      15      20      26      33      41      50      60      71
      16      17      18      19      20      21      27      34      42      51
      61      72      22      23      24      25      26      27      28      35
      43      52      62      73      29      30      31      32      33      34
      35      36      44      53      63      74      37      38      39      40
      41      42      43      44      45      54      64      75      46      47
      48      49      50      51      52      53      54      55      65      76
      56      57      58      59      60      61      62      63      64      65
      66      77      67      68      69      70      71      72      73      74
      75      76      77      78
%FLAG RESIDUE_LABEL                                                             
%FORMAT(20a4)                                                                   
TRP 
%FLAG RESIDUE_POINTER                                                           
%FORMAT(10I8)                                                                   
       1
%FLAG BOND_FORCE_CONSTANT                                                       
%FORMAT(5E16.8)                                                                 
  3.59270000E+02  5.35510000E+02  5.90600000E+02  3.29320000E+02  3.32450000E+02
  4.81770000E+02  2.53810000E+02  4.60680000E+02  2.55140000E+02  2.96500000E+02
  3.86240000E+02  2.28890000E+02  3.45250000E+02  3.54250000E+02  2.34850000E+02
  3.44220000E+02  3.67290000E+02  3.60690000E+02
%FLAG BOND_EQUIL_VALUE                                                          
%FORMAT(5E16.8)                                                                 
  1.35560000E+00  9.72500000E-01  1.21900000E+00  1.38580000E+00  1.38300000E+00
  1.00950000E+00  1.46510000E+00  1.01920000E+00  1.50020000E+00  1.45280000E+00
  1.37300000E+00  1.53540000E+00  1.09620000E+00  1.39860000E+00  1.52700000E+00
  1.09690000E+00  1.08180000E+00  1.08600000E+00
%FLAG ANGLE_FORCE_CONSTANT                                                      
%FORMAT(5E16.8)                                                                 
  1.02030000E+02  7.74200000E+01  7.64500000E+01  6.78200000E+01  7.19900000E+01
  4.80800000E+01  6.54800000E+01  6.56600000E+01  4.82100000E+01  6.04600000E+01
  4.40400000E+01  6.21900000E+01  4.42000000E+01  5.87600000E+01  5.98600000E+01
  6.03600000E+01  4.32800000E+01  6.40000000E+01  6.36700000E+01  4.49000000E+01
  5.61700000E+01  4.32700000E+01  8.35100000E+01  5.52700000E+01  5.54300000E+01
  6.84600000E+01  4.37400000E+01  3.58000000E+01  4.78900000E+01
%FLAG ANGLE_EQUIL_VALUE                                                         
%FORMAT(5E16.8)                                                                 
  2.13087340E+00  1.96768504E+00  2.14501057E+00  2.09980652E+00  1.90223517E+00
  2.09736306E+00  1.93574550E+00  1.93661817E+00  1.88705080E+00  1.97152477E+00
  1.92614619E+00  2.11027850E+00  2.22773921E+00  2.20504992E+00  2.22896094E+00
  1.94482122E+00  1.91270715E+00  2.02510640E+00  2.09474507E+00  2.09230160E+00
  1.91305621E+00  1.91427794E+00  1.89839544E+00  2.19056368E+00  2.18585129E+00
  1.85947458E+00  1.89141412E+00  1.88024401E+00  1.85668205E+00
%FLAG DIHEDRAL_FORCE_CONSTANT                                                   
%FORMAT(5E16.8)                                                                 
  0.00000000E+00  1.90000000E+00  2.30000000E+00  6.80000000E-01  2.00000000E-01
  4.40000000E-01  8.00000000E-01  8.00000000E-02  3.62500000E+00  4.00000000E+00
  1.55555556E-01  5.00000000E-02  1.70000000E+00  6.00000000E-01  3.00000000E-02
  3.72000000E-01  0.00000000E+00  3.00000000E-01  1.57000000E-01  1.80000000E+00
  5.85000000E-01  3.00000000E-01  1.10000000E+00
%FLAG DIHEDRAL_PERIODICITY                                                      
%FORMAT(5E16.8)                                                                 
  2.00000000E+00  1.00000000E+00  2.00000000E+00  1.00000000E+00  2.00000000E+00
  3.00000000E+00  1.00000000E+00  3.00000000E+00  2.00000000E+00  2.00000000E+00
  3.00000000E+00  3.00000000E+00  2.00000000E+00  2.00000000E+00  3.00000000E+00
  3.00000000E+00  3.00000000E+00  2.00000000E+00  3.00000000E+00  2.00000000E+00
  2.00000000E+00  3.00000000E+00  2.00000000E+00
%FLAG DIHEDRAL_PHASE                                                            
%FORMAT(5E16.8)                                                                 
  3.14159400E+00  0.00000000E+00  3.14159400E+00  0.00000000E+00  3.14159400E+00
  3.14159400E+00  0.00000000E+00  3.14159400E+00  3.14159400E+00  3.14159400E+00
  0.00000000E+00  0.00000000E+00  3.14159400E+00  3.14159400E+00  3.14159400E+00
  0.00000000E+00  0.00000000E+00  3.14159400E+00  3.14159400E+00  3.14159400E+00
  3.14159400E+00  0.00000000E+00  3.14159400E+00
%FLAG SCEE_SCALE_FACTOR                                                         
%FORMAT(5E16.8)                                                                 
  1.20000000E+00  1.20000000E+00  1.20000000E+00  1.20000000E+00  1.20000000E+00
  1.20000000E+00  1.20000000E+00  1.20000000E+00  1.20000000E+00  1.20000000E+00
  1.20000000E+00  1.20000000E+00  1.20000000E+00  1.20000000E+00  1.20000000E+00
  1.20000000E+00  1.20000000E+00  1.20000000E+00  1.20000000E+00  1.20000000E+00
  1.20000000E+00  1.20000000E+00  0.00000000E+00
%FLAG SCNB_SCALE_FACTOR                                                         
%FORMAT(5E16.8)                                                                 
  2.00000000E+00  2.00000000E+00  2.00000000E+00  2.00000000E+00  2.00000000E+00
  2.00000000E+00  2.00000000E+00  2.00000000E+00  2.00000000E+00  2.00000000E+00
  2.00000000E+00  2.00000000E+00  2.00000000E+00  2.00000000E+00  2.00000000E+00
  2.00000000E+00  2.00000000E+00  2.00000000E+00  2.00000000E+00  2.00000000E+00
  2.00000000E+00  2.00000000E+00  0.00000000E+00
%FLAG SOLTY                                                                     
%FORMAT(5E16.8)                                                                 
  0.00000000E+00  0.00000000E+00  0.00000000E+00  0.00000000E+00  0.00000000E+00
  0.00000000E+00  0.00000000E+00  0.00000000E+00  0.00000000E+00  0.00000000E+00
  0.00000000E+00  0.00000000E+00  0.00000000E+00  0.00000000E+00  0.00000000E+00
%FLAG LENNARD_JONES_ACOEF                                                       
%FORMAT(5E16.8)                                                                 
  5.03152404E+05  4.37717034E+05  3.76435470E+05  6.96017793E+05  6.04208667E+05
  9.62429652E+05  6.15869455E+05  5.47655232E+05  8.55419239E+05  7.22850509E+05
  5.92438683E+05  5.17507491E+05  8.20152428E+05  7.19505991E+05  6.96551276E+05
  7.18991463E+05  6.30925504E+05  9.96191545E+05  8.65620051E+05  8.43969952E+05
  1.02073671E+06  6.80216136E+04  5.68021765E+04  9.33839501E+04  8.99910629E+04
  8.12662403E+04  1.00235148E+05  7.94617769E+03  4.69084694E+04  3.86646725E+04
  6.42436358E+04  6.36026248E+04  5.63013422E+04  6.97998263E+04  5.22955465E+03
  3.39005767E+03  5.24591488E+04  4.36069364E+04  7.19580450E+04  7.00036842E+04
  6.27751680E+04  7.75673747E+04  6.02863188E+03  3.94664935E+03  4.56536476E+03
  1.36475542E+03  9.87857350E+02  1.82491629E+03  2.35480845E+03  1.71458823E+03
  2.23577481E+03  9.47421632E+01  5.24570081E+01  6.76796831E+01  1.34728399E-01
  6.30298721E+04  5.27277400E+04  8.65595848E+04  8.31063842E+04  7.52549148E+04
  9.27554496E+04  7.41026906E+03  4.88692384E+03  5.62610481E+03  9.04434904E+01
  6.90855956E+03  1.74176419E+02  1.15813907E+02  2.29317644E+02  3.50407390E+02
  2.25372434E+02  3.03553352E+02  8.80612241E+00  4.36660257E+00  6.05535196E+00
  2.61760843E-03  8.53132435E+00  1.10360882E-05
%FLAG LENNARD_JONES_BCOEF                                                       
%FORMAT(5E16.8)                                                                 
  4.32634597E+02  4.51916854E+02  4.69350655E+02  6.19405188E+02  6.46321327E+02
  8.86629877E+02  3.67447838E+02  3.88056827E+02  5.27149826E+02  3.05601515E+02
  4.76608379E+02  4.98871431E+02  6.82622272E+02  4.03215362E+02  5.24668528E+02
  5.36620538E+02  5.62969425E+02  7.68900328E+02  4.52010965E+02  5.90251928E+02
  6.63431737E+02  1.09393126E+02  1.11953944E+02  1.56025608E+02  9.65931103E+01
  1.21392023E+02  1.37787728E+02  2.57122925E+01  9.08431526E+01  9.23664132E+01
  1.29412081E+02  8.12052260E+01  1.01040256E+02  1.14981426E+02  2.08590256E+01
  1.67944276E+01  9.01089277E+01  9.20079458E+01  1.28466555E+02  7.99093400E+01
  1.00073628E+02  1.13692208E+02  2.10068861E+01  1.69967767E+01  1.71467049E+01
  1.29026271E+01  1.22938581E+01  1.81620725E+01  1.30109323E+01  1.46824710E+01
  1.71355763E+01  2.33785449E+00  1.73959275E+00  1.85338491E+00  7.34107347E-02
  9.87712192E+01  1.01173582E+02  1.40899023E+02  8.70671420E+01  1.09570372E+02
  1.24325688E+02  2.32899892E+01  1.89134207E+01  1.90347353E+01  2.14252117E+00
  2.10929191E+01  3.81654050E+00  3.48534600E+00  5.33073545E+00  4.15567637E+00
  4.40751799E+00  5.22789272E+00  5.90150328E-01  4.15568027E-01  4.59018960E-01
  8.47240681E-03  5.44840215E-01  4.55498033E-04
%FLAG BONDS_INC_HYDROGEN                                                        
%FORMAT(10I8)                                                                   
       0      78       2       6      57       6       9      69       8       9
      72       8      15      45      13      15      48      13      21      51
      16      27      54      17      30      60      18      33      63      18
      39      66      18      42      75      18
%FLAG BONDS_WITHOUT_HYDROGEN                                                    
%FORMAT(10I8)                                                                   
       0      36       1       3      36       3       6      24       4       6
      27       5       9      21       7      12      15       9      12      18
      10      12      27      11      15      21      12      18      24      14
      18      30      14      21      36      15      24      33      14      30
      39      14      33      42      14      39      42      14
%FLAG ANGLES_INC_HYDROGEN                                                       
%FORMAT(10I8)                                                                   
       6      27      54       6       9      21      51       9      12      15
      45      11      12      15      48      11      12      27      54      13
      15      21      51      17      18      30      60      20      21       9
      69      21      21       9      72      21      21      15      45      22
      21      15      48      22      24       6      57      24      24      33
      63      20      27       6      57      25      30      39      66      20
      33      42      75      20      36       0      78      26      36      21
      51      27      39      30      60      20      39      42      75      20
      42      33      63      20      42      39      66      20      45      15
      48      28      69       9      72      29
%FLAG ANGLES_WITHOUT_HYDROGEN                                                   
%FORMAT(10I8)                                                                   
       0      36       3       1       0      36      21       2       3      36
      21       3       6      24      18       4       6      24      33       4
       6      27      12       5       9      21      15       7       9      21
      36       8      12      15      21      10      12      18      24      12
      12      18      30      12      15      12      18      14      15      12
      27      15      15      21      36      16      18      12      27      18
      18      24      33      19      18      30      39      19      24       6
      27      23      24      18      30      19      24      33      42      19
      30      39      42      19      33      42      39      19
%FLAG DIHEDRALS_INC_HYDROGEN                                                    
%FORMAT(10I8)                                                                   
       0      36      21      51       1      78       0      36       3       2
      78       0     -36       3       3       3      36      21      51       7
       3      36     -21      51       8       6      24      33      63       9
       9      21      15      45      12       9      21      15      48      12
      12      15      21      51      11      12      18      30      60       9
      12      27       6      57      13      15      12      27      54      10
      15      21       9      69      15      15      21       9      72      15
      18      12      15      45      17      18      12      15      48      17
      18      12      27      54      10      18      24       6      57      18
      18      24      33      63       9      18      30      39      66       9
      78       0      36      21      20      24       6      27      54      13
      24      18      30      60       9      24      33      42      75       9
      27      12      15      45      17      27      12      15      48      17
      30      39      42      75       9      33      24       6      57      18
      33      42      39      66       9      36      21       9      69      22
      36      21       9      72      22      36      21      15      45      11
      36      21      15      48      11      39      42      33      63       9
      42      39      30      60       9      45      15      21      51      11
      48      15      21      51      11      51      21       9      69      22
      51      21       9      72      22      54      27       6      57      13
      60      30      39      66       9      63      33      42      75       9
      66      39      42      75       9      24      27      -6     -57      23
      12      54     -27      -6      23      18      39     -30     -60      23
      24      42     -33     -63      23      30      42     -39     -66      23
      33      39     -42     -75      23
%FLAG DIHEDRALS_WITHOUT_HYDROGEN                                                
%FORMAT(10I8)                                                                   
       0      36      21       9       1       0      36      21      15       1
       3      36      21       9       1       3      36      21      15       4
       3      36     -21      15       5       3      36     -21      15       6
       6      24     -18      12       9       6      24      18      30       9
       6      24      33      42       9       6      27      12      15      10
       6      27     -12      18      10       9      21      15      12      11
      12      15      21      36      11      12      18      24      33       9
      12      18      30      39       9      12      27      -6      24      13
      15      12      18      24      14      15      12      18      30      14
      18      12      15      21      16      18      24      -6      27      18
      18      24      33      42       9      18      30     -39      42       9
      21      15      12      27      19      24      18     -12      27      21
      24      18      30      39       9      24      33     -42      39       9
      27       6      24      33      18      27      12      18      30      21
      30      18      24      33       9      30      39     -42      33       9
      15      18     -12     -27      23      24      30     -18     -12      23
      18      33     -24      -6      23       0      36      -3     -21      23
%FLAG EXCLUDED_ATOMS_LIST                                                       
%FORMAT(10I8)                                                                   
       2       4       6       8      13      18      27       4       6       8
      13      18      27       5       6       7       9      10      11      12
      15      19      20      22       5       6       8      13      16      17
      18      24      25       6       7       8       9      10      11      12
      13      14      16      17      18      19      20      21       7       8
       9      10      11      13      16      17      18      19      24      25
       8       9      10      11      12      14      15      16      17      19
      20      21      22      23      10      13      16      17      18      24
      25      27      10      11      12      14      15      19      20      21
      22      26      11      12      16      17      19      20      12      14
      15      21      23      26      14      15      20      22      23      26
      16      17      18      24      25      27      15      21      22      23
      26      21      22      23      26      17      18      18      24      25
      20       0      23      26      26      25       0       0       0
%FLAG HBOND_ACOEF                                                               
%FORMAT(5E16.8)                                                                 

%FLAG HBOND_BCOEF                                                               
%FORMAT(5E16.8)                                                                 

%FLAG HBCUT                                                                     
%FORMAT(5E16.8)                                                                 

%FLAG AMBER_ATOM_TYPE                                                           
%FORMAT(20a4)                                                                   
oh  o   na  n8  cc  c3  ca  c3  ca  cd  ca  ca  c   ca  ca  hc  hc  h1  h4  hn  
ha  ha  ha  hn  hn  ha  ho  
%FLAG TREE_CHAIN_CLASSIFICATION                                                 
%FORMAT(20a4)                                                                   
BLA BLA BLA BLA BLA BLA BLA BLA BLA BLA BLA BLA BLA BLA BLA BLA BLA BLA BLA BLA 
BLA BLA BLA BLA BLA BLA BLA 
%FLAG JOIN_ARRAY                                                                
%FORMAT(10I8)                                                                   
       0       0       0       0       0       0       0       0       0       0
       0       0       0       0       0       0       0       0       0       0
       0       0       0       0       0       0       0
%FLAG IROTAT                                                                    
%FORMAT(10I8)                                                                   
       0       0       0       0       0       0       0       0       0       0
       0       0       0       0       0       0       0       0       0       0
       0       0       0       0       0       0       0
%FLAG RADIUS_SET                                                                
%FORMAT(1a80)                                                                   
modified Bondi radii (mbondi)                                                   
%FLAG RADII                                                                     
%FORMAT(5E16.8)                                                                 
  1.50000000E+00  1.50000000E+00  1.55000000E+00  1.55000000E+00  1.70000000E+00
  1.70000000E+00  1.70000000E+00  1.70000000E+00  1.70000000E+00  1.70000000E+00
  1.70000000E+00  1.70000000E+00  1.70000000E+00  1.70000000E+00  1.70000000E+00
  1.30000000E+00  1.30000000E+00  1.30000000E+00  1.30000000E+00  1.30000000E+00
  1.30000000E+00  1.30000000E+00  1.30000000E+00  1.30000000E+00  1.30000000E+00
  1.30000000E+00  8.00000000E-01
%FLAG SCREEN                                                                    
%FORMAT(5E16.8)                                                                 
  8.50000000E-01  8.50000000E-01  7.90000000E-01  7.90000000E-01  7.20000000E-01
  7.20000000E-01  7.20000000E-01  7.20000000E-01  7.20000000E-01  7.20000000E-01
  7.20000000E-01  7.20000000E-01  7.20000000E-01  7.20000000E-01  7.20000000E-01
  8.50000000E-01  8.50000000E-01  8.50000000E-01  8.50000000E-01  8.50000000E-01
  8.50000000E-01  8.50000000E-01  8.50000000E-01  8.50000000E-01  8.50000000E-01
  8.50000000E-01  8.50000000E-01
%FLAG IPOL                                                                      
%FORMAT(1I8)                                                                    
       0
