6305
    27
   1.4760000  -0.8150000   1.7280000   2.5600000  -1.9470000   0.0880000
  -1.6470000   2.0040000   0.5480000   3.8760000   0.3650000  -0.5830000
   0.1470000   1.1320000  -0.4240000   1.5060000   0.9850000  -0.9830000
  -0.8670000   0.1350000  -0.3860000   2.5600000   0.4880000   0.0400000
  -1.9820000   0.7080000   0.2290000  -0.3620000   2.2700000   0.1580000
  -0.9430000  -1.2040000  -0.8170000  -3.1750000   0.0050000   0.4350000
   2.2080000  -0.8850000   0.5860000  -2.1300000  -1.9190000  -0.6180000
  -3.2270000  -1.3220000  -0.0010000   1.4720000   0.2940000  -1.8370000
   1.8350000   1.9500000  -1.3930000   2.6390000   1.1900000   0.8790000
   0.0720000   3.2450000   0.3300000  -2.2620000   2.6640000   1.0050000
  -0.1000000  -1.6860000  -1.3040000  -4.0300000   0.4700000   0.9140000
  -2.1950000  -2.9520000  -0.9490000   4.5720000   0.1350000   0.1260000
   4.1550000   1.2660000  -0.9720000  -4.1390000  -1.8950000   0.1430000
   1.2620000  -1.7060000   2.0800000
