tryptophan_GMX.gro created by acpype (v: 2023.10.27) on Mon Feb  9 18:00:44 2026
 27
    1  TRP    O    1   0.148  -0.082   0.173
    1  TRP  OXT    2   0.256  -0.195   0.009
    1  TRP  NE1    3  -0.165   0.200   0.055
    1  TRP    N    4   0.388   0.036  -0.058
    1  TRP   CG    5   0.015   0.113  -0.042
    1  TRP   CB    6   0.151   0.099  -0.098
    1  TRP  CD2    7  -0.087   0.014  -0.039
    1  TRP   CA    8   0.256   0.049   0.004
    1  TRP  CE2    9  -0.198   0.071   0.023
    1  TRP  CD1   10  -0.036   0.227   0.016
    1  TRP  CE3   11  -0.094  -0.120  -0.082
    1  TRP  CZ2   12  -0.318   0.001   0.044
    1  TRP    C   13   0.221  -0.089   0.059
    1  TRP  CZ3   14  -0.213  -0.192  -0.062
    1  TRP  CH2   15  -0.323  -0.132  -0.000
    1  TRP  HB1   16   0.147   0.029  -0.184
    1  TRP  HB2   17   0.183   0.195  -0.139
    1  TRP   HA   18   0.264   0.119   0.088
    1  TRP  HD1   19   0.007   0.325   0.033
    1  TRP  HE1   20  -0.226   0.266   0.100
    1  TRP  HE3   21  -0.010  -0.169  -0.130
    1  TRP  HZ2   22  -0.403   0.047   0.091
    1  TRP  HZ3   23  -0.220  -0.295  -0.095
    1  TRP   H1   24   0.457   0.014   0.013
    1  TRP   H2   25   0.416   0.127  -0.097
    1  TRP  HH2   26  -0.414  -0.190   0.014
    1  TRP    H   27   0.126  -0.171   0.208
   17.42200    12.39400     7.83400
