; tryptophan_GMX_OPLS.top created by acpype (v: 2023.10.27) on Mon Feb  9 18:00:44 2026

; Include forcefield parameters
#include "ffoplsaa.itp"

; Include tryptophan_GMX.itp topology
#include "tryptophan_GMX.itp"

; Ligand position restraints
#ifdef POSRES_LIG
#include "posre_tryptophan.itp"
#endif

[ system ]
 tryptophan

[ molecules ]
; Compound        nmols
 tryptophan       1     
