;----------------------------TITLE -----------------------------------------------------------------------------------------
;   None
;
; This file was generated at 20:06 on 2020-12-11 by
;
;                  Automatic Topology Builder  
;
;                   REVISION 2020-09-04 10:54:27
;---------------------------------------------------------------------------------------------------------------------------
; Authors     : Martin Stroet, Bertrand Caron, Alpeshkumar K. Malde, Thomas Lee, Alan E. Mark
;
; Institute   : Molecular Dynamics group, 
;               School of Chemistry and Molecular Biosciences (SCMB),
;               The University of Queensland, QLD 4072, Australia
; URL         : https://atb.uq.edu.au
; Citations   : 1. Malde AK, Zuo L, Breeze M, Stroet M, Poger D, Nair PC, Oostenbrink C, Mark AE.
;                  An Automated force field Topology Builder (ATB) and repository: version 1.0.
;                  Journal of Chemical Theory and Computation, 2011, 7, 4026-4037.
;               2. Stroet M, Caron B, Visscher K, Geerke D, Malde AK, Mark AE.
;                  Automated Topology Builder version 3.0: Prediction of solvation free enthalpies in water and hexane.
;                  DOI:10.1021/acs.jctc.8b00768
;
; Disclaimer  : 
;      While every effort has been made to ensure the accuracy and validity of parameters provided below
;      the assignment of parameters is being based on an automated procedure combining data provided by a
;      given user as well as calculations performed using third party software. They are provided as a guide.
;      The authors of the ATB cannot guarantee that the parameters are complete or that the parameters provided
;      are appropriate for use in any specific application. Users are advised to treat these parameters with discretion
;      and to perform additional validation tests for their specific application if required. Neither the authors
;      of the ATB or The University of Queensland except any responsibly for how the parameters may be used.
;
; Release notes and warnings: 
;  (1) The topology is based on a set of atomic coordinates and other data provided by the user after
;      after quantum mechanical optimization of the structure using different levels of theory depending on
;      the nature of the molecule.
;  (2) In some cases the automatic bond, bond angle and dihedral type assignment is ambiguous.
;      In these cases alternative type codes are provided at the end of the line.
;  (3) While bonded parameters are taken where possible from the nominated force field non-standard bond, angle and dihedral
;      type code may be incorporated in cases where an exact match could not be found. These are marked as "non-standard"
;      or "uncertain" in comments.
;  (4) In some cases it is not possible to assign an appropriate parameter automatically. "%%" is used as a place holder
;      for those fields that could not be determined automatically. The parameters in these fields must be assigned manually
;      before the file can be used.
;---------------------------------------------------------------------------------------------------------------------------
; Input Structure : ZUVU
; Output          : ALL ATOM topology
;	Use in conjunction with the corresponding all atom PDB file.
;---------------------------------------------------------------------------------------------------------------------------
; Citing this topology file
; ATB molid: 639044
; ATB Topology Hash: 6af7f
;---------------------------------------------------------------------------------------------------------------------------
; Final Topology Generation was performed using: 
; A B3LYP/6-31G* optimized geometry.
; Bonded and van der Waals parameters were taken from the GROMOS 54A7 parameter set.
; Initial charges were estimated using the ESP method of Merz-Kollman.
; Final charges and charge groups were generated by method described in the ATB paper.
; If required, additional bonded parameters were generated from a Hessian matrix calculated at the B3LYP/6-31G* level of theory.
;---------------------------------------------------------------------------------------------------------------------------
;
;
[ moleculetype ]
; Name   nrexcl
ZUVU     3
[ atoms ]
;  nr  type  resnr  resid  atom  cgnr  charge    mass
    1  HS14    1    ZUVU     H8    1    0.331   1.0080
    2  NPri    1    ZUVU     N3    2   -0.455  14.0067
    3  HS14    1    ZUVU     H7    3    0.331   1.0080
    4     C    1    ZUVU     C8    4    0.075  12.0110
    5 SDmso    1    ZUVU     S1    5   -0.539  32.0600
    6  NOpt    1    ZUVU     N2    6    0.113  14.0067
    7  HS14    1    ZUVU     H6    7    0.193   1.0080
    8  NOpt    1    ZUVU     N1    8   -0.256  14.0067
    9     C    1    ZUVU     C7    9   -0.001  12.0110
   10    HC    1    ZUVU     H5   10    0.158   1.0080
   11  CAro    1    ZUVU     C4   11    0.039  12.0110
   12  CAro    1    ZUVU     C3   12   -0.143  12.0110
   13    HC    1    ZUVU     H3   13    0.134   1.0080
   14  CAro    1    ZUVU     C2   14   -0.142  12.0110
   15    HC    1    ZUVU     H2   15    0.154   1.0080
   16  CAro    1    ZUVU     C1   16   -0.053  12.0110
   17    HC    1    ZUVU     H1   17    0.129   1.0080
   18  CAro    1    ZUVU     C6   18   -0.022  12.0110
   19 CLAro    1    ZUVU    Cl1   19   -0.119  35.4530
   20  CAro    1    ZUVU     C5   20   -0.018  12.0110
   21    HC    1    ZUVU     H4   21    0.091   1.0080
; total charge of the molecule:  -0.000
[ bonds ]
;  ai   aj  funct   c0         c1
    1    2    2   0.1000   1.8700e+07
    2    3    2   0.1000   1.8700e+07
    2    4    2   0.1340   1.0500e+07
    4    5    2   0.1710   2.0519e+06
    4    6    2   0.1360   3.5143e+06
    6    7    2   0.1020   1.7782e+07
    6    8    2   0.1360   1.0200e+07
    8    9    2   0.1280   4.2725e+06
    9   10    2   0.1090   1.2300e+07
    9   11    2   0.1470   8.7100e+06
   11   12    2   0.1400   8.5400e+06
   11   20    2   0.1400   8.5400e+06
   12   13    2   0.1090   1.2300e+07
   12   14    2   0.1390   8.6600e+06
   14   15    2   0.1090   1.2300e+07
   14   16    2   0.1390   8.6600e+06
   16   17    2   0.1090   1.2300e+07
   16   18    2   0.1390   8.6600e+06
   18   19    2   0.1760   1.4366e+06
   18   20    2   0.1390   8.6600e+06
   20   21    2   0.1090   1.2300e+07
[ pairs ]
;  ai   aj  funct  ;  all 1-4 pairs but the ones excluded in GROMOS itp
    1    5    1
    1    6    1
    2    7    1
    2    8    1
    3    5    1
    3    6    1
    4    9    1
    5    7    1
    5    8    1
    6   10    1
    6   11    1
    7    9    1
    8   12    1
    8   20    1
    9   13    1
    9   14    1
    9   18    1
    9   21    1
   10   12    1
   10   20    1
   11   15    1
   11   19    1
   12   17    1
   12   21    1
   13   15    1
   13   16    1
   13   20    1
   14   19    1
   15   17    1
   15   18    1
   16   21    1
   17   19    1
   17   20    1
   19   21    1
[ angles ]
;  ai   aj   ak  funct   angle     fc
    1    2    3    2    120.00   445.00
    1    2    4    2    120.00   390.00
    3    2    4    2    120.00   390.00
    2    4    5    2    124.00  3074.03
    2    4    6    2    120.00   560.00
    5    4    6    2    119.00  2211.40
    4    6    7    2    116.00   465.00
    4    6    8    2    119.00  2211.40
    7    6    8    2    121.00   685.00
    6    8    9    2    119.00  2211.40
    8    9   10    2    120.00   505.00
    8    9   11    2    120.00   560.00
   10    9   11    2    120.00   505.00
    9   11   12    2    120.00   560.00
    9   11   20    2    120.00   560.00
   12   11   20    2    120.00   560.00
   11   12   13    2    120.00   505.00
   11   12   14    2    120.00   560.00
   13   12   14    2    120.00   505.00
   12   14   15    2    120.00   505.00
   12   14   16    2    120.00   560.00
   15   14   16    2    120.00   505.00
   14   16   17    2    120.00   505.00
   14   16   18    2    120.00   560.00
   17   16   18    2    120.00   505.00
   16   18   19    2    120.00   560.00
   16   18   20    2    120.00   560.00
   19   18   20    2    120.00   560.00
   11   20   18    2    120.00   560.00
   11   20   21    2    120.00   505.00
   18   20   21    2    120.00   505.00
[ dihedrals ]
; GROMOS improper dihedrals
;  ai   aj   ak   al  funct   angle     fc
   16   14   17   18    2      0.00   167.36
   14   12   15   16    2      0.00   167.36
   12   11   13   14    2      0.00   167.36
   11    9   12   20    2      0.00   167.36
   20   11   18   21    2      0.00   167.36
   18   16   19   20    2      0.00   167.36
    9    8   10   11    2      0.00   167.36
    6    4    7    8    2      0.00   167.36
    4    2    5    6    2      0.00   167.36
    2    1    3    4    2      0.00   167.36
[ dihedrals ]
;  ai   aj   ak   al  funct    ph0      cp     mult
    3    2    4    6    1    180.00    33.50    2
    4    6    8    9    1    180.00     5.86    2
    5    4    6    8    1    180.00    33.50    2
    6    8    9   11    1    180.00    33.50    2
    8    9   11   12    1    180.00     5.86    2
   11   12   14   16    1    180.00    41.80    2
   12   11   20   18    1    180.00    41.80    2
   12   14   16   18    1    180.00    41.80    2
   14   16   18   20    1    180.00    41.80    2
   16   18   20   11    1    180.00    41.80    2
   20   11   12   14    1    180.00    41.80    2
[ exclusions ]
;  ai   aj  funct  ;  GROMOS 1-4 exclusions
   11   16
   12   18
   14   20

