;----------------------------TITLE -----------------------------------------------------------------------------------------
;   3-Nitrophenol
;
; This file was generated at 07:39 on 2017-08-31 by
;
;                  Automatic Topology Builder  
;
;                   REVISION 2017-07-03 14:53:07
;---------------------------------------------------------------------------------------------------------------------------
; Authors     : Alpeshkumar K. Malde, Le Zuo, Matthew Breeze, Martin Stroet, Alan E. Mark
;
; Institute   : Molecular Dynamics group, 
;               School of Chemistry and Molecular Biosciences (SCMB),
;               The University of Queensland, QLD 4072, Australia
; URL         : http://compbio.biosci.uq.edu.au/atb
; Citation    : Malde AK, Zuo L, Breeze M, Stroet M, Poger D, Nair PC, Oostenbrink C, Mark AE.
;               An Automated force field Topology Builder (ATB) and repository: version 1.0.
;               Journal of Chemical Theory and Computation, 2011, 7(12), 4026-4037.
;               http://pubs.acs.org/doi/abs/10.1021/ct200196m
;
; Disclaimer  : 
;      While every effort has been made to ensure the accuracy and validity of parameters provided below
;      the assignment of parameters is being based on an automated procedure combining data provided by a
;      given user as well as calculations performed using third party software. They are provided as a guide.
;      The authors of the ATB cannot guarantee that the parameters are complete or that the parameters provided
;      are appropriate for use in any specific application. Users are advised to treat these parameters with discretion
;      and to perform additional validation tests for their specific application if required. Neither the authors
;      of the ATB or The University of Queensland except any responsibly for how the parameters may be used.
;
; Release notes and warnings: 
;  (1) The topology is based on a set of atomic coordinates and other data provided by the user after
;      after quantum mechanical optimization of the structure using different levels of theory depending on
;      the nature of the molecule.
;  (2) In some cases the automatic bond, bond angle and dihedral type assignment is ambiguous.
;      In these cases alternative type codes are provided at the end of the line.
;  (3) While bonded parameters are taken where possible from the nominated force field non-standard bond, angle and dihedral
;      type code may be incorporated in cases where an exact match could not be found. These are marked as "non-standard"
;      or "uncertain" in comments.
;  (4) In some cases it is not possible to assign an appropriate parameter automatically. "%%" is used as a place holder
;      for those fields that could not be determined automatically. The parameters in these fields must be assigned manually
;      before the file can be used.
;---------------------------------------------------------------------------------------------------------------------------
; Input Structure : ES3X
; Output          : ALL ATOM topology
;	Use in conjunction with the corresponding all atom PDB file.
;---------------------------------------------------------------------------------------------------------------------------
; Citing this topology file
; ATB molid: 26268
; ATB Topology Hash: c540e
;---------------------------------------------------------------------------------------------------------------------------
; Final Topology Generation was performed using: 
; A B3LYP/6-31G* optimized geometry.
; Bonded and van der Waals parameters were taken from the GROMOS 53A6 parameter set.
; Initial charges were estimated using the ESP method of Merz-Kollman.
; Final charges and charge groups were generated by method described in the ATB paper.
; If required, additional bonded parameters were generated from a Hessian matrix calculated at the B3LYP/6-31G* level of theory.
;---------------------------------------------------------------------------------------------------------------------------
;
;
[ moleculetype ]
; Name   nrexcl
ES3X     3
[ atoms ]
;  nr  type  resnr  resid  atom  cgnr  charge    mass    total_charge
    1    OM    1    ES3X     O3    1   -0.446  15.9994
    2    NT    1    ES3X     N1    1    0.713  14.0067
    3    OM    1    ES3X     O2    1   -0.446  15.9994     ; -0.179
    4     C    1    ES3X     C3    2    0.074  12.0110
    5     C    1    ES3X     C2    2   -0.263  12.0110
    6    HC    1    ES3X     H2    2    0.189   1.0080     ;  0.000
    7     C    1    ES3X     C1    3   -0.029  12.0110
    8    HC    1    ES3X     H1    3    0.149   1.0080
    9     C    1    ES3X     C6    3   -0.304  12.0110
   10    HC    1    ES3X     H4    3    0.184   1.0080     ;  0.000
   11     C    1    ES3X     C5    4    0.416  12.0110
   12    OA    1    ES3X     O1    4   -0.578  15.9994
   13  HS14    1    ES3X     H5    4    0.450   1.0080
   14     C    1    ES3X     C4    4   -0.319  12.0110
   15    HC    1    ES3X     H3    4    0.210   1.0080     ;  0.179
; total charge of the molecule:  -0.000
[ bonds ]
;  ai   aj  funct   c0         c1
    1    2    2   0.1230   1.6600e+07
    2    3    2   0.1230   1.6600e+07
    2    4    2   0.1470   8.7100e+06
    4    5    2   0.1390   8.6600e+06
    4   14    2   0.1390   8.6600e+06
    5    6    2   0.1090   1.2300e+07
    5    7    2   0.1390   8.6600e+06
    7    8    2   0.1090   1.2300e+07
    7    9    2   0.1390   8.6600e+06
    9   10    2   0.1090   1.2300e+07
    9   11    2   0.1400   8.5400e+06
   11   12    2   0.1360   1.0200e+07
   11   14    2   0.1390   8.6600e+06
   12   13    2   0.0972   1.9581e+07
   14   15    2   0.1090   1.2300e+07
[ pairs ]
;  ai   aj  funct  ;  all 1-4 pairs but the ones excluded in GROMOS itp
    1    5    1
    1   14    1
    2    6    1
    2    7    1
    2   11    1
    2   15    1
    3    5    1
    3   14    1
    4    8    1
    4   12    1
    5   10    1
    5   15    1
    6    8    1
    6    9    1
    6   14    1
    7   12    1
    8   10    1
    8   11    1
    9   13    1
    9   15    1
   10   12    1
   10   14    1
   12   15    1
   13   14    1
[ angles ]
;  ai   aj   ak  funct   angle     fc
    1    2    3    2    124.00   730.00
    1    2    4    2    120.00   780.00
    3    2    4    2    120.00   780.00
    2    4    5    2    120.00   560.00
    2    4   14    2    120.00   560.00
    5    4   14    2    126.00   640.00
    4    5    6    2    120.00   505.00
    4    5    7    2    120.00   560.00
    6    5    7    2    120.00   505.00
    5    7    8    2    120.00   505.00
    5    7    9    2    120.00   560.00
    8    7    9    2    120.00   505.00
    7    9   10    2    120.00   505.00
    7    9   11    2    120.00   560.00
   10    9   11    2    120.00   505.00
    9   11   12    2    121.00   685.00
    9   11   14    2    120.00   560.00
   12   11   14    2    117.00   635.00
   11   12   13    2    109.50   450.00
    4   14   11    2    120.00   560.00
    4   14   15    2    120.00   505.00
   11   14   15    2    120.00   505.00
[ dihedrals ]
; GROMOS improper dihedrals
;  ai   aj   ak   al  funct   angle     fc
    7    5    9    8    2      0.00   167.36
    5    7    4    6    2      0.00   167.36
    4    5   14    2    2      0.00   167.36
   14    4   11   15    2      0.00   167.36
   11   14    9   12    2      0.00   167.36
    9    7   11   10    2      0.00   167.36
    2    4    3    1    2      0.00   167.36
[ dihedrals ]
;  ai   aj   ak   al  funct    ph0      cp     mult
    3    2    4    5    1    180.00    33.50    2
   14    4    5    7    1    180.00    41.80    2
    5    4   14   11    1    180.00    41.80    2
    4    5    7    9    1    180.00    41.80    2
    5    7    9   11    1    180.00    41.80    2
    7    9   11   14    1    180.00    41.80    2
   14   11   12   13    1    180.00    16.70    2
    9   11   14    4    1    180.00    41.80    2
[ exclusions ]
;  ai   aj  funct  ;  GROMOS 1-4 exclusions
    4    9
    5   11
    7   14
