;----------------------------TITLE -----------------------------------------------------------------------------------------
;   4-Nitrophenol
;
; This file was generated at 04:18 on 2017-08-20 by
;
;                  Automatic Topology Builder  
;
;                   REVISION 2017-07-03 14:53:07
;---------------------------------------------------------------------------------------------------------------------------
; Authors     : Alpeshkumar K. Malde, Le Zuo, Matthew Breeze, Martin Stroet, Alan E. Mark
;
; Institute   : Molecular Dynamics group, 
;               School of Chemistry and Molecular Biosciences (SCMB),
;               The University of Queensland, QLD 4072, Australia
; URL         : http://compbio.biosci.uq.edu.au/atb
; Citation    : Malde AK, Zuo L, Breeze M, Stroet M, Poger D, Nair PC, Oostenbrink C, Mark AE.
;               An Automated force field Topology Builder (ATB) and repository: version 1.0.
;               Journal of Chemical Theory and Computation, 2011, 7(12), 4026-4037.
;               http://pubs.acs.org/doi/abs/10.1021/ct200196m
;
; Disclaimer  : 
;      While every effort has been made to ensure the accuracy and validity of parameters provided below
;      the assignment of parameters is being based on an automated procedure combining data provided by a
;      given user as well as calculations performed using third party software. They are provided as a guide.
;      The authors of the ATB cannot guarantee that the parameters are complete or that the parameters provided
;      are appropriate for use in any specific application. Users are advised to treat these parameters with discretion
;      and to perform additional validation tests for their specific application if required. Neither the authors
;      of the ATB or The University of Queensland except any responsibly for how the parameters may be used.
;
; Release notes and warnings: 
;  (1) The topology is based on a set of atomic coordinates and other data provided by the user after
;      after quantum mechanical optimization of the structure using different levels of theory depending on
;      the nature of the molecule.
;  (2) In some cases the automatic bond, bond angle and dihedral type assignment is ambiguous.
;      In these cases alternative type codes are provided at the end of the line.
;  (3) While bonded parameters are taken where possible from the nominated force field non-standard bond, angle and dihedral
;      type code may be incorporated in cases where an exact match could not be found. These are marked as "non-standard"
;      or "uncertain" in comments.
;  (4) In some cases it is not possible to assign an appropriate parameter automatically. "%%" is used as a place holder
;      for those fields that could not be determined automatically. The parameters in these fields must be assigned manually
;      before the file can be used.
;---------------------------------------------------------------------------------------------------------------------------
; Input Structure : NPO
; Output          : ALL ATOM topology
;	Use in conjunction with the corresponding all atom PDB file.
;---------------------------------------------------------------------------------------------------------------------------
; Citing this topology file
; ATB molid: 9854
; ATB Topology Hash: 8642e
;---------------------------------------------------------------------------------------------------------------------------
; Final Topology Generation was performed using: 
; A B3LYP/6-31G* optimized geometry.
; Bonded and van der Waals parameters were taken from the GROMOS 53A6 parameter set.
; Initial charges were estimated using the ESP method of Merz-Kollman.
; Final charges and charge groups were generated by method described in the ATB paper.
; If required, additional bonded parameters were generated from a Hessian matrix calculated at the B3LYP/6-31G* level of theory.
;---------------------------------------------------------------------------------------------------------------------------
;
;
[ moleculetype ]
; Name   nrexcl
NPO      3
[ atoms ]
;  nr  type  resnr  resid  atom  cgnr  charge    mass    total_charge
    1    OM    1     NPO     O3    1   -0.440  15.9994
    2    NT    1     NPO     N1    1    0.644  14.0067
    3    OM    1     NPO     O2    1   -0.440  15.9994
    4     C    1     NPO     C1    1    0.022  12.0110     ; -0.214
    5     C    1     NPO     C6    2   -0.129  12.0110
    6    HC    1     NPO     H4    2    0.163   1.0080     ;  0.034
    7     C    1     NPO     C5    3   -0.259  12.0110
    8    HC    1     NPO     H3    3    0.178   1.0080
    9     C    1     NPO     C4    3    0.422  12.0110
   10    OA    1     NPO     OH    3   -0.576  15.9994
   11  HS14    1     NPO     H5    3    0.462   1.0080     ;  0.227
   12     C    1     NPO     C3    4   -0.259  12.0110
   13    HC    1     NPO     H2    4    0.178   1.0080
   14     C    1     NPO     C2    4   -0.129  12.0110
   15    HC    1     NPO     H1    4    0.163   1.0080     ; -0.047
; total charge of the molecule:   0.000
[ bonds ]
;  ai   aj  funct   c0         c1
    1    2    2   0.1230   1.6600e+07
    2    3    2   0.1230   1.6600e+07
    2    4    2   0.1450   5.2319e+06
    4    5    2   0.1390   8.6600e+06
    4   14    2   0.1390   8.6600e+06
    5    6    2   0.1090   1.2300e+07
    5    7    2   0.1390   8.6600e+06
    7    8    2   0.1090   1.2300e+07
    7    9    2   0.1400   8.5400e+06
    9   10    2   0.1360   1.0200e+07
    9   12    2   0.1400   8.5400e+06
   10   11    2   0.0972   1.9581e+07
   12   13    2   0.1090   1.2300e+07
   12   14    2   0.1390   8.6600e+06
   14   15    2   0.1090   1.2300e+07
[ pairs ]
;  ai   aj  funct  ;  all 1-4 pairs but the ones excluded in GROMOS itp
    1    5    1
    1   14    1
    2    6    1
    2    7    1
    2   12    1
    2   15    1
    3    5    1
    3   14    1
    4    8    1
    4   13    1
    5   10    1
    5   15    1
    6    8    1
    6    9    1
    6   14    1
    7   11    1
    7   13    1
    8   10    1
    8   12    1
    9   15    1
   10   13    1
   10   14    1
   11   12    1
   13   15    1
[ angles ]
;  ai   aj   ak  funct   angle     fc
    1    2    3    2    124.00   730.00
    1    2    4    2    117.20   636.00
    3    2    4    2    117.20   636.00
    2    4    5    2    120.00   560.00
    2    4   14    2    120.00   560.00
    5    4   14    2    120.00   560.00
    4    5    6    2    120.00   505.00
    4    5    7    2    120.00   560.00
    6    5    7    2    120.00   505.00
    5    7    8    2    120.00   505.00
    5    7    9    2    120.00   560.00
    8    7    9    2    120.00   505.00
    7    9   10    2    117.00   635.00
    7    9   12    2    120.00   560.00
   10    9   12    2    117.00   635.00
    9   10   11    2    109.50   450.00
    9   12   13    2    120.00   505.00
    9   12   14    2    120.00   560.00
   13   12   14    2    120.00   505.00
    4   14   12    2    120.00   560.00
    4   14   15    2    120.00   505.00
   12   14   15    2    120.00   505.00
[ dihedrals ]
; GROMOS improper dihedrals
;  ai   aj   ak   al  funct   angle     fc
    4   14    5    2    2      0.00   167.36
   14    4   12   15    2      0.00   167.36
   12   14    9   13    2      0.00   167.36
    9   12    7   10    2      0.00   167.36
    7    9    5    8    2      0.00   167.36
    5    4    7    6    2      0.00   167.36
    2    4    3    1    2      0.00   167.36
[ dihedrals ]
;  ai   aj   ak   al  funct    ph0      cp     mult
    3    2    4   14    1    180.00    33.50    2
   14    4    5    7    1    180.00    41.80    2
    5    4   14   12    1    180.00    41.80    2
    4    5    7    9    1    180.00    41.80    2
    5    7    9   12    1    180.00    41.80    2
   12    9   10   11    1    180.00    16.70    2
    7    9   12   14    1    180.00    41.80    2
    9   12   14    4    1    180.00    41.80    2
[ exclusions ]
;  ai   aj  funct  ;  GROMOS 1-4 exclusions
    4    9
    5   12
    7   14
