;----------------------------TITLE -----------------------------------------------------------------------------------------
;   Anandamide
;
; This file was generated at 03:19 on 2018-10-02 by
;
;                  Automatic Topology Builder  
;
;                   REVISION 2018-08-31 15:13:22
;---------------------------------------------------------------------------------------------------------------------------
; Authors     : Alpeshkumar K. Malde, Le Zuo, Matthew Breeze, Martin Stroet, Alan E. Mark
;
; Institute   : Molecular Dynamics group, 
;               School of Chemistry and Molecular Biosciences (SCMB),
;               The University of Queensland, QLD 4072, Australia
; URL         : http://compbio.biosci.uq.edu.au/atb
; Citation    : Malde AK, Zuo L, Breeze M, Stroet M, Poger D, Nair PC, Oostenbrink C, Mark AE.
;               An Automated force field Topology Builder (ATB) and repository: version 1.0.
;               Journal of Chemical Theory and Computation, 2011, 7(12), 4026-4037.
;               http://pubs.acs.org/doi/abs/10.1021/ct200196m
;
; Disclaimer  : 
;      While every effort has been made to ensure the accuracy and validity of parameters provided below
;      the assignment of parameters is being based on an automated procedure combining data provided by a
;      given user as well as calculations performed using third party software. They are provided as a guide.
;      The authors of the ATB cannot guarantee that the parameters are complete or that the parameters provided
;      are appropriate for use in any specific application. Users are advised to treat these parameters with discretion
;      and to perform additional validation tests for their specific application if required. Neither the authors
;      of the ATB or The University of Queensland except any responsibly for how the parameters may be used.
;
; Release notes and warnings: 
;  (1) The topology is based on a set of atomic coordinates and other data provided by the user after
;      after quantum mechanical optimization of the structure using different levels of theory depending on
;      the nature of the molecule.
;  (2) In some cases the automatic bond, bond angle and dihedral type assignment is ambiguous.
;      In these cases alternative type codes are provided at the end of the line.
;  (3) While bonded parameters are taken where possible from the nominated force field non-standard bond, angle and dihedral
;      type code may be incorporated in cases where an exact match could not be found. These are marked as "non-standard"
;      or "uncertain" in comments.
;  (4) In some cases it is not possible to assign an appropriate parameter automatically. "%%" is used as a place holder
;      for those fields that could not be determined automatically. The parameters in these fields must be assigned manually
;      before the file can be used.
;---------------------------------------------------------------------------------------------------------------------------
; Input Structure : YV4F
; Output          : ALL ATOM topology
;	Use in conjunction with the corresponding all atom PDB file.
;---------------------------------------------------------------------------------------------------------------------------
; Citing this topology file
; ATB molid: 250693
; ATB Topology Hash: bc646
;---------------------------------------------------------------------------------------------------------------------------
; Initial Guess Topology Generation:
; The topology was generated from AM1 optimized geometry and MOPAC charges.
; Bonded and van der Waals parameters were taken from the GROMOS 54A7 parameter set.
;---------------------------------------------------------------------------------------------------------------------------
;
;
[ moleculetype ]
; Name   nrexcl
YV4F     3
[ atoms ]
;  nr  type  resnr  resid  atom  cgnr  charge    mass    total_charge
    1  HS14    1    YV4F    H62    1    0.243   1.0080
    2    OA    1    YV4F    O25    1   -0.338  15.9994
    3     C    1    YV4F    C24    1   -0.049  12.0110
    4    HC    1    YV4F    H60    1    0.072   1.0080
    5    HC    1    YV4F    H61    1    0.072   1.0080     ; -0.000
    6     C    1    YV4F    C23    2   -0.026  12.0110
    7    HC    1    YV4F    H58    2    0.110   1.0080
    8    HC    1    YV4F    H59    2    0.110   1.0080
    9     N    1    YV4F    N22    2   -0.377  14.0067
   10  HS14    1    YV4F    H57    2    0.183   1.0080     ;  0.000
   11     C    1    YV4F    C20    3    0.305  12.0110
   12     O    1    YV4F    O21    3   -0.377  15.9994
   13     C    1    YV4F    C19    3   -0.177  12.0110
   14    HC    1    YV4F    H55    3    0.101   1.0080
   15    HC    1    YV4F    H56    3    0.101   1.0080
   16     C    1    YV4F    C18    3   -0.153  12.0110
   17    HC    1    YV4F    H53    3    0.100   1.0080
   18    HC    1    YV4F    H54    3    0.100   1.0080     ;  0.000
   19     C    1    YV4F    C17    4   -0.132  12.0110
   20    HC    1    YV4F    H51    4    0.085   1.0080
   21    HC    1    YV4F    H52    4    0.085   1.0080
   22     C    1    YV4F    C16    4   -0.169  12.0110
   23    HC    1    YV4F    H50    4    0.131   1.0080     ;  0.000
   24     C    1    YV4F    C15    5   -0.165  12.0110
   25    HC    1    YV4F    H49    5    0.123   1.0080
   26     C    1    YV4F    C14    5   -0.107  12.0110
   27    HC    1    YV4F    H47    5    0.095   1.0080
   28    HC    1    YV4F    H48    5    0.095   1.0080
   29     C    1    YV4F    C13    5   -0.165  12.0110
   30    HC    1    YV4F    H46    5    0.124   1.0080     ; -0.000
   31     C    1    YV4F    C12    6   -0.167  12.0110
   32    HC    1    YV4F    H45    6    0.124   1.0080
   33     C    1    YV4F    C11    6   -0.107  12.0110
   34    HC    1    YV4F    H43    6    0.095   1.0080
   35    HC    1    YV4F    H44    6    0.095   1.0080
   36     C    1    YV4F    C10    6   -0.166  12.0110
   37    HC    1    YV4F    H42    6    0.126   1.0080     ; -0.000
   38     C    1    YV4F     C9    7   -0.166  12.0110
   39    HC    1    YV4F    H41    7    0.128   1.0080
   40     C    1    YV4F     C8    7   -0.107  12.0110
   41    HC    1    YV4F    H39    7    0.095   1.0080
   42    HC    1    YV4F    H40    7    0.095   1.0080
   43     C    1    YV4F     C7    7   -0.168  12.0110
   44    HC    1    YV4F    H38    7    0.123   1.0080     ; -0.000
   45     C    1    YV4F     C6    8   -0.168  12.0110
   46    HC    1    YV4F    H37    8    0.121   1.0080
   47     C    1    YV4F     C5    8   -0.133  12.0110
   48    HC    1    YV4F    H35    8    0.087   1.0080
   49    HC    1    YV4F    H36    8    0.087   1.0080
   50     C    1    YV4F     C4    8   -0.156  12.0110
   51    HC    1    YV4F    H33    8    0.081   1.0080
   52    HC    1    YV4F    H34    8    0.081   1.0080     ; -0.000
   53     C    1    YV4F     C3    9   -0.159  12.0110
   54    HC    1    YV4F    H31    9    0.079   1.0080
   55    HC    1    YV4F    H32    9    0.079   1.0080
   56     C    1    YV4F     C2    9   -0.160  12.0110
   57    HC    1    YV4F    H29    9    0.078   1.0080
   58    HC    1    YV4F    H30    9    0.078   1.0080
   59     C    1    YV4F     C1    9   -0.211  12.0110
   60    HC    1    YV4F    H26    9    0.072   1.0080
   61    HC    1    YV4F    H27    9    0.072   1.0080
   62    HC    1    YV4F    H28    9    0.072   1.0080     ; -0.000
; total charge of the molecule:  -0.000
[ bonds ]
;  ai   aj  funct   c0         c1
    1    2    2   0.0971   7.9547e+06
    2    3    2   0.1420   3.2236e+06
    3    4    2   0.1120   3.7000e+07
    3    5    2   0.1120   3.7000e+07
    3    6    2   0.1530   7.1500e+06
    6    7    2   0.1130   7.0483e+06
    6    8    2   0.1130   7.0483e+06
    6    9    2   0.1435   6.1000e+06
    9   10    2   0.1000   1.8700e+07
    9   11    2   0.1380   1.1000e+07
   11   12    2   0.1250   1.3400e+07
   11   13    2   0.1520   5.4300e+06
   13   14    2   0.1120   3.7000e+07
   13   15    2   0.1120   3.7000e+07
   13   16    2   0.1520   5.4300e+06
   16   17    2   0.1120   3.7000e+07
   16   18    2   0.1120   3.7000e+07
   16   19    2   0.1520   5.4300e+06
   19   20    2   0.1130   7.0483e+06
   19   21    2   0.1130   7.0483e+06
   19   22    2   0.1480   5.7300e+06
   22   23    2   0.1100   1.2100e+07
   22   24    2   0.1330   1.1800e+07
   24   25    2   0.1100   1.2100e+07
   24   26    2   0.1480   5.7300e+06
   26   27    2   0.1130   7.0483e+06
   26   28    2   0.1130   7.0483e+06
   26   29    2   0.1480   5.7300e+06
   29   30    2   0.1100   1.2100e+07
   29   31    2   0.1330   1.1800e+07
   31   32    2   0.1100   1.2100e+07
   31   33    2   0.1480   5.7300e+06
   33   34    2   0.1130   7.0483e+06
   33   35    2   0.1130   7.0483e+06
   33   36    2   0.1480   5.7300e+06
   36   37    2   0.1100   1.2100e+07
   36   38    2   0.1330   1.1800e+07
   38   39    2   0.1100   1.2100e+07
   38   40    2   0.1480   5.7300e+06
   40   41    2   0.1130   7.0483e+06
   40   42    2   0.1130   7.0483e+06
   40   43    2   0.1480   5.7300e+06
   43   44    2   0.1100   1.2100e+07
   43   45    2   0.1330   1.1800e+07
   45   46    2   0.1100   1.2100e+07
   45   47    2   0.1480   5.7300e+06
   47   48    2   0.1120   3.7000e+07
   47   49    2   0.1120   3.7000e+07
   47   50    2   0.1520   5.4300e+06
   50   51    2   0.1120   3.7000e+07
   50   52    2   0.1120   3.7000e+07
   50   53    2   0.1520   5.4300e+06
   53   54    2   0.1120   3.7000e+07
   53   55    2   0.1120   3.7000e+07
   53   56    2   0.1520   5.4300e+06
   56   57    2   0.1120   3.7000e+07
   56   58    2   0.1120   3.7000e+07
   56   59    2   0.1510   3.7279e+06
   59   60    2   0.1120   3.7000e+07
   59   61    2   0.1120   3.7000e+07
   59   62    2   0.1120   3.7000e+07
[ pairs ]
;  ai   aj  funct  ;  all 1-4 pairs but the ones excluded in GROMOS itp
   53   60    1
   53   61    1
   53   62    1
   50   57    1
   50   58    1
   50   59    1
   47   54    1
   47   55    1
   47   56    1
   45   51    1
   45   52    1
   45   53    1
   43   48    1
   43   49    1
   43   50    1
   40   46    1
   40   47    1
   38   44    1
   38   45    1
   36   41    1
   36   42    1
   36   43    1
   33   39    1
   33   40    1
   31   37    1
   31   38    1
   29   34    1
   29   35    1
   29   36    1
   26   32    1
   26   33    1
   24   30    1
   24   31    1
   22   27    1
   22   28    1
   22   29    1
   19   25    1
   19   26    1
   16   23    1
   16   24    1
   13   20    1
   13   21    1
   13   22    1
   11   17    1
   11   18    1
   11   19    1
   12   14    1
   12   15    1
   12   16    1
    9   14    1
    9   15    1
    9   16    1
    6   12    1
    6   13    1
    3   10    1
    3   11    1
    2    7    1
    2    8    1
    2    9    1
   57   60    1
   57   61    1
   57   62    1
   58   60    1
   58   61    1
   58   62    1
   54   57    1
   54   58    1
   54   59    1
   55   57    1
   55   58    1
   55   59    1
   51   54    1
   51   55    1
   51   56    1
   52   54    1
   52   55    1
   52   56    1
   48   51    1
   48   52    1
   48   53    1
   49   51    1
   49   52    1
   49   53    1
   46   48    1
   46   49    1
   46   50    1
   44   46    1
   44   47    1
   41   44    1
   41   45    1
   42   44    1
   42   45    1
   39   41    1
   39   42    1
   39   43    1
   37   39    1
   37   40    1
   34   37    1
   34   38    1
   35   37    1
   35   38    1
   32   34    1
   32   35    1
   32   36    1
   30   32    1
   30   33    1
   27   30    1
   27   31    1
   28   30    1
   28   31    1
   25   27    1
   25   28    1
   25   29    1
   23   25    1
   23   26    1
   20   23    1
   20   24    1
   21   23    1
   21   24    1
   17   20    1
   17   21    1
   17   22    1
   18   20    1
   18   21    1
   18   22    1
   14   17    1
   14   18    1
   14   19    1
   15   17    1
   15   18    1
   15   19    1
   10   12    1
   10   13    1
    7   10    1
    7   11    1
    8   10    1
    8   11    1
    4    7    1
    4    8    1
    4    9    1
    5    7    1
    5    8    1
    5    9    1
    1    4    1
    1    5    1
    1    6    1
[ angles ]
;  ai   aj   ak  funct   angle     fc
    1    2    3    2    109.50   450.00
    2    3    4    2    110.00  4763.46
    2    3    5    2    110.00  4763.46
    2    3    6    2    109.50   520.00
    4    3    5    2    109.00  1680.51
    4    3    6    2    111.30   632.00
    5    3    6    2    111.30   632.00
    3    6    7    2    108.00   465.00
    3    6    8    2    108.00   465.00
    3    6    9    2    115.00   610.00
    7    6    8    2    109.00  1680.51
    7    6    9    2    108.00   465.00
    8    6    9    2    108.00   465.00
    6    9   10    2    116.00   465.00
    6    9   11    2    122.00   700.00
   10    9   11    2    120.00   390.00
    9   11   12    2    124.00   730.00
    9   11   13    2    115.00   610.00
   12   11   13    2    121.00   685.00
   11   13   14    2    111.30   632.00
   11   13   15    2    111.30   632.00
   11   13   16    2    111.00   530.00
   14   13   15    2    107.60   507.00
   14   13   16    2    110.00  4763.46
   15   13   16    2    110.00  4763.46
   13   16   17    2    109.50   285.00
   13   16   18    2    109.50   285.00
   13   16   19    2    111.00   530.00
   17   16   18    2    107.00  2726.16
   17   16   19    2    110.00  4763.46
   18   16   19    2    110.00  4763.46
   16   19   20    2    109.60   450.00
   16   19   21    2    109.60   450.00
   16   19   22    2    111.00   530.00
   20   19   21    2    106.75   503.00
   20   19   22    2    109.50   285.00
   21   19   22    2    109.50   285.00
   19   22   23    2    120.00   505.00
   19   22   24    2    126.00   640.00
   23   22   24    2    120.00   505.00
   22   24   25    2    120.00   505.00
   22   24   26    2    126.00   640.00
   25   24   26    2    120.00   505.00
   24   26   27    2    109.60   450.00
   24   26   28    2    109.60   450.00
   24   26   29    2    111.00   530.00
   27   26   28    2    106.00  1733.55
   27   26   29    2    109.60   450.00
   28   26   29    2    109.60   450.00
   26   29   30    2    120.00   505.00
   26   29   31    2    126.00   640.00
   30   29   31    2    120.00   505.00
   29   31   32    2    120.00   505.00
   29   31   33    2    126.00   640.00
   32   31   33    2    120.00   505.00
   31   33   34    2    108.53   443.00
   31   33   35    2    108.53   443.00
   31   33   36    2    111.00   530.00
   34   33   35    2    106.00  1733.55
   34   33   36    2    109.60   450.00
   35   33   36    2    109.60   450.00
   33   36   37    2    120.00   505.00
   33   36   38    2    126.00   640.00
   37   36   38    2    120.00   505.00
   36   38   39    2    120.00   505.00
   36   38   40    2    126.00   640.00
   39   38   40    2    120.00   505.00
   38   40   41    2    110.00  4763.46
   38   40   42    2    110.00  4763.46
   38   40   43    2    111.00   530.00
   41   40   42    2    106.00  1733.55
   41   40   43    2    109.60   450.00
   42   40   43    2    109.60   450.00
   40   43   44    2    120.00   505.00
   40   43   45    2    126.00   640.00
   44   43   45    2    120.00   505.00
   43   45   46    2    120.00   505.00
   43   45   47    2    126.00   640.00
   46   45   47    2    120.00   505.00
   45   47   48    2    109.60   450.00
   45   47   49    2    109.60   450.00
   45   47   50    2    111.00   530.00
   48   47   49    2    106.75   503.00
   48   47   50    2    109.50   285.00
   49   47   50    2    109.50   285.00
   47   50   51    2    109.60   450.00
   47   50   52    2    109.60   450.00
   47   50   53    2    111.00   530.00
   51   50   52    2    107.00  2726.16
   51   50   53    2    109.60   450.00
   52   50   53    2    109.60   450.00
   50   53   54    2    109.60   450.00
   50   53   55    2    109.60   450.00
   50   53   56    2    111.00   530.00
   54   53   55    2    107.00  2726.16
   54   53   56    2    109.50   285.00
   55   53   56    2    109.50   285.00
   53   56   57    2    109.50   285.00
   53   56   58    2    109.50   285.00
   53   56   59    2    111.00   530.00
   57   56   58    2    107.00  2726.16
   57   56   59    2    109.60   450.00
   58   56   59    2    109.60   450.00
   56   59   60    2    110.30   524.00
   56   59   61    2    110.30   524.00
   56   59   62    2    110.30   524.00
   60   59   61    2    108.53   443.00
   60   59   62    2    108.53   443.00
   61   59   62    2    108.53   443.00
[ dihedrals ]
; GROMOS improper dihedrals
;  ai   aj   ak   al  funct   angle     fc
   45   47   43   46    2      0.00   167.36
   43   45   40   44    2      0.00   167.36
   38   40   36   39    2      0.00   167.36
   36   38   33   37    2      0.00   167.36
   31   33   29   32    2      0.00   167.36
   29   31   26   30    2      0.00   167.36
   24   26   22   25    2      0.00   167.36
   22   24   19   23    2      0.00   167.36
   11   13   12    9    2      0.00   167.36
    9   11    6   10    2      0.00   167.36
[ dihedrals ]
;  ai   aj   ak   al  funct    ph0      cp     mult
    1    2    3    6    1      0.00     1.26    3
    2    3    6    9    1      0.00     5.92    3
    3    6    9   11    1    180.00     1.00    6
    6    9   11   13    1    180.00    33.50    2
   12   11   13   16    1      0.00     1.00    6
   11   13   16   19    1      0.00     5.92    3
   13   16   19   22    1      0.00     5.92    3
   16   19   22   24    1    180.00     1.00    6
   19   22   24   26    1    180.00     5.86    2
   22   24   26   29    1    180.00     1.00    6
   24   26   29   31    1    180.00     1.00    6
   26   29   31   33    1    180.00     5.86    2
   29   31   33   36    1      0.00     1.00    6
   31   33   36   38    1    180.00     1.00    6
   33   36   38   40    1    180.00     5.86    2
   36   38   40   43    1      0.00     1.00    6
   38   40   43   45    1      0.00     1.00    6
   40   43   45   47    1    180.00     5.86    2
   43   45   47   50    1    180.00     1.00    6
   45   47   50   53    1      0.00     5.92    3
   47   50   53   56    1      0.00     5.92    3
   50   53   56   59    1      0.00     5.92    3
   53   56   59   60    1      0.00     5.92    3
[ exclusions ]
;  ai   aj  funct  ;  GROMOS 1-4 exclusions
