;----------------------------TITLE -----------------------------------------------------------------------------------------
;   Cannabidiol(7CI)
;
; This file was generated at 07:40 on 2020-01-08 by
;
;                  Automatic Topology Builder  
;
;                   REVISION 2019-08-18 21:01:54
;---------------------------------------------------------------------------------------------------------------------------
; Authors     : Martin Stroet, Bertrand Caron, Alpeshkumar K. Malde, Thomas Lee, Alan E. Mark
;
; Institute   : Molecular Dynamics group, 
;               School of Chemistry and Molecular Biosciences (SCMB),
;               The University of Queensland, QLD 4072, Australia
; URL         : https://atb.uq.edu.au
; Citations   : 1. Malde AK, Zuo L, Breeze M, Stroet M, Poger D, Nair PC, Oostenbrink C, Mark AE.
;                  An Automated force field Topology Builder (ATB) and repository: version 1.0.
;                  Journal of Chemical Theory and Computation, 2011, 7, 4026-4037.
;               2. Stroet M, Caron B, Visscher K, Geerke D, Malde AK, Mark AE.
;                  Automated Topology Builder version 3.0: Prediction of solvation free enthalpies in water and hexane.
;                  DOI:10.1021/acs.jctc.8b00768
;
; Disclaimer  : 
;      While every effort has been made to ensure the accuracy and validity of parameters provided below
;      the assignment of parameters is being based on an automated procedure combining data provided by a
;      given user as well as calculations performed using third party software. They are provided as a guide.
;      The authors of the ATB cannot guarantee that the parameters are complete or that the parameters provided
;      are appropriate for use in any specific application. Users are advised to treat these parameters with discretion
;      and to perform additional validation tests for their specific application if required. Neither the authors
;      of the ATB or The University of Queensland except any responsibly for how the parameters may be used.
;
; Release notes and warnings: 
;  (1) The topology is based on a set of atomic coordinates and other data provided by the user after
;      after quantum mechanical optimization of the structure using different levels of theory depending on
;      the nature of the molecule.
;  (2) In some cases the automatic bond, bond angle and dihedral type assignment is ambiguous.
;      In these cases alternative type codes are provided at the end of the line.
;  (3) While bonded parameters are taken where possible from the nominated force field non-standard bond, angle and dihedral
;      type code may be incorporated in cases where an exact match could not be found. These are marked as "non-standard"
;      or "uncertain" in comments.
;  (4) In some cases it is not possible to assign an appropriate parameter automatically. "%%" is used as a place holder
;      for those fields that could not be determined automatically. The parameters in these fields must be assigned manually
;      before the file can be used.
;---------------------------------------------------------------------------------------------------------------------------
; Input Structure : P6RD
; Output          : ALL ATOM topology
;	Use in conjunction with the corresponding all atom PDB file.
;---------------------------------------------------------------------------------------------------------------------------
; Citing this topology file
; ATB molid: 33367
; ATB Topology Hash: 44912
;---------------------------------------------------------------------------------------------------------------------------
; Initial Guess Topology Generation:
; The topology was generated from AM1 optimized geometry and MOPAC charges.
; Bonded and van der Waals parameters were taken from the GROMOS 54A7 parameter set.
;---------------------------------------------------------------------------------------------------------------------------
;
;
[ moleculetype ]
; Name   nrexcl
P6RD     3
[ atoms ]
;  nr  type  resnr  resid  atom  cgnr  charge    mass
    1    HC    1    P6RD    H30    1    0.072   1.0080
    2     C    1    P6RD    C21    2   -0.211  12.0110
    3    HC    1    P6RD    H28    3    0.072   1.0080
    4    HC    1    P6RD    H29    4    0.072   1.0080
    5     C    1    P6RD    C20    5   -0.159  12.0110
    6    HC    1    P6RD    H26    6    0.079   1.0080
    7    HC    1    P6RD    H27    7    0.079   1.0080
    8     C    1    P6RD    C19    8   -0.159  12.0110
    9    HC    1    P6RD    H22    9    0.079   1.0080
   10    HC    1    P6RD    H23   10    0.079   1.0080
   11     C    1    P6RD    C18   11   -0.154  12.0110
   12    HC    1    P6RD    H20   12    0.086   1.0080
   13    HC    1    P6RD    H21   13    0.083   1.0080
   14     C    1    P6RD    C16   14   -0.127  12.0110
   15    HC    1    P6RD    H16   15    0.088   1.0080
   16    HC    1    P6RD    H17   16    0.091   1.0080
   17     C    1    P6RD    C13   17    0.006  12.0110
   18     C    1    P6RD    C14   18   -0.249  12.0110
   19    HC    1    P6RD    H14   19    0.135   1.0080
   20     C    1    P6RD     C9   20    0.117  12.0110
   21    OA    1    P6RD     O1   21   -0.246  15.9994
   22     H    1    P6RD    H24   22    0.217   1.0080
   23     C    1    P6RD     C6   23   -0.111  12.0110
   24     C    1    P6RD    C10   24    0.117  12.0110
   25     C    1    P6RD    C15   25   -0.249  12.0110
   26    HC    1    P6RD    H15   26    0.135   1.0080
   27    OA    1    P6RD     O2   27   -0.246  15.9994
   28     H    1    P6RD    H25   28    0.217   1.0080
   29     C    1    P6RD     C2   29   -0.009  12.0110
   30    HC    1    P6RD     H2   30    0.120   1.0080
   31     C    1    P6RD     C1   31   -0.070  12.0110
   32    HC    1    P6RD     H1   32    0.113   1.0080
   33     C    1    P6RD     C8   33   -0.097  12.0110
   34     C    1    P6RD    C17   34   -0.227  12.0110
   35    HC    1    P6RD    H18   35    0.108   1.0080
   36    HC    1    P6RD    H19   36    0.114   1.0080
   37     C    1    P6RD    C12   37   -0.181  12.0110
   38    HC    1    P6RD    H11   38    0.079   1.0080
   39    HC    1    P6RD    H12   39    0.079   1.0080
   40    HC    1    P6RD    H13   40    0.079   1.0080
   41     C    1    P6RD     C3   41   -0.147  12.0110
   42    HC    1    P6RD     H3   42    0.081   1.0080
   43    HC    1    P6RD     H4   43    0.083   1.0080
   44     C    1    P6RD     C4   44   -0.122  12.0110
   45    HC    1    P6RD     H5   45    0.087   1.0080
   46    HC    1    P6RD     H6   46    0.082   1.0080
   47     C    1    P6RD     C7   47   -0.116  12.0110
   48     C    1    P6RD     C5   48   -0.147  12.0110
   49    HC    1    P6RD     H7   49    0.123   1.0080
   50     C    1    P6RD    C11   50   -0.176  12.0110
   51    HC    1    P6RD     H8   51    0.077   1.0080
   52    HC    1    P6RD     H9   52    0.077   1.0080
   53    HC    1    P6RD    H10   53    0.077   1.0080
; total charge of the molecule:  -0.000
[ bonds ]
;  ai   aj  funct   c0         c1
    1    2    2   0.1120   3.7000e+07
    2    3    2   0.1120   3.7000e+07
    2    4    2   0.1120   3.7000e+07
    2    5    2   0.1510   3.7279e+06
    5    6    2   0.1120   3.7000e+07
    5    7    2   0.1120   3.7000e+07
    5    8    2   0.1520   5.4300e+06
    8    9    2   0.1120   3.7000e+07
    8   10    2   0.1120   3.7000e+07
    8   11    2   0.1520   5.4300e+06
   11   12    2   0.1120   3.7000e+07
   11   13    2   0.1120   3.7000e+07
   11   14    2   0.1520   5.4300e+06
   14   15    2   0.1120   3.7000e+07
   14   16    2   0.1120   3.7000e+07
   14   17    2   0.1490   1.4189e+07
   17   18    2   0.1390   8.6600e+06
   17   25    2   0.1390   8.6600e+06
   18   19    2   0.1090   1.2300e+07
   18   20    2   0.1400   8.5400e+06
   20   21    2   0.1380   1.1000e+07
   20   23    2   0.1410   6.5389e+06
   21   22    2   0.0971   7.9547e+06
   23   24    2   0.1410   6.5389e+06
   23   29    2   0.1500   8.3700e+06
   24   25    2   0.1400   8.5400e+06
   24   27    2   0.1380   1.1000e+07
   25   26    2   0.1090   1.2300e+07
   27   28    2   0.0971   7.9547e+06
   29   30    2   0.1130   7.0483e+06
   29   31    2   0.1530   7.1500e+06
   29   48    2   0.1490   1.4189e+07
   31   32    2   0.1130   7.0483e+06
   31   33    2   0.1500   8.3700e+06
   31   41    2   0.1530   7.1500e+06
   33   34    2   0.1330   1.1800e+07
   33   37    2   0.1480   5.7300e+06
   34   35    2   0.1090   1.2300e+07
   34   36    2   0.1090   1.2300e+07
   37   38    2   0.1120   3.7000e+07
   37   39    2   0.1120   3.7000e+07
   37   40    2   0.1120   3.7000e+07
   41   42    2   0.1120   3.7000e+07
   41   43    2   0.1120   3.7000e+07
   41   44    2   0.1520   5.4300e+06
   44   45    2   0.1120   3.7000e+07
   44   46    2   0.1120   3.7000e+07
   44   47    2   0.1490   1.4189e+07
   47   48    2   0.1340   1.0500e+07
   47   50    2   0.1480   5.7300e+06
   48   49    2   0.1100   1.2100e+07
   50   51    2   0.1120   3.7000e+07
   50   52    2   0.1120   3.7000e+07
   50   53    2   0.1120   3.7000e+07
[ pairs ]
;  ai   aj  funct  ;  all 1-4 pairs but the ones excluded in GROMOS itp
    1    6    1
    1    7    1
    1    8    1
    2    9    1
    2   10    1
    2   11    1
    3    6    1
    3    7    1
    3    8    1
    4    6    1
    4    7    1
    4    8    1
    5   12    1
    5   13    1
    5   14    1
    6    9    1
    6   10    1
    6   11    1
    7    9    1
    7   10    1
    7   11    1
    8   15    1
    8   16    1
    8   17    1
    9   12    1
    9   13    1
    9   14    1
   10   12    1
   10   13    1
   10   14    1
   11   18    1
   11   25    1
   12   15    1
   12   16    1
   12   17    1
   13   15    1
   13   16    1
   13   17    1
   14   19    1
   14   20    1
   14   24    1
   14   26    1
   15   18    1
   15   25    1
   16   18    1
   16   25    1
   17   21    1
   17   27    1
   18   22    1
   18   26    1
   18   29    1
   19   21    1
   19   23    1
   19   25    1
   20   27    1
   20   30    1
   20   31    1
   20   48    1
   21   24    1
   21   29    1
   22   23    1
   23   26    1
   23   28    1
   23   32    1
   23   33    1
   23   41    1
   23   47    1
   23   49    1
   24   30    1
   24   31    1
   24   48    1
   25   28    1
   25   29    1
   26   27    1
   27   29    1
   29   34    1
   29   37    1
   29   42    1
   29   43    1
   29   44    1
   29   50    1
   30   32    1
   30   33    1
   30   41    1
   30   47    1
   30   49    1
   31   35    1
   31   36    1
   31   38    1
   31   39    1
   31   40    1
   31   45    1
   31   46    1
   31   47    1
   31   49    1
   32   34    1
   32   37    1
   32   42    1
   32   43    1
   32   44    1
   32   48    1
   33   42    1
   33   43    1
   33   44    1
   33   48    1
   34   38    1
   34   39    1
   34   40    1
   34   41    1
   35   37    1
   36   37    1
   37   41    1
   41   48    1
   41   50    1
   42   45    1
   42   46    1
   42   47    1
   43   45    1
   43   46    1
   43   47    1
   44   49    1
   44   51    1
   44   52    1
   44   53    1
   45   48    1
   45   50    1
   46   48    1
   46   50    1
   48   51    1
   48   52    1
   48   53    1
   49   50    1
[ angles ]
;  ai   aj   ak  funct   angle     fc
    1    2    3    2    108.53   443.00
    1    2    4    2    108.53   443.00
    1    2    5    2    110.30   524.00
    3    2    4    2    108.53   443.00
    3    2    5    2    110.30   524.00
    4    2    5    2    110.30   524.00
    2    5    6    2    109.60   450.00
    2    5    7    2    109.60   450.00
    2    5    8    2    111.00   530.00
    6    5    7    2    107.00  2726.16
    6    5    8    2    109.50   285.00
    7    5    8    2    109.50   285.00
    5    8    9    2    109.50   285.00
    5    8   10    2    109.50   285.00
    5    8   11    2    111.00   530.00
    9    8   10    2    107.00  2726.16
    9    8   11    2    109.60   450.00
   10    8   11    2    109.60   450.00
    8   11   12    2    109.60   450.00
    8   11   13    2    109.60   450.00
    8   11   14    2    111.00   530.00
   12   11   13    2    107.00  2726.16
   12   11   14    2    109.60   450.00
   13   11   14    2    109.50   285.00
   11   14   15    2    109.50   285.00
   11   14   16    2    109.50   285.00
   11   14   17    2    111.00   530.00
   15   14   16    2    107.00  2726.16
   15   14   17    2    110.00   285.00
   16   14   17    2    109.00  1680.51
   14   17   18    2    120.00   560.00
   14   17   25    2    120.00   560.00
   18   17   25    2    120.00   560.00
   17   18   19    2    120.00   505.00
   17   18   20    2    120.00   560.00
   19   18   20    2    120.00   505.00
   18   20   21    2    121.00   685.00
   18   20   23    2    120.00   560.00
   21   20   23    2    117.00   635.00
   20   21   22    2    109.50   450.00
   20   23   24    2    120.00   560.00
   20   23   29    2    120.00   560.00
   24   23   29    2    120.00   560.00
   23   24   25    2    120.00   560.00
   23   24   27    2    117.00   635.00
   25   24   27    2    121.00   685.00
   17   25   24    2    120.00   560.00
   17   25   26    2    120.00   505.00
   24   25   26    2    120.00   505.00
   24   27   28    2    109.50   450.00
   23   29   30    2    108.00   465.00
   23   29   31    2    111.00   530.00
   23   29   48    2    111.00   530.00
   30   29   31    2    107.00  2726.16
   30   29   48    2    106.75   503.00
   31   29   48    2    111.00   530.00
   29   31   32    2    108.00   465.00
   29   31   33    2    111.00   530.00
   29   31   41    2    109.50   520.00
   32   31   33    2    109.00  1680.51
   32   31   41    2    108.00   465.00
   33   31   41    2    109.50   520.00
   31   33   34    2    120.00   560.00
   31   33   37    2    111.00   530.00
   34   33   37    2    120.00   560.00
   33   34   35    2    120.00   505.00
   33   34   36    2    120.00   505.00
   35   34   36    2    115.00    50.00
   33   37   38    2    110.00   285.00
   33   37   39    2    110.00   285.00
   33   37   40    2    110.00   285.00
   38   37   39    2    108.53   443.00
   38   37   40    2    108.53   443.00
   39   37   40    2    108.53   443.00
   31   41   42    2    109.50   285.00
   31   41   43    2    109.50   285.00
   31   41   44    2    111.00   530.00
   42   41   43    2    107.57   484.00
   42   41   44    2    109.50   285.00
   43   41   44    2    110.00   285.00
   41   44   45    2    109.60   450.00
   41   44   46    2    109.50   285.00
   41   44   47    2    111.00   530.00
   45   44   46    2    107.00  2726.16
   45   44   47    2    108.53   443.00
   46   44   47    2    109.60   450.00
   44   47   48    2    120.00   560.00
   44   47   50    2    111.00   530.00
   48   47   50    2    120.00   560.00
   29   48   47    2    126.00   640.00
   29   48   49    2    115.00    50.00
   47   48   49    2    120.00   505.00
   47   50   51    2    110.00   285.00
   47   50   52    2    110.00   285.00
   47   50   53    2    110.00   285.00
   51   50   52    2    108.53   443.00
   51   50   53    2    108.53   443.00
   52   50   53    2    108.53   443.00
[ dihedrals ]
; GROMOS improper dihedrals
;  ai   aj   ak   al  funct   angle     fc
   48   29   47   49    2      0.00   167.36
   23   20   24   29    2      0.00   167.36
   47   44   48   50    2      0.00   167.36
   33   31   34   37    2      0.00   167.36
   20   18   21   23    2      0.00   167.36
   24   23   25   27    2      0.00   167.36
   17   14   18   25    2      0.00   167.36
   18   17   19   20    2      0.00   167.36
   25   17   24   26    2      0.00   167.36
   34   33   35   36    2      0.00   167.36
[ dihedrals ]
;  ai   aj   ak   al  funct    ph0      cp     mult
    2    5    8   11    1      0.00     5.92    3
    3    2    5    8    1      0.00     5.92    3
    5    8   11   14    1      0.00     5.92    3
    8   11   14   17    1      0.00     5.92    3
   11   14   17   18    1    180.00     1.00    6
   17   18   20   23    1    180.00    41.80    2
   18   17   25   24    1    180.00    41.80    2
   18   20   23   24    1    180.00    41.80    2
   20   23   24   25    1    180.00    41.80    2
   20   23   29   31    1    180.00     1.00    6
   23   20   21   22    1    180.00    16.70    2
   23   24   25   17    1    180.00    41.80    2
   23   24   27   28    1    180.00    16.70    2
   25   17   18   20    1    180.00    41.80    2
   29   31   33   37    1    180.00     1.00    6
   29   31   41   44    1      0.00     5.92    3
   31   29   48   47    1      0.00     1.00    6
   31   33   34   35    1    180.00     5.86    2
   31   33   37   38    1    180.00     1.00    6
   31   41   44   47    1      0.00     5.92    3
   41   44   47   48    1      0.00     1.00    6
   44   47   48   29    1    180.00     5.86    2
   44   47   50   51    1    180.00     1.00    6
   48   29   31   41    1      0.00     5.92    3
[ exclusions ]
;  ai   aj  funct  ;  GROMOS 1-4 exclusions
   17   23
   18   24
   20   25
