[ moleculetype ]
; Name   nrexcl
EFZ      3
[ atoms ]
;  nr  type  resnr  resid  atom  cgnr  charge    mass
    1    HC    1    IWFN    H30    1    0.142   1.0080
    2     C    1    IWFN    C21    2   -0.022  12.0110
    3     C    1    IWFN    C18    3   -0.320  12.0110
    4    HC    1    IWFN    H29    4    0.212   1.0080
    5     C    1    IWFN    C15    5    0.270  12.0110
    6     N    1    IWFN     N7    6   -0.575  14.0067
    7     H    1    IWFN    H28    7    0.383   1.0080
    8     C    1    IWFN    C19    8    0.820  12.0110
    9    OE    1    IWFN     O6    9   -0.591  15.9994
   10    OE    1    IWFN     O5   10   -0.370  15.9994
   11     C    1    IWFN    C11   11    0.040  12.0110
   12     C    1    IWFN    C16   12    0.367  12.0110
   13     F    1    IWFN     F2   13   -0.129  18.9984
   14     F    1    IWFN     F3   14   -0.129  18.9984
   15     F    1    IWFN     F4   15   -0.129  18.9984
   16     C    1    IWFN    C13   16    0.119  12.0110
   17     C    1    IWFN    C17   17   -0.195  12.0110
   18    HC    1    IWFN    H27   18    0.198   1.0080
   19     C    1    IWFN    C20   19   -0.022  12.0110
   20    CL    1    IWFN    CL1   20   -0.110  35.4530
   21     C    1    IWFN    C14   21   -0.050  12.0110
   22     C    1    IWFN    C12   22   -0.104  12.0110
   23     C    1    IWFN     C8   23   -0.023  12.0110
   24    HC    1    IWFN    H22   24    0.156   1.0080
   25     C    1    IWFN     C9   25   -0.273  12.0110
   26    HC    1    IWFN    H23   26    0.149   1.0080
   27    HC    1    IWFN    H24   27    0.150   1.0080
   28     C    1    IWFN    C10   28   -0.256  12.0110
   29    HC    1    IWFN    H25   29    0.150   1.0080
   30    HC    1    IWFN    H26   30    0.142   1.0080
; total charge of the molecule:   0.000
[ bonds ]
;  ai   aj  funct   c0         c1
    1    2    2   0.1090   1.2300e+07
    2    3    2   0.1390   8.6600e+06
    2   19    2   0.1390   8.6600e+06
    3    4    2   0.1090   1.2300e+07
    3    5    2   0.1390   8.6600e+06
    5    6    2   0.1400   8.5400e+06
    5   16    2   0.1400   8.5400e+06
    6    7    2   0.1010   2.1076e+07
    6    8    2   0.1360   1.0200e+07
    8    9    2   0.1210   1.9807e+07
    8   10    2   0.1360   1.0200e+07
   10   11    2   0.1460   4.6913e+06
   11   12    2   0.1560   3.0819e+06
   11   16    2   0.1520   5.4300e+06
   11   21    2   0.1460   4.6913e+06
   12   13    2   0.1350   1.0300e+07
   12   14    2   0.1350   1.0300e+07
   12   15    2   0.1350   1.0300e+07
   16   17    2   0.1390   8.6600e+06
   17   18    2   0.1090   1.2300e+07
   17   19    2   0.1390   8.6600e+06
   19   20    2   0.1760   1.4366e+06
   21   22    2   0.1210   1.9807e+07
   22   23    2   0.1435   6.1000e+06
   23   24    2   0.1090   1.2300e+07
   23   25    2   0.1530   7.1500e+06
   23   28    2   0.1520   5.4300e+06
   25   26    2   0.1090   1.2300e+07
   25   27    2   0.1090   1.2300e+07
   25   28    2   0.1500   3.5556e+06
   28   29    2   0.1090   1.2300e+07
   28   30    2   0.1090   1.2300e+07
[ pairs ]
;  ai   aj  funct  ;  all 1-4 pairs but the ones excluded in GROMOS itp
    1    4    1
    1    5    1
    1   17    1
    1   20    1
    2    6    1
    2   18    1
    3    7    1
    3    8    1
    3   11    1
    3   20    1
    4    6    1
    4   16    1
    4   19    1
    5    9    1
    5   10    1
    5   12    1
    5   18    1
    5   21    1
    6   11    1
    6   17    1
    7    9    1
    7   10    1
    7   16    1
    8   12    1
    8   16    1
    8   21    1
    9   11    1
   10   13    1
   10   14    1
   10   15    1
   10   17    1
   10   22    1
   11   18    1
   11   19    1
   11   23    1
   12   17    1
   12   22    1
   13   16    1
   13   21    1
   14   16    1
   14   21    1
   15   16    1
   15   21    1
   16   20    1
   16   22    1
   17   21    1
   18   20    1
   21   24    1
   21   25    1
   21   28    1
   22   26    1
   22   27    1
   22   29    1
   22   30    1
   24   26    1
   24   27    1
   24   29    1
   24   30    1
   26   29    1
   26   30    1
   27   29    1
   27   30    1
[ angles ]
;  ai   aj   ak  funct   angle     fc
    1    2    3    2    120.00   505.00
    1    2   19    2    120.00   505.00
    3    2   19    2    120.00   560.00
    2    3    4    2    120.00   505.00
    2    3    5    2    120.00   560.00
    4    3    5    2    120.00   505.00
    3    5    6    2    120.00   560.00
    3    5   16    2    120.00   560.00
    6    5   16    2    120.00   560.00
    5    6    7    2    120.00   390.00
    5    6    8    2    124.00   730.00
    7    6    8    2    115.00   460.00
    6    8    9    2    124.00   730.00
    6    8   10    2    119.00  2211.40
    9    8   10    2    124.00   730.00
    8   10   11    2    124.00  3074.03
   10   11   12    2    109.50   520.00
   10   11   16    2    111.00   530.00
   10   11   21    2    109.50   520.00
   12   11   16    2    109.50   520.00
   12   11   21    2    109.50   520.00
   16   11   21    2    111.00   530.00
   11   12   13    2    109.00  1680.51
   11   12   14    2    109.00  1680.51
   11   12   15    2    109.00  1680.51
   13   12   14    2    109.00  1680.51
   13   12   15    2    109.00  1680.51
   14   12   15    2    109.00  1680.51
    5   16   11    2    120.00   560.00
    5   16   17    2    120.00   560.00
   11   16   17    2    120.00   560.00
   16   17   18    2    120.00   505.00
   16   17   19    2    120.00   560.00
   18   17   19    2    120.00   505.00
    2   19   17    2    120.00   560.00
    2   19   20    2    120.00   560.00
   17   19   20    2    120.00   560.00
   11   21   22    2    180.00   500.00
   21   22   23    2    180.00   500.00
   22   23   24    2    115.00   460.00
   22   23   25    2    120.00   560.00
   22   23   28    2    120.00   560.00
   24   23   25    2    120.00   505.00
   24   23   28    2    120.00   505.00
   25   23   28    2     60.00  1468.18
   23   25   26    2    120.00   505.00
   23   25   27    2    120.00   505.00
   23   25   28    2     61.00  2354.70
   26   25   27    2    115.00   460.00
   26   25   28    2    120.00   505.00
   27   25   28    2    120.00   505.00
   23   28   25    2     61.00  2354.70
   23   28   29    2    120.00   505.00
   23   28   30    2    120.00   505.00
   25   28   29    2    120.00   505.00
   25   28   30    2    120.00   505.00
   29   28   30    2    115.00   460.00
[ dihedrals ]
; GROMOS improper dihedrals
;  ai   aj   ak   al  funct   angle     fc
    6    5    7    8    2      0.00   167.36
   16    5   11   17    2      0.00   167.36
    5    3    6   16    2      0.00   167.36
   17   16   18   19    2      0.00   167.36
    3    2    4    5    2      0.00   167.36
    8    6    9   10    2      0.00   167.36
   19    2   17   20    2      0.00   167.36
    2    1    3   19    2      0.00   167.36
[ dihedrals ]
;  ai   aj   ak   al  funct    ph0      cp     mult
    2    3    5   16    1    180.00    41.80    2
    3    2   19   17    1    180.00    41.80    2
    3    5   16   17    1    180.00    41.80    2
    5    6    8   10    1    180.00    33.50    2
    5   16   17   19    1    180.00    41.80    2
    8   10   11   16    1      0.00     1.26    3
    9    8   10   11    1    180.00    24.00    2
   10   11   12   13    1      0.00     5.92    3
   10   11   16    5    1      0.00     1.00    6
   16    5    6    8    1    180.00    33.50    2
   16   17   19    2    1    180.00    41.80    2
   19    2    3    5    1    180.00    41.80    2
   23   25   28   29    1    180.00     1.00    3
   25   23   28   29    1    180.00     1.00    3
   28   23   25   26    1    180.00     1.00    3
[ exclusions ]
;  ai   aj  funct  ;  GROMOS 1-4 exclusions
    2   16
    3   17
    5   19

