;----------------------------TITLE -----------------------------------------------------------------------------------------
;   (-)-.DELTA.9-trans-Tetrahydrocannabinol
;
; This file was generated at 03:11 on 2018-10-02 by
;
;                  Automatic Topology Builder  
;
;                   REVISION 2018-08-31 15:13:22
;---------------------------------------------------------------------------------------------------------------------------
; Authors     : Alpeshkumar K. Malde, Le Zuo, Matthew Breeze, Martin Stroet, Alan E. Mark
;
; Institute   : Molecular Dynamics group, 
;               School of Chemistry and Molecular Biosciences (SCMB),
;               The University of Queensland, QLD 4072, Australia
; URL         : http://compbio.biosci.uq.edu.au/atb
; Citation    : Malde AK, Zuo L, Breeze M, Stroet M, Poger D, Nair PC, Oostenbrink C, Mark AE.
;               An Automated force field Topology Builder (ATB) and repository: version 1.0.
;               Journal of Chemical Theory and Computation, 2011, 7(12), 4026-4037.
;               http://pubs.acs.org/doi/abs/10.1021/ct200196m
;
; Disclaimer  : 
;      While every effort has been made to ensure the accuracy and validity of parameters provided below
;      the assignment of parameters is being based on an automated procedure combining data provided by a
;      given user as well as calculations performed using third party software. They are provided as a guide.
;      The authors of the ATB cannot guarantee that the parameters are complete or that the parameters provided
;      are appropriate for use in any specific application. Users are advised to treat these parameters with discretion
;      and to perform additional validation tests for their specific application if required. Neither the authors
;      of the ATB or The University of Queensland except any responsibly for how the parameters may be used.
;
; Release notes and warnings: 
;  (1) The topology is based on a set of atomic coordinates and other data provided by the user after
;      after quantum mechanical optimization of the structure using different levels of theory depending on
;      the nature of the molecule.
;  (2) In some cases the automatic bond, bond angle and dihedral type assignment is ambiguous.
;      In these cases alternative type codes are provided at the end of the line.
;  (3) While bonded parameters are taken where possible from the nominated force field non-standard bond, angle and dihedral
;      type code may be incorporated in cases where an exact match could not be found. These are marked as "non-standard"
;      or "uncertain" in comments.
;  (4) In some cases it is not possible to assign an appropriate parameter automatically. "%%" is used as a place holder
;      for those fields that could not be determined automatically. The parameters in these fields must be assigned manually
;      before the file can be used.
;---------------------------------------------------------------------------------------------------------------------------
; Input Structure : S8O6
; Output          : ALL ATOM topology
;	Use in conjunction with the corresponding all atom PDB file.
;---------------------------------------------------------------------------------------------------------------------------
; Citing this topology file
; ATB molid: 225803
; ATB Topology Hash: 2be0c
;---------------------------------------------------------------------------------------------------------------------------
; Initial Guess Topology Generation:
; The topology was generated from AM1 optimized geometry and MOPAC charges.
; Bonded and van der Waals parameters were taken from the GROMOS 54A7 parameter set.
;---------------------------------------------------------------------------------------------------------------------------
;
;
[ moleculetype ]
; Name   nrexcl
S8O6     3
[ atoms ]
;  nr  type  resnr  resid  atom  cgnr  charge    mass    total_charge
    1    HC    1    S8O6   HC25    1    0.088   1.0080
    2     C    1    S8O6    C11    1   -0.264  12.0110
    3    HC    1    S8O6   HC23    1    0.088   1.0080
    4    HC    1    S8O6   HC24    1    0.088   1.0080     ; -0.000
    5     C    1    S8O6     C3    2    0.156  12.0110
    6    OE    1    S8O6     O1    2   -0.212  15.9994
    7     C    1    S8O6    C10    2   -0.208  12.0110
    8    HC    1    S8O6   HC26    2    0.088   1.0080
    9    HC    1    S8O6   HC27    2    0.088   1.0080
   10    HC    1    S8O6   HC28    2    0.088   1.0080     ; -0.000
   11     C    1    S8O6     C9    3    0.138  12.0110
   12     C    1    S8O6     C5    3   -0.211  12.0110
   13     C    1    S8O6     C2    3   -0.023  12.0110
   14    HC    1    S8O6    HC1    3    0.096   1.0080     ;  0.000
   15     C    1    S8O6     C7    4   -0.179  12.0110
   16    HC    1    S8O6    HC6    4    0.179   1.0080     ;  0.000
   17     C    1    S8O6     C8    5   -0.102  12.0110
   18     C    1    S8O6     C6    5   -0.127  12.0110
   19    HC    1    S8O6    HC4    5    0.073   1.0080
   20    HC    1    S8O6    HC5    5    0.090   1.0080
   21     C    1    S8O6    C14    5   -0.183  12.0110
   22    HC    1    S8O6   HC17    5    0.083   1.0080
   23    HC    1    S8O6   HC18    5    0.083   1.0080
   24    HC    1    S8O6   HC19    5    0.083   1.0080     ;  0.000
   25     C    1    S8O6     C4    6   -0.147  12.0110
   26    HC    1    S8O6    HC2    6    0.082   1.0080
   27    HC    1    S8O6    HC3    6    0.086   1.0080
   28     C    1    S8O6     C1    6   -0.121  12.0110
   29    HC    1    S8O6     HC    6    0.100   1.0080     ;  0.000
   30     C    1    S8O6    C12    7    0.113  12.0110
   31    OA    1    S8O6     O2    7   -0.259  15.9994
   32  HS14    1    S8O6     H1    7    0.187   1.0080
   33     C    1    S8O6    C16    7   -0.191  12.0110
   34    HC    1    S8O6    HC8    7    0.150   1.0080     ; -0.000
   35     C    1    S8O6    C15    8   -0.009  12.0110
   36     C    1    S8O6    C13    8   -0.190  12.0110
   37    HC    1    S8O6    HC7    8    0.144   1.0080
   38     C    1    S8O6    C17    8   -0.126  12.0110
   39    HC    1    S8O6    HC9    8    0.090   1.0080
   40    HC    1    S8O6   HC10    8    0.091   1.0080     ; -0.000
   41     C    1    S8O6    C18    9   -0.153  12.0110
   42    HC    1    S8O6   HC11    9    0.086   1.0080
   43    HC    1    S8O6   HC12    9    0.080   1.0080
   44     C    1    S8O6    C19    9   -0.160  12.0110
   45    HC    1    S8O6   HC13    9    0.069   1.0080
   46    HC    1    S8O6   HC14    9    0.078   1.0080     ; -0.000
   47     C    1    S8O6    C20   10   -0.157  12.0110
   48    HC    1    S8O6   HC15   10    0.076   1.0080
   49    HC    1    S8O6   HC16   10    0.079   1.0080
   50     C    1    S8O6    C21   10   -0.211  12.0110
   51    HC    1    S8O6   HC20   10    0.071   1.0080
   52    HC    1    S8O6   HC21   10    0.071   1.0080
   53    HC    1    S8O6   HC22   10    0.071   1.0080     ; -0.000
; total charge of the molecule:  -0.000
[ bonds ]
;  ai   aj  funct   c0         c1
    1    2    2   0.1120   3.7000e+07
    2    3    2   0.1120   3.7000e+07
    2    4    2   0.1120   3.7000e+07
    2    5    2   0.1520   5.4300e+06
    5    6    2   0.1450   5.2319e+06
    5    7    2   0.1530   7.1500e+06
    5   28    2   0.1530   7.1500e+06
    6   11    2   0.1380   1.1000e+07
    7    8    2   0.1120   3.7000e+07
    7    9    2   0.1120   3.7000e+07
    7   10    2   0.1120   3.7000e+07
   11   12    2   0.1410   6.5389e+06
   11   36    2   0.1410   6.5389e+06
   12   13    2   0.1490   1.4189e+07
   12   30    2   0.1410   6.5389e+06
   13   14    2   0.1130   7.0483e+06
   13   15    2   0.1490   1.4189e+07
   13   28    2   0.1530   7.1500e+06
   15   16    2   0.1100   1.2100e+07
   15   17    2   0.1340   1.0500e+07
   17   18    2   0.1490   1.4189e+07
   17   21    2   0.1480   5.7300e+06
   18   19    2   0.1130   7.0483e+06
   18   20    2   0.1120   3.7000e+07
   18   25    2   0.1520   5.4300e+06
   21   22    2   0.1120   3.7000e+07
   21   23    2   0.1120   3.7000e+07
   21   24    2   0.1120   3.7000e+07
   25   26    2   0.1120   3.7000e+07
   25   27    2   0.1120   3.7000e+07
   25   28    2   0.1520   5.4300e+06
   28   29    2   0.1130   7.0483e+06
   30   31    2   0.1380   1.1000e+07
   30   33    2   0.1400   8.5400e+06
   31   32    2   0.0971   7.9547e+06
   33   34    2   0.1090   1.2300e+07
   33   35    2   0.1390   8.6600e+06
   35   36    2   0.1390   8.6600e+06
   35   38    2   0.1490   1.4189e+07
   36   37    2   0.1090   1.2300e+07
   38   39    2   0.1120   3.7000e+07
   38   40    2   0.1120   3.7000e+07
   38   41    2   0.1520   5.4300e+06
   41   42    2   0.1120   3.7000e+07
   41   43    2   0.1120   3.7000e+07
   41   44    2   0.1520   5.4300e+06
   44   45    2   0.1120   3.7000e+07
   44   46    2   0.1120   3.7000e+07
   44   47    2   0.1520   5.4300e+06
   47   48    2   0.1120   3.7000e+07
   47   49    2   0.1120   3.7000e+07
   47   50    2   0.1510   3.7279e+06
   50   51    2   0.1120   3.7000e+07
   50   52    2   0.1120   3.7000e+07
   50   53    2   0.1120   3.7000e+07
[ pairs ]
;  ai   aj  funct  ;  all 1-4 pairs but the ones excluded in GROMOS itp
    6    8    1
    6    9    1
    6   10    1
    6   13    1
    6   25    1
    6   29    1
    6   30    1
    6   35    1
    6   37    1
   28   30    1
   13   18    1
   13   21    1
   13   26    1
   13   27    1
   13   31    1
   13   33    1
   13   36    1
    5   12    1
    5   14    1
    5   15    1
    5   18    1
    5   26    1
    5   27    1
    5   36    1
   12   16    1
   12   17    1
   12   25    1
   12   29    1
   12   32    1
   12   34    1
   12   37    1
   18   22    1
   18   23    1
   18   24    1
   18   29    1
   15   19    1
   15   20    1
   15   22    1
   15   23    1
   15   24    1
   15   25    1
   15   29    1
   15   30    1
   17   26    1
   17   27    1
   17   28    1
   11   14    1
   11   15    1
   11   28    1
   11   31    1
   11   38    1
    7   11    1
    7   13    1
    7   25    1
    7   29    1
    2    8    1
    2    9    1
    2   10    1
    2   11    1
    2   13    1
    2   25    1
    2   29    1
   30   38    1
   36   39    1
   36   40    1
   36   41    1
   21   25    1
   35   42    1
   35   43    1
   35   44    1
   33   37    1
   33   39    1
   33   40    1
   33   41    1
   38   45    1
   38   46    1
   38   47    1
   41   48    1
   41   49    1
   41   50    1
   44   51    1
   44   52    1
   44   53    1
   31   34    1
   31   35    1
   32   33    1
   14   16    1
   14   17    1
   14   25    1
   14   29    1
   14   30    1
   26   29    1
   27   29    1
   19   21    1
   19   26    1
   19   27    1
   19   28    1
   20   21    1
   20   26    1
   20   27    1
   20   28    1
   16   18    1
   16   21    1
   16   28    1
   37   38    1
   34   36    1
   34   38    1
   39   42    1
   39   43    1
   39   44    1
   40   42    1
   40   43    1
   40   44    1
   42   45    1
   42   46    1
   42   47    1
   43   45    1
   43   46    1
   43   47    1
   45   48    1
   45   49    1
   45   50    1
   46   48    1
   46   49    1
   46   50    1
   48   51    1
   48   52    1
   48   53    1
   49   51    1
   49   52    1
   49   53    1
    3    6    1
    3    7    1
    3   28    1
    4    6    1
    4    7    1
    4   28    1
    1    6    1
    1    7    1
    1   28    1
    8   28    1
    9   28    1
   10   28    1
[ angles ]
;  ai   aj   ak  funct   angle     fc
    1    2    3    2    109.00  1680.51
    1    2    4    2    109.00  1680.51
    1    2    5    2    110.00  4763.46
    3    2    4    2    109.00  1680.51
    3    2    5    2    110.00  4763.46
    4    2    5    2    110.00  4763.46
    2    5    6    2    109.50   520.00
    2    5    7    2    109.50   520.00
    2    5   28    2    111.00   530.00
    6    5    7    2    104.00   490.00
    6    5   28    2    109.50   520.00
    7    5   28    2    111.00   530.00
    5    6   11    2    116.00   465.00
    5    7    8    2    109.50   285.00
    5    7    9    2    109.50   285.00
    5    7   10    2    109.50   285.00
    8    7    9    2    109.50   285.00
    8    7   10    2    109.50   285.00
    9    7   10    2    109.50   285.00
    6   11   12    2    126.00   640.00
    6   11   36    2    115.00   610.00
   12   11   36    2    120.00   560.00
   11   12   13    2    120.00   560.00
   11   12   30    2    120.00   560.00
   13   12   30    2    120.00   560.00
   12   13   14    2    107.57   484.00
   12   13   15    2    111.00   530.00
   12   13   28    2    111.00   530.00
   14   13   15    2    107.57   484.00
   14   13   28    2    108.53   443.00
   15   13   28    2    109.50   520.00
   13   15   16    2    120.00   505.00
   13   15   17    2    120.00   560.00
   16   15   17    2    120.00   505.00
   15   17   18    2    126.00   640.00
   15   17   21    2    120.00   560.00
   18   17   21    2    111.00   530.00
   17   18   19    2    107.60   507.00
   17   18   20    2    109.00  1680.51
   17   18   25    2    111.00   530.00
   19   18   20    2    107.00  2726.16
   19   18   25    2    109.00  1680.51
   20   18   25    2    109.00  1680.51
   17   21   22    2    110.00  4763.46
   17   21   23    2    110.00  4763.46
   17   21   24    2    110.00  4763.46
   22   21   23    2    108.53   443.00
   22   21   24    2    108.53   443.00
   23   21   24    2    108.53   443.00
   18   25   26    2    109.60   450.00
   18   25   27    2    109.50   285.00
   18   25   28    2    111.00   530.00
   26   25   27    2    107.57   484.00
   26   25   28    2    109.60   450.00
   27   25   28    2    110.00  4763.46
    5   28   13    2    111.00   530.00
    5   28   25    2    111.00   530.00
    5   28   29    2    106.00  1733.55
   13   28   25    2    109.50   520.00
   13   28   29    2    107.60   507.00
   25   28   29    2    108.53   443.00
   12   30   31    2    121.00   685.00
   12   30   33    2    120.00   560.00
   31   30   33    2    115.00   610.00
   30   31   32    2    109.50   450.00
   30   33   34    2    120.00   505.00
   30   33   35    2    120.00   560.00
   34   33   35    2    120.00   505.00
   33   35   36    2    120.00   560.00
   33   35   38    2    120.00   560.00
   36   35   38    2    120.00   560.00
   11   36   35    2    120.00   560.00
   11   36   37    2    120.00   505.00
   35   36   37    2    120.00   505.00
   35   38   39    2    110.00  4763.46
   35   38   40    2    108.53   443.00
   35   38   41    2    111.00   530.00
   39   38   40    2    107.57   484.00
   39   38   41    2    109.50   285.00
   40   38   41    2    109.00  1680.51
   38   41   42    2    109.50   285.00
   38   41   43    2    109.00  1680.51
   38   41   44    2    111.00   530.00
   42   41   43    2    107.57   484.00
   42   41   44    2    109.60   450.00
   43   41   44    2    109.50   285.00
   41   44   45    2    109.00  1680.51
   41   44   46    2    109.50   285.00
   41   44   47    2    111.00   530.00
   45   44   46    2    107.00  2726.16
   45   44   47    2    109.00  1680.51
   46   44   47    2    109.60   450.00
   44   47   48    2    108.53   443.00
   44   47   49    2    109.50   285.00
   44   47   50    2    111.00   530.00
   48   47   49    2    107.00  2726.16
   48   47   50    2    109.00  1680.51
   49   47   50    2    109.60   450.00
   47   50   51    2    110.30   524.00
   47   50   52    2    110.30   524.00
   47   50   53    2    110.30   524.00
   51   50   52    2    108.53   443.00
   51   50   53    2    108.53   443.00
   52   50   53    2    108.53   443.00
[ dihedrals ]
; GROMOS improper dihedrals
;  ai   aj   ak   al  funct   angle     fc
   12   13   11   30    2      0.00   167.36
   15   13   17   16    2      0.00   167.36
   17   18   15   21    2      0.00   167.36
   11    6   12   36    2      0.00   167.36
   30   12   33   31    2      0.00   167.36
   36   11   35   37    2      0.00   167.36
   35   36   33   38    2      0.00   167.36
   33   30   35   34    2      0.00   167.36
[ dihedrals ]
;  ai   aj   ak   al  funct    ph0      cp     mult
    3    2    5    6    1      0.00     5.92    3
   28    5    6   11    1      0.00     1.26    3
    6    5    7    8    1      0.00     5.92    3
    6    5   28   13    1      0.00     5.92    3
    5    6   11   12    1    180.00    24.00    2
   36   11   12   30    1    180.00    41.80    2
   12   11   36   35    1    180.00    41.80    2
   11   12   13   28    1    180.00     1.00    6
   11   12   30   33    1    180.00    41.80    2
   28   13   15   17    1      0.00     1.00    6
   12   13   28    5    1      0.00     5.92    3
   13   15   17   18    1    180.00     5.86    2
   15   17   18   25    1    180.00     1.00    6
   18   17   21   22    1    180.00     1.00    6
   17   18   25   28    1      0.00     5.92    3
   18   25   28   13    1      0.00     5.92    3
   12   30   31   32    1    180.00    16.70    2
   12   30   33   35    1    180.00    41.80    2
   30   33   35   36    1    180.00    41.80    2
   33   35   36   11    1    180.00    41.80    2
   36   35   38   41    1      0.00     1.00    6
   35   38   41   44    1      0.00     5.92    3
   38   41   44   47    1      0.00     5.92    3
   41   44   47   50    1      0.00     5.92    3
   44   47   50   51    1      0.00     5.92    3
[ exclusions ]
;  ai   aj  funct  ;  GROMOS 1-4 exclusions
   12   35
   11   33
   30   36
