generated by VMD, t= 0.000000
   33
    09WTE   H16    1   0.972   1.693   1.464
    09WTE    O2    2   1.038   1.717   1.532
    09WTE   C11    3   1.147   1.636   1.519
    09WTE   C10    4   1.253   1.655   1.610
    09WTE    H6    5   1.244   1.733   1.685
    09WTE    C9    6   1.366   1.575   1.602
    09WTE    H5    7   1.447   1.592   1.672
    09WTE    C8    8   1.379   1.474   1.505
    09WTE   C13    9   1.272   1.456   1.416
    09WTE    H8   10   1.277   1.379   1.340
    09WTE   C12   11   1.158   1.536   1.422
    09WTE    H7   12   1.076   1.519   1.352
    09WTE    C7   13   1.505   1.385   1.505
    09WTE   C14   14   1.497   1.292   1.629
    09WTE    H9   15   1.497   1.349   1.722
    09WTE   H10   16   1.581   1.222   1.631
    09WTE   H11   17   1.405   1.234   1.625
    09WTE   C15   18   1.513   1.294   1.380
    09WTE   H12   19   1.511   1.352   1.287
    09WTE   H13   20   1.429   1.223   1.377
    09WTE   H14   21   1.606   1.236   1.382
    09WTE    C4   22   1.631   1.473   1.506
    09WTE    C3   23   1.734   1.459   1.601
    09WTE    H2   24   1.727   1.385   1.679
    09WTE    C2   25   1.848   1.540   1.598
    09WTE    H1   26   1.927   1.528   1.672
    09WTE    C1   27   1.863   1.637   1.498
    09WTE    O1   28   1.977   1.713   1.500
    09WTE   H15   29   1.973   1.777   1.426
    09WTE    C6   30   1.762   1.653   1.403
    09WTE    H4   31   1.772   1.728   1.325
    09WTE    C5   32   1.649   1.572   1.407
    09WTE    H3   33   1.571   1.587   1.333
   3.00584   3.00584   3.00584
