generated by VMD, t= 0.000000
33
    09WTE   H16    1  -0.533   0.158  -0.043
    09WTE   O2     2  -0.467   0.182   0.025
    09WTE   C11    3  -0.358   0.101   0.012
    09WTE   C10    4  -0.252   0.120   0.103
    09WTE   H6     5  -0.261   0.198   0.178
    09WTE   C9     6  -0.139   0.040   0.095
    09WTE   H5     7  -0.058   0.057   0.165
    09WTE   C8     8  -0.126  -0.061  -0.002
    09WTE   C13    9  -0.233  -0.079  -0.091
    09WTE   H8    10  -0.228  -0.156  -0.167
    09WTE   C12   11  -0.347   0.001  -0.085
    09WTE   H7    12  -0.429  -0.016  -0.155
    09WTE   C7    13   0.000  -0.150  -0.002
    09WTE   C14   14  -0.008  -0.243   0.122
    09WTE   H9    15  -0.008  -0.186   0.215
    09WTE   H10   16   0.076  -0.313   0.124
    09WTE   H11   17  -0.100  -0.301   0.118
    09WTE   C15   18   0.008  -0.241  -0.127
    09WTE   H12   19   0.006  -0.183  -0.220
    09WTE   H13   20  -0.076  -0.312  -0.130
    09WTE   H14   21   0.101  -0.299  -0.125
    09WTE   C4    22   0.126  -0.062  -0.001
    09WTE   C3    23   0.229  -0.076   0.094
    09WTE   H2    24   0.222  -0.150   0.172
    09WTE   C2    25   0.343   0.005   0.091
    09WTE   H1    26   0.422  -0.007   0.165
    09WTE   C1    27   0.358   0.102  -0.009
    09WTE   O1    28   0.472   0.178  -0.007
    09WTE   H15   29   0.468   0.242  -0.081
    09WTE   C6    30   0.257   0.118  -0.104
    09WTE   H4    31   0.267   0.193  -0.182
    09WTE   C5    32   0.144   0.037  -0.100
    09WTE   H3    33   0.066   0.052  -0.174
   0.00000   0.00000   0.00000   0.00000   0.00000   0.00000   0.00000   0.00000   0.00000
