generated by VMD, t= 0.000000
 2649
    09WTE   H16    1   0.972   1.693   1.464
    09WTE    O2    2   1.038   1.717   1.532
    09WTE   C11    3   1.147   1.636   1.519
    09WTE   C10    4   1.253   1.655   1.610
    09WTE    H6    5   1.244   1.733   1.685
    09WTE    C9    6   1.366   1.575   1.602
    09WTE    H5    7   1.447   1.592   1.672
    09WTE    C8    8   1.379   1.474   1.505
    09WTE   C13    9   1.272   1.456   1.416
    09WTE    H8   10   1.277   1.379   1.340
    09WTE   C12   11   1.158   1.536   1.422
    09WTE    H7   12   1.076   1.519   1.352
    09WTE    C7   13   1.505   1.385   1.505
    09WTE   C14   14   1.497   1.292   1.629
    09WTE    H9   15   1.497   1.349   1.722
    09WTE   H10   16   1.581   1.222   1.631
    09WTE   H11   17   1.405   1.234   1.625
    09WTE   C15   18   1.513   1.294   1.380
    09WTE   H12   19   1.511   1.352   1.287
    09WTE   H13   20   1.429   1.223   1.377
    09WTE   H14   21   1.606   1.236   1.382
    09WTE    C4   22   1.631   1.473   1.506
    09WTE    C3   23   1.734   1.459   1.601
    09WTE    H2   24   1.727   1.385   1.679
    09WTE    C2   25   1.848   1.540   1.598
    09WTE    H1   26   1.927   1.528   1.672
    09WTE    C1   27   1.863   1.637   1.498
    09WTE    O1   28   1.977   1.713   1.500
    09WTE   H15   29   1.973   1.777   1.426
    09WTE    C6   30   1.762   1.653   1.403
    09WTE    H4   31   1.772   1.728   1.325
    09WTE    C5   32   1.649   1.572   1.407
    09WTE    H3   33   1.571   1.587   1.333
    1SOL     OW   34   0.230   0.628   0.113
    1SOL    HW1   35   0.137   0.626   0.150
    1SOL    HW2   36   0.231   0.589   0.021
    2SOL     OW   37   0.225   0.275   0.996
    2SOL    HW1   38   0.260   0.258   1.088
    2SOL    HW2   39   0.137   0.230   0.984
    3SOL     OW   40   0.019   0.368   0.647
    3SOL    HW1   41  -0.063   0.411   0.686
    3SOL    HW2   42  -0.009   0.295   0.584
    4SOL     OW   43   0.569   1.275   1.165
    4SOL    HW1   44   0.476   1.268   1.128
    4SOL    HW2   45   0.580   1.364   1.209
    5SOL     OW   46   1.555   1.511   0.703
    5SOL    HW1   47   1.498   1.495   0.784
    5SOL    HW2   48   1.496   1.521   0.623
    6SOL     OW   49   1.135   0.703   0.717
    6SOL    HW1   50   1.192   0.781   0.692
    6SOL    HW2   51   1.075   0.729   0.793
    7SOL     OW   52   1.755   0.607   0.231
    7SOL    HW1   53   1.743   0.594   0.132
    7SOL    HW2   54   1.725   0.526   0.280
    8SOL     OW   55   0.768   1.144   1.023
    8SOL    HW1   56   0.690   1.161   1.083
    8SOL    HW2   57   0.802   1.231   0.987
    9SOL     OW   58   0.850   0.798   1.823
    9SOL    HW1   59   0.846   0.874   1.888
    9SOL    HW2   60   0.872   0.834   1.732
   10SOL     OW   61   0.685   1.012   0.665
   10SOL    HW1   62   0.754   0.996   0.735
   10SOL    HW2   63   0.612   1.069   0.703
   11SOL     OW   64   0.686   1.161   1.803
   11SOL    HW1   65   0.746   1.240   1.817
   11SOL    HW2   66   0.600   1.192   1.762
   12SOL     OW   67   0.335   1.435   1.061
   12SOL    HW1   68   0.257   1.404   1.008
   12SOL    HW2   69   0.393   1.493   1.004
   13SOL     OW   70   0.438   0.392   1.499
   13SOL    HW1   71   0.520   0.336   1.508
   13SOL    HW2   72   0.357   0.334   1.503
   14SOL     OW   73   1.603   0.447   0.737
   14SOL    HW1   74   1.529   0.493   0.687
   14SOL    HW2   75   1.654   0.515   0.790
   15SOL     OW   76   0.231   1.713   0.483
   15SOL    HW1   77   0.265   1.790   0.537
   15SOL    HW2   78   0.275   1.713   0.393
   16SOL     OW   79   1.127   1.341   1.690
   16SOL    HW1   80   1.174   1.341   1.778
   16SOL    HW2   81   1.079   1.254   1.679
   17SOL     OW   82   0.230   1.434   0.538
   17SOL    HW1   83   0.204   1.530   0.538
   17SOL    HW2   84   0.159   1.380   0.583
   18SOL     OW   85   0.240   1.091   0.886
   18SOL    HW1   86   0.254   1.007   0.938
   18SOL    HW2   87   0.185   1.155   0.941
   19SOL     OW   88   0.620   1.786   1.439
   19SOL    HW1   89   0.528   1.769   1.474
   19SOL    HW2   90   0.648   1.878   1.465
   20SOL     OW   91   0.606   0.964   0.123
   20SOL    HW1   92   0.613   1.048   0.069
   20SOL    HW2   93   0.652   0.977   0.211
   21SOL     OW   94   1.594   0.114   1.480
   21SOL    HW1   95   1.576   0.181   1.408
   21SOL    HW2   96   1.591   0.160   1.569
   22SOL     OW   97   0.122   0.643   0.563
   22SOL    HW1   98   0.077   0.555   0.580
   22SOL    HW2   99   0.121   0.697   0.647
   23SOL     OW  100   1.842   1.767   0.359
   23SOL    HW1  101   1.896   1.738   0.439
   23SOL    HW2  102   1.872   1.857   0.330
   24SOL     OW  103   0.027   1.596   0.117
   24SOL    HW1  104   0.008   1.500   0.138
   24SOL    HW2  105  -0.006   1.654   0.192
   25SOL     OW  106   1.689   0.922   0.612
   25SOL    HW1  107   1.784   0.893   0.620
   25SOL    HW2  108   1.681   0.987   0.537
   26SOL     OW  109   1.641   1.108   0.432
   26SOL    HW1  110   1.727   1.110   0.380
   26SOL    HW2  111   1.655   1.155   0.520
   27SOL     OW  112   0.113   0.737   1.597
   27SOL    HW1  113   0.201   0.724   1.642
   27SOL    HW2  114   0.100   0.834   1.575
   28SOL     OW  115   0.613   1.365   0.726
   28SOL    HW1  116   0.564   1.278   0.735
   28SOL    HW2  117   0.590   1.408   0.639
   29SOL     OW  118   0.809   0.004   0.502
   29SOL    HW1  119   0.849   0.095   0.493
   29SOL    HW2  120   0.709   0.012   0.508
   30SOL     OW  121   0.197   0.976   1.264
   30SOL    HW1  122   0.286   0.931   1.250
   30SOL    HW2  123   0.124   0.911   1.245
   31SOL     OW  124   1.525   0.999   0.190
   31SOL    HW1  125   1.462   0.923   0.203
   31SOL    HW2  126   1.573   1.017   0.276
   32SOL     OW  127   0.317   0.251   1.801
   32SOL    HW1  128   0.388   0.322   1.807
   32SOL    HW2  129   0.229   0.290   1.829
   33SOL     OW  130   1.466   1.417   0.953
   33SOL    HW1  131   1.407   1.423   1.033
   33SOL    HW2  132   1.451   1.329   0.907
   34SOL     OW  133   1.667   1.714   0.572
   34SOL    HW1  134   1.626   1.691   0.484
   34SOL    HW2  135   1.649   1.640   0.637
   35SOL     OW  136   0.598   0.729   0.270
   35SOL    HW1  137   0.622   0.798   0.202
   35SOL    HW2  138   0.520   0.762   0.324
   36SOL     OW  139   1.281   0.345   0.944
   36SOL    HW1  140   1.195   0.295   0.931
   36SOL    HW2  141   1.343   0.291   1.000
   37SOL     OW  142   1.576   1.662   0.307
   37SOL    HW1  143   1.665   1.708   0.310
   37SOL    HW2  144   1.555   1.638   0.212
   38SOL     OW  145   0.807   0.605   1.465
   38SOL    HW1  146   0.760   0.602   1.554
   38SOL    HW2  147   0.756   0.550   1.399
   39SOL     OW  148   1.394   0.469   1.674
   39SOL    HW1  149   1.374   0.512   1.762
   39SOL    HW2  150   1.472   0.407   1.683
   40SOL     OW  151   0.973   0.890   1.572
   40SOL    HW1  152   1.019   0.806   1.543
   40SOL    HW2  153   0.917   0.924   1.497
   41SOL     OW  154   0.991   0.410   1.242
   41SOL    HW1  155   0.914   0.444   1.296
   41SOL    HW2  156   0.957   0.359   1.163
   42SOL     OW  157   1.041   0.701   0.429
   42SOL    HW1  158   1.067   0.697   0.525
   42SOL    HW2  159   0.956   0.650   0.415
   43SOL     OW  160   0.076   0.811   0.789
   43SOL    HW1  161   0.175   0.799   0.798
   43SOL    HW2  162   0.052   0.906   0.810
   44SOL     OW  163   0.130   1.821   1.571
   44SOL    HW1  164   0.120   1.806   1.670
   44SOL    HW2  165   0.044   1.857   1.535
   45SOL     OW  166   0.865   0.348   0.195
   45SOL    HW1  167   0.924   0.411   0.146
   45SOL    HW2  168   0.884   0.254   0.166
   46SOL     OW  169   1.719   0.585   1.831
   46SOL    HW1  170   1.693   0.674   1.795
   46SOL    HW2  171   1.717   0.517   1.758
   47SOL     OW  172   1.362   1.144   0.545
   47SOL    HW1  173   1.445   1.115   0.497
   47SOL    HW2  174   1.313   1.211   0.489
   48SOL     OW  175   0.550   0.196   0.885
   48SOL    HW1  176   0.545   0.191   0.985
   48SOL    HW2  177   0.552   0.292   0.856
   49SOL     OW  178   1.008   1.456   0.477
   49SOL    HW1  179   0.962   1.528   0.425
   49SOL    HW2  180   1.004   1.476   0.575
   50SOL     OW  181   0.351   1.801   0.853
   50SOL    HW1  182   0.401   1.715   0.859
   50SOL    HW2  183   0.416   1.878   0.850
   51SOL     OW  184   1.795   1.066   0.873
   51SOL    HW1  185   1.733   1.051   0.797
   51SOL    HW2  186   1.743   1.077   0.958
   52SOL     OW  187   0.321   0.943   0.242
   52SOL    HW1  188   0.403   0.982   0.200
   52SOL    HW2  189   0.294   0.861   0.193
   53SOL     OW  190   1.458   0.735   0.728
   53SOL    HW1  191   1.453   0.670   0.803
   53SOL    HW2  192   1.538   0.794   0.741
   54SOL     OW  193   0.461   1.266   1.727
   54SOL    HW1  194   0.411   1.267   1.641
   54SOL    HW2  195   0.398   1.248   1.803
   55SOL     OW  196   1.111   1.776   0.237
   55SOL    HW1  197   1.051   1.714   0.287
   55SOL    HW2  198   1.142   1.732   0.152
   56SOL     OW  199   0.202   0.285   1.498
   56SOL    HW1  200   0.122   0.345   1.485
   56SOL    HW2  201   0.192   0.236   1.584
   57SOL     OW  202   1.632   1.377   0.081
   57SOL    HW1  203   1.600   1.471   0.071
   57SOL    HW2  204   1.556   1.314   0.069
   58SOL     OW  205   0.464   1.743   0.323
   58SOL    HW1  206   0.497   1.782   0.409
   58SOL    HW2  207   0.540   1.736   0.258
   59SOL     OW  208   1.400   0.107   0.426
   59SOL    HW1  209   1.376   0.070   0.336
   59SOL    HW2  210   1.499   0.123   0.430
   60SOL     OW  211   0.249   1.785   1.241
   60SOL    HW1  212   0.306   1.720   1.291
   60SOL    HW2  213   0.233   1.752   1.148
   61SOL     OW  214   0.940   1.698   0.904
   61SOL    HW1  215   1.020   1.641   0.925
   61SOL    HW2  216   0.891   1.658   0.827
   62SOL     OW  217   0.382   0.700   0.480
   62SOL    HW1  218   0.427   0.610   0.477
   62SOL    HW2  219   0.288   0.689   0.513
   63SOL     OW  220   1.547   0.222   1.729
   63SOL    HW1  221   1.542   0.259   1.821
   63SOL    HW2  222   1.475   0.153   1.717
   64SOL     OW  223   0.614   0.122   0.117
   64SOL    HW1  224   0.712   0.100   0.124
   64SOL    HW2  225   0.583   0.105   0.024
   65SOL     OW  226   0.781   0.264   1.749
   65SOL    HW1  227   0.848   0.203   1.792
   65SOL    HW2  228   0.708   0.283   1.814
   66SOL     OW  229   0.888   1.514   1.195
   66SOL    HW1  230   0.865   1.489   1.101
   66SOL    HW2  231   0.949   1.445   1.234
   67SOL     OW  232   1.351   0.590   1.433
   67SOL    HW1  233   1.379   0.547   1.518
   67SOL    HW2  234   1.376   0.686   1.434
   68SOL     OW  235   0.803   1.402   0.924
   68SOL    HW1  236   0.893   1.416   0.882
   68SOL    HW2  237   0.732   1.404   0.853
   69SOL     OW  238   0.922   0.503   0.899
   69SOL    HW1  239   0.897   0.494   0.803
   69SOL    HW2  240   0.970   0.421   0.930
   70SOL     OW  241   0.539   0.064   0.512
   70SOL    HW1  242   0.458   0.065   0.570
   70SOL    HW2  243   0.542   0.147   0.457
   71SOL     OW  244   1.434   1.188   0.041
   71SOL    HW1  245   1.466   1.112   0.098
   71SOL    HW2  246   1.342   1.215   0.071
   72SOL     OW  247   0.297   0.035   0.171
   72SOL    HW1  248   0.346   0.119   0.150
   72SOL    HW2  249   0.359  -0.030   0.216
   73SOL     OW  250   0.935   0.236   0.480
   73SOL    HW1  251   0.887   0.277   0.402
   73SOL    HW2  252   1.034   0.234   0.461
   74SOL     OW  253   1.076   0.683   1.464
   74SOL    HW1  254   0.996   0.622   1.467
   74SOL    HW2  255   1.157   0.630   1.440
   75SOL     OW  256   1.227   1.570   0.793
   75SOL    HW1  257   1.248   1.644   0.728
   75SOL    HW2  258   1.295   1.570   0.866
   76SOL     OW  259   0.459   1.152   0.741
   76SOL    HW1  260   0.388   1.125   0.806
   76SOL    HW2  261   0.433   1.124   0.648
   77SOL     OW  262   1.271   1.797   0.591
   77SOL    HW1  263   1.315   1.861   0.527
   77SOL    HW2  264   1.221   1.849   0.661
   78SOL     OW  265   1.032   0.549   0.016
   78SOL    HW1  266   0.991   0.631  -0.023
   78SOL    HW2  267   1.096   0.575   0.089
   79SOL     OW  268   0.078   0.556   1.386
   79SOL    HW1  269   0.170   0.555   1.345
   79SOL    HW2  270   0.072   0.630   1.453
   80SOL     OW  271   0.561   0.222   1.147
   80SOL    HW1  272   0.599   0.138   1.184
   80SOL    HW2  273   0.473   0.241   1.191
   81SOL     OW  274   0.866   0.454   0.642
   81SOL    HW1  275   0.834   0.526   0.580
   81SOL    HW2  276   0.890   0.373   0.589
   82SOL     OW  277   1.017   0.039   0.753
   82SOL    HW1  278   0.945   0.044   0.684
   82SOL    HW2  279   0.993  -0.030   0.822
   83SOL     OW  280   1.429   1.173   0.867
   83SOL    HW1  281   1.374   1.089   0.860
   83SOL    HW2  282   1.455   1.202   0.775
   84SOL     OW  283   1.466   0.590   0.992
   84SOL    HW1  284   1.436   0.495   0.999
   84SOL    HW2  285   1.539   0.606   1.058
   85SOL     OW  286   1.857   0.833   0.377
   85SOL    HW1  287   1.899   0.769   0.441
   85SOL    HW2  288   1.819   0.782   0.299
   86SOL     OW  289   0.488   1.385   0.174
   86SOL    HW1  290   0.401   1.370   0.221
   86SOL    HW2  291   0.471   1.411   0.079
   87SOL     OW  292   1.664   1.280   0.657
   87SOL    HW1  293   1.763   1.288   0.671
   87SOL    HW2  294   1.619   1.364   0.688
   88SOL     OW  295   1.390   0.575   0.078
   88SOL    HW1  296   1.336   0.554   0.159
   88SOL    HW2  297   1.481   0.534   0.087
   89SOL     OW  298   0.527   0.256   0.328
   89SOL    HW1  299   0.554   0.197   0.253
   89SOL    HW2  300   0.527   0.351   0.297
   90SOL     OW  301   1.064   1.347   1.340
   90SOL    HW1  302   0.984   1.324   1.395
   90SOL    HW2  303   1.147   1.321   1.389
   91SOL     OW  304   1.111   1.195   1.100
   91SOL    HW1  305   1.071   1.239   1.181
   91SOL    HW2  306   1.070   1.232   1.017
   92SOL     OW  307   1.638   1.099   1.079
   92SOL    HW1  308   1.643   1.180   1.138
   92SOL    HW2  309   1.552   1.101   1.028
   93SOL     OW  310   0.915   0.089   1.402
   93SOL    HW1  311   0.940   0.069   1.307
   93SOL    HW2  312   0.987   0.145   1.444
   94SOL     OW  313   0.980   1.116   1.719
   94SOL    HW1  314   0.881   1.122   1.729
   94SOL    HW2  315   1.003   1.036   1.663
   95SOL     OW  316   0.705   1.050   0.368
   95SOL    HW1  317   0.691   1.057   0.467
   95SOL    HW2  318   0.789   0.999   0.350
   96SOL     OW  319   0.410   0.813   1.251
   96SOL    HW1  320   0.496   0.825   1.301
   96SOL    HW2  321   0.368   0.726   1.278
   97SOL     OW  322   1.274   0.386   1.262
   97SOL    HW1  323   1.295   0.460   1.326
   97SOL    HW2  324   1.185   0.403   1.219
   98SOL     OW  325   0.064   1.564   1.331
   98SOL    HW1  326   0.018   1.646   1.297
   98SOL    HW2  327   0.162   1.583   1.340
   99SOL     OW  328   0.367   1.100   0.501
   99SOL    HW1  329   0.360   1.183   0.445
   99SOL    HW2  330   0.371   1.020   0.441
  100SOL     OW  331   0.566   0.537   0.865
  100SOL    HW1  332   0.578   0.603   0.791
  100SOL    HW2  333   0.612   0.571   0.948
  101SOL     OW  334   1.252   1.348   0.388
  101SOL    HW1  335   1.302   1.425   0.428
  101SOL    HW2  336   1.157   1.350   0.420
  102SOL     OW  337   1.272   1.445   1.142
  102SOL    HW1  338   1.319   1.458   1.229
  102SOL    HW2  339   1.206   1.371   1.151
  103SOL     OW  340   1.582   0.639   0.472
  103SOL    HW1  341   1.551   0.700   0.545
  103SOL    HW2  342   1.632   0.691   0.403
  104SOL     OW  343   0.354   1.510   1.329
  104SOL    HW1  344   0.333   1.466   1.242
  104SOL    HW2  345   0.451   1.536   1.332
  105SOL     OW  346   0.402   0.751   1.598
  105SOL    HW1  347   0.470   0.806   1.551
  105SOL    HW2  348   0.442   0.663   1.625
  106SOL     OW  349   1.587   0.779   1.670
  106SOL    HW1  350   1.495   0.817   1.665
  106SOL    HW2  351   1.647   0.826   1.605
  107SOL     OW  352   1.013   0.105   1.770
  107SOL    HW1  353   1.019   0.190   1.718
  107SOL    HW2  354   1.045   0.029   1.713
  108SOL     OW  355   0.504   0.050   1.740
  108SOL    HW1  356   0.462  -0.007   1.670
  108SOL    HW2  357   0.438   0.119   1.772
  109SOL     OW  358   0.573   0.870   1.029
  109SOL    HW1  359   0.617   0.959   1.020
  109SOL    HW2  360   0.510   0.870   1.106
  110SOL     OW  361   1.360   0.862   1.045
  110SOL    HW1  362   1.285   0.862   0.979
  110SOL    HW2  363   1.397   0.770   1.054
  111SOL     OW  364   1.209   0.525   0.275
  111SOL    HW1  365   1.222   0.441   0.329
  111SOL    HW2  366   1.180   0.599   0.335
  112SOL     OW  367   0.307   0.213   1.231
  112SOL    HW1  368   0.284   0.250   1.321
  112SOL    HW2  369   0.277   0.118   1.225
  113SOL     OW  370   0.037   1.310   1.282
  113SOL    HW1  371   0.090   1.261   1.350
  113SOL    HW2  372   0.059   1.408   1.287
  114SOL     OW  373   0.732   0.634   1.064
  114SOL    HW1  374   0.791   0.608   0.988
  114SOL    HW2  375   0.704   0.730   1.053
  115SOL     OW  376   1.728   0.935   1.854
  115SOL    HW1  377   1.682   0.928   1.765
  115SOL    HW2  378   1.666   0.979   1.920
  116SOL     OW  379   0.307   0.063   0.618
  116SOL    HW1  380   0.296   0.157   0.651
  116SOL    HW2  381   0.302   0.000   0.695
  117SOL     OW  382   1.622   0.367   0.374
  117SOL    HW1  383   1.624   0.291   0.438
  117SOL    HW2  384   1.574   0.444   0.414
  118SOL     OW  385   1.023   0.766   0.966
  118SOL    HW1  386   1.038   0.787   1.062
  118SOL    HW2  387   0.993   0.671   0.957
  119SOL     OW  388   0.350   0.898   1.804
  119SOL    HW1  389   0.426   0.942   1.852
  119SOL    HW2  390   0.385   0.851   1.722
  120SOL     OW  391   1.540   0.274   0.125
  120SOL    HW1  392   1.479   0.199   0.148
  120SOL    HW2  393   1.562   0.326   0.208
  121SOL     OW  394   1.303   0.838   0.042
  121SOL    HW1  395   1.337   0.745   0.057
  121SOL    HW2  396   1.321   0.865  -0.053
  122SOL     OW  397   1.068   1.333   0.849
  122SOL    HW1  398   1.075   1.249   0.794
  122SOL    HW2  399   1.130   1.402   0.813
  123SOL     OW  400   0.319   0.810   0.949
  123SOL    HW1  401   0.412   0.846   0.954
  123SOL    HW2  402   0.313   0.725   1.001
  124SOL     OW  403   0.339   0.509   1.006
  124SOL    HW1  404   0.287   0.426   0.989
  124SOL    HW2  405   0.416   0.514   0.942
  125SOL     OW  406   1.138   0.380   1.678
  125SOL    HW1  407   1.093   0.443   1.742
  125SOL    HW2  408   1.231   0.411   1.661
  126SOL     OW  409   1.160   0.207   1.477
  126SOL    HW1  410   1.160   0.271   1.554
  126SOL    HW2  411   1.188   0.255   1.394
  127SOL     OW  412   0.008   1.326   0.200
  127SOL    HW1  413  -0.085   1.347   0.169
  127SOL    HW2  414   0.018   1.227   0.213
  128SOL     OW  415   0.088   1.801   0.927
  128SOL    HW1  416   0.046   1.715   0.900
  128SOL    HW2  417   0.182   1.804   0.893
  129SOL     OW  418   0.504   1.568   0.910
  129SOL    HW1  419   0.570   1.642   0.919
  129SOL    HW2  420   0.548   1.489   0.868
  130SOL     OW  421   1.002   0.796   1.238
  130SOL    HW1  422   1.043   0.764   1.324
  130SOL    HW2  423   0.906   0.769   1.235
  131SOL     OW  424   0.040   0.544   1.114
  131SOL    HW1  425   0.125   0.511   1.073
  131SOL    HW2  426   0.053   0.559   1.212
  132SOL     OW  427   0.189   0.520   1.722
  132SOL    HW1  428   0.248   0.480   1.652
  132SOL    HW2  429   0.131   0.591   1.681
  133SOL     OW  430   1.369   0.950   1.660
  133SOL    HW1  431   1.408   1.039   1.680
  133SOL    HW2  432   1.379   0.930   1.563
  134SOL     OW  433   0.815   0.572   0.325
  134SOL    HW1  434   0.822   0.483   0.279
  134SOL    HW2  435   0.721   0.606   0.317
  135SOL     OW  436   1.657   0.604   1.206
  135SOL    HW1  437   1.619   0.535   1.268
  135SOL    HW2  438   1.739   0.568   1.162
  136SOL     OW  439   0.252   1.564   1.744
  136SOL    HW1  440   0.222   1.621   1.820
  136SOL    HW2  441   0.245   1.467   1.770
  137SOL     OW  442   0.671   0.464   1.269
  137SOL    HW1  443   0.637   0.375   1.239
  137SOL    HW2  444   0.697   0.518   1.189
  138SOL     OW  445   0.473   0.500   0.191
  138SOL    HW1  446   0.534   0.580   0.195
  138SOL    HW2  447   0.378   0.531   0.198
  139SOL     OW  448   0.159   1.137   1.466
  139SOL    HW1  449   0.181   1.076   1.542
  139SOL    HW2  450   0.169   1.088   1.380
  140SOL     OW  451   1.347   1.059   1.234
  140SOL    HW1  452   1.371   0.996   1.160
  140SOL    HW2  453   1.257   1.099   1.216
  141SOL     OW  454   1.302   0.855   0.309
  141SOL    HW1  455   1.216   0.824   0.351
  141SOL    HW2  456   1.298   0.841   0.210
  142SOL     OW  457   1.759   1.747   1.154
  142SOL    HW1  458   1.820   1.777   1.081
  142SOL    HW2  459   1.721   1.658   1.132
  143SOL     OW  460   1.252   1.731   1.128
  143SOL    HW1  461   1.336   1.736   1.074
  143SOL    HW2  462   1.229   1.635   1.146
  144SOL     OW  463   0.083   1.258   1.022
  144SOL    HW1  464   0.078   1.257   1.122
  144SOL    HW2  465   0.000   1.217   0.984
  145SOL     OW  466   0.688   1.662   1.716
  145SOL    HW1  467   0.632   1.743   1.725
  145SOL    HW2  468   0.740   1.666   1.630
  146SOL     OW  469   0.903   0.086   0.133
  146SOL    HW1  470   0.954   0.087   0.047
  146SOL    HW2  471   0.959   0.044   0.204
  147SOL     OW  472   1.726   0.135   0.523
  147SOL    HW1  473   1.799   0.118   0.456
  147SOL    HW2  474   1.695   0.048   0.561
  148SOL     OW  475   1.388   1.573   0.477
  148SOL    HW1  476   1.455   1.585   0.403
  148SOL    HW2  477   1.348   1.662   0.500
  149SOL     OW  478   0.130   1.794   1.851
  149SOL    HW1  479   0.089   1.720   1.904
  149SOL    HW2  480   0.194   1.845   1.909
  150SOL     OW  481   1.280   0.927   0.672
  150SOL    HW1  482   1.340   0.846   0.674
  150SOL    HW2  483   1.320   0.996   0.612
  151SOL     OW  484   0.830   1.273   1.422
  151SOL    HW1  485   0.825   1.306   1.517
  151SOL    HW2  486   0.744   1.292   1.376
  152SOL     OW  487   0.672   1.616   0.154
  152SOL    HW1  488   0.681   1.626   0.055
  152SOL    HW2  489   0.632   1.527   0.175
  153SOL     OW  490   1.841   0.175   0.963
  153SOL    HW1  491   1.880   0.090   0.927
  153SOL    HW2  492   1.743   0.177   0.944
  154SOL     OW  493   0.263   0.326   0.720
  154SOL    HW1  494   0.184   0.377   0.686
  154SOL    HW2  495   0.254   0.311   0.818
  155SOL     OW  496   1.194   1.612   0.031
  155SOL    HW1  497   1.200   1.519   0.068
  155SOL    HW2  498   1.135   1.612  -0.049
  156SOL     OW  499   0.822   1.002   1.372
  156SOL    HW1  500   0.862   1.001   1.280
  156SOL    HW2  501   0.832   1.094   1.412
  157SOL     OW  502   0.916   0.910   0.291
  157SOL    HW1  503   0.979   0.948   0.223
  157SOL    HW2  504   0.956   0.827   0.330
  158SOL     OW  505   1.504   1.607   0.044
  158SOL    HW1  506   1.412   1.644   0.051
  158SOL    HW2  507   1.542   1.627  -0.046
  159SOL     OW  508   0.372   1.288   1.490
  159SOL    HW1  509   0.359   1.381   1.456
  159SOL    HW2  510   0.288   1.236   1.477
  160SOL     OW  511   1.039   1.098   0.696
  160SOL    HW1  512   0.969   1.051   0.750
  160SOL    HW2  513   1.098   1.030   0.653
  161SOL     OW  514   1.014   0.236   0.971
  161SOL    HW1  515   1.006   0.200   0.878
  161SOL    HW2  516   1.012   0.160   1.036
  162SOL     OW  517   0.590   1.487   0.491
  162SOL    HW1  518   0.632   1.429   0.421
  162SOL    HW2  519   0.546   1.566   0.447
  163SOL     OW  520   1.709   0.385   1.381
  163SOL    HW1  521   1.782   0.454   1.385
  163SOL    HW2  522   1.737   0.310   1.322
  164SOL     OW  523   0.255   1.348   0.290
  164SOL    HW1  524   0.159   1.349   0.263
  164SOL    HW2  525   0.267   1.401   0.374
  165SOL     OW  526   0.105   1.013   1.726
  165SOL    HW1  527   0.028   0.980   1.780
  165SOL    HW2  528   0.190   0.983   1.768
  166SOL     OW  529   0.672   0.203   1.489
  166SOL    HW1  530   0.762   0.187   1.449
  166SOL    HW2  531   0.680   0.208   1.588
  167SOL     OW  532   0.075   0.345   0.033
  167SOL    HW1  533  -0.017   0.317   0.004
  167SOL    HW2  534   0.106   0.422  -0.023
  168SOL     OW  535   1.440   0.856   1.398
  168SOL    HW1  536   1.383   0.908   1.335
  168SOL    HW2  537   1.536   0.868   1.374
  169SOL     OW  538   0.072   0.166   0.318
  169SOL    HW1  539   0.055   0.249   0.264
  169SOL    HW2  540   0.162   0.129   0.296
  170SOL     OW  541   1.183   1.335   0.119
  170SOL    HW1  542   1.084   1.324   0.121
  170SOL    HW2  543   1.217   1.350   0.212
  171SOL     OW  544   0.613   0.842   1.431
  171SOL    HW1  545   0.669   0.923   1.414
  171SOL    HW2  546   0.672   0.762   1.434
  172SOL     OW  547   1.493   1.767   0.959
  172SOL    HW1  548   1.526   1.831   0.890
  172SOL    HW2  549   1.559   1.761   1.034
  173SOL     OW  550   0.716   0.565   1.708
  173SOL    HW1  551   0.735   0.630   1.782
  173SOL    HW2  552   0.776   0.485   1.717
  174SOL     OW  553   0.390   1.741   1.560
  174SOL    HW1  554   0.299   1.782   1.558
  174SOL    HW2  555   0.383   1.647   1.592
  175SOL     OW  556   1.674   0.883   1.254
  175SOL    HW1  557   1.647   0.794   1.217
  175SOL    HW2  558   1.675   0.951   1.181
  176SOL     OW  559   1.225   0.325   0.449
  176SOL    HW1  560   1.290   0.251   0.438
  176SOL    HW2  561   1.245   0.375   0.533
  177SOL     OW  562   0.594   0.745   0.652
  177SOL    HW1  563   0.644   0.830   0.633
  177SOL    HW2  564   0.506   0.747   0.604
  178SOL     OW  565   1.777   0.342   1.642
  178SOL    HW1  566   1.760   0.373   1.548
  178SOL    HW2  567   1.693   0.305   1.680
  179SOL     OW  568   1.730   0.934   1.517
  179SOL    HW1  569   1.768   1.025   1.532
  179SOL    HW2  570   1.722   0.917   1.418
  180SOL     OW  571   0.859   1.374   0.016
  180SOL    HW1  572   0.813   1.389   0.104
  180SOL    HW2  573   0.903   1.459  -0.014
  181SOL     OW  574   0.661   1.790   0.953
  181SOL    HW1  575   0.615   1.878   0.940
  181SOL    HW2  576   0.760   1.802   0.946
  182SOL     OW  577   0.859   0.956   0.861
  182SOL    HW1  578   0.913   0.887   0.909
  182SOL    HW2  579   0.827   1.025   0.927
  183SOL     OW  580   1.083   0.984   0.087
  183SOL    HW1  581   1.060   1.037   0.005
  183SOL    HW2  582   1.164   0.928   0.068
  184SOL     OW  583   1.861   1.569   0.851
  184SOL    HW1  584   1.790   1.557   0.781
  184SOL    HW2  585   1.862   1.490   0.911
  185SOL     OW  586   0.221   1.314   1.844
  185SOL    HW1  587   0.156   1.241   1.823
  185SOL    HW2  588   0.225   1.328   1.942
  186SOL     OW  589   0.079   1.240   0.653
  186SOL    HW1  590   0.078   1.193   0.741
  186SOL    HW2  591   0.161   1.212   0.602
  187SOL     OW  592   0.672   1.391   1.624
  187SOL    HW1  593   0.594   1.341   1.662
  187SOL    HW2  594   0.669   1.486   1.655
  188SOL     OW  595   1.824   0.192   1.227
  188SOL    HW1  596   1.820   0.102   1.271
  188SOL    HW2  597   1.827   0.181   1.128
  189SOL     OW  598   0.428   0.424   0.520
  189SOL    HW1  599   0.458   0.352   0.458
  189SOL    HW2  600   0.389   0.384   0.603
  190SOL     OW  601   1.705   1.487   1.104
  190SOL    HW1  602   1.612   1.462   1.077
  190SOL    HW2  603   1.731   1.437   1.186
  191SOL     OW  604   0.317   0.547   1.280
  191SOL    HW1  605   0.355   0.488   1.352
  191SOL    HW2  606   0.357   0.521   1.192
  192SOL     OW  607   0.812   1.586   0.687
  192SOL    HW1  608   0.844   1.596   0.593
  192SOL    HW2  609   0.733   1.524   0.689
  193SOL     OW  610   1.424   0.214   1.112
  193SOL    HW1  611   1.476   0.149   1.167
  193SOL    HW2  612   1.375   0.277   1.173
  194SOL     OW  613   1.001   0.034   1.154
  194SOL    HW1  614   0.938  -0.038   1.123
  194SOL    HW2  615   1.094  -0.002   1.154
  195SOL     OW  616   0.770   1.330   0.301
  195SOL    HW1  617   0.724   1.243   0.318
  195SOL    HW2  618   0.861   1.327   0.342
  196SOL     OW  619   0.618   1.567   1.284
  196SOL    HW1  620   0.613   1.649   1.341
  196SOL    HW2  621   0.707   1.564   1.239
  197SOL     OW  622   1.352   0.052   0.168
  197SOL    HW1  623   1.387   0.011   0.084
  197SOL    HW2  624   1.262   0.014   0.188
  198SOL     OW  625   1.300   0.453   0.691
  198SOL    HW1  626   1.241   0.533   0.695
  198SOL    HW2  627   1.315   0.418   0.784
  199SOL     OW  628   1.593   0.221   0.882
  199SOL    HW1  629   1.509   0.220   0.936
  199SOL    HW2  630   1.595   0.304   0.826
  200SOL     OW  631   0.039   1.077   0.300
  200SOL    HW1  632   0.138   1.066   0.291
  200SOL    HW2  633  -0.001   0.991   0.332
  201SOL     OW  634   0.875   1.646   0.337
  201SOL    HW1  635   0.798   1.611   0.283
  201SOL    HW2  636   0.843   1.717   0.399
  202SOL     OW  637   0.230   0.628   1.975
  202SOL    HW1  638   0.137   0.626   2.012
  202SOL    HW2  639   0.231   0.589   1.883
  203SOL     OW  640   0.225   0.275   2.858
  203SOL    HW1  641   0.260   0.258   2.950
  203SOL    HW2  642   0.137   0.230   2.846
  204SOL     OW  643   0.019   0.368   2.509
  204SOL    HW1  644  -0.063   0.411   2.548
  204SOL    HW2  645  -0.009   0.295   2.446
  205SOL     OW  646   1.555   1.511   2.565
  205SOL    HW1  647   1.498   1.495   2.646
  205SOL    HW2  648   1.496   1.521   2.485
  206SOL     OW  649   1.135   0.703   2.579
  206SOL    HW1  650   1.192   0.781   2.554
  206SOL    HW2  651   1.075   0.729   2.655
  207SOL     OW  652   1.755   0.607   2.093
  207SOL    HW1  653   1.743   0.594   1.994
  207SOL    HW2  654   1.725   0.526   2.142
  208SOL     OW  655   0.768   1.144   2.885
  208SOL    HW1  656   0.690   1.161   2.945
  208SOL    HW2  657   0.802   1.231   2.849
  209SOL     OW  658   0.685   1.012   2.527
  209SOL    HW1  659   0.754   0.996   2.597
  209SOL    HW2  660   0.612   1.069   2.565
  210SOL     OW  661   0.335   1.435   2.923
  210SOL    HW1  662   0.257   1.404   2.870
  210SOL    HW2  663   0.393   1.493   2.866
  211SOL     OW  664   1.603   0.447   2.599
  211SOL    HW1  665   1.529   0.493   2.549
  211SOL    HW2  666   1.654   0.515   2.652
  212SOL     OW  667   0.231   1.713   2.345
  212SOL    HW1  668   0.265   1.790   2.399
  212SOL    HW2  669   0.275   1.713   2.255
  213SOL     OW  670   0.230   1.434   2.400
  213SOL    HW1  671   0.204   1.530   2.400
  213SOL    HW2  672   0.159   1.380   2.445
  214SOL     OW  673   0.240   1.091   2.748
  214SOL    HW1  674   0.254   1.007   2.800
  214SOL    HW2  675   0.185   1.155   2.803
  215SOL     OW  676   0.606   0.964   1.985
  215SOL    HW1  677   0.613   1.048   1.931
  215SOL    HW2  678   0.652   0.977   2.073
  216SOL     OW  679   0.122   0.643   2.425
  216SOL    HW1  680   0.077   0.555   2.442
  216SOL    HW2  681   0.121   0.697   2.509
  217SOL     OW  682   1.842   1.767   2.221
  217SOL    HW1  683   1.896   1.738   2.301
  217SOL    HW2  684   1.872   1.857   2.192
  218SOL     OW  685   0.027   1.596   1.979
  218SOL    HW1  686   0.008   1.500   2.000
  218SOL    HW2  687  -0.006   1.654   2.054
  219SOL     OW  688   1.689   0.922   2.474
  219SOL    HW1  689   1.784   0.893   2.482
  219SOL    HW2  690   1.681   0.987   2.399
  220SOL     OW  691   1.641   1.108   2.294
  220SOL    HW1  692   1.727   1.110   2.242
  220SOL    HW2  693   1.655   1.155   2.382
  221SOL     OW  694   0.613   1.365   2.588
  221SOL    HW1  695   0.564   1.278   2.597
  221SOL    HW2  696   0.590   1.408   2.501
  222SOL     OW  697   0.809   0.004   2.364
  222SOL    HW1  698   0.849   0.095   2.355
  222SOL    HW2  699   0.709   0.012   2.370
  223SOL     OW  700   1.525   0.999   2.052
  223SOL    HW1  701   1.462   0.923   2.065
  223SOL    HW2  702   1.573   1.017   2.138
  224SOL     OW  703   1.466   1.417   2.815
  224SOL    HW1  704   1.407   1.423   2.895
  224SOL    HW2  705   1.451   1.329   2.769
  225SOL     OW  706   1.667   1.714   2.434
  225SOL    HW1  707   1.626   1.691   2.346
  225SOL    HW2  708   1.649   1.640   2.499
  226SOL     OW  709   0.598   0.729   2.132
  226SOL    HW1  710   0.622   0.798   2.064
  226SOL    HW2  711   0.520   0.762   2.186
  227SOL     OW  712   1.281   0.345   2.806
  227SOL    HW1  713   1.195   0.295   2.793
  227SOL    HW2  714   1.343   0.291   2.862
  228SOL     OW  715   1.576   1.662   2.169
  228SOL    HW1  716   1.665   1.708   2.172
  228SOL    HW2  717   1.555   1.638   2.074
  229SOL     OW  718   1.041   0.701   2.291
  229SOL    HW1  719   1.067   0.697   2.387
  229SOL    HW2  720   0.956   0.650   2.277
  230SOL     OW  721   0.076   0.811   2.651
  230SOL    HW1  722   0.175   0.799   2.660
  230SOL    HW2  723   0.052   0.906   2.672
  231SOL     OW  724   0.865   0.348   2.057
  231SOL    HW1  725   0.924   0.411   2.008
  231SOL    HW2  726   0.884   0.254   2.028
  232SOL     OW  727   1.362   1.144   2.407
  232SOL    HW1  728   1.445   1.115   2.359
  232SOL    HW2  729   1.313   1.211   2.351
  233SOL     OW  730   0.550   0.196   2.747
  233SOL    HW1  731   0.545   0.191   2.847
  233SOL    HW2  732   0.552   0.292   2.718
  234SOL     OW  733   1.008   1.456   2.339
  234SOL    HW1  734   0.962   1.528   2.287
  234SOL    HW2  735   1.004   1.476   2.437
  235SOL     OW  736   0.351   1.801   2.715
  235SOL    HW1  737   0.401   1.715   2.721
  235SOL    HW2  738   0.416   1.878   2.712
  236SOL     OW  739   1.795   1.066   2.735
  236SOL    HW1  740   1.733   1.051   2.659
  236SOL    HW2  741   1.743   1.077   2.820
  237SOL     OW  742   0.321   0.943   2.104
  237SOL    HW1  743   0.403   0.982   2.062
  237SOL    HW2  744   0.294   0.861   2.055
  238SOL     OW  745   1.458   0.735   2.590
  238SOL    HW1  746   1.453   0.670   2.665
  238SOL    HW2  747   1.538   0.794   2.603
  239SOL     OW  748   1.111   1.776   2.099
  239SOL    HW1  749   1.051   1.714   2.149
  239SOL    HW2  750   1.142   1.732   2.014
  240SOL     OW  751   1.632   1.377   1.943
  240SOL    HW1  752   1.600   1.471   1.933
  240SOL    HW2  753   1.556   1.314   1.931
  241SOL     OW  754   0.464   1.743   2.185
  241SOL    HW1  755   0.497   1.782   2.271
  241SOL    HW2  756   0.540   1.736   2.120
  242SOL     OW  757   1.400   0.107   2.288
  242SOL    HW1  758   1.376   0.070   2.198
  242SOL    HW2  759   1.499   0.123   2.292
  243SOL     OW  760   0.249   1.785   3.103
  243SOL    HW1  761   0.306   1.720   3.153
  243SOL    HW2  762   0.233   1.752   3.010
  244SOL     OW  763   0.940   1.698   2.766
  244SOL    HW1  764   1.020   1.641   2.787
  244SOL    HW2  765   0.891   1.658   2.689
  245SOL     OW  766   0.382   0.700   2.342
  245SOL    HW1  767   0.427   0.610   2.339
  245SOL    HW2  768   0.288   0.689   2.375
  246SOL     OW  769   0.614   0.122   1.979
  246SOL    HW1  770   0.712   0.100   1.986
  246SOL    HW2  771   0.583   0.105   1.886
  247SOL     OW  772   0.803   1.402   2.786
  247SOL    HW1  773   0.893   1.416   2.744
  247SOL    HW2  774   0.732   1.404   2.715
  248SOL     OW  775   0.922   0.503   2.761
  248SOL    HW1  776   0.897   0.494   2.665
  248SOL    HW2  777   0.970   0.421   2.792
  249SOL     OW  778   0.539   0.064   2.374
  249SOL    HW1  779   0.458   0.065   2.432
  249SOL    HW2  780   0.542   0.147   2.319
  250SOL     OW  781   1.434   1.188   1.903
  250SOL    HW1  782   1.466   1.112   1.960
  250SOL    HW2  783   1.342   1.215   1.933
  251SOL     OW  784   0.297   0.035   2.033
  251SOL    HW1  785   0.346   0.119   2.012
  251SOL    HW2  786   0.359  -0.030   2.078
  252SOL     OW  787   0.935   0.236   2.342
  252SOL    HW1  788   0.887   0.277   2.264
  252SOL    HW2  789   1.034   0.234   2.323
  253SOL     OW  790   1.227   1.570   2.655
  253SOL    HW1  791   1.248   1.644   2.590
  253SOL    HW2  792   1.295   1.570   2.728
  254SOL     OW  793   0.459   1.152   2.603
  254SOL    HW1  794   0.388   1.125   2.668
  254SOL    HW2  795   0.433   1.124   2.510
  255SOL     OW  796   1.271   1.797   2.453
  255SOL    HW1  797   1.315   1.861   2.389
  255SOL    HW2  798   1.221   1.849   2.523
  256SOL     OW  799   1.032   0.549   1.878
  256SOL    HW1  800   0.991   0.631   1.839
  256SOL    HW2  801   1.096   0.575   1.951
  257SOL     OW  802   0.866   0.454   2.504
  257SOL    HW1  803   0.834   0.526   2.442
  257SOL    HW2  804   0.890   0.373   2.451
  258SOL     OW  805   1.017   0.039   2.615
  258SOL    HW1  806   0.945   0.044   2.546
  258SOL    HW2  807   0.993  -0.030   2.684
  259SOL     OW  808   1.429   1.173   2.729
  259SOL    HW1  809   1.374   1.089   2.722
  259SOL    HW2  810   1.455   1.202   2.637
  260SOL     OW  811   1.466   0.590   2.854
  260SOL    HW1  812   1.436   0.495   2.861
  260SOL    HW2  813   1.539   0.606   2.920
  261SOL     OW  814   1.857   0.833   2.239
  261SOL    HW1  815   1.899   0.769   2.303
  261SOL    HW2  816   1.819   0.782   2.161
  262SOL     OW  817   0.488   1.385   2.036
  262SOL    HW1  818   0.401   1.370   2.083
  262SOL    HW2  819   0.471   1.411   1.941
  263SOL     OW  820   1.664   1.280   2.519
  263SOL    HW1  821   1.763   1.288   2.533
  263SOL    HW2  822   1.619   1.364   2.550
  264SOL     OW  823   1.390   0.575   1.940
  264SOL    HW1  824   1.336   0.554   2.021
  264SOL    HW2  825   1.481   0.534   1.949
  265SOL     OW  826   0.527   0.256   2.190
  265SOL    HW1  827   0.554   0.197   2.115
  265SOL    HW2  828   0.527   0.351   2.159
  266SOL     OW  829   1.638   1.099   2.941
  266SOL    HW1  830   1.643   1.180   3.000
  266SOL    HW2  831   1.552   1.101   2.890
  267SOL     OW  832   0.705   1.050   2.230
  267SOL    HW1  833   0.691   1.057   2.329
  267SOL    HW2  834   0.789   0.999   2.212
  268SOL     OW  835   0.367   1.100   2.363
  268SOL    HW1  836   0.360   1.183   2.307
  268SOL    HW2  837   0.371   1.020   2.303
  269SOL     OW  838   0.566   0.537   2.727
  269SOL    HW1  839   0.578   0.603   2.653
  269SOL    HW2  840   0.612   0.571   2.810
  270SOL     OW  841   1.252   1.348   2.250
  270SOL    HW1  842   1.302   1.425   2.290
  270SOL    HW2  843   1.157   1.350   2.282
  271SOL     OW  844   1.582   0.639   2.334
  271SOL    HW1  845   1.551   0.700   2.407
  271SOL    HW2  846   1.632   0.691   2.265
  272SOL     OW  847   0.573   0.870   2.891
  272SOL    HW1  848   0.617   0.959   2.882
  272SOL    HW2  849   0.510   0.870   2.968
  273SOL     OW  850   1.209   0.525   2.137
  273SOL    HW1  851   1.222   0.441   2.191
  273SOL    HW2  852   1.180   0.599   2.197
  274SOL     OW  853   0.732   0.634   2.926
  274SOL    HW1  854   0.791   0.608   2.850
  274SOL    HW2  855   0.704   0.730   2.915
  275SOL     OW  856   0.307   0.063   2.480
  275SOL    HW1  857   0.296   0.157   2.513
  275SOL    HW2  858   0.302   0.000   2.557
  276SOL     OW  859   1.622   0.367   2.236
  276SOL    HW1  860   1.624   0.291   2.300
  276SOL    HW2  861   1.574   0.444   2.276
  277SOL     OW  862   1.023   0.766   2.828
  277SOL    HW1  863   1.038   0.787   2.924
  277SOL    HW2  864   0.993   0.671   2.819
  278SOL     OW  865   1.540   0.274   1.987
  278SOL    HW1  866   1.479   0.199   2.010
  278SOL    HW2  867   1.562   0.326   2.070
  279SOL     OW  868   1.303   0.838   1.904
  279SOL    HW1  869   1.337   0.745   1.919
  279SOL    HW2  870   1.321   0.865   1.809
  280SOL     OW  871   1.068   1.333   2.711
  280SOL    HW1  872   1.075   1.249   2.656
  280SOL    HW2  873   1.130   1.402   2.675
  281SOL     OW  874   0.319   0.810   2.811
  281SOL    HW1  875   0.412   0.846   2.816
  281SOL    HW2  876   0.313   0.725   2.863
  282SOL     OW  877   0.339   0.509   2.868
  282SOL    HW1  878   0.287   0.426   2.851
  282SOL    HW2  879   0.416   0.514   2.804
  283SOL     OW  880   0.008   1.326   2.062
  283SOL    HW1  881  -0.085   1.347   2.031
  283SOL    HW2  882   0.018   1.227   2.075
  284SOL     OW  883   0.088   1.801   2.789
  284SOL    HW1  884   0.046   1.715   2.762
  284SOL    HW2  885   0.182   1.804   2.755
  285SOL     OW  886   0.504   1.568   2.772
  285SOL    HW1  887   0.570   1.642   2.781
  285SOL    HW2  888   0.548   1.489   2.730
  286SOL     OW  889   1.002   0.796   3.100
  286SOL    HW1  890   1.043   0.764   3.186
  286SOL    HW2  891   0.906   0.769   3.097
  287SOL     OW  892   0.815   0.572   2.187
  287SOL    HW1  893   0.822   0.483   2.141
  287SOL    HW2  894   0.721   0.606   2.179
  288SOL     OW  895   0.671   0.464   3.131
  288SOL    HW1  896   0.637   0.375   3.101
  288SOL    HW2  897   0.697   0.518   3.051
  289SOL     OW  898   0.473   0.500   2.053
  289SOL    HW1  899   0.534   0.580   2.057
  289SOL    HW2  900   0.378   0.531   2.060
  290SOL     OW  901   1.302   0.855   2.171
  290SOL    HW1  902   1.216   0.824   2.213
  290SOL    HW2  903   1.298   0.841   2.072
  291SOL     OW  904   1.759   1.747   3.016
  291SOL    HW1  905   1.820   1.777   2.943
  291SOL    HW2  906   1.721   1.658   2.994
  292SOL     OW  907   0.083   1.258   2.884
  292SOL    HW1  908   0.078   1.257   2.984
  292SOL    HW2  909   0.000   1.217   2.846
  293SOL     OW  910   1.726   0.135   2.385
  293SOL    HW1  911   1.799   0.118   2.318
  293SOL    HW2  912   1.695   0.048   2.423
  294SOL     OW  913   1.388   1.573   2.339
  294SOL    HW1  914   1.455   1.585   2.265
  294SOL    HW2  915   1.348   1.662   2.362
  295SOL     OW  916   1.280   0.927   2.534
  295SOL    HW1  917   1.340   0.846   2.536
  295SOL    HW2  918   1.320   0.996   2.474
  296SOL     OW  919   0.672   1.616   2.016
  296SOL    HW1  920   0.681   1.626   1.917
  296SOL    HW2  921   0.632   1.527   2.037
  297SOL     OW  922   1.841   0.175   2.825
  297SOL    HW1  923   1.880   0.090   2.789
  297SOL    HW2  924   1.743   0.177   2.806
  298SOL     OW  925   0.263   0.326   2.582
  298SOL    HW1  926   0.184   0.377   2.548
  298SOL    HW2  927   0.254   0.311   2.680
  299SOL     OW  928   1.194   1.612   1.893
  299SOL    HW1  929   1.200   1.519   1.930
  299SOL    HW2  930   1.135   1.612   1.813
  300SOL     OW  931   0.916   0.910   2.153
  300SOL    HW1  932   0.979   0.948   2.085
  300SOL    HW2  933   0.956   0.827   2.192
  301SOL     OW  934   1.504   1.607   1.906
  301SOL    HW1  935   1.412   1.644   1.913
  301SOL    HW2  936   1.542   1.627   1.816
  302SOL     OW  937   1.039   1.098   2.558
  302SOL    HW1  938   0.969   1.051   2.612
  302SOL    HW2  939   1.098   1.030   2.515
  303SOL     OW  940   1.014   0.236   2.833
  303SOL    HW1  941   1.006   0.200   2.740
  303SOL    HW2  942   1.012   0.160   2.898
  304SOL     OW  943   0.590   1.487   2.353
  304SOL    HW1  944   0.632   1.429   2.283
  304SOL    HW2  945   0.546   1.566   2.309
  305SOL     OW  946   0.255   1.348   2.152
  305SOL    HW1  947   0.159   1.349   2.125
  305SOL    HW2  948   0.267   1.401   2.236
  306SOL     OW  949   0.075   0.345   1.895
  306SOL    HW1  950  -0.017   0.317   1.866
  306SOL    HW2  951   0.106   0.422   1.839
  307SOL     OW  952   0.072   0.166   2.180
  307SOL    HW1  953   0.055   0.249   2.126
  307SOL    HW2  954   0.162   0.129   2.158
  308SOL     OW  955   1.183   1.335   1.981
  308SOL    HW1  956   1.084   1.324   1.983
  308SOL    HW2  957   1.217   1.350   2.074
  309SOL     OW  958   1.493   1.767   2.821
  309SOL    HW1  959   1.526   1.831   2.752
  309SOL    HW2  960   1.559   1.761   2.896
  310SOL     OW  961   1.674   0.883   3.116
  310SOL    HW1  962   1.647   0.794   3.079
  310SOL    HW2  963   1.675   0.951   3.043
  311SOL     OW  964   1.225   0.325   2.311
  311SOL    HW1  965   1.290   0.251   2.300
  311SOL    HW2  966   1.245   0.375   2.395
  312SOL     OW  967   0.594   0.745   2.514
  312SOL    HW1  968   0.644   0.830   2.495
  312SOL    HW2  969   0.506   0.747   2.466
  313SOL     OW  970   0.859   1.374   1.878
  313SOL    HW1  971   0.813   1.389   1.966
  313SOL    HW2  972   0.903   1.459   1.848
  314SOL     OW  973   0.661   1.790   2.815
  314SOL    HW1  974   0.615   1.878   2.802
  314SOL    HW2  975   0.760   1.802   2.808
  315SOL     OW  976   0.859   0.956   2.723
  315SOL    HW1  977   0.913   0.887   2.771
  315SOL    HW2  978   0.827   1.025   2.789
  316SOL     OW  979   1.083   0.984   1.949
  316SOL    HW1  980   1.060   1.037   1.867
  316SOL    HW2  981   1.164   0.928   1.930
  317SOL     OW  982   1.861   1.569   2.713
  317SOL    HW1  983   1.790   1.557   2.643
  317SOL    HW2  984   1.862   1.490   2.773
  318SOL     OW  985   0.079   1.240   2.515
  318SOL    HW1  986   0.078   1.193   2.603
  318SOL    HW2  987   0.161   1.212   2.464
  319SOL     OW  988   1.824   0.192   3.089
  319SOL    HW1  989   1.820   0.102   3.133
  319SOL    HW2  990   1.827   0.181   2.990
  320SOL     OW  991   0.428   0.424   2.382
  320SOL    HW1  992   0.458   0.352   2.320
  320SOL    HW2  993   0.389   0.384   2.465
  321SOL     OW  994   0.812   1.586   2.549
  321SOL    HW1  995   0.844   1.596   2.455
  321SOL    HW2  996   0.733   1.524   2.551
  322SOL     OW  997   0.770   1.330   2.163
  322SOL    HW1  998   0.724   1.243   2.180
  322SOL    HW2  999   0.861   1.327   2.204
  323SOL     OW 1000   1.352   0.052   2.030
  323SOL    HW1 1001   1.387   0.011   1.946
  323SOL    HW2 1002   1.262   0.014   2.050
  324SOL     OW 1003   1.300   0.453   2.553
  324SOL    HW1 1004   1.241   0.533   2.557
  324SOL    HW2 1005   1.315   0.418   2.646
  325SOL     OW 1006   1.593   0.221   2.744
  325SOL    HW1 1007   1.509   0.220   2.798
  325SOL    HW2 1008   1.595   0.304   2.688
  326SOL     OW 1009   0.039   1.077   2.162
  326SOL    HW1 1010   0.138   1.066   2.153
  326SOL    HW2 1011  -0.001   0.991   2.194
  327SOL     OW 1012   0.875   1.646   2.199
  327SOL    HW1 1013   0.798   1.611   2.145
  327SOL    HW2 1014   0.843   1.717   2.261
  328SOL     OW 1015   0.230   2.490   0.113
  328SOL    HW1 1016   0.137   2.488   0.150
  328SOL    HW2 1017   0.231   2.451   0.021
  329SOL     OW 1018   0.225   2.137   0.996
  329SOL    HW1 1019   0.260   2.120   1.088
  329SOL    HW2 1020   0.137   2.092   0.984
  330SOL     OW 1021   0.019   2.230   0.647
  330SOL    HW1 1022  -0.063   2.273   0.686
  330SOL    HW2 1023  -0.009   2.157   0.584
  331SOL     OW 1024   1.135   2.565   0.717
  331SOL    HW1 1025   1.192   2.643   0.692
  331SOL    HW2 1026   1.075   2.591   0.793
  332SOL     OW 1027   1.755   2.469   0.231
  332SOL    HW1 1028   1.743   2.456   0.132
  332SOL    HW2 1029   1.725   2.388   0.280
  333SOL     OW 1030   0.768   3.006   1.023
  333SOL    HW1 1031   0.690   3.023   1.083
  333SOL    HW2 1032   0.802   3.093   0.987
  334SOL     OW 1033   0.850   2.660   1.823
  334SOL    HW1 1034   0.846   2.736   1.888
  334SOL    HW2 1035   0.872   2.696   1.732
  335SOL     OW 1036   0.685   2.874   0.665
  335SOL    HW1 1037   0.754   2.858   0.735
  335SOL    HW2 1038   0.612   2.931   0.703
  336SOL     OW 1039   0.438   2.254   1.499
  336SOL    HW1 1040   0.520   2.198   1.508
  336SOL    HW2 1041   0.357   2.196   1.503
  337SOL     OW 1042   1.603   2.309   0.737
  337SOL    HW1 1043   1.529   2.355   0.687
  337SOL    HW2 1044   1.654   2.377   0.790
  338SOL     OW 1045   0.230   3.296   0.538
  338SOL    HW1 1046   0.204   3.392   0.538
  338SOL    HW2 1047   0.159   3.242   0.583
  339SOL     OW 1048   0.240   2.953   0.886
  339SOL    HW1 1049   0.254   2.869   0.938
  339SOL    HW2 1050   0.185   3.017   0.941
  340SOL     OW 1051   0.606   2.826   0.123
  340SOL    HW1 1052   0.613   2.910   0.069
  340SOL    HW2 1053   0.652   2.839   0.211
  341SOL     OW 1054   1.594   1.976   1.480
  341SOL    HW1 1055   1.576   2.043   1.408
  341SOL    HW2 1056   1.591   2.022   1.569
  342SOL     OW 1057   0.122   2.505   0.563
  342SOL    HW1 1058   0.077   2.417   0.580
  342SOL    HW2 1059   0.121   2.559   0.647
  343SOL     OW 1060   1.689   2.784   0.612
  343SOL    HW1 1061   1.784   2.755   0.620
  343SOL    HW2 1062   1.681   2.849   0.537
  344SOL     OW 1063   0.113   2.599   1.597
  344SOL    HW1 1064   0.201   2.586   1.642
  344SOL    HW2 1065   0.100   2.696   1.575
  345SOL     OW 1066   1.293   3.090   1.423
  345SOL    HW1 1067   1.330   3.017   1.365
  345SOL    HW2 1068   1.345   3.095   1.508
  346SOL     OW 1069   0.809   1.866   0.502
  346SOL    HW1 1070   0.849   1.957   0.493
  346SOL    HW2 1071   0.709   1.874   0.508
  347SOL     OW 1072   0.197   2.838   1.264
  347SOL    HW1 1073   0.286   2.793   1.250
  347SOL    HW2 1074   0.124   2.773   1.245
  348SOL     OW 1075   1.525   2.861   0.190
  348SOL    HW1 1076   1.462   2.785   0.203
  348SOL    HW2 1077   1.573   2.879   0.276
  349SOL     OW 1078   0.317   2.113   1.801
  349SOL    HW1 1079   0.388   2.184   1.807
  349SOL    HW2 1080   0.229   2.152   1.829
  350SOL     OW 1081   0.598   2.591   0.270
  350SOL    HW1 1082   0.622   2.660   0.202
  350SOL    HW2 1083   0.520   2.624   0.324
  351SOL     OW 1084   1.281   2.207   0.944
  351SOL    HW1 1085   1.195   2.157   0.931
  351SOL    HW2 1086   1.343   2.153   1.000
  352SOL     OW 1087   0.807   2.467   1.465
  352SOL    HW1 1088   0.760   2.464   1.554
  352SOL    HW2 1089   0.756   2.412   1.399
  353SOL     OW 1090   1.394   2.331   1.674
  353SOL    HW1 1091   1.374   2.374   1.762
  353SOL    HW2 1092   1.472   2.269   1.683
  354SOL     OW 1093   0.973   2.752   1.572
  354SOL    HW1 1094   1.019   2.668   1.543
  354SOL    HW2 1095   0.917   2.786   1.497
  355SOL     OW 1096   0.991   2.272   1.242
  355SOL    HW1 1097   0.914   2.306   1.296
  355SOL    HW2 1098   0.957   2.221   1.163
  356SOL     OW 1099   1.041   2.563   0.429
  356SOL    HW1 1100   1.067   2.559   0.525
  356SOL    HW2 1101   0.956   2.512   0.415
  357SOL     OW 1102   0.076   2.673   0.789
  357SOL    HW1 1103   0.175   2.661   0.798
  357SOL    HW2 1104   0.052   2.768   0.810
  358SOL     OW 1105   0.865   2.210   0.195
  358SOL    HW1 1106   0.924   2.273   0.146
  358SOL    HW2 1107   0.884   2.116   0.166
  359SOL     OW 1108   1.719   2.447   1.831
  359SOL    HW1 1109   1.693   2.536   1.795
  359SOL    HW2 1110   1.717   2.379   1.758
  360SOL     OW 1111   0.550   2.058   0.885
  360SOL    HW1 1112   0.545   2.053   0.985
  360SOL    HW2 1113   0.552   2.154   0.856
  361SOL     OW 1114   1.795   2.928   0.873
  361SOL    HW1 1115   1.733   2.913   0.797
  361SOL    HW2 1116   1.743   2.939   0.958
  362SOL     OW 1117   0.321   2.805   0.242
  362SOL    HW1 1118   0.403   2.844   0.200
  362SOL    HW2 1119   0.294   2.723   0.193
  363SOL     OW 1120   1.458   2.597   0.728
  363SOL    HW1 1121   1.453   2.532   0.803
  363SOL    HW2 1122   1.538   2.656   0.741
  364SOL     OW 1123   0.202   2.147   1.498
  364SOL    HW1 1124   0.122   2.207   1.485
  364SOL    HW2 1125   0.192   2.098   1.584
  365SOL     OW 1126   1.400   1.969   0.426
  365SOL    HW1 1127   1.376   1.932   0.336
  365SOL    HW2 1128   1.499   1.985   0.430
  366SOL     OW 1129   0.382   2.562   0.480
  366SOL    HW1 1130   0.427   2.472   0.477
  366SOL    HW2 1131   0.288   2.551   0.513
  367SOL     OW 1132   1.547   2.084   1.729
  367SOL    HW1 1133   1.542   2.121   1.821
  367SOL    HW2 1134   1.475   2.015   1.717
  368SOL     OW 1135   0.614   1.984   0.117
  368SOL    HW1 1136   0.712   1.962   0.124
  368SOL    HW2 1137   0.583   1.967   0.024
  369SOL     OW 1138   0.781   2.126   1.749
  369SOL    HW1 1139   0.848   2.065   1.792
  369SOL    HW2 1140   0.708   2.145   1.814
  370SOL     OW 1141   1.351   2.452   1.433
  370SOL    HW1 1142   1.379   2.409   1.518
  370SOL    HW2 1143   1.376   2.548   1.434
  371SOL     OW 1144   0.922   2.365   0.899
  371SOL    HW1 1145   0.897   2.356   0.803
  371SOL    HW2 1146   0.970   2.283   0.930
  372SOL     OW 1147   0.539   1.926   0.512
  372SOL    HW1 1148   0.458   1.927   0.570
  372SOL    HW2 1149   0.542   2.009   0.457
  373SOL     OW 1150   0.935   2.098   0.480
  373SOL    HW1 1151   0.887   2.139   0.402
  373SOL    HW2 1152   1.034   2.096   0.461
  374SOL     OW 1153   1.076   2.545   1.464
  374SOL    HW1 1154   0.996   2.484   1.467
  374SOL    HW2 1155   1.157   2.492   1.440
  375SOL     OW 1156   1.032   2.411   0.016
  375SOL    HW1 1157   0.991   2.493  -0.023
  375SOL    HW2 1158   1.096   2.437   0.089
  376SOL     OW 1159   0.078   2.418   1.386
  376SOL    HW1 1160   0.170   2.417   1.345
  376SOL    HW2 1161   0.072   2.492   1.453
  377SOL     OW 1162   0.561   2.084   1.147
  377SOL    HW1 1163   0.599   2.000   1.184
  377SOL    HW2 1164   0.473   2.103   1.191
  378SOL     OW 1165   0.866   2.316   0.642
  378SOL    HW1 1166   0.834   2.388   0.580
  378SOL    HW2 1167   0.890   2.235   0.589
  379SOL     OW 1168   1.017   1.901   0.753
  379SOL    HW1 1169   0.945   1.906   0.684
  379SOL    HW2 1170   0.993   1.832   0.822
  380SOL     OW 1171   1.429   3.035   0.867
  380SOL    HW1 1172   1.374   2.951   0.860
  380SOL    HW2 1173   1.455   3.064   0.775
  381SOL     OW 1174   1.466   2.452   0.992
  381SOL    HW1 1175   1.436   2.357   0.999
  381SOL    HW2 1176   1.539   2.468   1.058
  382SOL     OW 1177   1.857   2.695   0.377
  382SOL    HW1 1178   1.899   2.631   0.441
  382SOL    HW2 1179   1.819   2.644   0.299
  383SOL     OW 1180   1.390   2.437   0.078
  383SOL    HW1 1181   1.336   2.416   0.159
  383SOL    HW2 1182   1.481   2.396   0.087
  384SOL     OW 1183   0.527   2.118   0.328
  384SOL    HW1 1184   0.554   2.059   0.253
  384SOL    HW2 1185   0.527   2.213   0.297
  385SOL     OW 1186   1.754   3.085   1.588
  385SOL    HW1 1187   1.845   3.046   1.575
  385SOL    HW2 1188   1.762   3.181   1.612
  386SOL     OW 1189   1.638   2.961   1.079
  386SOL    HW1 1190   1.643   3.042   1.138
  386SOL    HW2 1191   1.552   2.963   1.028
  387SOL     OW 1192   0.915   1.951   1.402
  387SOL    HW1 1193   0.940   1.931   1.307
  387SOL    HW2 1194   0.987   2.007   1.444
  388SOL     OW 1195   0.410   2.675   1.251
  388SOL    HW1 1196   0.496   2.687   1.301
  388SOL    HW2 1197   0.368   2.588   1.278
  389SOL     OW 1198   1.274   2.248   1.262
  389SOL    HW1 1199   1.295   2.322   1.326
  389SOL    HW2 1200   1.185   2.265   1.219
  390SOL     OW 1201   0.566   2.399   0.865
  390SOL    HW1 1202   0.578   2.465   0.791
  390SOL    HW2 1203   0.612   2.433   0.948
  391SOL     OW 1204   1.582   2.501   0.472
  391SOL    HW1 1205   1.551   2.562   0.545
  391SOL    HW2 1206   1.632   2.553   0.403
  392SOL     OW 1207   0.402   2.613   1.598
  392SOL    HW1 1208   0.470   2.668   1.551
  392SOL    HW2 1209   0.442   2.525   1.625
  393SOL     OW 1210   1.587   2.641   1.670
  393SOL    HW1 1211   1.495   2.679   1.665
  393SOL    HW2 1212   1.647   2.688   1.605
  394SOL     OW 1213   1.013   1.967   1.770
  394SOL    HW1 1214   1.019   2.052   1.718
  394SOL    HW2 1215   1.045   1.891   1.713
  395SOL     OW 1216   0.504   1.912   1.740
  395SOL    HW1 1217   0.462   1.855   1.670
  395SOL    HW2 1218   0.438   1.981   1.772
  396SOL     OW 1219   0.573   2.732   1.029
  396SOL    HW1 1220   0.617   2.821   1.020
  396SOL    HW2 1221   0.510   2.732   1.106
  397SOL     OW 1222   1.360   2.724   1.045
  397SOL    HW1 1223   1.285   2.724   0.979
  397SOL    HW2 1224   1.397   2.632   1.054
  398SOL     OW 1225   1.209   2.387   0.275
  398SOL    HW1 1226   1.222   2.303   0.329
  398SOL    HW2 1227   1.180   2.461   0.335
  399SOL     OW 1228   0.307   2.075   1.231
  399SOL    HW1 1229   0.284   2.112   1.321
  399SOL    HW2 1230   0.277   1.980   1.225
  400SOL     OW 1231   0.037   3.172   1.282
  400SOL    HW1 1232   0.090   3.123   1.350
  400SOL    HW2 1233   0.059   3.270   1.287
  401SOL     OW 1234   0.732   2.496   1.064
  401SOL    HW1 1235   0.791   2.470   0.988
  401SOL    HW2 1236   0.704   2.592   1.053
  402SOL     OW 1237   1.728   2.797   1.854
  402SOL    HW1 1238   1.682   2.790   1.765
  402SOL    HW2 1239   1.666   2.841   1.920
  403SOL     OW 1240   0.307   1.925   0.618
  403SOL    HW1 1241   0.296   2.019   0.651
  403SOL    HW2 1242   0.302   1.862   0.695
  404SOL     OW 1243   1.622   2.229   0.374
  404SOL    HW1 1244   1.624   2.153   0.438
  404SOL    HW2 1245   1.574   2.306   0.414
  405SOL     OW 1246   1.023   2.628   0.966
  405SOL    HW1 1247   1.038   2.649   1.062
  405SOL    HW2 1248   0.993   2.533   0.957
  406SOL     OW 1249   0.350   2.760   1.804
  406SOL    HW1 1250   0.426   2.804   1.852
  406SOL    HW2 1251   0.385   2.713   1.722
  407SOL     OW 1252   1.540   2.136   0.125
  407SOL    HW1 1253   1.479   2.061   0.148
  407SOL    HW2 1254   1.562   2.188   0.208
  408SOL     OW 1255   1.303   2.700   0.042
  408SOL    HW1 1256   1.337   2.607   0.057
  408SOL    HW2 1257   1.321   2.727  -0.053
  409SOL     OW 1258   0.319   2.672   0.949
  409SOL    HW1 1259   0.412   2.708   0.954
  409SOL    HW2 1260   0.313   2.587   1.001
  410SOL     OW 1261   0.339   2.371   1.006
  410SOL    HW1 1262   0.287   2.288   0.989
  410SOL    HW2 1263   0.416   2.376   0.942
  411SOL     OW 1264   1.138   2.242   1.678
  411SOL    HW1 1265   1.093   2.305   1.742
  411SOL    HW2 1266   1.231   2.273   1.661
  412SOL     OW 1267   1.160   2.069   1.477
  412SOL    HW1 1268   1.160   2.133   1.554
  412SOL    HW2 1269   1.188   2.117   1.394
  413SOL     OW 1270   1.002   2.658   1.238
  413SOL    HW1 1271   1.043   2.626   1.324
  413SOL    HW2 1272   0.906   2.631   1.235
  414SOL     OW 1273   0.040   2.406   1.114
  414SOL    HW1 1274   0.125   2.373   1.073
  414SOL    HW2 1275   0.053   2.421   1.212
  415SOL     OW 1276   0.189   2.382   1.722
  415SOL    HW1 1277   0.248   2.342   1.652
  415SOL    HW2 1278   0.131   2.453   1.681
  416SOL     OW 1279   1.369   2.812   1.660
  416SOL    HW1 1280   1.408   2.901   1.680
  416SOL    HW2 1281   1.379   2.792   1.563
  417SOL     OW 1282   0.815   2.434   0.325
  417SOL    HW1 1283   0.822   2.345   0.279
  417SOL    HW2 1284   0.721   2.468   0.317
  418SOL     OW 1285   1.657   2.466   1.206
  418SOL    HW1 1286   1.619   2.397   1.268
  418SOL    HW2 1287   1.739   2.430   1.162
  419SOL     OW 1288   0.671   2.326   1.269
  419SOL    HW1 1289   0.637   2.237   1.239
  419SOL    HW2 1290   0.697   2.380   1.189
  420SOL     OW 1291   0.473   2.362   0.191
  420SOL    HW1 1292   0.534   2.442   0.195
  420SOL    HW2 1293   0.378   2.393   0.198
  421SOL     OW 1294   0.159   2.999   1.466
  421SOL    HW1 1295   0.181   2.938   1.542
  421SOL    HW2 1296   0.169   2.950   1.380
  422SOL     OW 1297   1.347   2.921   1.234
  422SOL    HW1 1298   1.371   2.858   1.160
  422SOL    HW2 1299   1.257   2.961   1.216
  423SOL     OW 1300   1.302   2.717   0.309
  423SOL    HW1 1301   1.216   2.686   0.351
  423SOL    HW2 1302   1.298   2.703   0.210
  424SOL     OW 1303   0.903   1.948   0.133
  424SOL    HW1 1304   0.954   1.949   0.047
  424SOL    HW2 1305   0.959   1.906   0.204
  425SOL     OW 1306   1.726   1.997   0.523
  425SOL    HW1 1307   1.799   1.980   0.456
  425SOL    HW2 1308   1.695   1.910   0.561
  426SOL     OW 1309   1.280   2.789   0.672
  426SOL    HW1 1310   1.340   2.708   0.674
  426SOL    HW2 1311   1.320   2.858   0.612
  427SOL     OW 1312   1.841   2.037   0.963
  427SOL    HW1 1313   1.880   1.952   0.927
  427SOL    HW2 1314   1.743   2.039   0.944
  428SOL     OW 1315   0.263   2.188   0.720
  428SOL    HW1 1316   0.184   2.239   0.686
  428SOL    HW2 1317   0.254   2.173   0.818
  429SOL     OW 1318   0.822   2.864   1.372
  429SOL    HW1 1319   0.862   2.863   1.280
  429SOL    HW2 1320   0.832   2.956   1.412
  430SOL     OW 1321   0.916   2.772   0.291
  430SOL    HW1 1322   0.979   2.810   0.223
  430SOL    HW2 1323   0.956   2.689   0.330
  431SOL     OW 1324   1.014   2.098   0.971
  431SOL    HW1 1325   1.006   2.062   0.878
  431SOL    HW2 1326   1.012   2.022   1.036
  432SOL     OW 1327   1.709   2.247   1.381
  432SOL    HW1 1328   1.782   2.316   1.385
  432SOL    HW2 1329   1.737   2.172   1.322
  433SOL     OW 1330   0.105   2.875   1.726
  433SOL    HW1 1331   0.028   2.842   1.780
  433SOL    HW2 1332   0.190   2.845   1.768
  434SOL     OW 1333   0.672   2.065   1.489
  434SOL    HW1 1334   0.762   2.049   1.449
  434SOL    HW2 1335   0.680   2.070   1.588
  435SOL     OW 1336   0.075   2.207   0.033
  435SOL    HW1 1337  -0.017   2.179   0.004
  435SOL    HW2 1338   0.106   2.284  -0.023
  436SOL     OW 1339   1.440   2.718   1.398
  436SOL    HW1 1340   1.383   2.770   1.335
  436SOL    HW2 1341   1.536   2.730   1.374
  437SOL     OW 1342   0.072   2.028   0.318
  437SOL    HW1 1343   0.055   2.111   0.264
  437SOL    HW2 1344   0.162   1.991   0.296
  438SOL     OW 1345   1.183   3.197   0.119
  438SOL    HW1 1346   1.084   3.186   0.121
  438SOL    HW2 1347   1.217   3.212   0.212
  439SOL     OW 1348   0.613   2.704   1.431
  439SOL    HW1 1349   0.669   2.785   1.414
  439SOL    HW2 1350   0.672   2.624   1.434
  440SOL     OW 1351   0.716   2.427   1.708
  440SOL    HW1 1352   0.735   2.492   1.782
  440SOL    HW2 1353   0.776   2.347   1.717
  441SOL     OW 1354   1.674   2.745   1.254
  441SOL    HW1 1355   1.647   2.656   1.217
  441SOL    HW2 1356   1.675   2.813   1.181
  442SOL     OW 1357   1.225   2.187   0.449
  442SOL    HW1 1358   1.290   2.113   0.438
  442SOL    HW2 1359   1.245   2.237   0.533
  443SOL     OW 1360   0.594   2.607   0.652
  443SOL    HW1 1361   0.644   2.692   0.633
  443SOL    HW2 1362   0.506   2.609   0.604
  444SOL     OW 1363   1.777   2.204   1.642
  444SOL    HW1 1364   1.760   2.235   1.548
  444SOL    HW2 1365   1.693   2.167   1.680
  445SOL     OW 1366   1.730   2.796   1.517
  445SOL    HW1 1367   1.768   2.887   1.532
  445SOL    HW2 1368   1.722   2.779   1.418
  446SOL     OW 1369   0.859   2.818   0.861
  446SOL    HW1 1370   0.913   2.749   0.909
  446SOL    HW2 1371   0.827   2.887   0.927
  447SOL     OW 1372   1.083   2.846   0.087
  447SOL    HW1 1373   1.060   2.899   0.005
  447SOL    HW2 1374   1.164   2.790   0.068
  448SOL     OW 1375   1.824   2.054   1.227
  448SOL    HW1 1376   1.820   1.964   1.271
  448SOL    HW2 1377   1.827   2.043   1.128
  449SOL     OW 1378   0.428   2.286   0.520
  449SOL    HW1 1379   0.458   2.214   0.458
  449SOL    HW2 1380   0.389   2.246   0.603
  450SOL     OW 1381   0.317   2.409   1.280
  450SOL    HW1 1382   0.355   2.350   1.352
  450SOL    HW2 1383   0.357   2.383   1.192
  451SOL     OW 1384   1.424   2.076   1.112
  451SOL    HW1 1385   1.476   2.011   1.167
  451SOL    HW2 1386   1.375   2.139   1.173
  452SOL     OW 1387   1.001   1.896   1.154
  452SOL    HW1 1388   0.938   1.824   1.123
  452SOL    HW2 1389   1.094   1.860   1.154
  453SOL     OW 1390   1.352   1.914   0.168
  453SOL    HW1 1391   1.387   1.873   0.084
  453SOL    HW2 1392   1.262   1.876   0.188
  454SOL     OW 1393   1.300   2.315   0.691
  454SOL    HW1 1394   1.241   2.395   0.695
  454SOL    HW2 1395   1.315   2.280   0.784
  455SOL     OW 1396   1.593   2.083   0.882
  455SOL    HW1 1397   1.509   2.082   0.936
  455SOL    HW2 1398   1.595   2.166   0.826
  456SOL     OW 1399   0.039   2.939   0.300
  456SOL    HW1 1400   0.138   2.928   0.291
  456SOL    HW2 1401  -0.001   2.853   0.332
  457SOL     OW 1402   0.230   2.490   1.975
  457SOL    HW1 1403   0.137   2.488   2.012
  457SOL    HW2 1404   0.231   2.451   1.883
  458SOL     OW 1405   0.225   2.137   2.858
  458SOL    HW1 1406   0.260   2.120   2.950
  458SOL    HW2 1407   0.137   2.092   2.846
  459SOL     OW 1408   0.019   2.230   2.509
  459SOL    HW1 1409  -0.063   2.273   2.548
  459SOL    HW2 1410  -0.009   2.157   2.446
  460SOL     OW 1411   1.135   2.565   2.579
  460SOL    HW1 1412   1.192   2.643   2.554
  460SOL    HW2 1413   1.075   2.591   2.655
  461SOL     OW 1414   1.755   2.469   2.093
  461SOL    HW1 1415   1.743   2.456   1.994
  461SOL    HW2 1416   1.725   2.388   2.142
  462SOL     OW 1417   0.768   3.006   2.885
  462SOL    HW1 1418   0.690   3.023   2.945
  462SOL    HW2 1419   0.802   3.093   2.849
  463SOL     OW 1420   0.685   2.874   2.527
  463SOL    HW1 1421   0.754   2.858   2.597
  463SOL    HW2 1422   0.612   2.931   2.565
  464SOL     OW 1423   1.603   2.309   2.599
  464SOL    HW1 1424   1.529   2.355   2.549
  464SOL    HW2 1425   1.654   2.377   2.652
  465SOL     OW 1426   0.230   3.296   2.400
  465SOL    HW1 1427   0.204   3.392   2.400
  465SOL    HW2 1428   0.159   3.242   2.445
  466SOL     OW 1429   0.240   2.953   2.748
  466SOL    HW1 1430   0.254   2.869   2.800
  466SOL    HW2 1431   0.185   3.017   2.803
  467SOL     OW 1432   0.606   2.826   1.985
  467SOL    HW1 1433   0.613   2.910   1.931
  467SOL    HW2 1434   0.652   2.839   2.073
  468SOL     OW 1435   0.122   2.505   2.425
  468SOL    HW1 1436   0.077   2.417   2.442
  468SOL    HW2 1437   0.121   2.559   2.509
  469SOL     OW 1438   1.689   2.784   2.474
  469SOL    HW1 1439   1.784   2.755   2.482
  469SOL    HW2 1440   1.681   2.849   2.399
  470SOL     OW 1441   0.809   1.866   2.364
  470SOL    HW1 1442   0.849   1.957   2.355
  470SOL    HW2 1443   0.709   1.874   2.370
  471SOL     OW 1444   1.525   2.861   2.052
  471SOL    HW1 1445   1.462   2.785   2.065
  471SOL    HW2 1446   1.573   2.879   2.138
  472SOL     OW 1447   0.598   2.591   2.132
  472SOL    HW1 1448   0.622   2.660   2.064
  472SOL    HW2 1449   0.520   2.624   2.186
  473SOL     OW 1450   1.281   2.207   2.806
  473SOL    HW1 1451   1.195   2.157   2.793
  473SOL    HW2 1452   1.343   2.153   2.862
  474SOL     OW 1453   1.041   2.563   2.291
  474SOL    HW1 1454   1.067   2.559   2.387
  474SOL    HW2 1455   0.956   2.512   2.277
  475SOL     OW 1456   0.076   2.673   2.651
  475SOL    HW1 1457   0.175   2.661   2.660
  475SOL    HW2 1458   0.052   2.768   2.672
  476SOL     OW 1459   0.865   2.210   2.057
  476SOL    HW1 1460   0.924   2.273   2.008
  476SOL    HW2 1461   0.884   2.116   2.028
  477SOL     OW 1462   0.550   2.058   2.747
  477SOL    HW1 1463   0.545   2.053   2.847
  477SOL    HW2 1464   0.552   2.154   2.718
  478SOL     OW 1465   1.795   2.928   2.735
  478SOL    HW1 1466   1.733   2.913   2.659
  478SOL    HW2 1467   1.743   2.939   2.820
  479SOL     OW 1468   0.321   2.805   2.104
  479SOL    HW1 1469   0.403   2.844   2.062
  479SOL    HW2 1470   0.294   2.723   2.055
  480SOL     OW 1471   1.458   2.597   2.590
  480SOL    HW1 1472   1.453   2.532   2.665
  480SOL    HW2 1473   1.538   2.656   2.603
  481SOL     OW 1474   1.400   1.969   2.288
  481SOL    HW1 1475   1.376   1.932   2.198
  481SOL    HW2 1476   1.499   1.985   2.292
  482SOL     OW 1477   0.382   2.562   2.342
  482SOL    HW1 1478   0.427   2.472   2.339
  482SOL    HW2 1479   0.288   2.551   2.375
  483SOL     OW 1480   0.614   1.984   1.979
  483SOL    HW1 1481   0.712   1.962   1.986
  483SOL    HW2 1482   0.583   1.967   1.886
  484SOL     OW 1483   0.922   2.365   2.761
  484SOL    HW1 1484   0.897   2.356   2.665
  484SOL    HW2 1485   0.970   2.283   2.792
  485SOL     OW 1486   0.539   1.926   2.374
  485SOL    HW1 1487   0.458   1.927   2.432
  485SOL    HW2 1488   0.542   2.009   2.319
  486SOL     OW 1489   0.297   1.897   2.033
  486SOL    HW1 1490   0.346   1.981   2.012
  486SOL    HW2 1491   0.359   1.832   2.078
  487SOL     OW 1492   0.935   2.098   2.342
  487SOL    HW1 1493   0.887   2.139   2.264
  487SOL    HW2 1494   1.034   2.096   2.323
  488SOL     OW 1495   1.032   2.411   1.878
  488SOL    HW1 1496   0.991   2.493   1.839
  488SOL    HW2 1497   1.096   2.437   1.951
  489SOL     OW 1498   0.866   2.316   2.504
  489SOL    HW1 1499   0.834   2.388   2.442
  489SOL    HW2 1500   0.890   2.235   2.451
  490SOL     OW 1501   1.017   1.901   2.615
  490SOL    HW1 1502   0.945   1.906   2.546
  490SOL    HW2 1503   0.993   1.832   2.684
  491SOL     OW 1504   1.429   3.035   2.729
  491SOL    HW1 1505   1.374   2.951   2.722
  491SOL    HW2 1506   1.455   3.064   2.637
  492SOL     OW 1507   1.466   2.452   2.854
  492SOL    HW1 1508   1.436   2.357   2.861
  492SOL    HW2 1509   1.539   2.468   2.920
  493SOL     OW 1510   1.857   2.695   2.239
  493SOL    HW1 1511   1.899   2.631   2.303
  493SOL    HW2 1512   1.819   2.644   2.161
  494SOL     OW 1513   1.390   2.437   1.940
  494SOL    HW1 1514   1.336   2.416   2.021
  494SOL    HW2 1515   1.481   2.396   1.949
  495SOL     OW 1516   0.527   2.118   2.190
  495SOL    HW1 1517   0.554   2.059   2.115
  495SOL    HW2 1518   0.527   2.213   2.159
  496SOL     OW 1519   1.638   2.961   2.941
  496SOL    HW1 1520   1.643   3.042   3.000
  496SOL    HW2 1521   1.552   2.963   2.890
  497SOL     OW 1522   0.566   2.399   2.727
  497SOL    HW1 1523   0.578   2.465   2.653
  497SOL    HW2 1524   0.612   2.433   2.810
  498SOL     OW 1525   1.582   2.501   2.334
  498SOL    HW1 1526   1.551   2.562   2.407
  498SOL    HW2 1527   1.632   2.553   2.265
  499SOL     OW 1528   0.573   2.732   2.891
  499SOL    HW1 1529   0.617   2.821   2.882
  499SOL    HW2 1530   0.510   2.732   2.968
  500SOL     OW 1531   1.209   2.387   2.137
  500SOL    HW1 1532   1.222   2.303   2.191
  500SOL    HW2 1533   1.180   2.461   2.197
  501SOL     OW 1534   0.307   2.075   3.093
  501SOL    HW1 1535   0.284   2.112   3.183
  501SOL    HW2 1536   0.277   1.980   3.087
  502SOL     OW 1537   0.732   2.496   2.926
  502SOL    HW1 1538   0.791   2.470   2.850
  502SOL    HW2 1539   0.704   2.592   2.915
  503SOL     OW 1540   0.307   1.925   2.480
  503SOL    HW1 1541   0.296   2.019   2.513
  503SOL    HW2 1542   0.302   1.862   2.557
  504SOL     OW 1543   1.622   2.229   2.236
  504SOL    HW1 1544   1.624   2.153   2.300
  504SOL    HW2 1545   1.574   2.306   2.276
  505SOL     OW 1546   1.023   2.628   2.828
  505SOL    HW1 1547   1.038   2.649   2.924
  505SOL    HW2 1548   0.993   2.533   2.819
  506SOL     OW 1549   1.540   2.136   1.987
  506SOL    HW1 1550   1.479   2.061   2.010
  506SOL    HW2 1551   1.562   2.188   2.070
  507SOL     OW 1552   1.303   2.700   1.904
  507SOL    HW1 1553   1.337   2.607   1.919
  507SOL    HW2 1554   1.321   2.727   1.809
  508SOL     OW 1555   0.319   2.672   2.811
  508SOL    HW1 1556   0.412   2.708   2.816
  508SOL    HW2 1557   0.313   2.587   2.863
  509SOL     OW 1558   0.339   2.371   2.868
  509SOL    HW1 1559   0.287   2.288   2.851
  509SOL    HW2 1560   0.416   2.376   2.804
  510SOL     OW 1561   1.002   2.658   3.100
  510SOL    HW1 1562   1.043   2.626   3.186
  510SOL    HW2 1563   0.906   2.631   3.097
  511SOL     OW 1564   0.815   2.434   2.187
  511SOL    HW1 1565   0.822   2.345   2.141
  511SOL    HW2 1566   0.721   2.468   2.179
  512SOL     OW 1567   0.671   2.326   3.131
  512SOL    HW1 1568   0.637   2.237   3.101
  512SOL    HW2 1569   0.697   2.380   3.051
  513SOL     OW 1570   0.473   2.362   2.053
  513SOL    HW1 1571   0.534   2.442   2.057
  513SOL    HW2 1572   0.378   2.393   2.060
  514SOL     OW 1573   1.302   2.717   2.171
  514SOL    HW1 1574   1.216   2.686   2.213
  514SOL    HW2 1575   1.298   2.703   2.072
  515SOL     OW 1576   1.726   1.997   2.385
  515SOL    HW1 1577   1.799   1.980   2.318
  515SOL    HW2 1578   1.695   1.910   2.423
  516SOL     OW 1579   1.280   2.789   2.534
  516SOL    HW1 1580   1.340   2.708   2.536
  516SOL    HW2 1581   1.320   2.858   2.474
  517SOL     OW 1582   1.841   2.037   2.825
  517SOL    HW1 1583   1.880   1.952   2.789
  517SOL    HW2 1584   1.743   2.039   2.806
  518SOL     OW 1585   0.263   2.188   2.582
  518SOL    HW1 1586   0.184   2.239   2.548
  518SOL    HW2 1587   0.254   2.173   2.680
  519SOL     OW 1588   0.916   2.772   2.153
  519SOL    HW1 1589   0.979   2.810   2.085
  519SOL    HW2 1590   0.956   2.689   2.192
  520SOL     OW 1591   1.014   2.098   2.833
  520SOL    HW1 1592   1.006   2.062   2.740
  520SOL    HW2 1593   1.012   2.022   2.898
  521SOL     OW 1594   0.075   2.207   1.895
  521SOL    HW1 1595  -0.017   2.179   1.866
  521SOL    HW2 1596   0.106   2.284   1.839
  522SOL     OW 1597   0.072   2.028   2.180
  522SOL    HW1 1598   0.055   2.111   2.126
  522SOL    HW2 1599   0.162   1.991   2.158
  523SOL     OW 1600   1.183   3.197   1.981
  523SOL    HW1 1601   1.084   3.186   1.983
  523SOL    HW2 1602   1.217   3.212   2.074
  524SOL     OW 1603   1.674   2.745   3.116
  524SOL    HW1 1604   1.647   2.656   3.079
  524SOL    HW2 1605   1.675   2.813   3.043
  525SOL     OW 1606   1.225   2.187   2.311
  525SOL    HW1 1607   1.290   2.113   2.300
  525SOL    HW2 1608   1.245   2.237   2.395
  526SOL     OW 1609   0.594   2.607   2.514
  526SOL    HW1 1610   0.644   2.692   2.495
  526SOL    HW2 1611   0.506   2.609   2.466
  527SOL     OW 1612   0.859   2.818   2.723
  527SOL    HW1 1613   0.913   2.749   2.771
  527SOL    HW2 1614   0.827   2.887   2.789
  528SOL     OW 1615   1.083   2.846   1.949
  528SOL    HW1 1616   1.060   2.899   1.867
  528SOL    HW2 1617   1.164   2.790   1.930
  529SOL     OW 1618   1.824   2.054   3.089
  529SOL    HW1 1619   1.820   1.964   3.133
  529SOL    HW2 1620   1.827   2.043   2.990
  530SOL     OW 1621   0.428   2.286   2.382
  530SOL    HW1 1622   0.458   2.214   2.320
  530SOL    HW2 1623   0.389   2.246   2.465
  531SOL     OW 1624   1.352   1.914   2.030
  531SOL    HW1 1625   1.387   1.873   1.946
  531SOL    HW2 1626   1.262   1.876   2.050
  532SOL     OW 1627   1.300   2.315   2.553
  532SOL    HW1 1628   1.241   2.395   2.557
  532SOL    HW2 1629   1.315   2.280   2.646
  533SOL     OW 1630   1.593   2.083   2.744
  533SOL    HW1 1631   1.509   2.082   2.798
  533SOL    HW2 1632   1.595   2.166   2.688
  534SOL     OW 1633   0.039   2.939   2.162
  534SOL    HW1 1634   0.138   2.928   2.153
  534SOL    HW2 1635  -0.001   2.853   2.194
  535SOL     OW 1636   2.092   0.628   0.113
  535SOL    HW1 1637   1.999   0.626   0.150
  535SOL    HW2 1638   2.093   0.589   0.021
  536SOL     OW 1639   2.087   0.275   0.996
  536SOL    HW1 1640   2.122   0.258   1.088
  536SOL    HW2 1641   1.999   0.230   0.984
  537SOL     OW 1642   1.881   0.368   0.647
  537SOL    HW1 1643   1.799   0.411   0.686
  537SOL    HW2 1644   1.853   0.295   0.584
  538SOL     OW 1645   2.431   1.275   1.165
  538SOL    HW1 1646   2.338   1.268   1.128
  538SOL    HW2 1647   2.442   1.364   1.209
  539SOL     OW 1648   2.630   1.144   1.023
  539SOL    HW1 1649   2.552   1.161   1.083
  539SOL    HW2 1650   2.664   1.231   0.987
  540SOL     OW 1651   2.712   0.798   1.823
  540SOL    HW1 1652   2.708   0.874   1.888
  540SOL    HW2 1653   2.734   0.834   1.732
  541SOL     OW 1654   2.547   1.012   0.665
  541SOL    HW1 1655   2.616   0.996   0.735
  541SOL    HW2 1656   2.474   1.069   0.703
  542SOL     OW 1657   2.548   1.161   1.803
  542SOL    HW1 1658   2.608   1.240   1.817
  542SOL    HW2 1659   2.462   1.192   1.762
  543SOL     OW 1660   2.197   1.435   1.061
  543SOL    HW1 1661   2.119   1.404   1.008
  543SOL    HW2 1662   2.255   1.493   1.004
  544SOL     OW 1663   2.300   0.392   1.499
  544SOL    HW1 1664   2.382   0.336   1.508
  544SOL    HW2 1665   2.219   0.334   1.503
  545SOL     OW 1666   2.093   1.713   0.483
  545SOL    HW1 1667   2.127   1.790   0.537
  545SOL    HW2 1668   2.137   1.713   0.393
  546SOL     OW 1669   2.989   1.341   1.690
  546SOL    HW1 1670   3.036   1.341   1.778
  546SOL    HW2 1671   2.941   1.254   1.679
  547SOL     OW 1672   2.092   1.434   0.538
  547SOL    HW1 1673   2.066   1.530   0.538
  547SOL    HW2 1674   2.021   1.380   0.583
  548SOL     OW 1675   2.102   1.091   0.886
  548SOL    HW1 1676   2.116   1.007   0.938
  548SOL    HW2 1677   2.047   1.155   0.941
  549SOL     OW 1678   2.482   1.786   1.439
  549SOL    HW1 1679   2.390   1.769   1.474
  549SOL    HW2 1680   2.510   1.878   1.465
  550SOL     OW 1681   2.468   0.964   0.123
  550SOL    HW1 1682   2.475   1.048   0.069
  550SOL    HW2 1683   2.514   0.977   0.211
  551SOL     OW 1684   1.984   0.643   0.563
  551SOL    HW1 1685   1.939   0.555   0.580
  551SOL    HW2 1686   1.983   0.697   0.647
  552SOL     OW 1687   1.889   1.596   0.117
  552SOL    HW1 1688   1.870   1.500   0.138
  552SOL    HW2 1689   1.856   1.654   0.192
  553SOL     OW 1690   1.975   0.737   1.597
  553SOL    HW1 1691   2.063   0.724   1.642
  553SOL    HW2 1692   1.962   0.834   1.575
  554SOL     OW 1693   2.475   1.365   0.726
  554SOL    HW1 1694   2.426   1.278   0.735
  554SOL    HW2 1695   2.452   1.408   0.639
  555SOL     OW 1696   2.671   0.004   0.502
  555SOL    HW1 1697   2.711   0.095   0.493
  555SOL    HW2 1698   2.571   0.012   0.508
  556SOL     OW 1699   2.059   0.976   1.264
  556SOL    HW1 1700   2.148   0.931   1.250
  556SOL    HW2 1701   1.986   0.911   1.245
  557SOL     OW 1702   2.179   0.251   1.801
  557SOL    HW1 1703   2.250   0.322   1.807
  557SOL    HW2 1704   2.091   0.290   1.829
  558SOL     OW 1705   2.460   0.729   0.270
  558SOL    HW1 1706   2.484   0.798   0.202
  558SOL    HW2 1707   2.382   0.762   0.324
  559SOL     OW 1708   2.669   0.605   1.465
  559SOL    HW1 1709   2.622   0.602   1.554
  559SOL    HW2 1710   2.618   0.550   1.399
  560SOL     OW 1711   2.835   0.890   1.572
  560SOL    HW1 1712   2.881   0.806   1.543
  560SOL    HW2 1713   2.779   0.924   1.497
  561SOL     OW 1714   2.853   0.410   1.242
  561SOL    HW1 1715   2.776   0.444   1.296
  561SOL    HW2 1716   2.819   0.359   1.163
  562SOL     OW 1717   2.903   0.701   0.429
  562SOL    HW1 1718   2.929   0.697   0.525
  562SOL    HW2 1719   2.818   0.650   0.415
  563SOL     OW 1720   1.938   0.811   0.789
  563SOL    HW1 1721   2.037   0.799   0.798
  563SOL    HW2 1722   1.914   0.906   0.810
  564SOL     OW 1723   2.727   0.348   0.195
  564SOL    HW1 1724   2.786   0.411   0.146
  564SOL    HW2 1725   2.746   0.254   0.166
  565SOL     OW 1726   2.412   0.196   0.885
  565SOL    HW1 1727   2.407   0.191   0.985
  565SOL    HW2 1728   2.414   0.292   0.856
  566SOL     OW 1729   2.870   1.456   0.477
  566SOL    HW1 1730   2.824   1.528   0.425
  566SOL    HW2 1731   2.866   1.476   0.575
  567SOL     OW 1732   2.213   1.801   0.853
  567SOL    HW1 1733   2.263   1.715   0.859
  567SOL    HW2 1734   2.278   1.878   0.850
  568SOL     OW 1735   2.183   0.943   0.242
  568SOL    HW1 1736   2.265   0.982   0.200
  568SOL    HW2 1737   2.156   0.861   0.193
  569SOL     OW 1738   2.323   1.266   1.727
  569SOL    HW1 1739   2.273   1.267   1.641
  569SOL    HW2 1740   2.260   1.248   1.803
  570SOL     OW 1741   2.064   0.285   1.498
  570SOL    HW1 1742   1.984   0.345   1.485
  570SOL    HW2 1743   2.054   0.236   1.584
  571SOL     OW 1744   2.326   1.743   0.323
  571SOL    HW1 1745   2.359   1.782   0.409
  571SOL    HW2 1746   2.402   1.736   0.258
  572SOL     OW 1747   2.111   1.785   1.241
  572SOL    HW1 1748   2.168   1.720   1.291
  572SOL    HW2 1749   2.095   1.752   1.148
  573SOL     OW 1750   2.802   1.698   0.904
  573SOL    HW1 1751   2.882   1.641   0.925
  573SOL    HW2 1752   2.753   1.658   0.827
  574SOL     OW 1753   2.244   0.700   0.480
  574SOL    HW1 1754   2.289   0.610   0.477
  574SOL    HW2 1755   2.150   0.689   0.513
  575SOL     OW 1756   2.476   0.122   0.117
  575SOL    HW1 1757   2.574   0.100   0.124
  575SOL    HW2 1758   2.445   0.105   0.024
  576SOL     OW 1759   2.643   0.264   1.749
  576SOL    HW1 1760   2.710   0.203   1.792
  576SOL    HW2 1761   2.570   0.283   1.814
  577SOL     OW 1762   2.750   1.514   1.195
  577SOL    HW1 1763   2.727   1.489   1.101
  577SOL    HW2 1764   2.811   1.445   1.234
  578SOL     OW 1765   2.665   1.402   0.924
  578SOL    HW1 1766   2.755   1.416   0.882
  578SOL    HW2 1767   2.594   1.404   0.853
  579SOL     OW 1768   2.784   0.503   0.899
  579SOL    HW1 1769   2.759   0.494   0.803
  579SOL    HW2 1770   2.832   0.421   0.930
  580SOL     OW 1771   2.401   0.064   0.512
  580SOL    HW1 1772   2.320   0.065   0.570
  580SOL    HW2 1773   2.404   0.147   0.457
  581SOL     OW 1774   3.296   1.188   0.041
  581SOL    HW1 1775   3.328   1.112   0.098
  581SOL    HW2 1776   3.204   1.215   0.071
  582SOL     OW 1777   2.159   0.035   0.171
  582SOL    HW1 1778   2.208   0.119   0.150
  582SOL    HW2 1779   2.221  -0.030   0.216
  583SOL     OW 1780   2.797   0.236   0.480
  583SOL    HW1 1781   2.749   0.277   0.402
  583SOL    HW2 1782   2.896   0.234   0.461
  584SOL     OW 1783   3.089   1.570   0.793
  584SOL    HW1 1784   3.110   1.644   0.728
  584SOL    HW2 1785   3.157   1.570   0.866
  585SOL     OW 1786   2.321   1.152   0.741
  585SOL    HW1 1787   2.250   1.125   0.806
  585SOL    HW2 1788   2.295   1.124   0.648
  586SOL     OW 1789   2.894   0.549   0.016
  586SOL    HW1 1790   2.853   0.631  -0.023
  586SOL    HW2 1791   2.958   0.575   0.089
  587SOL     OW 1792   1.940   0.556   1.386
  587SOL    HW1 1793   2.032   0.555   1.345
  587SOL    HW2 1794   1.934   0.630   1.453
  588SOL     OW 1795   2.423   0.222   1.147
  588SOL    HW1 1796   2.461   0.138   1.184
  588SOL    HW2 1797   2.335   0.241   1.191
  589SOL     OW 1798   2.728   0.454   0.642
  589SOL    HW1 1799   2.696   0.526   0.580
  589SOL    HW2 1800   2.752   0.373   0.589
  590SOL     OW 1801   2.879   0.039   0.753
  590SOL    HW1 1802   2.807   0.044   0.684
  590SOL    HW2 1803   2.855  -0.030   0.822
  591SOL     OW 1804   2.350   1.385   0.174
  591SOL    HW1 1805   2.263   1.370   0.221
  591SOL    HW2 1806   2.333   1.411   0.079
  592SOL     OW 1807   2.389   0.256   0.328
  592SOL    HW1 1808   2.416   0.197   0.253
  592SOL    HW2 1809   2.389   0.351   0.297
  593SOL     OW 1810   2.777   0.089   1.402
  593SOL    HW1 1811   2.802   0.069   1.307
  593SOL    HW2 1812   2.849   0.145   1.444
  594SOL     OW 1813   2.842   1.116   1.719
  594SOL    HW1 1814   2.743   1.122   1.729
  594SOL    HW2 1815   2.865   1.036   1.663
  595SOL     OW 1816   2.567   1.050   0.368
  595SOL    HW1 1817   2.553   1.057   0.467
  595SOL    HW2 1818   2.651   0.999   0.350
  596SOL     OW 1819   2.272   0.813   1.251
  596SOL    HW1 1820   2.358   0.825   1.301
  596SOL    HW2 1821   2.230   0.726   1.278
  597SOL     OW 1822   2.229   1.100   0.501
  597SOL    HW1 1823   2.222   1.183   0.445
  597SOL    HW2 1824   2.233   1.020   0.441
  598SOL     OW 1825   2.428   0.537   0.865
  598SOL    HW1 1826   2.440   0.603   0.791
  598SOL    HW2 1827   2.474   0.571   0.948
  599SOL     OW 1828   2.216   1.510   1.329
  599SOL    HW1 1829   2.195   1.466   1.242
  599SOL    HW2 1830   2.313   1.536   1.332
  600SOL     OW 1831   2.264   0.751   1.598
  600SOL    HW1 1832   2.332   0.806   1.551
  600SOL    HW2 1833   2.304   0.663   1.625
  601SOL     OW 1834   2.875   0.105   1.770
  601SOL    HW1 1835   2.881   0.190   1.718
  601SOL    HW2 1836   2.907   0.029   1.713
  602SOL     OW 1837   2.366   0.050   1.740
  602SOL    HW1 1838   2.324  -0.007   1.670
  602SOL    HW2 1839   2.300   0.119   1.772
  603SOL     OW 1840   2.435   0.870   1.029
  603SOL    HW1 1841   2.479   0.959   1.020
  603SOL    HW2 1842   2.372   0.870   1.106
  604SOL     OW 1843   3.071   0.525   0.275
  604SOL    HW1 1844   3.084   0.441   0.329
  604SOL    HW2 1845   3.042   0.599   0.335
  605SOL     OW 1846   2.169   0.213   1.231
  605SOL    HW1 1847   2.146   0.250   1.321
  605SOL    HW2 1848   2.139   0.118   1.225
  606SOL     OW 1849   1.899   1.310   1.282
  606SOL    HW1 1850   1.952   1.261   1.350
  606SOL    HW2 1851   1.921   1.408   1.287
  607SOL     OW 1852   2.594   0.634   1.064
  607SOL    HW1 1853   2.653   0.608   0.988
  607SOL    HW2 1854   2.566   0.730   1.053
  608SOL     OW 1855   2.169   0.063   0.618
  608SOL    HW1 1856   2.158   0.157   0.651
  608SOL    HW2 1857   2.164   0.000   0.695
  609SOL     OW 1858   2.885   0.766   0.966
  609SOL    HW1 1859   2.900   0.787   1.062
  609SOL    HW2 1860   2.855   0.671   0.957
  610SOL     OW 1861   2.842   1.573   1.700
  610SOL    HW1 1862   2.822   1.617   1.612
  610SOL    HW2 1863   2.881   1.482   1.684
  611SOL     OW 1864   2.212   0.898   1.804
  611SOL    HW1 1865   2.288   0.942   1.852
  611SOL    HW2 1866   2.247   0.851   1.722
  612SOL     OW 1867   2.930   1.333   0.849
  612SOL    HW1 1868   2.937   1.249   0.794
  612SOL    HW2 1869   2.992   1.402   0.813
  613SOL     OW 1870   2.181   0.810   0.949
  613SOL    HW1 1871   2.274   0.846   0.954
  613SOL    HW2 1872   2.175   0.725   1.001
  614SOL     OW 1873   2.201   0.509   1.006
  614SOL    HW1 1874   2.149   0.426   0.989
  614SOL    HW2 1875   2.278   0.514   0.942
  615SOL     OW 1876   3.000   0.380   1.678
  615SOL    HW1 1877   2.955   0.443   1.742
  615SOL    HW2 1878   3.093   0.411   1.661
  616SOL     OW 1879   1.870   1.326   0.200
  616SOL    HW1 1880   1.777   1.347   0.169
  616SOL    HW2 1881   1.880   1.227   0.213
  617SOL     OW 1882   1.950   1.801   0.927
  617SOL    HW1 1883   1.908   1.715   0.900
  617SOL    HW2 1884   2.044   1.804   0.893
  618SOL     OW 1885   2.366   1.568   0.910
  618SOL    HW1 1886   2.432   1.642   0.919
  618SOL    HW2 1887   2.410   1.489   0.868
  619SOL     OW 1888   2.864   0.796   1.238
  619SOL    HW1 1889   2.905   0.764   1.324
  619SOL    HW2 1890   2.768   0.769   1.235
  620SOL     OW 1891   1.902   0.544   1.114
  620SOL    HW1 1892   1.987   0.511   1.073
  620SOL    HW2 1893   1.915   0.559   1.212
  621SOL     OW 1894   2.051   0.520   1.722
  621SOL    HW1 1895   2.110   0.480   1.652
  621SOL    HW2 1896   1.993   0.591   1.681
  622SOL     OW 1897   2.677   0.572   0.325
  622SOL    HW1 1898   2.684   0.483   0.279
  622SOL    HW2 1899   2.583   0.606   0.317
  623SOL     OW 1900   2.114   1.564   1.744
  623SOL    HW1 1901   2.084   1.621   1.820
  623SOL    HW2 1902   2.107   1.467   1.770
  624SOL     OW 1903   2.533   0.464   1.269
  624SOL    HW1 1904   2.499   0.375   1.239
  624SOL    HW2 1905   2.559   0.518   1.189
  625SOL     OW 1906   2.792   1.678   1.465
  625SOL    HW1 1907   2.768   1.660   1.370
  625SOL    HW2 1908   2.822   1.772   1.475
  626SOL     OW 1909   2.335   0.500   0.191
  626SOL    HW1 1910   2.396   0.580   0.195
  626SOL    HW2 1911   2.240   0.531   0.198
  627SOL     OW 1912   2.021   1.137   1.466
  627SOL    HW1 1913   2.043   1.076   1.542
  627SOL    HW2 1914   2.031   1.088   1.380
  628SOL     OW 1915   3.164   0.855   0.309
  628SOL    HW1 1916   3.078   0.824   0.351
  628SOL    HW2 1917   3.160   0.841   0.210
  629SOL     OW 1918   1.945   1.258   1.022
  629SOL    HW1 1919   1.940   1.257   1.122
  629SOL    HW2 1920   1.862   1.217   0.984
  630SOL     OW 1921   2.550   1.662   1.716
  630SOL    HW1 1922   2.494   1.743   1.725
  630SOL    HW2 1923   2.602   1.666   1.630
  631SOL     OW 1924   2.765   0.086   0.133
  631SOL    HW1 1925   2.816   0.087   0.047
  631SOL    HW2 1926   2.821   0.044   0.204
  632SOL     OW 1927   1.992   1.794   1.851
  632SOL    HW1 1928   1.951   1.720   1.904
  632SOL    HW2 1929   2.056   1.845   1.909
  633SOL     OW 1930   2.692   1.273   1.422
  633SOL    HW1 1931   2.687   1.306   1.517
  633SOL    HW2 1932   2.606   1.292   1.376
  634SOL     OW 1933   2.534   1.616   0.154
  634SOL    HW1 1934   2.543   1.626   0.055
  634SOL    HW2 1935   2.494   1.527   0.175
  635SOL     OW 1936   2.125   0.326   0.720
  635SOL    HW1 1937   2.046   0.377   0.686
  635SOL    HW2 1938   2.116   0.311   0.818
  636SOL     OW 1939   2.684   1.002   1.372
  636SOL    HW1 1940   2.724   1.001   1.280
  636SOL    HW2 1941   2.694   1.094   1.412
  637SOL     OW 1942   2.778   0.910   0.291
  637SOL    HW1 1943   2.841   0.948   0.223
  637SOL    HW2 1944   2.818   0.827   0.330
  638SOL     OW 1945   2.234   1.288   1.490
  638SOL    HW1 1946   2.221   1.381   1.456
  638SOL    HW2 1947   2.150   1.236   1.477
  639SOL     OW 1948   2.901   1.098   0.696
  639SOL    HW1 1949   2.831   1.051   0.750
  639SOL    HW2 1950   2.960   1.030   0.653
  640SOL     OW 1951   2.876   0.236   0.971
  640SOL    HW1 1952   2.868   0.200   0.878
  640SOL    HW2 1953   2.874   0.160   1.036
  641SOL     OW 1954   2.452   1.487   0.491
  641SOL    HW1 1955   2.494   1.429   0.421
  641SOL    HW2 1956   2.408   1.566   0.447
  642SOL     OW 1957   2.117   1.348   0.290
  642SOL    HW1 1958   2.021   1.349   0.263
  642SOL    HW2 1959   2.129   1.401   0.374
  643SOL     OW 1960   1.967   1.013   1.726
  643SOL    HW1 1961   1.890   0.980   1.780
  643SOL    HW2 1962   2.052   0.983   1.768
  644SOL     OW 1963   2.534   0.203   1.489
  644SOL    HW1 1964   2.624   0.187   1.449
  644SOL    HW2 1965   2.542   0.208   1.588
  645SOL     OW 1966   1.934   0.166   0.318
  645SOL    HW1 1967   1.917   0.249   0.264
  645SOL    HW2 1968   2.024   0.129   0.296
  646SOL     OW 1969   2.475   0.842   1.431
  646SOL    HW1 1970   2.531   0.923   1.414
  646SOL    HW2 1971   2.534   0.762   1.434
  647SOL     OW 1972   2.578   0.565   1.708
  647SOL    HW1 1973   2.597   0.630   1.782
  647SOL    HW2 1974   2.638   0.485   1.717
  648SOL     OW 1975   2.252   1.741   1.560
  648SOL    HW1 1976   2.161   1.782   1.558
  648SOL    HW2 1977   2.245   1.647   1.592
  649SOL     OW 1978   2.456   0.745   0.652
  649SOL    HW1 1979   2.506   0.830   0.633
  649SOL    HW2 1980   2.368   0.747   0.604
  650SOL     OW 1981   2.721   1.374   0.016
  650SOL    HW1 1982   2.675   1.389   0.104
  650SOL    HW2 1983   2.765   1.459  -0.014
  651SOL     OW 1984   2.523   1.790   0.953
  651SOL    HW1 1985   2.477   1.878   0.940
  651SOL    HW2 1986   2.622   1.802   0.946
  652SOL     OW 1987   2.721   0.956   0.861
  652SOL    HW1 1988   2.775   0.887   0.909
  652SOL    HW2 1989   2.689   1.025   0.927
  653SOL     OW 1990   2.945   0.984   0.087
  653SOL    HW1 1991   2.922   1.037   0.005
  653SOL    HW2 1992   3.026   0.928   0.068
  654SOL     OW 1993   2.083   1.314   1.844
  654SOL    HW1 1994   2.018   1.241   1.823
  654SOL    HW2 1995   2.087   1.328   1.942
  655SOL     OW 1996   1.941   1.240   0.653
  655SOL    HW1 1997   1.940   1.193   0.741
  655SOL    HW2 1998   2.023   1.212   0.602
  656SOL     OW 1999   2.534   1.391   1.624
  656SOL    HW1 2000   2.456   1.341   1.662
  656SOL    HW2 2001   2.531   1.486   1.655
  657SOL     OW 2002   2.290   0.424   0.520
  657SOL    HW1 2003   2.320   0.352   0.458
  657SOL    HW2 2004   2.251   0.384   0.603
  658SOL     OW 2005   2.179   0.547   1.280
  658SOL    HW1 2006   2.217   0.488   1.352
  658SOL    HW2 2007   2.219   0.521   1.192
  659SOL     OW 2008   2.674   1.586   0.687
  659SOL    HW1 2009   2.706   1.596   0.593
  659SOL    HW2 2010   2.595   1.524   0.689
  660SOL     OW 2011   2.863   0.034   1.154
  660SOL    HW1 2012   2.800  -0.038   1.123
  660SOL    HW2 2013   2.956  -0.002   1.154
  661SOL     OW 2014   2.632   1.330   0.301
  661SOL    HW1 2015   2.586   1.243   0.318
  661SOL    HW2 2016   2.723   1.327   0.342
  662SOL     OW 2017   2.480   1.567   1.284
  662SOL    HW1 2018   2.475   1.649   1.341
  662SOL    HW2 2019   2.569   1.564   1.239
  663SOL     OW 2020   1.901   1.077   0.300
  663SOL    HW1 2021   2.000   1.066   0.291
  663SOL    HW2 2022   1.861   0.991   0.332
  664SOL     OW 2023   2.737   1.646   0.337
  664SOL    HW1 2024   2.660   1.611   0.283
  664SOL    HW2 2025   2.705   1.717   0.399
  665SOL     OW 2026   2.092   0.628   1.975
  665SOL    HW1 2027   1.999   0.626   2.012
  665SOL    HW2 2028   2.093   0.589   1.883
  666SOL     OW 2029   2.087   0.275   2.858
  666SOL    HW1 2030   2.122   0.258   2.950
  666SOL    HW2 2031   1.999   0.230   2.846
  667SOL     OW 2032   1.881   0.368   2.509
  667SOL    HW1 2033   1.799   0.411   2.548
  667SOL    HW2 2034   1.853   0.295   2.446
  668SOL     OW 2035   2.630   1.144   2.885
  668SOL    HW1 2036   2.552   1.161   2.945
  668SOL    HW2 2037   2.664   1.231   2.849
  669SOL     OW 2038   2.547   1.012   2.527
  669SOL    HW1 2039   2.616   0.996   2.597
  669SOL    HW2 2040   2.474   1.069   2.565
  670SOL     OW 2041   2.197   1.435   2.923
  670SOL    HW1 2042   2.119   1.404   2.870
  670SOL    HW2 2043   2.255   1.493   2.866
  671SOL     OW 2044   2.093   1.713   2.345
  671SOL    HW1 2045   2.127   1.790   2.399
  671SOL    HW2 2046   2.137   1.713   2.255
  672SOL     OW 2047   2.092   1.434   2.400
  672SOL    HW1 2048   2.066   1.530   2.400
  672SOL    HW2 2049   2.021   1.380   2.445
  673SOL     OW 2050   2.102   1.091   2.748
  673SOL    HW1 2051   2.116   1.007   2.800
  673SOL    HW2 2052   2.047   1.155   2.803
  674SOL     OW 2053   2.468   0.964   1.985
  674SOL    HW1 2054   2.475   1.048   1.931
  674SOL    HW2 2055   2.514   0.977   2.073
  675SOL     OW 2056   1.984   0.643   2.425
  675SOL    HW1 2057   1.939   0.555   2.442
  675SOL    HW2 2058   1.983   0.697   2.509
  676SOL     OW 2059   1.889   1.596   1.979
  676SOL    HW1 2060   1.870   1.500   2.000
  676SOL    HW2 2061   1.856   1.654   2.054
  677SOL     OW 2062   2.475   1.365   2.588
  677SOL    HW1 2063   2.426   1.278   2.597
  677SOL    HW2 2064   2.452   1.408   2.501
  678SOL     OW 2065   2.671   0.004   2.364
  678SOL    HW1 2066   2.711   0.095   2.355
  678SOL    HW2 2067   2.571   0.012   2.370
  679SOL     OW 2068   2.460   0.729   2.132
  679SOL    HW1 2069   2.484   0.798   2.064
  679SOL    HW2 2070   2.382   0.762   2.186
  680SOL     OW 2071   2.903   0.701   2.291
  680SOL    HW1 2072   2.929   0.697   2.387
  680SOL    HW2 2073   2.818   0.650   2.277
  681SOL     OW 2074   1.938   0.811   2.651
  681SOL    HW1 2075   2.037   0.799   2.660
  681SOL    HW2 2076   1.914   0.906   2.672
  682SOL     OW 2077   2.727   0.348   2.057
  682SOL    HW1 2078   2.786   0.411   2.008
  682SOL    HW2 2079   2.746   0.254   2.028
  683SOL     OW 2080   2.412   0.196   2.747
  683SOL    HW1 2081   2.407   0.191   2.847
  683SOL    HW2 2082   2.414   0.292   2.718
  684SOL     OW 2083   2.870   1.456   2.339
  684SOL    HW1 2084   2.824   1.528   2.287
  684SOL    HW2 2085   2.866   1.476   2.437
  685SOL     OW 2086   2.213   1.801   2.715
  685SOL    HW1 2087   2.263   1.715   2.721
  685SOL    HW2 2088   2.278   1.878   2.712
  686SOL     OW 2089   2.183   0.943   2.104
  686SOL    HW1 2090   2.265   0.982   2.062
  686SOL    HW2 2091   2.156   0.861   2.055
  687SOL     OW 2092   2.326   1.743   2.185
  687SOL    HW1 2093   2.359   1.782   2.271
  687SOL    HW2 2094   2.402   1.736   2.120
  688SOL     OW 2095   2.111   1.785   3.103
  688SOL    HW1 2096   2.168   1.720   3.153
  688SOL    HW2 2097   2.095   1.752   3.010
  689SOL     OW 2098   2.802   1.698   2.766
  689SOL    HW1 2099   2.882   1.641   2.787
  689SOL    HW2 2100   2.753   1.658   2.689
  690SOL     OW 2101   2.244   0.700   2.342
  690SOL    HW1 2102   2.289   0.610   2.339
  690SOL    HW2 2103   2.150   0.689   2.375
  691SOL     OW 2104   2.476   0.122   1.979
  691SOL    HW1 2105   2.574   0.100   1.986
  691SOL    HW2 2106   2.445   0.105   1.886
  692SOL     OW 2107   2.665   1.402   2.786
  692SOL    HW1 2108   2.755   1.416   2.744
  692SOL    HW2 2109   2.594   1.404   2.715
  693SOL     OW 2110   2.784   0.503   2.761
  693SOL    HW1 2111   2.759   0.494   2.665
  693SOL    HW2 2112   2.832   0.421   2.792
  694SOL     OW 2113   2.401   0.064   2.374
  694SOL    HW1 2114   2.320   0.065   2.432
  694SOL    HW2 2115   2.404   0.147   2.319
  695SOL     OW 2116   2.159   0.035   2.033
  695SOL    HW1 2117   2.208   0.119   2.012
  695SOL    HW2 2118   2.221  -0.030   2.078
  696SOL     OW 2119   2.797   0.236   2.342
  696SOL    HW1 2120   2.749   0.277   2.264
  696SOL    HW2 2121   2.896   0.234   2.323
  697SOL     OW 2122   3.089   1.570   2.655
  697SOL    HW1 2123   3.110   1.644   2.590
  697SOL    HW2 2124   3.157   1.570   2.728
  698SOL     OW 2125   2.321   1.152   2.603
  698SOL    HW1 2126   2.250   1.125   2.668
  698SOL    HW2 2127   2.295   1.124   2.510
  699SOL     OW 2128   2.894   0.549   1.878
  699SOL    HW1 2129   2.853   0.631   1.839
  699SOL    HW2 2130   2.958   0.575   1.951
  700SOL     OW 2131   2.728   0.454   2.504
  700SOL    HW1 2132   2.696   0.526   2.442
  700SOL    HW2 2133   2.752   0.373   2.451
  701SOL     OW 2134   2.879   0.039   2.615
  701SOL    HW1 2135   2.807   0.044   2.546
  701SOL    HW2 2136   2.855  -0.030   2.684
  702SOL     OW 2137   2.350   1.385   2.036
  702SOL    HW1 2138   2.263   1.370   2.083
  702SOL    HW2 2139   2.333   1.411   1.941
  703SOL     OW 2140   2.389   0.256   2.190
  703SOL    HW1 2141   2.416   0.197   2.115
  703SOL    HW2 2142   2.389   0.351   2.159
  704SOL     OW 2143   2.567   1.050   2.230
  704SOL    HW1 2144   2.553   1.057   2.329
  704SOL    HW2 2145   2.651   0.999   2.212
  705SOL     OW 2146   2.229   1.100   2.363
  705SOL    HW1 2147   2.222   1.183   2.307
  705SOL    HW2 2148   2.233   1.020   2.303
  706SOL     OW 2149   2.428   0.537   2.727
  706SOL    HW1 2150   2.440   0.603   2.653
  706SOL    HW2 2151   2.474   0.571   2.810
  707SOL     OW 2152   2.435   0.870   2.891
  707SOL    HW1 2153   2.479   0.959   2.882
  707SOL    HW2 2154   2.372   0.870   2.968
  708SOL     OW 2155   3.071   0.525   2.137
  708SOL    HW1 2156   3.084   0.441   2.191
  708SOL    HW2 2157   3.042   0.599   2.197
  709SOL     OW 2158   2.594   0.634   2.926
  709SOL    HW1 2159   2.653   0.608   2.850
  709SOL    HW2 2160   2.566   0.730   2.915
  710SOL     OW 2161   2.169   0.063   2.480
  710SOL    HW1 2162   2.158   0.157   2.513
  710SOL    HW2 2163   2.164   0.000   2.557
  711SOL     OW 2164   2.885   0.766   2.828
  711SOL    HW1 2165   2.900   0.787   2.924
  711SOL    HW2 2166   2.855   0.671   2.819
  712SOL     OW 2167   2.930   1.333   2.711
  712SOL    HW1 2168   2.937   1.249   2.656
  712SOL    HW2 2169   2.992   1.402   2.675
  713SOL     OW 2170   2.181   0.810   2.811
  713SOL    HW1 2171   2.274   0.846   2.816
  713SOL    HW2 2172   2.175   0.725   2.863
  714SOL     OW 2173   2.201   0.509   2.868
  714SOL    HW1 2174   2.149   0.426   2.851
  714SOL    HW2 2175   2.278   0.514   2.804
  715SOL     OW 2176   1.870   1.326   2.062
  715SOL    HW1 2177   1.777   1.347   2.031
  715SOL    HW2 2178   1.880   1.227   2.075
  716SOL     OW 2179   1.950   1.801   2.789
  716SOL    HW1 2180   1.908   1.715   2.762
  716SOL    HW2 2181   2.044   1.804   2.755
  717SOL     OW 2182   2.366   1.568   2.772
  717SOL    HW1 2183   2.432   1.642   2.781
  717SOL    HW2 2184   2.410   1.489   2.730
  718SOL     OW 2185   2.864   0.796   3.100
  718SOL    HW1 2186   2.905   0.764   3.186
  718SOL    HW2 2187   2.768   0.769   3.097
  719SOL     OW 2188   2.677   0.572   2.187
  719SOL    HW1 2189   2.684   0.483   2.141
  719SOL    HW2 2190   2.583   0.606   2.179
  720SOL     OW 2191   2.533   0.464   3.131
  720SOL    HW1 2192   2.499   0.375   3.101
  720SOL    HW2 2193   2.559   0.518   3.051
  721SOL     OW 2194   2.335   0.500   2.053
  721SOL    HW1 2195   2.396   0.580   2.057
  721SOL    HW2 2196   2.240   0.531   2.060
  722SOL     OW 2197   3.164   0.855   2.171
  722SOL    HW1 2198   3.078   0.824   2.213
  722SOL    HW2 2199   3.160   0.841   2.072
  723SOL     OW 2200   1.945   1.258   2.884
  723SOL    HW1 2201   1.940   1.257   2.984
  723SOL    HW2 2202   1.862   1.217   2.846
  724SOL     OW 2203   2.534   1.616   2.016
  724SOL    HW1 2204   2.543   1.626   1.917
  724SOL    HW2 2205   2.494   1.527   2.037
  725SOL     OW 2206   2.125   0.326   2.582
  725SOL    HW1 2207   2.046   0.377   2.548
  725SOL    HW2 2208   2.116   0.311   2.680
  726SOL     OW 2209   2.778   0.910   2.153
  726SOL    HW1 2210   2.841   0.948   2.085
  726SOL    HW2 2211   2.818   0.827   2.192
  727SOL     OW 2212   2.901   1.098   2.558
  727SOL    HW1 2213   2.831   1.051   2.612
  727SOL    HW2 2214   2.960   1.030   2.515
  728SOL     OW 2215   2.876   0.236   2.833
  728SOL    HW1 2216   2.868   0.200   2.740
  728SOL    HW2 2217   2.874   0.160   2.898
  729SOL     OW 2218   2.452   1.487   2.353
  729SOL    HW1 2219   2.494   1.429   2.283
  729SOL    HW2 2220   2.408   1.566   2.309
  730SOL     OW 2221   2.117   1.348   2.152
  730SOL    HW1 2222   2.021   1.349   2.125
  730SOL    HW2 2223   2.129   1.401   2.236
  731SOL     OW 2224   1.937   0.345   1.895
  731SOL    HW1 2225   1.845   0.317   1.866
  731SOL    HW2 2226   1.968   0.422   1.839
  732SOL     OW 2227   1.934   0.166   2.180
  732SOL    HW1 2228   1.917   0.249   2.126
  732SOL    HW2 2229   2.024   0.129   2.158
  733SOL     OW 2230   2.456   0.745   2.514
  733SOL    HW1 2231   2.506   0.830   2.495
  733SOL    HW2 2232   2.368   0.747   2.466
  734SOL     OW 2233   2.721   1.374   1.878
  734SOL    HW1 2234   2.675   1.389   1.966
  734SOL    HW2 2235   2.765   1.459   1.848
  735SOL     OW 2236   2.523   1.790   2.815
  735SOL    HW1 2237   2.477   1.878   2.802
  735SOL    HW2 2238   2.622   1.802   2.808
  736SOL     OW 2239   2.721   0.956   2.723
  736SOL    HW1 2240   2.775   0.887   2.771
  736SOL    HW2 2241   2.689   1.025   2.789
  737SOL     OW 2242   2.945   0.984   1.949
  737SOL    HW1 2243   2.922   1.037   1.867
  737SOL    HW2 2244   3.026   0.928   1.930
  738SOL     OW 2245   1.941   1.240   2.515
  738SOL    HW1 2246   1.940   1.193   2.603
  738SOL    HW2 2247   2.023   1.212   2.464
  739SOL     OW 2248   2.290   0.424   2.382
  739SOL    HW1 2249   2.320   0.352   2.320
  739SOL    HW2 2250   2.251   0.384   2.465
  740SOL     OW 2251   2.674   1.586   2.549
  740SOL    HW1 2252   2.706   1.596   2.455
  740SOL    HW2 2253   2.595   1.524   2.551
  741SOL     OW 2254   2.632   1.330   2.163
  741SOL    HW1 2255   2.586   1.243   2.180
  741SOL    HW2 2256   2.723   1.327   2.204
  742SOL     OW 2257   1.901   1.077   2.162
  742SOL    HW1 2258   2.000   1.066   2.153
  742SOL    HW2 2259   1.861   0.991   2.194
  743SOL     OW 2260   2.737   1.646   2.199
  743SOL    HW1 2261   2.660   1.611   2.145
  743SOL    HW2 2262   2.705   1.717   2.261
  744SOL     OW 2263   2.092   2.490   0.113
  744SOL    HW1 2264   1.999   2.488   0.150
  744SOL    HW2 2265   2.093   2.451   0.021
  745SOL     OW 2266   2.087   2.137   0.996
  745SOL    HW1 2267   2.122   2.120   1.088
  745SOL    HW2 2268   1.999   2.092   0.984
  746SOL     OW 2269   1.881   2.230   0.647
  746SOL    HW1 2270   1.799   2.273   0.686
  746SOL    HW2 2271   1.853   2.157   0.584
  747SOL     OW 2272   2.630   3.006   1.023
  747SOL    HW1 2273   2.552   3.023   1.083
  747SOL    HW2 2274   2.664   3.093   0.987
  748SOL     OW 2275   2.712   2.660   1.823
  748SOL    HW1 2276   2.708   2.736   1.888
  748SOL    HW2 2277   2.734   2.696   1.732
  749SOL     OW 2278   2.547   2.874   0.665
  749SOL    HW1 2279   2.616   2.858   0.735
  749SOL    HW2 2280   2.474   2.931   0.703
  750SOL     OW 2281   2.300   2.254   1.499
  750SOL    HW1 2282   2.382   2.198   1.508
  750SOL    HW2 2283   2.219   2.196   1.503
  751SOL     OW 2284   2.092   3.296   0.538
  751SOL    HW1 2285   2.066   3.392   0.538
  751SOL    HW2 2286   2.021   3.242   0.583
  752SOL     OW 2287   2.102   2.953   0.886
  752SOL    HW1 2288   2.116   2.869   0.938
  752SOL    HW2 2289   2.047   3.017   0.941
  753SOL     OW 2290   2.468   2.826   0.123
  753SOL    HW1 2291   2.475   2.910   0.069
  753SOL    HW2 2292   2.514   2.839   0.211
  754SOL     OW 2293   1.984   2.505   0.563
  754SOL    HW1 2294   1.939   2.417   0.580
  754SOL    HW2 2295   1.983   2.559   0.647
  755SOL     OW 2296   1.975   2.599   1.597
  755SOL    HW1 2297   2.063   2.586   1.642
  755SOL    HW2 2298   1.962   2.696   1.575
  756SOL     OW 2299   2.671   1.866   0.502
  756SOL    HW1 2300   2.711   1.957   0.493
  756SOL    HW2 2301   2.571   1.874   0.508
  757SOL     OW 2302   2.059   2.838   1.264
  757SOL    HW1 2303   2.148   2.793   1.250
  757SOL    HW2 2304   1.986   2.773   1.245
  758SOL     OW 2305   2.179   2.113   1.801
  758SOL    HW1 2306   2.250   2.184   1.807
  758SOL    HW2 2307   2.091   2.152   1.829
  759SOL     OW 2308   2.460   2.591   0.270
  759SOL    HW1 2309   2.484   2.660   0.202
  759SOL    HW2 2310   2.382   2.624   0.324
  760SOL     OW 2311   2.669   2.467   1.465
  760SOL    HW1 2312   2.622   2.464   1.554
  760SOL    HW2 2313   2.618   2.412   1.399
  761SOL     OW 2314   2.835   2.752   1.572
  761SOL    HW1 2315   2.881   2.668   1.543
  761SOL    HW2 2316   2.779   2.786   1.497
  762SOL     OW 2317   2.853   2.272   1.242
  762SOL    HW1 2318   2.776   2.306   1.296
  762SOL    HW2 2319   2.819   2.221   1.163
  763SOL     OW 2320   2.903   2.563   0.429
  763SOL    HW1 2321   2.929   2.559   0.525
  763SOL    HW2 2322   2.818   2.512   0.415
  764SOL     OW 2323   1.938   2.673   0.789
  764SOL    HW1 2324   2.037   2.661   0.798
  764SOL    HW2 2325   1.914   2.768   0.810
  765SOL     OW 2326   2.727   2.210   0.195
  765SOL    HW1 2327   2.786   2.273   0.146
  765SOL    HW2 2328   2.746   2.116   0.166
  766SOL     OW 2329   2.412   2.058   0.885
  766SOL    HW1 2330   2.407   2.053   0.985
  766SOL    HW2 2331   2.414   2.154   0.856
  767SOL     OW 2332   2.183   2.805   0.242
  767SOL    HW1 2333   2.265   2.844   0.200
  767SOL    HW2 2334   2.156   2.723   0.193
  768SOL     OW 2335   2.064   2.147   1.498
  768SOL    HW1 2336   1.984   2.207   1.485
  768SOL    HW2 2337   2.054   2.098   1.584
  769SOL     OW 2338   2.244   2.562   0.480
  769SOL    HW1 2339   2.289   2.472   0.477
  769SOL    HW2 2340   2.150   2.551   0.513
  770SOL     OW 2341   2.476   1.984   0.117
  770SOL    HW1 2342   2.574   1.962   0.124
  770SOL    HW2 2343   2.445   1.967   0.024
  771SOL     OW 2344   2.643   2.126   1.749
  771SOL    HW1 2345   2.710   2.065   1.792
  771SOL    HW2 2346   2.570   2.145   1.814
  772SOL     OW 2347   2.784   2.365   0.899
  772SOL    HW1 2348   2.759   2.356   0.803
  772SOL    HW2 2349   2.832   2.283   0.930
  773SOL     OW 2350   2.401   1.926   0.512
  773SOL    HW1 2351   2.320   1.927   0.570
  773SOL    HW2 2352   2.404   2.009   0.457
  774SOL     OW 2353   2.797   2.098   0.480
  774SOL    HW1 2354   2.749   2.139   0.402
  774SOL    HW2 2355   2.896   2.096   0.461
  775SOL     OW 2356   2.894   2.411   0.016
  775SOL    HW1 2357   2.853   2.493  -0.023
  775SOL    HW2 2358   2.958   2.437   0.089
  776SOL     OW 2359   1.940   2.418   1.386
  776SOL    HW1 2360   2.032   2.417   1.345
  776SOL    HW2 2361   1.934   2.492   1.453
  777SOL     OW 2362   2.423   2.084   1.147
  777SOL    HW1 2363   2.461   2.000   1.184
  777SOL    HW2 2364   2.335   2.103   1.191
  778SOL     OW 2365   2.728   2.316   0.642
  778SOL    HW1 2366   2.696   2.388   0.580
  778SOL    HW2 2367   2.752   2.235   0.589
  779SOL     OW 2368   2.879   1.901   0.753
  779SOL    HW1 2369   2.807   1.906   0.684
  779SOL    HW2 2370   2.855   1.832   0.822
  780SOL     OW 2371   2.389   2.118   0.328
  780SOL    HW1 2372   2.416   2.059   0.253
  780SOL    HW2 2373   2.389   2.213   0.297
  781SOL     OW 2374   2.777   1.951   1.402
  781SOL    HW1 2375   2.802   1.931   1.307
  781SOL    HW2 2376   2.849   2.007   1.444
  782SOL     OW 2377   2.272   2.675   1.251
  782SOL    HW1 2378   2.358   2.687   1.301
  782SOL    HW2 2379   2.230   2.588   1.278
  783SOL     OW 2380   2.428   2.399   0.865
  783SOL    HW1 2381   2.440   2.465   0.791
  783SOL    HW2 2382   2.474   2.433   0.948
  784SOL     OW 2383   2.264   2.613   1.598
  784SOL    HW1 2384   2.332   2.668   1.551
  784SOL    HW2 2385   2.304   2.525   1.625
  785SOL     OW 2386   2.875   1.967   1.770
  785SOL    HW1 2387   2.881   2.052   1.718
  785SOL    HW2 2388   2.907   1.891   1.713
  786SOL     OW 2389   2.366   1.912   1.740
  786SOL    HW1 2390   2.324   1.855   1.670
  786SOL    HW2 2391   2.300   1.981   1.772
  787SOL     OW 2392   2.435   2.732   1.029
  787SOL    HW1 2393   2.479   2.821   1.020
  787SOL    HW2 2394   2.372   2.732   1.106
  788SOL     OW 2395   3.071   2.387   0.275
  788SOL    HW1 2396   3.084   2.303   0.329
  788SOL    HW2 2397   3.042   2.461   0.335
  789SOL     OW 2398   2.169   2.075   1.231
  789SOL    HW1 2399   2.146   2.112   1.321
  789SOL    HW2 2400   2.139   1.980   1.225
  790SOL     OW 2401   2.594   2.496   1.064
  790SOL    HW1 2402   2.653   2.470   0.988
  790SOL    HW2 2403   2.566   2.592   1.053
  791SOL     OW 2404   2.169   1.925   0.618
  791SOL    HW1 2405   2.158   2.019   0.651
  791SOL    HW2 2406   2.164   1.862   0.695
  792SOL     OW 2407   2.885   2.628   0.966
  792SOL    HW1 2408   2.900   2.649   1.062
  792SOL    HW2 2409   2.855   2.533   0.957
  793SOL     OW 2410   2.212   2.760   1.804
  793SOL    HW1 2411   2.288   2.804   1.852
  793SOL    HW2 2412   2.247   2.713   1.722
  794SOL     OW 2413   2.181   2.672   0.949
  794SOL    HW1 2414   2.274   2.708   0.954
  794SOL    HW2 2415   2.175   2.587   1.001
  795SOL     OW 2416   2.201   2.371   1.006
  795SOL    HW1 2417   2.149   2.288   0.989
  795SOL    HW2 2418   2.278   2.376   0.942
  796SOL     OW 2419   3.000   2.242   1.678
  796SOL    HW1 2420   2.955   2.305   1.742
  796SOL    HW2 2421   3.093   2.273   1.661
  797SOL     OW 2422   3.022   2.069   1.477
  797SOL    HW1 2423   3.022   2.133   1.554
  797SOL    HW2 2424   3.050   2.117   1.394
  798SOL     OW 2425   2.864   2.658   1.238
  798SOL    HW1 2426   2.905   2.626   1.324
  798SOL    HW2 2427   2.768   2.631   1.235
  799SOL     OW 2428   1.902   2.406   1.114
  799SOL    HW1 2429   1.987   2.373   1.073
  799SOL    HW2 2430   1.915   2.421   1.212
  800SOL     OW 2431   2.051   2.382   1.722
  800SOL    HW1 2432   2.110   2.342   1.652
  800SOL    HW2 2433   1.993   2.453   1.681
  801SOL     OW 2434   2.677   2.434   0.325
  801SOL    HW1 2435   2.684   2.345   0.279
  801SOL    HW2 2436   2.583   2.468   0.317
  802SOL     OW 2437   2.533   2.326   1.269
  802SOL    HW1 2438   2.499   2.237   1.239
  802SOL    HW2 2439   2.559   2.380   1.189
  803SOL     OW 2440   2.335   2.362   0.191
  803SOL    HW1 2441   2.396   2.442   0.195
  803SOL    HW2 2442   2.240   2.393   0.198
  804SOL     OW 2443   2.021   2.999   1.466
  804SOL    HW1 2444   2.043   2.938   1.542
  804SOL    HW2 2445   2.031   2.950   1.380
  805SOL     OW 2446   3.164   2.717   0.309
  805SOL    HW1 2447   3.078   2.686   0.351
  805SOL    HW2 2448   3.160   2.703   0.210
  806SOL     OW 2449   2.765   1.948   0.133
  806SOL    HW1 2450   2.816   1.949   0.047
  806SOL    HW2 2451   2.821   1.906   0.204
  807SOL     OW 2452   2.125   2.188   0.720
  807SOL    HW1 2453   2.046   2.239   0.686
  807SOL    HW2 2454   2.116   2.173   0.818
  808SOL     OW 2455   2.684   2.864   1.372
  808SOL    HW1 2456   2.724   2.863   1.280
  808SOL    HW2 2457   2.694   2.956   1.412
  809SOL     OW 2458   2.778   2.772   0.291
  809SOL    HW1 2459   2.841   2.810   0.223
  809SOL    HW2 2460   2.818   2.689   0.330
  810SOL     OW 2461   2.876   2.098   0.971
  810SOL    HW1 2462   2.868   2.062   0.878
  810SOL    HW2 2463   2.874   2.022   1.036
  811SOL     OW 2464   1.967   2.875   1.726
  811SOL    HW1 2465   1.890   2.842   1.780
  811SOL    HW2 2466   2.052   2.845   1.768
  812SOL     OW 2467   2.534   2.065   1.489
  812SOL    HW1 2468   2.624   2.049   1.449
  812SOL    HW2 2469   2.542   2.070   1.588
  813SOL     OW 2470   1.934   2.028   0.318
  813SOL    HW1 2471   1.917   2.111   0.264
  813SOL    HW2 2472   2.024   1.991   0.296
  814SOL     OW 2473   2.475   2.704   1.431
  814SOL    HW1 2474   2.531   2.785   1.414
  814SOL    HW2 2475   2.534   2.624   1.434
  815SOL     OW 2476   2.578   2.427   1.708
  815SOL    HW1 2477   2.597   2.492   1.782
  815SOL    HW2 2478   2.638   2.347   1.717
  816SOL     OW 2479   2.456   2.607   0.652
  816SOL    HW1 2480   2.506   2.692   0.633
  816SOL    HW2 2481   2.368   2.609   0.604
  817SOL     OW 2482   2.721   2.818   0.861
  817SOL    HW1 2483   2.775   2.749   0.909
  817SOL    HW2 2484   2.689   2.887   0.927
  818SOL     OW 2485   2.945   2.846   0.087
  818SOL    HW1 2486   2.922   2.899   0.005
  818SOL    HW2 2487   3.026   2.790   0.068
  819SOL     OW 2488   2.290   2.286   0.520
  819SOL    HW1 2489   2.320   2.214   0.458
  819SOL    HW2 2490   2.251   2.246   0.603
  820SOL     OW 2491   2.179   2.409   1.280
  820SOL    HW1 2492   2.217   2.350   1.352
  820SOL    HW2 2493   2.219   2.383   1.192
  821SOL     OW 2494   2.863   1.896   1.154
  821SOL    HW1 2495   2.800   1.824   1.123
  821SOL    HW2 2496   2.956   1.860   1.154
  822SOL     OW 2497   1.901   2.939   0.300
  822SOL    HW1 2498   2.000   2.928   0.291
  822SOL    HW2 2499   1.861   2.853   0.332
  823SOL     OW 2500   2.092   2.490   1.975
  823SOL    HW1 2501   1.999   2.488   2.012
  823SOL    HW2 2502   2.093   2.451   1.883
  824SOL     OW 2503   2.087   2.137   2.858
  824SOL    HW1 2504   2.122   2.120   2.950
  824SOL    HW2 2505   1.999   2.092   2.846
  825SOL     OW 2506   1.881   2.230   2.509
  825SOL    HW1 2507   1.799   2.273   2.548
  825SOL    HW2 2508   1.853   2.157   2.446
  826SOL     OW 2509   2.630   3.006   2.885
  826SOL    HW1 2510   2.552   3.023   2.945
  826SOL    HW2 2511   2.664   3.093   2.849
  827SOL     OW 2512   2.547   2.874   2.527
  827SOL    HW1 2513   2.616   2.858   2.597
  827SOL    HW2 2514   2.474   2.931   2.565
  828SOL     OW 2515   2.092   3.296   2.400
  828SOL    HW1 2516   2.066   3.392   2.400
  828SOL    HW2 2517   2.021   3.242   2.445
  829SOL     OW 2518   2.102   2.953   2.748
  829SOL    HW1 2519   2.116   2.869   2.800
  829SOL    HW2 2520   2.047   3.017   2.803
  830SOL     OW 2521   2.468   2.826   1.985
  830SOL    HW1 2522   2.475   2.910   1.931
  830SOL    HW2 2523   2.514   2.839   2.073
  831SOL     OW 2524   1.984   2.505   2.425
  831SOL    HW1 2525   1.939   2.417   2.442
  831SOL    HW2 2526   1.983   2.559   2.509
  832SOL     OW 2527   2.671   1.866   2.364
  832SOL    HW1 2528   2.711   1.957   2.355
  832SOL    HW2 2529   2.571   1.874   2.370
  833SOL     OW 2530   2.460   2.591   2.132
  833SOL    HW1 2531   2.484   2.660   2.064
  833SOL    HW2 2532   2.382   2.624   2.186
  834SOL     OW 2533   2.903   2.563   2.291
  834SOL    HW1 2534   2.929   2.559   2.387
  834SOL    HW2 2535   2.818   2.512   2.277
  835SOL     OW 2536   1.938   2.673   2.651
  835SOL    HW1 2537   2.037   2.661   2.660
  835SOL    HW2 2538   1.914   2.768   2.672
  836SOL     OW 2539   2.727   2.210   2.057
  836SOL    HW1 2540   2.786   2.273   2.008
  836SOL    HW2 2541   2.746   2.116   2.028
  837SOL     OW 2542   2.412   2.058   2.747
  837SOL    HW1 2543   2.407   2.053   2.847
  837SOL    HW2 2544   2.414   2.154   2.718
  838SOL     OW 2545   2.183   2.805   2.104
  838SOL    HW1 2546   2.265   2.844   2.062
  838SOL    HW2 2547   2.156   2.723   2.055
  839SOL     OW 2548   2.244   2.562   2.342
  839SOL    HW1 2549   2.289   2.472   2.339
  839SOL    HW2 2550   2.150   2.551   2.375
  840SOL     OW 2551   2.476   1.984   1.979
  840SOL    HW1 2552   2.574   1.962   1.986
  840SOL    HW2 2553   2.445   1.967   1.886
  841SOL     OW 2554   2.784   2.365   2.761
  841SOL    HW1 2555   2.759   2.356   2.665
  841SOL    HW2 2556   2.832   2.283   2.792
  842SOL     OW 2557   2.401   1.926   2.374
  842SOL    HW1 2558   2.320   1.927   2.432
  842SOL    HW2 2559   2.404   2.009   2.319
  843SOL     OW 2560   2.159   1.897   2.033
  843SOL    HW1 2561   2.208   1.981   2.012
  843SOL    HW2 2562   2.221   1.832   2.078
  844SOL     OW 2563   2.797   2.098   2.342
  844SOL    HW1 2564   2.749   2.139   2.264
  844SOL    HW2 2565   2.896   2.096   2.323
  845SOL     OW 2566   2.894   2.411   1.878
  845SOL    HW1 2567   2.853   2.493   1.839
  845SOL    HW2 2568   2.958   2.437   1.951
  846SOL     OW 2569   2.728   2.316   2.504
  846SOL    HW1 2570   2.696   2.388   2.442
  846SOL    HW2 2571   2.752   2.235   2.451
  847SOL     OW 2572   2.879   1.901   2.615
  847SOL    HW1 2573   2.807   1.906   2.546
  847SOL    HW2 2574   2.855   1.832   2.684
  848SOL     OW 2575   2.389   2.118   2.190
  848SOL    HW1 2576   2.416   2.059   2.115
  848SOL    HW2 2577   2.389   2.213   2.159
  849SOL     OW 2578   2.428   2.399   2.727
  849SOL    HW1 2579   2.440   2.465   2.653
  849SOL    HW2 2580   2.474   2.433   2.810
  850SOL     OW 2581   2.435   2.732   2.891
  850SOL    HW1 2582   2.479   2.821   2.882
  850SOL    HW2 2583   2.372   2.732   2.968
  851SOL     OW 2584   3.071   2.387   2.137
  851SOL    HW1 2585   3.084   2.303   2.191
  851SOL    HW2 2586   3.042   2.461   2.197
  852SOL     OW 2587   2.169   2.075   3.093
  852SOL    HW1 2588   2.146   2.112   3.183
  852SOL    HW2 2589   2.139   1.980   3.087
  853SOL     OW 2590   2.594   2.496   2.926
  853SOL    HW1 2591   2.653   2.470   2.850
  853SOL    HW2 2592   2.566   2.592   2.915
  854SOL     OW 2593   2.169   1.925   2.480
  854SOL    HW1 2594   2.158   2.019   2.513
  854SOL    HW2 2595   2.164   1.862   2.557
  855SOL     OW 2596   2.885   2.628   2.828
  855SOL    HW1 2597   2.900   2.649   2.924
  855SOL    HW2 2598   2.855   2.533   2.819
  856SOL     OW 2599   2.181   2.672   2.811
  856SOL    HW1 2600   2.274   2.708   2.816
  856SOL    HW2 2601   2.175   2.587   2.863
  857SOL     OW 2602   2.201   2.371   2.868
  857SOL    HW1 2603   2.149   2.288   2.851
  857SOL    HW2 2604   2.278   2.376   2.804
  858SOL     OW 2605   2.864   2.658   3.100
  858SOL    HW1 2606   2.905   2.626   3.186
  858SOL    HW2 2607   2.768   2.631   3.097
  859SOL     OW 2608   2.677   2.434   2.187
  859SOL    HW1 2609   2.684   2.345   2.141
  859SOL    HW2 2610   2.583   2.468   2.179
  860SOL     OW 2611   2.533   2.326   3.131
  860SOL    HW1 2612   2.499   2.237   3.101
  860SOL    HW2 2613   2.559   2.380   3.051
  861SOL     OW 2614   2.335   2.362   2.053
  861SOL    HW1 2615   2.396   2.442   2.057
  861SOL    HW2 2616   2.240   2.393   2.060
  862SOL     OW 2617   3.164   2.717   2.171
  862SOL    HW1 2618   3.078   2.686   2.213
  862SOL    HW2 2619   3.160   2.703   2.072
  863SOL     OW 2620   2.125   2.188   2.582
  863SOL    HW1 2621   2.046   2.239   2.548
  863SOL    HW2 2622   2.116   2.173   2.680
  864SOL     OW 2623   2.778   2.772   2.153
  864SOL    HW1 2624   2.841   2.810   2.085
  864SOL    HW2 2625   2.818   2.689   2.192
  865SOL     OW 2626   2.876   2.098   2.833
  865SOL    HW1 2627   2.868   2.062   2.740
  865SOL    HW2 2628   2.874   2.022   2.898
  866SOL     OW 2629   1.937   2.207   1.895
  866SOL    HW1 2630   1.845   2.179   1.866
  866SOL    HW2 2631   1.968   2.284   1.839
  867SOL     OW 2632   1.934   2.028   2.180
  867SOL    HW1 2633   1.917   2.111   2.126
  867SOL    HW2 2634   2.024   1.991   2.158
  868SOL     OW 2635   2.456   2.607   2.514
  868SOL    HW1 2636   2.506   2.692   2.495
  868SOL    HW2 2637   2.368   2.609   2.466
  869SOL     OW 2638   2.721   2.818   2.723
  869SOL    HW1 2639   2.775   2.749   2.771
  869SOL    HW2 2640   2.689   2.887   2.789
  870SOL     OW 2641   2.945   2.846   1.949
  870SOL    HW1 2642   2.922   2.899   1.867
  870SOL    HW2 2643   3.026   2.790   1.930
  871SOL     OW 2644   2.290   2.286   2.382
  871SOL    HW1 2645   2.320   2.214   2.320
  871SOL    HW2 2646   2.251   2.246   2.465
  872SOL     OW 2647   1.901   2.939   2.162
  872SOL    HW1 2648   2.000   2.928   2.153
  872SOL    HW2 2649   1.861   2.853   2.194
   3.00584   3.00584   3.00584
