; estradiol_GMX.top created by acpype (v: 2023.10.27) on Mon Feb  9 17:45:57 2026

[ defaults ]
; nbfunc        comb-rule       gen-pairs       fudgeLJ fudgeQQ
1               2               yes             0.5     0.8333333333

; Include estradiol_GMX.itp topology
#include "estradiol_GMX.itp"

; Ligand position restraints
#ifdef POSRES_LIG
#include "posre_estradiol.itp"
#endif

[ system ]
 estradiol

[ molecules ]
; Compound        nmols
 estradiol        1     
