%VERSION  VERSION_STAMP = V0001.000  DATE = 02/09/26  17:46:09                  
%FLAG TITLE                                                                     
%FORMAT(20a4)                                                                   
5757                                                                            
%FLAG POINTERS                                                                  
%FORMAT(10I8)                                                                   
      44       7      24      23      56      36     108      56       0       0
     291       1      23      36      56      14      25      13       9       0
       0       0       0       0       0       0       0       0      44       0
       0
%FLAG ATOM_NAME                                                                 
%FORMAT(20a4)                                                                   
O   O1  C   C1  C2  C3  C4  C5  C6  C7  C8  C9  C10 C11 C12 C13 C14 C15 C16 C17 
H   H1  H2  H3  H4  H5  H6  H7  H8  H9  H10 H11 H12 H13 H14 H15 H16 H17 H18 H19 
H20 H21 H22 H23 
%FLAG CHARGE                                                                    
%FORMAT(5E16.8)                                                                 
 -1.07839571E+01 -9.09474993E+00 -8.01781200E-01 -1.19720511E+00 -8.69203710E-01
 -1.53067320E-01  2.57116653E+00 -1.15529382E+00 -1.24640532E+00 -1.30107222E+00
 -2.13929802E+00 -1.33751682E+00 -1.40493933E+00 -1.80947439E+00 -6.76047330E-01
 -6.79691790E-01 -1.65822930E+00 -2.95201260E+00 -3.91779450E+00  2.22494283E+00
  8.32759110E-01  1.16076051E+00  9.78537510E-01  6.14091510E-01  8.23647960E-01
  8.23647960E-01  8.23647960E-01  8.23647960E-01  7.87203360E-01  7.87203360E-01
  8.60092560E-01  8.60092560E-01  8.05425660E-01  8.05425660E-01  7.53801884E-01
  7.53801884E-01  7.53801884E-01  9.60315210E-01  9.60315210E-01  7.25247540E+00
  2.44178820E+00  2.69690040E+00  2.40534360E+00  7.61692140E+00
%FLAG ATOMIC_NUMBER                                                             
%FORMAT(10I8)                                                                   
       8       8       6       6       6       6       6       6       6       6
       6       6       6       6       6       6       6       6       6       6
       1       1       1       1       1       1       1       1       1       1
       1       1       1       1       1       1       1       1       1       1
       1       1       1       1
%FLAG MASS                                                                      
%FORMAT(5E16.8)                                                                 
  1.60000000E+01  1.60000000E+01  1.20100000E+01  1.20100000E+01  1.20100000E+01
  1.20100000E+01  1.20100000E+01  1.20100000E+01  1.20100000E+01  1.20100000E+01
  1.20100000E+01  1.20100000E+01  1.20100000E+01  1.20100000E+01  1.20100000E+01
  1.20100000E+01  1.20100000E+01  1.20100000E+01  1.20100000E+01  1.20100000E+01
  1.00800000E+00  1.00800000E+00  1.00800000E+00  1.00800000E+00  1.00800000E+00
  1.00800000E+00  1.00800000E+00  1.00800000E+00  1.00800000E+00  1.00800000E+00
  1.00800000E+00  1.00800000E+00  1.00800000E+00  1.00800000E+00  1.00800000E+00
  1.00800000E+00  1.00800000E+00  1.00800000E+00  1.00800000E+00  1.00800000E+00
  1.00800000E+00  1.00800000E+00  1.00800000E+00  1.00800000E+00
%FLAG ATOM_TYPE_INDEX                                                           
%FORMAT(10I8)                                                                   
       1       1       2       2       2       2       2       2       2       2
       2       2       2       3       2       3       3       3       3       3
       4       4       4       5       4       4       4       4       4       4
       4       4       4       4       4       4       4       4       4       6
       7       7       7       6
%FLAG NUMBER_EXCLUDED_ATOMS                                                     
%FORMAT(10I8)                                                                   
      11       8      25      26      23      20      17      15      10      11
       8      11       7      15      10      11       6       7       5       4
       3       3       2       3       3       2       3       2       1       1
       1       1       3       2       2       1       1       1       1       1
       1       1       1       1
%FLAG NONBONDED_PARM_INDEX                                                      
%FORMAT(10I8)                                                                   
       1       2       4       7      11      16      22       2       3       5
       8      12      17      23       4       5       6       9      13      18
      24       7       8       9      10      14      19      25      11      12
      13      14      15      20      26      16      17      18      19      20
      21      27      22      23      24      25      26      27      28
%FLAG RESIDUE_LABEL                                                             
%FORMAT(20a4)                                                                   
UNL 
%FLAG RESIDUE_POINTER                                                           
%FORMAT(10I8)                                                                   
       1
%FLAG BOND_FORCE_CONSTANT                                                       
%FORMAT(5E16.8)                                                                 
  2.89690000E+02  5.35510000E+02  3.48550000E+02  2.20100000E+02  2.26470000E+02
  2.27640000E+02  3.46430000E+02  2.26810000E+02  3.42750000E+02  2.39730000E+02
  3.43780000E+02  3.45250000E+02  3.54250000E+02  3.60690000E+02
%FLAG BOND_EQUIL_VALUE                                                          
%FORMAT(5E16.8)                                                                 
  1.41940000E+00  9.72500000E-01  1.36440000E+00  1.54830000E+00  1.53890000E+00
  1.53720000E+00  1.09540000E+00  1.53840000E+00  1.09790000E+00  1.52030000E+00
  1.09720000E+00  1.09620000E+00  1.39860000E+00  1.08600000E+00
%FLAG ANGLE_FORCE_CONSTANT                                                      
%FORMAT(5E16.8)                                                                 
  7.58300000E+01  5.64700000E+01  7.88600000E+01  5.92600000E+01  6.18400000E+01
  4.26500000E+01  4.26500000E+01  6.01700000E+01  4.32400000E+01  4.30600000E+01
  5.93300000E+01  4.38400000E+01  6.01800000E+01  6.02800000E+01  4.32300000E+01
  6.06600000E+01  6.54000000E+01  6.03300000E+01  4.36900000E+01  6.36700000E+01
  4.49000000E+01  6.74100000E+01  3.59300000E+01  3.59100000E+01  3.58000000E+01
%FLAG ANGLE_EQUIL_VALUE                                                         
%FORMAT(5E16.8)                                                                 
  1.94813735E+00  1.92457539E+00  2.09265067E+00  1.98531288E+00  1.81217614E+00
  1.94028336E+00  1.94028336E+00  1.93801443E+00  1.90834382E+00  1.92911325E+00
  1.98269488E+00  1.85738019E+00  1.93836350E+00  1.95424600E+00  1.91026369E+00
  2.10486798E+00  1.87047016E+00  1.92963685E+00  1.91061275E+00  2.09474507E+00
  2.09230160E+00  1.89507931E+00  1.86087085E+00  1.87134283E+00  1.88024401E+00
%FLAG DIHEDRAL_FORCE_CONSTANT                                                   
%FORMAT(5E16.8)                                                                 
  1.80000000E-01  9.00000000E-02  3.62500000E+00  5.20000000E-01  1.30000000E-01
  6.00000000E-02  1.55555556E-01  2.40000000E-01  0.00000000E+00  8.55000000E-01
  1.20000000E-01  1.23000000E-01  1.10000000E+00
%FLAG DIHEDRAL_PERIODICITY                                                      
%FORMAT(5E16.8)                                                                 
  3.00000000E+00  3.00000000E+00  2.00000000E+00  3.00000000E+00  3.00000000E+00
  3.00000000E+00  3.00000000E+00  2.00000000E+00  1.00000000E+00  2.00000000E+00
  3.00000000E+00  3.00000000E+00  2.00000000E+00
%FLAG DIHEDRAL_PHASE                                                            
%FORMAT(5E16.8)                                                                 
  0.00000000E+00  0.00000000E+00  3.14159400E+00  0.00000000E+00  0.00000000E+00
  0.00000000E+00  0.00000000E+00  3.14159400E+00  0.00000000E+00  3.14159400E+00
  0.00000000E+00  0.00000000E+00  3.14159400E+00
%FLAG SCEE_SCALE_FACTOR                                                         
%FORMAT(5E16.8)                                                                 
  1.20000000E+00  1.20000000E+00  1.20000000E+00  1.20000000E+00  1.20000000E+00
  1.20000000E+00  1.20000000E+00  1.20000000E+00  1.20000000E+00  1.20000000E+00
  1.20000000E+00  1.20000000E+00  0.00000000E+00
%FLAG SCNB_SCALE_FACTOR                                                         
%FORMAT(5E16.8)                                                                 
  2.00000000E+00  2.00000000E+00  2.00000000E+00  2.00000000E+00  2.00000000E+00
  2.00000000E+00  2.00000000E+00  2.00000000E+00  2.00000000E+00  2.00000000E+00
  2.00000000E+00  2.00000000E+00  0.00000000E+00
%FLAG SOLTY                                                                     
%FORMAT(5E16.8)                                                                 
  0.00000000E+00  0.00000000E+00  0.00000000E+00  0.00000000E+00  0.00000000E+00
  0.00000000E+00  0.00000000E+00  0.00000000E+00  0.00000000E+00
%FLAG LENNARD_JONES_ACOEF                                                       
%FORMAT(5E16.8)                                                                 
  5.03152404E+05  7.18991463E+05  1.02073671E+06  5.92438683E+05  8.43969952E+05
  6.96551276E+05  6.80216136E+04  1.00235148E+05  8.12662403E+04  7.94617769E+03
  4.69084694E+04  6.97998263E+04  5.63013422E+04  5.22955465E+03  3.39005767E+03
  1.74176419E+02  3.03553352E+02  2.25372434E+02  8.80612241E+00  4.36660257E+00
  1.10360882E-05  6.30298721E+04  9.27554496E+04  7.52549148E+04  7.41026906E+03
  4.88692384E+03  8.53132435E+00  6.90855956E+03
%FLAG LENNARD_JONES_BCOEF                                                       
%FORMAT(5E16.8)                                                                 
  4.32634597E+02  5.36620538E+02  6.63431737E+02  4.76608379E+02  5.90251928E+02
  5.24668528E+02  1.09393126E+02  1.37787728E+02  1.21392023E+02  2.57122925E+01
  9.08431526E+01  1.14981426E+02  1.01040256E+02  2.08590256E+01  1.67944276E+01
  3.81654050E+00  5.22789272E+00  4.40751799E+00  5.90150328E-01  4.15568027E-01
  4.55498033E-04  9.87712192E+01  1.24325688E+02  1.09570372E+02  2.32899892E+01
  1.89134207E+01  5.44840215E-01  2.10929191E+01
%FLAG BONDS_INC_HYDROGEN                                                        
%FORMAT(10I8)                                                                   
       0     117       2       3     129       2       9      60       7      12
      63       9      15      66       9      18      69      11      21      72
       9      21      75       9      24      78       7      24      81       7
      27      84       9      27      87       9      30      90       7      30
      93       7      33      96       9      33      99       9      36     102
      12      36     105      12      36     108      12      42     111       9
      42     114       9      48     120      14      51     123      14      54
     126      14
%FLAG BONDS_WITHOUT_HYDROGEN                                                    
%FORMAT(10I8)                                                                   
       0      18       1       3      57       3       6       9       4       6
      18       4       6      21       5       6      36       6       9      12
       5       9      24       4      12      15       8      12      33       8
      15      27       8      15      39      10      18      30       4      21
      27       8      24      30       4      33      42       8      39      45
      13      39      48      13      42      45      10      45      51      13
      48      54      13      51      57      13      54      57      13
%FLAG ANGLES_INC_HYDROGEN                                                       
%FORMAT(10I8)                                                                   
       0      18      69       2       6       9      60       6       6      18
      69       7       6      21      72       9       6      21      75       9
       6      36     102      10       6      36     105      10       6      36
     108      10       9      12      63       9       9      24      78       6
       9      24      81       6      12       9      60      12      12      15
      66      15      12      33      96      15      12      33      99      15
      15      12      63      15      15      27      84      15      15      27
      87      15      18       0     117      17      18      30      90       6
      18      30      93       6      21      27      84      15      21      27
      87      15      24       9      60       6      24      30      90       6
      24      30      93       6      27      15      66      15      27      21
      72      15      27      21      75      15      30      18      69       7
      30      24      78       6      30      24      81       6      33      12
      63      15      33      42     111      15      33      42     114      15
      39      15      66      19      39      48     120      21      42      33
      96      15      42      33      99      15      45      42     111      19
      45      42     114      19      45      51     123      21      48      54
     126      21      54      48     120      21      57       3     129      22
      57      51     123      21      57      54     126      21      72      21
      75      23      78      24      81      24      84      27      87      23
      90      30      93      24      96      33      99      23     102      36
     105      25     102      36     108      25     105      36     108      25
     111      42     114      23
%FLAG ANGLES_WITHOUT_HYDROGEN                                                   
%FORMAT(10I8)                                                                   
       0      18       6       1       0      18      30       1       3      57
      51       3       3      57      54       3       6       9      12       4
       6       9      24       5       6      18      30       5       6      21
      27       8       9       6      18       5       9       6      21       4
       9       6      36      11       9      12      15       8       9      12
      33       8       9      24      30       5      12       9      24       4
      12      15      27      13      12      15      39      14      12      33
      42      13      15      12      33      13      15      27      21      13
      15      39      45      16      15      39      48      16      18       6
      21       4      18       6      36      11      18      30      24       5
      21       6      36      18      27      15      39      14      33      42
      45      14      39      45      42      16      39      45      51      20
      39      48      54      20      42      45      51      16      45      39
      48      20      45      51      57      20      48      54      57      20
      51      57      54      20
%FLAG DIHEDRALS_INC_HYDROGEN                                                    
%FORMAT(10I8)                                                                   
       0      18      30      90       2       0      18      30      93       2
       3      57      51     123       3       3      57      54     126       3
       6       9      12      63       5       6       9      24      78       5
       6       9      24      81       5     117       0      18       6       6
       6      18      30      90       5       6      18      30      93       5
       6      21      27      84       5       6      21      27      87       5
       9       6      18      69       7       9       6      21      72       5
       9       6      21      75       5       9       6      36     102       5
       9       6      36     105       5       9       6      36     108       5
       9      12      15      66       5       9      12      33      96       5
       9      12      33      99       5       9      24      30      90       5
       9      24      30      93       5      12       9      24      78       5
      12       9      24      81       5      12      15      27      84       5
      12      15      27      87       5      12      33      42     111       5
      12      33      42     114       5      15      12       9      60       5
      15      12      33      96       5      15      12      33      99       5
      15      27      21      72       5      15      27      21      75       5
      15      39      48     120       3      18       6       9      60       5
      18       6      21      72       5      18       6      21      75       5
      18       6      36     102       5      18       6      36     105       5
      18       6      36     108       5      18      30      24      78       5
      18      30      24      81       5      21       6       9      60       5
      21       6      18      69       7      21       6      36     102       5
      21       6      36     105       5      21       6      36     108       5
      21      27      15      66       5      24       9      12      63       5
      24      30      18      69       7      27      15      12      63       5
     117       0      18      30       6      30      24       9      60       5
      33      12       9      60       5      33      12      15      66       5
      36       6       9      60       5      36       6      18      69       7
      36       6      21      72       5      36       6      21      75       5
      39      15      12      63       7      39      15      27      84       7
      39      15      27      87       7      39      45      42     111       9
      39      45      42     114       9      39      45      51     123       3
      39      48      54     126       3      42      33      12      63       5
      42      45      51     123       3      45      39      15      66       9
      45      39      48     120       3      45      42      33      96       7
      45      42      33      99       7      48      39      15      66       9
      51      45      42     111       9      51      45      42     114       9
      51      57       3     129      10      51      57      54     126       3
      54      57       3     129      10      54      57      51     123       3
      57      54      48     120       3      60       9      12      63      11
      60       9      24      78      11      60       9      24      81      11
      63      12      15      66      11      63      12      33      96      11
      63      12      33      99      11      66      15      27      84      11
      66      15      27      87      11     117       0      18      69      12
      69      18      30      90       7      69      18      30      93       7
      72      21      27      84      11      72      21      27      87      11
      75      21      27      84      11      75      21      27      87      11
      78      24      30      90      11      78      24      30      93      11
      81      24      30      90      11      81      24      30      93      11
      96      33      42     111      11      96      33      42     114      11
      99      33      42     111      11      99      33      42     114      11
     120      48      54     126       3      39      54     -48    -120      13
      45      57     -51    -123      13      48      57     -54    -126      13
%FLAG DIHEDRALS_WITHOUT_HYDROGEN                                                
%FORMAT(10I8)                                                                   
       0      18       6       9       1       0      18       6      21       1
       0      18       6      36       1       0      18      30      24       1
       3      57      51      45       3       3      57      54      48       3
       6       9      12      15       4       6       9      12      33       4
       6       9     -24      30       4       6      18     -30      24       4
       6      21     -27      15       4       9       6     -18      30       4
       9       6      21      27       4       9      12     -15      27       4
       9      12      15      39       7       9      12      33      42       4
       9      24     -30      18       4      12       9       6      18       4
      12       9       6      21       4      12       9       6      36       4
      12       9      24      30       4      12      15     -27      21       4
      12      15      39      45       8      12      15      39      48       8
      12      33     -42      45       7      15      12       9      24       4
      15      12      33      42       4      15      39     -45      42       3
      15      39      45      51       3      15      39      48      54       3
      18       6      -9      24       4      18       6      21      27       4
      21       6       9      24       4      21       6      18      30       4
      21      27      15      39       7      24       9       6      36       4
      24       9      12      33       4      27      15      12      33       4
      27      15      39      45       8      27      15      39      48       8
      27      21       6      36       4      30      18       6      36       4
      33      12      15      39       7      33      42     -45      39       8
      33      42      45      51       8      39      45      51      57       3
      39      48     -54      57       3      42      45      39      48       3
      42      45      51      57       3      45      39      48      54       3
      45      51     -57      54       3      48      39      45      51       3
      48      54     -57      51       3      15      45     -39     -48      13
      42      39     -45     -51      13      51      54     -57      -3      13
%FLAG EXCLUDED_ATOMS_LIST                                                       
%FORMAT(10I8)                                                                   
       3       4       7       8       9      11      13      24      31      32
      40      16      17      18      19      20      42      43      44       4
       5       6       7       8       9      10      11      12      13      21
      22      24      25      26      27      28      29      30      31      32
      35      36      37      40       5       6       7       8       9      10
      11      12      13      14      15      21      22      23      24      25
      26      27      28      31      32      33      34      35      36      37
       6       7       8       9      10      11      12      13      14      15
      16      17      21      22      23      27      28      29      30      33
      34      38      39       8       9      10      12      14      15      16
      17      18      19      21      22      23      25      26      29      30
      33      34      41       8       9      10      11      13      21      24
      25      26      27      28      31      32      35      36      37      40
       9      10      11      13      14      21      23      24      25      26
      29      30      35      36      37      11      12      13      21      22
      24      27      28      31      32      12      13      14      16      17
      22      23      25      26      29      30      13      21      24      27
      28      31      32      40      14      15      16      18      21      22
      23      33      34      38      39      21      24      25      26      35
      36      37      15      16      17      18      19      20      22      23
      29      30      38      39      41      42      43      16      17      18
      20      22      33      34      38      39      42      17      18      19
      20      23      33      34      38      39      41      42      18      19
      20      23      41      43      19      20      38      39      42      43
      44      20      41      42      43      44      41      42      43      44
      22      27      28      23      33      34      29      30      31      32
      40      26      29      30      29      30      28      31      32      31
      32      30       0      32       0      34      38      39      38      39
      36      37      37       0      39       0       0      43       0       0
       0
%FLAG HBOND_ACOEF                                                               
%FORMAT(5E16.8)                                                                 

%FLAG HBOND_BCOEF                                                               
%FORMAT(5E16.8)                                                                 

%FLAG HBCUT                                                                     
%FORMAT(5E16.8)                                                                 

%FLAG AMBER_ATOM_TYPE                                                           
%FORMAT(20a4)                                                                   
oh  oh  c5  c5  c6  c6  c5  c6  c5  c6  c5  c6  c3  ca  c6  ca  ca  ca  ca  ca  
hc  hc  hc  h1  hc  hc  hc  hc  hc  hc  hc  hc  hc  hc  hc  hc  hc  hc  hc  ho  
ha  ha  ha  ho  
%FLAG TREE_CHAIN_CLASSIFICATION                                                 
%FORMAT(20a4)                                                                   
BLA BLA BLA BLA BLA BLA BLA BLA BLA BLA BLA BLA BLA BLA BLA BLA BLA BLA BLA BLA 
BLA BLA BLA BLA BLA BLA BLA BLA BLA BLA BLA BLA BLA BLA BLA BLA BLA BLA BLA BLA 
BLA BLA BLA BLA 
%FLAG JOIN_ARRAY                                                                
%FORMAT(10I8)                                                                   
       0       0       0       0       0       0       0       0       0       0
       0       0       0       0       0       0       0       0       0       0
       0       0       0       0       0       0       0       0       0       0
       0       0       0       0       0       0       0       0       0       0
       0       0       0       0
%FLAG IROTAT                                                                    
%FORMAT(10I8)                                                                   
       0       0       0       0       0       0       0       0       0       0
       0       0       0       0       0       0       0       0       0       0
       0       0       0       0       0       0       0       0       0       0
       0       0       0       0       0       0       0       0       0       0
       0       0       0       0
%FLAG RADIUS_SET                                                                
%FORMAT(1a80)                                                                   
modified Bondi radii (mbondi)                                                   
%FLAG RADII                                                                     
%FORMAT(5E16.8)                                                                 
  1.50000000E+00  1.50000000E+00  1.70000000E+00  1.70000000E+00  1.50000000E+00
  1.50000000E+00  1.70000000E+00  1.50000000E+00  1.70000000E+00  1.50000000E+00
  1.70000000E+00  1.50000000E+00  1.70000000E+00  1.70000000E+00  1.50000000E+00
  1.70000000E+00  1.70000000E+00  1.70000000E+00  1.70000000E+00  1.70000000E+00
  1.30000000E+00  1.30000000E+00  1.30000000E+00  1.30000000E+00  1.30000000E+00
  1.30000000E+00  1.30000000E+00  1.30000000E+00  1.30000000E+00  1.30000000E+00
  1.30000000E+00  1.30000000E+00  1.30000000E+00  1.30000000E+00  1.30000000E+00
  1.30000000E+00  1.30000000E+00  1.30000000E+00  1.30000000E+00  8.00000000E-01
  1.30000000E+00  1.30000000E+00  1.30000000E+00  8.00000000E-01
%FLAG SCREEN                                                                    
%FORMAT(5E16.8)                                                                 
  8.50000000E-01  8.50000000E-01  7.20000000E-01  7.20000000E-01  8.00000000E-01
  8.00000000E-01  7.20000000E-01  8.00000000E-01  7.20000000E-01  8.00000000E-01
  7.20000000E-01  8.00000000E-01  7.20000000E-01  7.20000000E-01  8.00000000E-01
  7.20000000E-01  7.20000000E-01  7.20000000E-01  7.20000000E-01  7.20000000E-01
  8.50000000E-01  8.50000000E-01  8.50000000E-01  8.50000000E-01  8.50000000E-01
  8.50000000E-01  8.50000000E-01  8.50000000E-01  8.50000000E-01  8.50000000E-01
  8.50000000E-01  8.50000000E-01  8.50000000E-01  8.50000000E-01  8.50000000E-01
  8.50000000E-01  8.50000000E-01  8.50000000E-01  8.50000000E-01  8.50000000E-01
  8.50000000E-01  8.50000000E-01  8.50000000E-01  8.50000000E-01
%FLAG IPOL                                                                      
%FORMAT(1I8)                                                                    
       0
