5757
    44
   5.0610000   1.1500000   0.2670000  -5.8570000   0.1480000   0.4390000
   2.6640000   0.5840000   0.1480000   1.9840000  -0.6950000  -0.3790000
   0.5150000  -0.7800000   0.0350000  -0.2460000   0.4360000  -0.5750000
   4.0950000   0.3350000  -0.3670000   1.9550000   1.7930000  -0.4750000
   2.9440000  -1.8060000   0.0380000   0.4400000   1.7760000  -0.1950000
   4.3370000  -1.1610000  -0.0880000  -0.1540000  -2.0730000  -0.4350000
   2.6650000   0.7310000   1.6910000  -1.7400000   0.3640000  -0.2670000
  -1.5690000  -2.1590000   0.1310000  -2.3530000  -0.8740000   0.0220000
  -2.5550000   1.5060000  -0.3510000  -3.7370000  -0.9300000   0.2690000
  -3.9290000   1.4360000  -0.1120000  -4.5200000   0.2190000   0.2030000
   2.0040000  -0.6750000  -1.4820000   0.4400000  -0.7500000   1.1300000
  -0.1780000   0.3540000  -1.6710000   4.1530000   0.5200000  -1.4470000
   2.1050000   1.7940000  -1.5630000   2.3880000   2.7300000  -0.1050000
   2.8550000  -2.6880000  -0.6040000   2.7630000  -2.1270000   1.0700000
   0.2520000   2.0030000   0.8610000   0.0010000   2.6010000  -0.7670000
   4.9230000  -1.3210000   0.8240000   4.9010000  -1.6100000  -0.9120000
   0.4100000  -2.9540000  -0.1110000  -0.1890000  -2.1010000  -1.5320000
   3.1680000   1.6590000   1.9900000   1.6580000   0.7700000   2.1140000
   3.1880000  -0.0910000   2.1900000  -1.5120000  -2.4290000   1.1930000
  -2.1030000  -2.9660000  -0.3850000   5.9360000   0.8680000  -0.0520000
  -2.1400000   2.4750000  -0.6120000  -4.2040000  -1.8810000   0.5140000
  -4.5260000   2.3420000  -0.1800000  -6.2410000   1.0380000   0.3490000
