estradiol_GMX.gro created by acpype (v: 2023.10.27) on Mon Feb  9 17:45:57 2026
 44
    1  UNL    O    1   0.506   0.115   0.027
    1  UNL   O1    2  -0.586   0.015   0.044
    1  UNL    C    3   0.266   0.058   0.015
    1  UNL   C1    4   0.198  -0.069  -0.038
    1  UNL   C2    5   0.052  -0.078   0.004
    1  UNL   C3    6  -0.025   0.044  -0.057
    1  UNL   C4    7   0.409   0.034  -0.037
    1  UNL   C5    8   0.196   0.179  -0.048
    1  UNL   C6    9   0.294  -0.181   0.004
    1  UNL   C7   10   0.044   0.178  -0.020
    1  UNL   C8   11   0.434  -0.116  -0.009
    1  UNL   C9   12  -0.015  -0.207  -0.044
    1  UNL  C10   13   0.267   0.073   0.169
    1  UNL  C11   14  -0.174   0.036  -0.027
    1  UNL  C12   15  -0.157  -0.216   0.013
    1  UNL  C13   16  -0.235  -0.087   0.002
    1  UNL  C14   17  -0.256   0.151  -0.035
    1  UNL  C15   18  -0.374  -0.093   0.027
    1  UNL  C16   19  -0.393   0.144  -0.011
    1  UNL  C17   20  -0.452   0.022   0.020
    1  UNL    H   21   0.200  -0.068  -0.148
    1  UNL   H1   22   0.044  -0.075   0.113
    1  UNL   H2   23  -0.018   0.035  -0.167
    1  UNL   H3   24   0.415   0.052  -0.145
    1  UNL   H4   25   0.211   0.179  -0.156
    1  UNL   H5   26   0.239   0.273  -0.011
    1  UNL   H6   27   0.286  -0.269  -0.060
    1  UNL   H7   28   0.276  -0.213   0.107
    1  UNL   H8   29   0.025   0.200   0.086
    1  UNL   H9   30   0.000   0.260  -0.077
    1  UNL  H10   31   0.492  -0.132   0.082
    1  UNL  H11   32   0.490  -0.161  -0.091
    1  UNL  H12   33   0.041  -0.295  -0.011
    1  UNL  H13   34  -0.019  -0.210  -0.153
    1  UNL  H14   35   0.317   0.166   0.199
    1  UNL  H15   36   0.166   0.077   0.211
    1  UNL  H16   37   0.319  -0.009   0.219
    1  UNL  H17   38  -0.151  -0.243   0.119
    1  UNL  H18   39  -0.210  -0.297  -0.039
    1  UNL  H19   40   0.594   0.087  -0.005
    1  UNL  H20   41  -0.214   0.248  -0.061
    1  UNL  H21   42  -0.420  -0.188   0.051
    1  UNL  H22   43  -0.453   0.234  -0.018
    1  UNL  H23   44  -0.624   0.104   0.035
   24.35400    11.39200     7.72200
