; estradiol_GMX_OPLS.itp created by acpype (v: 2023.10.27) on Mon Feb  9 17:45:57 2026

; For OPLS atomtypes manual fine tuning
; AC_at:OPLS_at:OPLScode: Possible_Alternatives (see ffoplsaa.atp and ffoplsaanb.itp)
; oh:OH:opls_154: ['167']
; c5:x:opls_x: []
; c6:x:opls_x: []
; c3:CT:opls_135: ['136', '137', '149', '157', '158', '206', '209', '210', '223B', '224B', '245', '246', '274', '283', '284', '285', '292', '292B', '293B', '296', '307', '308', '505']
; ca:CA:opls_145: ['166', '501', '502']
; hc:HC:opls_140: []
; h1:HC:opls_140: []
; ho:HO:opls_155: ['168']
; ha:HA:opls_146: []

[ moleculetype ]
;name            nrexcl
 estradiol        3

[ atoms ]
;   nr  type  resi  res  atom  cgnr     charge      mass       ; qtot   bond_type
     1 opls_154     1   UNL     O    1    -0.591801     15.99940 ; qtot -0.592  OH  
     2 opls_154     1   UNL    O1    2    -0.499100     15.99940 ; qtot -1.091  OH  
     3 opls_x     1   UNL     C    3    -0.044000      0.00000 ; qtot -1.135  x   
     4 opls_x     1   UNL    C1    4    -0.065700      0.00000 ; qtot -1.201  x   
     5 opls_x     1   UNL    C2    5    -0.047700      0.00000 ; qtot -1.248  x   
     6 opls_x     1   UNL    C3    6    -0.008400      0.00000 ; qtot -1.257  x   
     7 opls_x     1   UNL    C4    7     0.141100      0.00000 ; qtot -1.116  x   
     8 opls_x     1   UNL    C5    8    -0.063400      0.00000 ; qtot -1.179  x   
     9 opls_x     1   UNL    C6    9    -0.068400      0.00000 ; qtot -1.247  x   
    10 opls_x     1   UNL    C7   10    -0.071400      0.00000 ; qtot -1.319  x   
    11 opls_x     1   UNL    C8   11    -0.117400      0.00000 ; qtot -1.436  x   
    12 opls_x     1   UNL    C9   12    -0.073400      0.00000 ; qtot -1.510  x   
    13 opls_135     1   UNL   C10   13    -0.077100     12.01100 ; qtot -1.587  CT  
    14 opls_145     1   UNL   C11   14    -0.099300     12.01100 ; qtot -1.686  CA  
    15 opls_x     1   UNL   C12   15    -0.037100      0.00000 ; qtot -1.723  x   
    16 opls_145     1   UNL   C13   16    -0.037300     12.01100 ; qtot -1.760  CA  
    17 opls_145     1   UNL   C14   17    -0.091000     12.01100 ; qtot -1.851  CA  
    18 opls_145     1   UNL   C15   18    -0.162000     12.01100 ; qtot -2.013  CA  
    19 opls_145     1   UNL   C16   19    -0.215000     12.01100 ; qtot -2.228  CA  
    20 opls_145     1   UNL   C17   20     0.122100     12.01100 ; qtot -2.106  CA  
    21 opls_140     1   UNL     H   21     0.045700      1.00800 ; qtot -2.061  HC  
    22 opls_140     1   UNL    H1   22     0.063700      1.00800 ; qtot -1.997  HC  
    23 opls_140     1   UNL    H2   23     0.053700      1.00800 ; qtot -1.943  HC  
    24 opls_140     1   UNL    H3   24     0.033700      1.00800 ; qtot -1.910  HC  
    25 opls_140     1   UNL    H4   25     0.045200      1.00800 ; qtot -1.864  HC  
    26 opls_140     1   UNL    H5   26     0.045200      1.00800 ; qtot -1.819  HC  
    27 opls_140     1   UNL    H6   27     0.045200      1.00800 ; qtot -1.774  HC  
    28 opls_140     1   UNL    H7   28     0.045200      1.00800 ; qtot -1.729  HC  
    29 opls_140     1   UNL    H8   29     0.043200      1.00800 ; qtot -1.686  HC  
    30 opls_140     1   UNL    H9   30     0.043200      1.00800 ; qtot -1.642  HC  
    31 opls_140     1   UNL   H10   31     0.047200      1.00800 ; qtot -1.595  HC  
    32 opls_140     1   UNL   H11   32     0.047200      1.00800 ; qtot -1.548  HC  
    33 opls_140     1   UNL   H12   33     0.044200      1.00800 ; qtot -1.504  HC  
    34 opls_140     1   UNL   H13   34     0.044200      1.00800 ; qtot -1.460  HC  
    35 opls_140     1   UNL   H14   35     0.041367      1.00800 ; qtot -1.418  HC  
    36 opls_140     1   UNL   H15   36     0.041367      1.00800 ; qtot -1.377  HC  
    37 opls_140     1   UNL   H16   37     0.041367      1.00800 ; qtot -1.335  HC  
    38 opls_140     1   UNL   H17   38     0.052700      1.00800 ; qtot -1.283  HC  
    39 opls_140     1   UNL   H18   39     0.052700      1.00800 ; qtot -1.230  HC  
    40 opls_155     1   UNL   H19   40     0.398000      1.00800 ; qtot -0.832  HO  
    41 opls_146     1   UNL   H20   41     0.134000      1.00800 ; qtot -0.698  HA  
    42 opls_146     1   UNL   H21   42     0.148000      1.00800 ; qtot -0.550  HA  
    43 opls_146     1   UNL   H22   43     0.132000      1.00800 ; qtot -0.418  HA  
    44 opls_155     1   UNL   H23   44     0.418000      1.00800 ; qtot  0.000  HO  

[ bonds ]
;   ai     aj funct   r             k
     1      7   1 ;    1.4194e-01    2.4241e+05 ;      O - C4         OH - x     
     1     40   1 ;    9.7250e-02    4.4811e+05 ;      O - H19        OH - HO    
     2     20   1 ;    1.3644e-01    2.9167e+05 ;     O1 - C17        OH - CA    
     2     44   1 ;    9.7250e-02    4.4811e+05 ;     O1 - H23        OH - HO    
     3      4   1 ;    1.5483e-01    1.8418e+05 ;      C - C1          x - x     
     3      7   1 ;    1.5483e-01    1.8418e+05 ;      C - C4          x - x     
     3      8   1 ;    1.5389e-01    1.8951e+05 ;      C - C5          x - x     
     3     13   1 ;    1.5372e-01    1.9049e+05 ;      C - C10         x - CT    
     4      5   1 ;    1.5389e-01    1.8951e+05 ;     C1 - C2          x - x     
     4      9   1 ;    1.5483e-01    1.8418e+05 ;     C1 - C6          x - x     
     4     21   1 ;    1.0954e-01    2.8989e+05 ;     C1 - H           x - HC    
     5      6   1 ;    1.5384e-01    1.8979e+05 ;     C2 - C3          x - x     
     5     12   1 ;    1.5384e-01    1.8979e+05 ;     C2 - C9          x - x     
     5     22   1 ;    1.0979e-01    2.8681e+05 ;     C2 - H1          x - HC    
     6     10   1 ;    1.5384e-01    1.8979e+05 ;     C3 - C7          x - x     
     6     14   1 ;    1.5203e-01    2.0061e+05 ;     C3 - C11         x - CA    
     6     23   1 ;    1.0979e-01    2.8681e+05 ;     C3 - H2          x - HC    
     7     11   1 ;    1.5483e-01    1.8418e+05 ;     C4 - C8          x - x     
     7     24   1 ;    1.0972e-01    2.8768e+05 ;     C4 - H3          x - HC    
     8     10   1 ;    1.5384e-01    1.8979e+05 ;     C5 - C7          x - x     
     8     25   1 ;    1.0979e-01    2.8681e+05 ;     C5 - H4          x - HC    
     8     26   1 ;    1.0979e-01    2.8681e+05 ;     C5 - H5          x - HC    
     9     11   1 ;    1.5483e-01    1.8418e+05 ;     C6 - C8          x - x     
     9     27   1 ;    1.0954e-01    2.8989e+05 ;     C6 - H6          x - HC    
     9     28   1 ;    1.0954e-01    2.8989e+05 ;     C6 - H7          x - HC    
    10     29   1 ;    1.0979e-01    2.8681e+05 ;     C7 - H8          x - HC    
    10     30   1 ;    1.0979e-01    2.8681e+05 ;     C7 - H9          x - HC    
    11     31   1 ;    1.0954e-01    2.8989e+05 ;     C8 - H10         x - HC    
    11     32   1 ;    1.0954e-01    2.8989e+05 ;     C8 - H11         x - HC    
    12     15   1 ;    1.5384e-01    1.8979e+05 ;     C9 - C12         x - x     
    12     33   1 ;    1.0979e-01    2.8681e+05 ;     C9 - H12         x - HC    
    12     34   1 ;    1.0979e-01    2.8681e+05 ;     C9 - H13         x - HC    
    13     35   1 ;    1.0962e-01    2.8891e+05 ;    C10 - H14        CT - HC    
    13     36   1 ;    1.0962e-01    2.8891e+05 ;    C10 - H15        CT - HC    
    13     37   1 ;    1.0962e-01    2.8891e+05 ;    C10 - H16        CT - HC    
    14     16   1 ;    1.3986e-01    2.9644e+05 ;    C11 - C13        CA - CA    
    14     17   1 ;    1.3986e-01    2.9644e+05 ;    C11 - C14        CA - CA    
    15     16   1 ;    1.5203e-01    2.0061e+05 ;    C12 - C13         x - CA    
    15     38   1 ;    1.0979e-01    2.8681e+05 ;    C12 - H17         x - HC    
    15     39   1 ;    1.0979e-01    2.8681e+05 ;    C12 - H18         x - HC    
    16     18   1 ;    1.3986e-01    2.9644e+05 ;    C13 - C15        CA - CA    
    17     19   1 ;    1.3986e-01    2.9644e+05 ;    C14 - C16        CA - CA    
    17     41   1 ;    1.0860e-01    3.0183e+05 ;    C14 - H20        CA - HA    
    18     20   1 ;    1.3986e-01    2.9644e+05 ;    C15 - C17        CA - CA    
    18     42   1 ;    1.0860e-01    3.0183e+05 ;    C15 - H21        CA - HA    
    19     20   1 ;    1.3986e-01    2.9644e+05 ;    C16 - C17        CA - CA    
    19     43   1 ;    1.0860e-01    3.0183e+05 ;    C16 - H22        CA - HA    

[ pairs ]
;   ai     aj    funct
     1      4      1 ;      O - C1    
     1      8      1 ;      O - C5    
     1      9      1 ;      O - C6    
     1     13      1 ;      O - C10   
     1     31      1 ;      O - H10   
     1     32      1 ;      O - H11   
     2     16      1 ;     O1 - C13   
     2     17      1 ;     O1 - C14   
     2     42      1 ;     O1 - H21   
     2     43      1 ;     O1 - H22   
     3      6      1 ;      C - C3    
     3     12      1 ;      C - C9    
     3     22      1 ;      C - H1    
     3     27      1 ;      C - H6    
     3     28      1 ;      C - H7    
     3     29      1 ;      C - H8    
     3     30      1 ;      C - H9    
     3     31      1 ;      C - H10   
     3     32      1 ;      C - H11   
     4     10      1 ;     C1 - C7    
     4     14      1 ;     C1 - C11   
     4     15      1 ;     C1 - C12   
     4     23      1 ;     C1 - H2    
     4     24      1 ;     C1 - H3    
     4     25      1 ;     C1 - H4    
     4     26      1 ;     C1 - H5    
     4     31      1 ;     C1 - H10   
     4     32      1 ;     C1 - H11   
     4     33      1 ;     C1 - H12   
     4     34      1 ;     C1 - H13   
     4     35      1 ;     C1 - H14   
     4     36      1 ;     C1 - H15   
     4     37      1 ;     C1 - H16   
     5      7      1 ;     C2 - C4    
     5      8      1 ;     C2 - C5    
     5     11      1 ;     C2 - C8    
     5     13      1 ;     C2 - C10   
     5     16      1 ;     C2 - C13   
     5     17      1 ;     C2 - C14   
     5     27      1 ;     C2 - H6    
     5     28      1 ;     C2 - H7    
     5     29      1 ;     C2 - H8    
     5     30      1 ;     C2 - H9    
     5     38      1 ;     C2 - H17   
     5     39      1 ;     C2 - H18   
     6      9      1 ;     C3 - C6    
     6     15      1 ;     C3 - C12   
     6     18      1 ;     C3 - C15   
     6     19      1 ;     C3 - C16   
     6     21      1 ;     C3 - H     
     6     25      1 ;     C3 - H4    
     6     26      1 ;     C3 - H5    
     6     33      1 ;     C3 - H12   
     6     34      1 ;     C3 - H13   
     6     41      1 ;     C3 - H20   
     7     10      1 ;     C4 - C7    
     7     21      1 ;     C4 - H     
     7     25      1 ;     C4 - H4    
     7     26      1 ;     C4 - H5    
     7     27      1 ;     C4 - H6    
     7     28      1 ;     C4 - H7    
     7     35      1 ;     C4 - H14   
     7     36      1 ;     C4 - H15   
     7     37      1 ;     C4 - H16   
     8      9      1 ;     C5 - C6    
     8     11      1 ;     C5 - C8    
     8     14      1 ;     C5 - C11   
     8     21      1 ;     C5 - H     
     8     23      1 ;     C5 - H2    
     8     24      1 ;     C5 - H3    
     8     35      1 ;     C5 - H14   
     8     36      1 ;     C5 - H15   
     8     37      1 ;     C5 - H16   
     9     12      1 ;     C6 - C9    
     9     13      1 ;     C6 - C10   
     9     22      1 ;     C6 - H1    
     9     24      1 ;     C6 - H3    
    10     12      1 ;     C7 - C9    
    10     13      1 ;     C7 - C10   
    10     16      1 ;     C7 - C13   
    10     17      1 ;     C7 - C14   
    10     22      1 ;     C7 - H1    
    11     13      1 ;     C8 - C10   
    11     21      1 ;     C8 - H     
    12     14      1 ;     C9 - C11   
    12     18      1 ;     C9 - C15   
    12     21      1 ;     C9 - H     
    12     23      1 ;     C9 - H2    
    13     21      1 ;    C10 - H     
    13     24      1 ;    C10 - H3    
    13     25      1 ;    C10 - H4    
    13     26      1 ;    C10 - H5    
    14     20      1 ;    C11 - C17   
    14     22      1 ;    C11 - H1    
    14     29      1 ;    C11 - H8    
    14     30      1 ;    C11 - H9    
    14     38      1 ;    C11 - H17   
    14     39      1 ;    C11 - H18   
    14     42      1 ;    C11 - H21   
    14     43      1 ;    C11 - H22   
    15     17      1 ;    C12 - C14   
    15     20      1 ;    C12 - C17   
    15     22      1 ;    C12 - H1    
    15     42      1 ;    C12 - H21   
    16     19      1 ;    C13 - C16   
    16     23      1 ;    C13 - H2    
    16     33      1 ;    C13 - H12   
    16     34      1 ;    C13 - H13   
    16     41      1 ;    C13 - H20   
    17     18      1 ;    C14 - C15   
    17     23      1 ;    C14 - H2    
    18     38      1 ;    C15 - H17   
    18     39      1 ;    C15 - H18   
    18     43      1 ;    C15 - H22   
    18     44      1 ;    C15 - H23   
    19     42      1 ;    C16 - H21   
    19     44      1 ;    C16 - H23   
    20     41      1 ;    C17 - H20   
    21     22      1 ;      H - H1    
    21     27      1 ;      H - H6    
    21     28      1 ;      H - H7    
    22     23      1 ;     H1 - H2    
    22     33      1 ;     H1 - H12   
    22     34      1 ;     H1 - H13   
    23     29      1 ;     H2 - H8    
    23     30      1 ;     H2 - H9    
    24     31      1 ;     H3 - H10   
    24     32      1 ;     H3 - H11   
    25     29      1 ;     H4 - H8    
    25     30      1 ;     H4 - H9    
    26     29      1 ;     H5 - H8    
    26     30      1 ;     H5 - H9    
    27     31      1 ;     H6 - H10   
    27     32      1 ;     H6 - H11   
    28     31      1 ;     H7 - H10   
    28     32      1 ;     H7 - H11   
    33     38      1 ;    H12 - H17   
    33     39      1 ;    H12 - H18   
    34     38      1 ;    H13 - H17   
    34     39      1 ;    H13 - H18   
    40      3      1 ;    H19 - C     
    40     11      1 ;    H19 - C8    
    40     24      1 ;    H19 - H3    
    41     43      1 ;    H20 - H22   

[ angles ]
;   ai     aj     ak    funct   theta         cth
     1      7      3      1 ;    1.1162e+02    6.3455e+02 ;      O - C4   - C        OH -    x - x   
     1      7     11      1 ;    1.1162e+02    6.3455e+02 ;      O - C4   - C8       OH -    x - x   
     1      7     24      1 ;    1.1027e+02    4.7254e+02 ;      O - C4   - H3       OH -    x - HC  
     2     20     18      1 ;    1.1990e+02    6.5990e+02 ;     O1 - C17  - C15      OH -   CA - CA  
     2     20     19      1 ;    1.1990e+02    6.5990e+02 ;     O1 - C17  - C16      OH -   CA - CA  
     3      4      5      1 ;    1.1375e+02    4.9589e+02 ;      C - C1   - C2        x -    x - x   
     3      4      9      1 ;    1.0383e+02    5.1748e+02 ;      C - C1   - C6        x -    x - x   
     3      4     21      1 ;    1.1117e+02    3.5690e+02 ;      C - C1   - H         x -    x - HC  
     3      7     11      1 ;    1.0383e+02    5.1748e+02 ;      C - C4   - C8        x -    x - x   
     3      7     24      1 ;    1.1117e+02    3.5690e+02 ;      C - C4   - H3        x -    x - HC  
     3      8     10      1 ;    1.1104e+02    5.0350e+02 ;      C - C5   - C7        x -    x - x   
     3      8     25      1 ;    1.0934e+02    3.6183e+02 ;      C - C5   - H4        x -    x - HC  
     3      8     26      1 ;    1.0934e+02    3.6183e+02 ;      C - C5   - H5        x -    x - HC  
     3     13     35      1 ;    1.1053e+02    3.6033e+02 ;      C - C10  - H14       x -   CT - HC  
     3     13     36      1 ;    1.1053e+02    3.6033e+02 ;      C - C10  - H15       x -   CT - HC  
     3     13     37      1 ;    1.1053e+02    3.6033e+02 ;      C - C10  - H16       x -   CT - HC  
     4      3      7      1 ;    1.0383e+02    5.1748e+02 ;     C1 - C    - C4        x -    x - x   
     4      3      8      1 ;    1.1375e+02    4.9589e+02 ;     C1 - C    - C5        x -    x - x   
     4      3     13      1 ;    1.1360e+02    4.9647e+02 ;     C1 - C    - C10       x -    x - CT  
     4      5      6      1 ;    1.1104e+02    5.0350e+02 ;     C1 - C2   - C3        x -    x - x   
     4      5     12      1 ;    1.1104e+02    5.0350e+02 ;     C1 - C2   - C9        x -    x - x   
     4      5     22      1 ;    1.0934e+02    3.6183e+02 ;     C1 - C2   - H1        x -    x - HC  
     4      9     11      1 ;    1.0383e+02    5.1748e+02 ;     C1 - C6   - C8        x -    x - x   
     4      9     27      1 ;    1.1117e+02    3.5690e+02 ;     C1 - C6   - H6        x -    x - HC  
     4      9     28      1 ;    1.1117e+02    3.5690e+02 ;     C1 - C6   - H7        x -    x - HC  
     5      4      9      1 ;    1.1375e+02    4.9589e+02 ;     C2 - C1   - C6        x -    x - x   
     5      4     21      1 ;    1.0642e+02    3.6685e+02 ;     C2 - C1   - H         x -    x - HC  
     5      6     10      1 ;    1.1106e+02    5.0359e+02 ;     C2 - C3   - C7        x -    x - x   
     5      6     14      1 ;    1.1197e+02    5.0442e+02 ;     C2 - C3   - C11       x -    x - CA  
     5      6     23      1 ;    1.0945e+02    3.6175e+02 ;     C2 - C3   - H2        x -    x - HC  
     5     12     15      1 ;    1.1106e+02    5.0359e+02 ;     C2 - C9   - C12       x -    x - x   
     5     12     33      1 ;    1.0945e+02    3.6175e+02 ;     C2 - C9   - H12       x -    x - HC  
     5     12     34      1 ;    1.0945e+02    3.6175e+02 ;     C2 - C9   - H13       x -    x - HC  
     6      5     12      1 ;    1.1106e+02    5.0359e+02 ;     C3 - C2   - C9        x -    x - x   
     6      5     22      1 ;    1.0945e+02    3.6175e+02 ;     C3 - C2   - H1        x -    x - HC  
     6     10      8      1 ;    1.1106e+02    5.0359e+02 ;     C3 - C7   - C5        x -    x - x   
     6     10     29      1 ;    1.0945e+02    3.6175e+02 ;     C3 - C7   - H8        x -    x - HC  
     6     10     30      1 ;    1.0945e+02    3.6175e+02 ;     C3 - C7   - H9        x -    x - HC  
     6     14     16      1 ;    1.2060e+02    5.0760e+02 ;     C3 - C11  - C13       x -   CA - CA  
     6     14     17      1 ;    1.2060e+02    5.0760e+02 ;     C3 - C11  - C14       x -   CA - CA  
     7      1     40      1 ;    1.0717e+02    5.4727e+02 ;     C4 - O    - H19       x -   OH - HO  
     7      3      8      1 ;    1.1375e+02    4.9589e+02 ;     C4 - C    - C5        x -    x - x   
     7      3     13      1 ;    1.1360e+02    4.9647e+02 ;     C4 - C    - C10       x -    x - CT  
     7     11      9      1 ;    1.0383e+02    5.1748e+02 ;     C4 - C8   - C6        x -    x - x   
     7     11     31      1 ;    1.1117e+02    3.5690e+02 ;     C4 - C8   - H10       x -    x - HC  
     7     11     32      1 ;    1.1117e+02    3.5690e+02 ;     C4 - C8   - H11       x -    x - HC  
     8      3     13      1 ;    1.1056e+02    5.0484e+02 ;     C5 - C    - C10       x -    x - CT  
     8     10     29      1 ;    1.0945e+02    3.6175e+02 ;     C5 - C7   - H8        x -    x - HC  
     8     10     30      1 ;    1.0945e+02    3.6175e+02 ;     C5 - C7   - H9        x -    x - HC  
     9      4     21      1 ;    1.1117e+02    3.5690e+02 ;     C6 - C1   - H         x -    x - HC  
     9     11     31      1 ;    1.1117e+02    3.5690e+02 ;     C6 - C8   - H10       x -    x - HC  
     9     11     32      1 ;    1.1117e+02    3.5690e+02 ;     C6 - C8   - H11       x -    x - HC  
    10      6     14      1 ;    1.1197e+02    5.0442e+02 ;     C7 - C3   - C11       x -    x - CA  
    10      6     23      1 ;    1.0945e+02    3.6175e+02 ;     C7 - C3   - H2        x -    x - HC  
    10      8     25      1 ;    1.0945e+02    3.6175e+02 ;     C7 - C5   - H4        x -    x - HC  
    10      8     26      1 ;    1.0945e+02    3.6175e+02 ;     C7 - C5   - H5        x -    x - HC  
    11      7     24      1 ;    1.1117e+02    3.5690e+02 ;     C8 - C4   - H3        x -    x - HC  
    11      9     27      1 ;    1.1117e+02    3.5690e+02 ;     C8 - C6   - H6        x -    x - HC  
    11      9     28      1 ;    1.1117e+02    3.5690e+02 ;     C8 - C6   - H7        x -    x - HC  
    12      5     22      1 ;    1.0945e+02    3.6175e+02 ;     C9 - C2   - H1        x -    x - HC  
    12     15     16      1 ;    1.1197e+02    5.0442e+02 ;     C9 - C12  - C13       x -    x - CA  
    12     15     38      1 ;    1.0945e+02    3.6175e+02 ;     C9 - C12  - H17       x -    x - HC  
    12     15     39      1 ;    1.0945e+02    3.6175e+02 ;     C9 - C12  - H18       x -    x - HC  
    14      6     23      1 ;    1.0947e+02    3.6560e+02 ;    C11 - C3   - H2       CA -    x - HC  
    14     16     15      1 ;    1.2060e+02    5.0760e+02 ;    C11 - C13  - C12      CA -   CA - x   
    14     16     18      1 ;    1.2002e+02    5.3279e+02 ;    C11 - C13  - C15      CA -   CA - CA  
    14     17     19      1 ;    1.2002e+02    5.3279e+02 ;    C11 - C14  - C16      CA -   CA - CA  
    14     17     41      1 ;    1.1988e+02    3.7572e+02 ;    C11 - C14  - H20      CA -   CA - HA  
    15     12     33      1 ;    1.0945e+02    3.6175e+02 ;    C12 - C9   - H12       x -    x - HC  
    15     12     34      1 ;    1.0945e+02    3.6175e+02 ;    C12 - C9   - H13       x -    x - HC  
    15     16     18      1 ;    1.2060e+02    5.0760e+02 ;    C12 - C13  - C15       x -   CA - CA  
    16     14     17      1 ;    1.2002e+02    5.3279e+02 ;    C13 - C11  - C14      CA -   CA - CA  
    16     15     38      1 ;    1.0947e+02    3.6560e+02 ;    C13 - C12  - H17      CA -    x - HC  
    16     15     39      1 ;    1.0947e+02    3.6560e+02 ;    C13 - C12  - H18      CA -    x - HC  
    16     18     20      1 ;    1.2002e+02    5.3279e+02 ;    C13 - C15  - C17      CA -   CA - CA  
    16     18     42      1 ;    1.1988e+02    3.7572e+02 ;    C13 - C15  - H21      CA -   CA - HA  
    17     19     20      1 ;    1.2002e+02    5.3279e+02 ;    C14 - C16  - C17      CA -   CA - CA  
    17     19     43      1 ;    1.1988e+02    3.7572e+02 ;    C14 - C16  - H22      CA -   CA - HA  
    18     20     19      1 ;    1.2002e+02    5.3279e+02 ;    C15 - C17  - C16      CA -   CA - CA  
    19     17     41      1 ;    1.1988e+02    3.7572e+02 ;    C16 - C14  - H20      CA -   CA - HA  
    20      2     44      1 ;    1.0858e+02    5.6409e+02 ;    C17 - O1   - H23      CA -   OH - HO  
    20     18     42      1 ;    1.1988e+02    3.7572e+02 ;    C17 - C15  - H21      CA -   CA - HA  
    20     19     43      1 ;    1.1988e+02    3.7572e+02 ;    C17 - C16  - H22      CA -   CA - HA  
    25      8     26      1 ;    1.0662e+02    3.0066e+02 ;     H4 - C5   - H5       HC -    x - HC  
    27      9     28      1 ;    1.0722e+02    3.0049e+02 ;     H6 - C6   - H7       HC -    x - HC  
    29     10     30      1 ;    1.0662e+02    3.0066e+02 ;     H8 - C7   - H9       HC -    x - HC  
    31     11     32      1 ;    1.0722e+02    3.0049e+02 ;    H10 - C8   - H11      HC -    x - HC  
    33     12     34      1 ;    1.0662e+02    3.0066e+02 ;    H12 - C9   - H13      HC -    x - HC  
    35     13     36      1 ;    1.0773e+02    2.9957e+02 ;    H14 - C10  - H15      HC -   CT - HC  
    35     13     37      1 ;    1.0773e+02    2.9957e+02 ;    H14 - C10  - H16      HC -   CT - HC  
    36     13     37      1 ;    1.0773e+02    2.9957e+02 ;    H15 - C10  - H16      HC -   CT - HC  
    38     15     39      1 ;    1.0662e+02    3.0066e+02 ;    H17 - C12  - H18      HC -    x - HC  

[ dihedrals ] ; propers
; for gromacs 4.5 or higher, using funct 9
;    i      j      k      l   func   phase     kd      pn
     1      7      3      4      9 ;     0.00   0.75312   3 ;      O-    C4-     C-    C1
     1      7      3      8      9 ;     0.00   0.75312   3 ;      O-    C4-     C-    C5
     1      7      3     13      9 ;     0.00   0.75312   3 ;      O-    C4-     C-   C10
     1      7     11      9      9 ;     0.00   0.75312   3 ;      O-    C4-    C8-    C6
     1      7     11     31      9 ;     0.00   0.37656   3 ;      O-    C4-    C8-   H10
     1      7     11     32      9 ;     0.00   0.37656   3 ;      O-    C4-    C8-   H11
     2     20     18     16      9 ;   180.00  15.16700   2 ;     O1-   C17-   C15-   C13
     2     20     18     42      9 ;   180.00  15.16700   2 ;     O1-   C17-   C15-   H21
     2     20     19     17      9 ;   180.00  15.16700   2 ;     O1-   C17-   C16-   C14
     2     20     19     43      9 ;   180.00  15.16700   2 ;     O1-   C17-   C16-   H22
     3      4      5      6      9 ;     0.00   2.17568   3 ;      C-    C1-    C2-    C3
     3      4      5     12      9 ;     0.00   2.17568   3 ;      C-    C1-    C2-    C9
     3      4      5     22      9 ;     0.00   0.54392   3 ;      C-    C1-    C2-    H1
     3      4      9     11      9 ;     0.00   2.17568   3 ;      C-    C1-    C6-    C8
     3      4      9     27      9 ;     0.00   0.54392   3 ;      C-    C1-    C6-    H6
     3      4      9     28      9 ;     0.00   0.54392   3 ;      C-    C1-    C6-    H7
     3      7     11      9      9 ;     0.00   2.17568   3 ;      C-    C4-    C8-    C6
     3      7     11     31      9 ;     0.00   0.54392   3 ;      C-    C4-    C8-   H10
     3      7     11     32      9 ;     0.00   0.54392   3 ;      C-    C4-    C8-   H11
     3      8     10      6      9 ;     0.00   2.17568   3 ;      C-    C5-    C7-    C3
     3      8     10     29      9 ;     0.00   0.54392   3 ;      C-    C5-    C7-    H8
     3      8     10     30      9 ;     0.00   0.54392   3 ;      C-    C5-    C7-    H9
     4      3      7     11      9 ;     0.00   2.17568   3 ;     C1-     C-    C4-    C8
     4      3      7     24      9 ;     0.00   0.65084   3 ;     C1-     C-    C4-    H3
     4      3      8     10      9 ;     0.00   2.17568   3 ;     C1-     C-    C5-    C7
     4      3      8     25      9 ;     0.00   0.54392   3 ;     C1-     C-    C5-    H4
     4      3      8     26      9 ;     0.00   0.54392   3 ;     C1-     C-    C5-    H5
     4      3     13     35      9 ;     0.00   0.54392   3 ;     C1-     C-   C10-   H14
     4      3     13     36      9 ;     0.00   0.54392   3 ;     C1-     C-   C10-   H15
     4      3     13     37      9 ;     0.00   0.54392   3 ;     C1-     C-   C10-   H16
     4      5      6     10      9 ;     0.00   2.17568   3 ;     C1-    C2-    C3-    C7
     4      5      6     14      9 ;     0.00   0.65084   3 ;     C1-    C2-    C3-   C11
     4      5      6     23      9 ;     0.00   0.54392   3 ;     C1-    C2-    C3-    H2
     4      5     12     15      9 ;     0.00   2.17568   3 ;     C1-    C2-    C9-   C12
     4      5     12     33      9 ;     0.00   0.54392   3 ;     C1-    C2-    C9-   H12
     4      5     12     34      9 ;     0.00   0.54392   3 ;     C1-    C2-    C9-   H13
     4      9     11      7      9 ;     0.00   2.17568   3 ;     C1-    C6-    C8-    C4
     4      9     11     31      9 ;     0.00   0.54392   3 ;     C1-    C6-    C8-   H10
     4      9     11     32      9 ;     0.00   0.54392   3 ;     C1-    C6-    C8-   H11
     5      4      3      7      9 ;     0.00   2.17568   3 ;     C2-    C1-     C-    C4
     5      4      3      8      9 ;     0.00   2.17568   3 ;     C2-    C1-     C-    C5
     5      4      3     13      9 ;     0.00   2.17568   3 ;     C2-    C1-     C-   C10
     5      4      9     11      9 ;     0.00   2.17568   3 ;     C2-    C1-    C6-    C8
     5      4      9     27      9 ;     0.00   0.54392   3 ;     C2-    C1-    C6-    H6
     5      4      9     28      9 ;     0.00   0.54392   3 ;     C2-    C1-    C6-    H7
     5      6     10      8      9 ;     0.00   2.17568   3 ;     C2-    C3-    C7-    C5
     5      6     10     29      9 ;     0.00   0.54392   3 ;     C2-    C3-    C7-    H8
     5      6     10     30      9 ;     0.00   0.54392   3 ;     C2-    C3-    C7-    H9
     5      6     14     16      9 ;   180.00   1.00416   2 ;     C2-    C3-   C11-   C13
     5      6     14     17      9 ;   180.00   1.00416   2 ;     C2-    C3-   C11-   C14
     5     12     15     16      9 ;     0.00   0.65084   3 ;     C2-    C9-   C12-   C13
     5     12     15     38      9 ;     0.00   0.54392   3 ;     C2-    C9-   C12-   H17
     5     12     15     39      9 ;     0.00   0.54392   3 ;     C2-    C9-   C12-   H18
     6      5      4      9      9 ;     0.00   2.17568   3 ;     C3-    C2-    C1-    C6
     6      5      4     21      9 ;     0.00   0.54392   3 ;     C3-    C2-    C1-     H
     6      5     12     15      9 ;     0.00   2.17568   3 ;     C3-    C2-    C9-   C12
     6      5     12     33      9 ;     0.00   0.54392   3 ;     C3-    C2-    C9-   H12
     6      5     12     34      9 ;     0.00   0.54392   3 ;     C3-    C2-    C9-   H13
     6     10      8     25      9 ;     0.00   0.54392   3 ;     C3-    C7-    C5-    H4
     6     10      8     26      9 ;     0.00   0.54392   3 ;     C3-    C7-    C5-    H5
     6     14     16     15      9 ;   180.00  15.16700   2 ;     C3-   C11-   C13-   C12
     6     14     16     18      9 ;   180.00  15.16700   2 ;     C3-   C11-   C13-   C15
     6     14     17     19      9 ;   180.00  15.16700   2 ;     C3-   C11-   C14-   C16
     6     14     17     41      9 ;   180.00  15.16700   2 ;     C3-   C11-   C14-   H20
     7      3      4      9      9 ;     0.00   2.17568   3 ;     C4-     C-    C1-    C6
     7      3      4     21      9 ;     0.00   0.54392   3 ;     C4-     C-    C1-     H
     7      3      8     10      9 ;     0.00   2.17568   3 ;     C4-     C-    C5-    C7
     7      3      8     25      9 ;     0.00   0.54392   3 ;     C4-     C-    C5-    H4
     7      3      8     26      9 ;     0.00   0.54392   3 ;     C4-     C-    C5-    H5
     7      3     13     35      9 ;     0.00   0.54392   3 ;     C4-     C-   C10-   H14
     7      3     13     36      9 ;     0.00   0.54392   3 ;     C4-     C-   C10-   H15
     7      3     13     37      9 ;     0.00   0.54392   3 ;     C4-     C-   C10-   H16
     7     11      9     27      9 ;     0.00   0.54392   3 ;     C4-    C8-    C6-    H6
     7     11      9     28      9 ;     0.00   0.54392   3 ;     C4-    C8-    C6-    H7
     8      3      4      9      9 ;     0.00   2.17568   3 ;     C5-     C-    C1-    C6
     8      3      4     21      9 ;     0.00   0.54392   3 ;     C5-     C-    C1-     H
     8      3      7     11      9 ;     0.00   2.17568   3 ;     C5-     C-    C4-    C8
     8      3      7     24      9 ;     0.00   0.65084   3 ;     C5-     C-    C4-    H3
     8      3     13     35      9 ;     0.00   0.54392   3 ;     C5-     C-   C10-   H14
     8      3     13     36      9 ;     0.00   0.54392   3 ;     C5-     C-   C10-   H15
     8      3     13     37      9 ;     0.00   0.54392   3 ;     C5-     C-   C10-   H16
     8     10      6     14      9 ;     0.00   0.65084   3 ;     C5-    C7-    C3-   C11
     8     10      6     23      9 ;     0.00   0.54392   3 ;     C5-    C7-    C3-    H2
     9      4      3     13      9 ;     0.00   2.17568   3 ;     C6-    C1-     C-   C10
     9      4      5     12      9 ;     0.00   2.17568   3 ;     C6-    C1-    C2-    C9
     9      4      5     22      9 ;     0.00   0.54392   3 ;     C6-    C1-    C2-    H1
     9     11      7     24      9 ;     0.00   0.65084   3 ;     C6-    C8-    C4-    H3
    10      6      5     12      9 ;     0.00   2.17568   3 ;     C7-    C3-    C2-    C9
    10      6      5     22      9 ;     0.00   0.54392   3 ;     C7-    C3-    C2-    H1
    10      6     14     16      9 ;   180.00   1.00416   2 ;     C7-    C3-   C11-   C13
    10      6     14     17      9 ;   180.00   1.00416   2 ;     C7-    C3-   C11-   C14
    10      8      3     13      9 ;     0.00   2.17568   3 ;     C7-    C5-     C-   C10
    11      7      3     13      9 ;     0.00   2.17568   3 ;     C8-    C4-     C-   C10
    11      9      4     21      9 ;     0.00   0.54392   3 ;     C8-    C6-    C1-     H
    12      5      4     21      9 ;     0.00   0.54392   3 ;     C9-    C2-    C1-     H
    12      5      6     14      9 ;     0.00   0.65084   3 ;     C9-    C2-    C3-   C11
    12      5      6     23      9 ;     0.00   0.54392   3 ;     C9-    C2-    C3-    H2
    12     15     16     14      9 ;   180.00   1.00416   2 ;     C9-   C12-   C13-   C11
    12     15     16     18      9 ;   180.00   1.00416   2 ;     C9-   C12-   C13-   C15
    13      3      4     21      9 ;     0.00   0.54392   3 ;    C10-     C-    C1-     H
    13      3      7     24      9 ;     0.00   0.65084   3 ;    C10-     C-    C4-    H3
    13      3      8     25      9 ;     0.00   0.54392   3 ;    C10-     C-    C5-    H4
    13      3      8     26      9 ;     0.00   0.54392   3 ;    C10-     C-    C5-    H5
    14      6      5     22      9 ;     0.00   0.65084   3 ;    C11-    C3-    C2-    H1
    14      6     10     29      9 ;     0.00   0.65084   3 ;    C11-    C3-    C7-    H8
    14      6     10     30      9 ;     0.00   0.65084   3 ;    C11-    C3-    C7-    H9
    14     16     15     38      9 ;     0.00   0.00000   0 ;    C11-   C13-   C12-   H17
    14     16     15     39      9 ;     0.00   0.00000   0 ;    C11-   C13-   C12-   H18
    14     16     18     20      9 ;   180.00  15.16700   2 ;    C11-   C13-   C15-   C17
    14     16     18     42      9 ;   180.00  15.16700   2 ;    C11-   C13-   C15-   H21
    14     17     19     20      9 ;   180.00  15.16700   2 ;    C11-   C14-   C16-   C17
    14     17     19     43      9 ;   180.00  15.16700   2 ;    C11-   C14-   C16-   H22
    15     12      5     22      9 ;     0.00   0.54392   3 ;    C12-    C9-    C2-    H1
    15     16     14     17      9 ;   180.00  15.16700   2 ;    C12-   C13-   C11-   C14
    15     16     18     20      9 ;   180.00  15.16700   2 ;    C12-   C13-   C15-   C17
    15     16     18     42      9 ;   180.00  15.16700   2 ;    C12-   C13-   C15-   H21
    16     14      6     23      9 ;     0.00   0.00000   0 ;    C13-   C11-    C3-    H2
    16     14     17     19      9 ;   180.00  15.16700   2 ;    C13-   C11-   C14-   C16
    16     14     17     41      9 ;   180.00  15.16700   2 ;    C13-   C11-   C14-   H20
    16     15     12     33      9 ;     0.00   0.65084   3 ;    C13-   C12-    C9-   H12
    16     15     12     34      9 ;     0.00   0.65084   3 ;    C13-   C12-    C9-   H13
    16     18     20     19      9 ;   180.00  15.16700   2 ;    C13-   C15-   C17-   C16
    17     14      6     23      9 ;     0.00   0.00000   0 ;    C14-   C11-    C3-    H2
    17     14     16     18      9 ;   180.00  15.16700   2 ;    C14-   C11-   C13-   C15
    17     19     20     18      9 ;   180.00  15.16700   2 ;    C14-   C16-   C17-   C15
    18     16     15     38      9 ;     0.00   0.00000   0 ;    C15-   C13-   C12-   H17
    18     16     15     39      9 ;     0.00   0.00000   0 ;    C15-   C13-   C12-   H18
    18     20      2     44      9 ;   180.00   3.57732   2 ;    C15-   C17-    O1-   H23
    18     20     19     43      9 ;   180.00  15.16700   2 ;    C15-   C17-   C16-   H22
    19     20      2     44      9 ;   180.00   3.57732   2 ;    C16-   C17-    O1-   H23
    19     20     18     42      9 ;   180.00  15.16700   2 ;    C16-   C17-   C15-   H21
    20     19     17     41      9 ;   180.00  15.16700   2 ;    C17-   C16-   C14-   H20
    21      4      5     22      9 ;     0.00   0.50208   3 ;      H-    C1-    C2-    H1
    21      4      9     27      9 ;     0.00   0.50208   3 ;      H-    C1-    C6-    H6
    21      4      9     28      9 ;     0.00   0.50208   3 ;      H-    C1-    C6-    H7
    22      5      6     23      9 ;     0.00   0.50208   3 ;     H1-    C2-    C3-    H2
    22      5     12     33      9 ;     0.00   0.50208   3 ;     H1-    C2-    C9-   H12
    22      5     12     34      9 ;     0.00   0.50208   3 ;     H1-    C2-    C9-   H13
    23      6     10     29      9 ;     0.00   0.50208   3 ;     H2-    C3-    C7-    H8
    23      6     10     30      9 ;     0.00   0.50208   3 ;     H2-    C3-    C7-    H9
    24      7     11     31      9 ;     0.00   0.65084   3 ;     H3-    C4-    C8-   H10
    24      7     11     32      9 ;     0.00   0.65084   3 ;     H3-    C4-    C8-   H11
    25      8     10     29      9 ;     0.00   0.50208   3 ;     H4-    C5-    C7-    H8
    25      8     10     30      9 ;     0.00   0.50208   3 ;     H4-    C5-    C7-    H9
    26      8     10     29      9 ;     0.00   0.50208   3 ;     H5-    C5-    C7-    H8
    26      8     10     30      9 ;     0.00   0.50208   3 ;     H5-    C5-    C7-    H9
    27      9     11     31      9 ;     0.00   0.50208   3 ;     H6-    C6-    C8-   H10
    27      9     11     32      9 ;     0.00   0.50208   3 ;     H6-    C6-    C8-   H11
    28      9     11     31      9 ;     0.00   0.50208   3 ;     H7-    C6-    C8-   H10
    28      9     11     32      9 ;     0.00   0.50208   3 ;     H7-    C6-    C8-   H11
    33     12     15     38      9 ;     0.00   0.50208   3 ;    H12-    C9-   C12-   H17
    33     12     15     39      9 ;     0.00   0.50208   3 ;    H12-    C9-   C12-   H18
    34     12     15     38      9 ;     0.00   0.50208   3 ;    H13-    C9-   C12-   H17
    34     12     15     39      9 ;     0.00   0.50208   3 ;    H13-    C9-   C12-   H18
    40      1      7      3      9 ;     0.00   0.25104   3 ;    H19-     O-    C4-     C
    40      1      7     11      9 ;     0.00   0.25104   3 ;    H19-     O-    C4-    C8
    40      1      7     24      9 ;     0.00   0.51463   3 ;    H19-     O-    C4-    H3
    41     17     19     43      9 ;   180.00  15.16700   2 ;    H20-   C14-   C16-   H22

[ dihedrals ] ; impropers
; treated as propers in GROMACS to use correct AMBER analytical function
;    i      j      k      l   func   phase     kd      pn
     6     16     14     17      4 ;   180.00   4.60240   2 ;     C3-   C13-   C11-   C14
    14     19     17     41      4 ;   180.00   4.60240   2 ;    C11-   C16-   C14-   H20
    15     14     16     18      4 ;   180.00   4.60240   2 ;    C12-   C11-   C13-   C15
    16     20     18     42      4 ;   180.00   4.60240   2 ;    C13-   C17-   C15-   H21
    17     20     19     43      4 ;   180.00   4.60240   2 ;    C14-   C17-   C16-   H22
    18     19     20      2      4 ;   180.00   4.60240   2 ;    C15-   C16-   C17-    O1
