; warfarin_GMX_OPLS.itp created by acpype (v: 2023.10.27) on Mon Feb  9 18:01:25 2026

; For OPLS atomtypes manual fine tuning
; AC_at:OPLS_at:OPLScode: Possible_Alternatives (see ffoplsaa.atp and ffoplsaanb.itp)
; os:x:opls_x: []
; oh:OH:opls_154: ['167']
; o:O:opls_236: ['272']
; c3:CT:opls_135: ['136', '137', '149', '157', '158', '206', '209', '210', '223B', '224B', '245', '246', '274', '283', '284', '285', '292', '292B', '293B', '296', '307', '308', '505']
; cc:C*:opls_500: ['506', '507', '508', '514']
; ca:CA:opls_145: ['166', '501', '502']
; cd:C*:opls_500: ['506', '507', '508', '514']
; c:C:opls_235: ['271']
; hc:HC:opls_140: []
; ha:HA:opls_146: []
; ho:HO:opls_155: ['168']

[ moleculetype ]
;name            nrexcl
 warfarin         3

[ atoms ]
;   nr  type  resi  res  atom  cgnr     charge      mass       ; qtot   bond_type
     1 opls_x     1   UNL     O    1    -0.324200      0.00000 ; qtot -0.324  x   
     2 opls_154     1   UNL    O1    2    -0.490100     15.99940 ; qtot -0.814  OH  
     3 opls_236     1   UNL    O2    3    -0.555500     15.99940 ; qtot -1.370  O   
     4 opls_236     1   UNL    O3    4    -0.524100     15.99940 ; qtot -1.894  O   
     5 opls_135     1   UNL     C    5     0.046800     12.01100 ; qtot -1.847  CT  
     6 opls_500     1   UNL    C1    6    -0.226400     12.01100 ; qtot -2.074  C*  
     7 opls_135     1   UNL    C2    7    -0.180400     12.01100 ; qtot -2.254  CT  
     8 opls_145     1   UNL    C3    8    -0.081300     12.01100 ; qtot -2.335  CA  
     9 opls_500     1   UNL    C4    9     0.218900     12.01100 ; qtot -2.116  C*  
    10 opls_145     1   UNL    C5   10    -0.183800     12.01100 ; qtot -2.300  CA  
    11 opls_235     1   UNL    C6   11     0.734800     12.01100 ; qtot -1.565  C   
    12 opls_235     1   UNL    C7   12     0.563100     12.01100 ; qtot -1.002  C   
    13 opls_145     1   UNL    C8   13    -0.121000     12.01100 ; qtot -1.123  CA  
    14 opls_145     1   UNL    C9   14    -0.121000     12.01100 ; qtot -1.244  CA  
    15 opls_145     1   UNL   C10   15     0.169100     12.01100 ; qtot -1.075  CA  
    16 opls_145     1   UNL   C11   16    -0.085000     12.01100 ; qtot -1.160  CA  
    17 opls_145     1   UNL   C12   17    -0.133500     12.01100 ; qtot -1.294  CA  
    18 opls_145     1   UNL   C13   18    -0.133500     12.01100 ; qtot -1.427  CA  
    19 opls_145     1   UNL   C14   19    -0.145000     12.01100 ; qtot -1.572  CA  
    20 opls_135     1   UNL   C15   20    -0.202100     12.01100 ; qtot -1.774  CT  
    21 opls_145     1   UNL   C16   21    -0.129000     12.01100 ; qtot -1.903  CA  
    22 opls_145     1   UNL   C17   22    -0.154000     12.01100 ; qtot -2.057  CA  
    23 opls_145     1   UNL   C18   23    -0.080000     12.01100 ; qtot -2.137  CA  
    24 opls_140     1   UNL     H   24     0.107700      1.00800 ; qtot -2.030  HC  
    25 opls_140     1   UNL    H1   25     0.076700      1.00800 ; qtot -1.953  HC  
    26 opls_140     1   UNL    H2   26     0.076700      1.00800 ; qtot -1.876  HC  
    27 opls_146     1   UNL    H3   27     0.141500      1.00800 ; qtot -1.735  HA  
    28 opls_146     1   UNL    H4   28     0.141500      1.00800 ; qtot -1.593  HA  
    29 opls_146     1   UNL    H5   29     0.130000      1.00800 ; qtot -1.463  HA  
    30 opls_146     1   UNL    H6   30     0.130500      1.00800 ; qtot -1.333  HA  
    31 opls_146     1   UNL    H7   31     0.130500      1.00800 ; qtot -1.202  HA  
    32 opls_146     1   UNL    H8   32     0.165000      1.00800 ; qtot -1.037  HA  
    33 opls_140     1   UNL    H9   33     0.062700      1.00800 ; qtot -0.974  HC  
    34 opls_140     1   UNL   H10   34     0.062700      1.00800 ; qtot -0.912  HC  
    35 opls_140     1   UNL   H11   35     0.062700      1.00800 ; qtot -0.849  HC  
    36 opls_146     1   UNL   H12   36     0.130000      1.00800 ; qtot -0.719  HA  
    37 opls_146     1   UNL   H13   37     0.143000      1.00800 ; qtot -0.576  HA  
    38 opls_155     1   UNL   H14   38     0.431000      1.00800 ; qtot -0.145  HO  
    39 opls_146     1   UNL   H15   39     0.145000      1.00800 ; qtot -0.000  HA  

[ bonds ]
;   ai     aj funct   r             k
     1     11   1 ;    1.3621e-01    2.9398e+05 ;      O - C6          x - C     
     1     15   1 ;    1.3688e-01    2.8731e+05 ;      O - C10         x - CA    
     2      9   1 ;    1.3492e-01    3.0737e+05 ;     O1 - C4         OH - C*    
     2     38   1 ;    9.7250e-02    4.4811e+05 ;     O1 - H14        OH - HO    
     3     11   1 ;    1.2190e-01    4.9421e+05 ;     O2 - C6          O - C     
     4     12   1 ;    1.2190e-01    4.9421e+05 ;     O3 - C7          O - C     
     5      6   1 ;    1.5002e-01    2.1350e+05 ;      C - C1         CT - C*    
     5      7   1 ;    1.5354e-01    1.9154e+05 ;      C - C2         CT - CT    
     5      8   1 ;    1.5147e-01    2.0410e+05 ;      C - C3         CT - CA    
     5     24   1 ;    1.0962e-01    2.8891e+05 ;      C - H          CT - HC    
     6      9   1 ;    1.3730e-01    3.2321e+05 ;     C1 - C4         C* - C*    
     6     11   1 ;    1.4687e-01    2.3579e+05 ;     C1 - C6         C* - C     
     7     12   1 ;    1.5270e-01    1.9652e+05 ;     C2 - C7         CT - C     
     7     25   1 ;    1.0962e-01    2.8891e+05 ;     C2 - H1         CT - HC    
     7     26   1 ;    1.0962e-01    2.8891e+05 ;     C2 - H2         CT - HC    
     8     13   1 ;    1.3986e-01    2.9644e+05 ;     C3 - C8         CA - CA    
     8     14   1 ;    1.3986e-01    2.9644e+05 ;     C3 - C9         CA - CA    
     9     10   1 ;    1.4610e-01    2.4166e+05 ;     C4 - C5         C* - CA    
    10     15   1 ;    1.3986e-01    2.9644e+05 ;     C5 - C10        CA - CA    
    10     16   1 ;    1.3986e-01    2.9644e+05 ;     C5 - C11        CA - CA    
    12     20   1 ;    1.5270e-01    1.9652e+05 ;     C7 - C15         C - CT    
    13     17   1 ;    1.3986e-01    2.9644e+05 ;     C8 - C12        CA - CA    
    13     27   1 ;    1.0860e-01    3.0183e+05 ;     C8 - H3         CA - HA    
    14     18   1 ;    1.3986e-01    2.9644e+05 ;     C9 - C13        CA - CA    
    14     28   1 ;    1.0860e-01    3.0183e+05 ;     C9 - H4         CA - HA    
    15     19   1 ;    1.3986e-01    2.9644e+05 ;    C10 - C14        CA - CA    
    16     22   1 ;    1.3986e-01    2.9644e+05 ;    C11 - C17        CA - CA    
    16     29   1 ;    1.0860e-01    3.0183e+05 ;    C11 - H5         CA - HA    
    17     21   1 ;    1.3986e-01    2.9644e+05 ;    C12 - C16        CA - CA    
    17     30   1 ;    1.0860e-01    3.0183e+05 ;    C12 - H6         CA - HA    
    18     21   1 ;    1.3986e-01    2.9644e+05 ;    C13 - C16        CA - CA    
    18     31   1 ;    1.0860e-01    3.0183e+05 ;    C13 - H7         CA - HA    
    19     23   1 ;    1.3986e-01    2.9644e+05 ;    C14 - C18        CA - CA    
    19     32   1 ;    1.0860e-01    3.0183e+05 ;    C14 - H8         CA - HA    
    20     33   1 ;    1.0962e-01    2.8891e+05 ;    C15 - H9         CT - HC    
    20     34   1 ;    1.0962e-01    2.8891e+05 ;    C15 - H10        CT - HC    
    20     35   1 ;    1.0962e-01    2.8891e+05 ;    C15 - H11        CT - HC    
    21     36   1 ;    1.0860e-01    3.0183e+05 ;    C16 - H12        CA - HA    
    22     23   1 ;    1.3986e-01    2.9644e+05 ;    C17 - C18        CA - CA    
    22     37   1 ;    1.0860e-01    3.0183e+05 ;    C17 - H13        CA - HA    
    23     39   1 ;    1.0860e-01    3.0183e+05 ;    C18 - H15        CA - HA    

[ pairs ]
;   ai     aj    funct
     1      5      1 ;      O - C     
     1      9      1 ;      O - C4    
     1     16      1 ;      O - C11   
     1     23      1 ;      O - C18   
     1     32      1 ;      O - H8    
     2      5      1 ;     O1 - C     
     2     11      1 ;     O1 - C6    
     2     15      1 ;     O1 - C10   
     2     16      1 ;     O1 - C11   
     3      5      1 ;     O2 - C     
     3      9      1 ;     O2 - C4    
     4      5      1 ;     O3 - C     
     4     25      1 ;     O3 - H1    
     4     26      1 ;     O3 - H2    
     4     33      1 ;     O3 - H9    
     4     34      1 ;     O3 - H10   
     4     35      1 ;     O3 - H11   
     5     10      1 ;      C - C5    
     5     17      1 ;      C - C12   
     5     18      1 ;      C - C13   
     5     20      1 ;      C - C15   
     5     27      1 ;      C - H3    
     5     28      1 ;      C - H4    
     6     12      1 ;     C1 - C7    
     6     13      1 ;     C1 - C8    
     6     14      1 ;     C1 - C9    
     6     15      1 ;     C1 - C10   
     6     16      1 ;     C1 - C11   
     6     25      1 ;     C1 - H1    
     6     26      1 ;     C1 - H2    
     6     38      1 ;     C1 - H14   
     7      9      1 ;     C2 - C4    
     7     11      1 ;     C2 - C6    
     7     13      1 ;     C2 - C8    
     7     14      1 ;     C2 - C9    
     7     33      1 ;     C2 - H9    
     7     34      1 ;     C2 - H10   
     7     35      1 ;     C2 - H11   
     8      9      1 ;     C3 - C4    
     8     11      1 ;     C3 - C6    
     8     12      1 ;     C3 - C7    
     8     21      1 ;     C3 - C16   
     8     25      1 ;     C3 - H1    
     8     26      1 ;     C3 - H2    
     8     30      1 ;     C3 - H6    
     8     31      1 ;     C3 - H7    
     9     19      1 ;     C4 - C14   
     9     22      1 ;     C4 - C17   
     9     24      1 ;     C4 - H     
     9     29      1 ;     C4 - H5    
    10     11      1 ;     C5 - C6    
    10     23      1 ;     C5 - C18   
    10     32      1 ;     C5 - H8    
    10     37      1 ;     C5 - H13   
    10     38      1 ;     C5 - H14   
    11     19      1 ;     C6 - C14   
    11     24      1 ;     C6 - H     
    12     24      1 ;     C7 - H     
    13     18      1 ;     C8 - C13   
    13     24      1 ;     C8 - H     
    13     28      1 ;     C8 - H4    
    13     36      1 ;     C8 - H12   
    14     17      1 ;     C9 - C12   
    14     24      1 ;     C9 - H     
    14     27      1 ;     C9 - H3    
    14     36      1 ;     C9 - H12   
    15      3      1 ;    C10 - O2    
    15     22      1 ;    C10 - C17   
    15     29      1 ;    C10 - H5    
    15     39      1 ;    C10 - H15   
    16     19      1 ;    C11 - C14   
    16     39      1 ;    C11 - H15   
    17     31      1 ;    C12 - H7    
    18     30      1 ;    C13 - H6    
    19     37      1 ;    C14 - H13   
    20     25      1 ;    C15 - H1    
    20     26      1 ;    C15 - H2    
    21     27      1 ;    C16 - H3    
    21     28      1 ;    C16 - H4    
    22     32      1 ;    C17 - H8    
    23     29      1 ;    C18 - H5    
    24     25      1 ;      H - H1    
    24     26      1 ;      H - H2    
    27     30      1 ;     H3 - H6    
    28     31      1 ;     H4 - H7    
    29     37      1 ;     H5 - H13   
    30     36      1 ;     H6 - H12   
    31     36      1 ;     H7 - H12   
    32     39      1 ;     H8 - H15   
    37     39      1 ;    H13 - H15   

[ angles ]
;   ai     aj     ak    funct   theta         cth
     1     11      3      1 ;    1.2320e+02    8.4734e+02 ;      O - C6   - O2        x -    C - O   
     1     11      6      1 ;    1.1410e+02    6.5856e+02 ;      O - C6   - C1        x -    C - C*  
     1     15     10      1 ;    1.1911e+02    6.6107e+02 ;      O - C10  - C5        x -   CA - CA  
     1     15     19      1 ;    1.1911e+02    6.6107e+02 ;      O - C10  - C14       x -   CA - CA  
     2      9      6      1 ;    1.2370e+02    6.5948e+02 ;     O1 - C4   - C1       OH -   C* - C*  
     2      9     10      1 ;    1.1925e+02    6.4869e+02 ;     O1 - C4   - C5       OH -   C* - CA  
     3     11      6      1 ;    1.2406e+02    6.5572e+02 ;     O2 - C6   - C1        O -    C - C*  
     4     12      7      1 ;    1.2290e+02    6.3973e+02 ;     O3 - C7   - C2        O -    C - CT  
     4     12     20      1 ;    1.2290e+02    6.3973e+02 ;     O3 - C7   - C15       O -    C - CT  
     5      6      9      1 ;    1.2771e+02    5.0091e+02 ;      C - C1   - C4       CT -   C* - C*  
     5      6     11      1 ;    1.1752e+02    5.0718e+02 ;      C - C1   - C6       CT -   C* - C   
     5      7     12      1 ;    1.1143e+02    5.0509e+02 ;      C - C2   - C7       CT -   CT - C   
     5      7     25      1 ;    1.0968e+02    3.6208e+02 ;      C - C2   - H1       CT -   CT - HC  
     5      7     26      1 ;    1.0968e+02    3.6208e+02 ;      C - C2   - H2       CT -   CT - HC  
     5      8     13      1 ;    1.2083e+02    5.0827e+02 ;      C - C3   - C8       CT -   CA - CA  
     5      8     14      1 ;    1.2083e+02    5.0827e+02 ;      C - C3   - C9       CT -   CA - CA  
     6      5      7      1 ;    1.1296e+02    5.0593e+02 ;     C1 - C    - C2       C* -   CT - CT  
     6      5      8      1 ;    1.1326e+02    5.0886e+02 ;     C1 - C    - C3       C* -   CT - CA  
     6      5     24      1 ;    1.1036e+02    3.6853e+02 ;     C1 - C    - H        C* -   CT - HC  
     6      9     10      1 ;    1.2429e+02    5.1580e+02 ;     C1 - C4   - C5       C* -   C* - CA  
     7      5      8      1 ;    1.1242e+02    5.0484e+02 ;     C2 - C    - C3       CT -   CT - CA  
     7      5     24      1 ;    1.0968e+02    3.6208e+02 ;     C2 - C    - H        CT -   CT - HC  
     7     12     20      1 ;    1.1668e+02    4.9497e+02 ;     C2 - C7   - C15      CT -    C - CT  
     8      5     24      1 ;    1.1063e+02    3.6493e+02 ;     C3 - C    - H        CA -   CT - HC  
     8     13     17      1 ;    1.2002e+02    5.3279e+02 ;     C3 - C8   - C12      CA -   CA - CA  
     8     13     27      1 ;    1.1988e+02    3.7572e+02 ;     C3 - C8   - H3       CA -   CA - HA  
     8     14     18      1 ;    1.2002e+02    5.3279e+02 ;     C3 - C9   - C13      CA -   CA - CA  
     8     14     28      1 ;    1.1988e+02    3.7572e+02 ;     C3 - C9   - H4       CA -   CA - HA  
     9      2     38      1 ;    1.0720e+02    5.7354e+02 ;     C4 - O1   - H14      C* -   OH - HO  
     9      6     11      1 ;    1.2132e+02    5.2049e+02 ;     C4 - C1   - C6       C* -   C* - C   
     9     10     15      1 ;    1.2083e+02    5.1898e+02 ;     C4 - C5   - C10      C* -   CA - CA  
     9     10     16      1 ;    1.2083e+02    5.1898e+02 ;     C4 - C5   - C11      C* -   CA - CA  
    10     15     19      1 ;    1.2002e+02    5.3279e+02 ;     C5 - C10  - C14      CA -   CA - CA  
    10     16     22      1 ;    1.2002e+02    5.3279e+02 ;     C5 - C11  - C17      CA -   CA - CA  
    10     16     29      1 ;    1.1988e+02    3.7572e+02 ;     C5 - C11  - H5       CA -   CA - HA  
    11      1     15      1 ;    1.2129e+02    7.4776e+02 ;     C6 - O    - C10       C -    x - CA  
    12      7     25      1 ;    1.0895e+02    3.6510e+02 ;     C7 - C2   - H1        C -   CT - HC  
    12      7     26      1 ;    1.0895e+02    3.6510e+02 ;     C7 - C2   - H2        C -   CT - HC  
    12     20     33      1 ;    1.0895e+02    3.6510e+02 ;     C7 - C15  - H9        C -   CT - HC  
    12     20     34      1 ;    1.0895e+02    3.6510e+02 ;     C7 - C15  - H10       C -   CT - HC  
    12     20     35      1 ;    1.0895e+02    3.6510e+02 ;     C7 - C15  - H11       C -   CT - HC  
    13      8     14      1 ;    1.2002e+02    5.3279e+02 ;     C8 - C3   - C9       CA -   CA - CA  
    13     17     21      1 ;    1.2002e+02    5.3279e+02 ;     C8 - C12  - C16      CA -   CA - CA  
    13     17     30      1 ;    1.1988e+02    3.7572e+02 ;     C8 - C12  - H6       CA -   CA - HA  
    14     18     21      1 ;    1.2002e+02    5.3279e+02 ;     C9 - C13  - C16      CA -   CA - CA  
    14     18     31      1 ;    1.1988e+02    3.7572e+02 ;     C9 - C13  - H7       CA -   CA - HA  
    15     10     16      1 ;    1.2002e+02    5.3279e+02 ;    C10 - C5   - C11      CA -   CA - CA  
    15     19     23      1 ;    1.2002e+02    5.3279e+02 ;    C10 - C14  - C18      CA -   CA - CA  
    15     19     32      1 ;    1.1988e+02    3.7572e+02 ;    C10 - C14  - H8       CA -   CA - HA  
    16     22     23      1 ;    1.2002e+02    5.3279e+02 ;    C11 - C17  - C18      CA -   CA - CA  
    16     22     37      1 ;    1.1988e+02    3.7572e+02 ;    C11 - C17  - H13      CA -   CA - HA  
    17     13     27      1 ;    1.1988e+02    3.7572e+02 ;    C12 - C8   - H3       CA -   CA - HA  
    17     21     18      1 ;    1.2002e+02    5.3279e+02 ;    C12 - C16  - C13      CA -   CA - CA  
    17     21     36      1 ;    1.1988e+02    3.7572e+02 ;    C12 - C16  - H12      CA -   CA - HA  
    18     14     28      1 ;    1.1988e+02    3.7572e+02 ;    C13 - C9   - H4       CA -   CA - HA  
    18     21     36      1 ;    1.1988e+02    3.7572e+02 ;    C13 - C16  - H12      CA -   CA - HA  
    19     23     22      1 ;    1.2002e+02    5.3279e+02 ;    C14 - C18  - C17      CA -   CA - CA  
    19     23     39      1 ;    1.1988e+02    3.7572e+02 ;    C14 - C18  - H15      CA -   CA - HA  
    21     17     30      1 ;    1.1988e+02    3.7572e+02 ;    C16 - C12  - H6       CA -   CA - HA  
    21     18     31      1 ;    1.1988e+02    3.7572e+02 ;    C16 - C13  - H7       CA -   CA - HA  
    22     16     29      1 ;    1.1988e+02    3.7572e+02 ;    C17 - C11  - H5       CA -   CA - HA  
    22     23     39      1 ;    1.1988e+02    3.7572e+02 ;    C17 - C18  - H15      CA -   CA - HA  
    23     19     32      1 ;    1.1988e+02    3.7572e+02 ;    C18 - C14  - H8       CA -   CA - HA  
    23     22     37      1 ;    1.1988e+02    3.7572e+02 ;    C18 - C17  - H13      CA -   CA - HA  
    25      7     26      1 ;    1.0773e+02    2.9957e+02 ;     H1 - C2   - H2       HC -   CT - HC  
    33     20     34      1 ;    1.0773e+02    2.9957e+02 ;     H9 - C15  - H10      HC -   CT - HC  
    33     20     35      1 ;    1.0773e+02    2.9957e+02 ;     H9 - C15  - H11      HC -   CT - HC  
    34     20     35      1 ;    1.0773e+02    2.9957e+02 ;    H10 - C15  - H11      HC -   CT - HC  

[ dihedrals ] ; propers
; for gromacs 4.5 or higher, using funct 9
;    i      j      k      l   func   phase     kd      pn
     1     11      6      5      9 ;   180.00  12.02900   2 ;      O-    C6-    C1-     C
     1     11      6      9      9 ;   180.00  12.02900   2 ;      O-    C6-    C1-    C4
     1     15     10      9      9 ;   180.00  15.16700   2 ;      O-   C10-    C5-    C4
     1     15     10     16      9 ;   180.00  15.16700   2 ;      O-   C10-    C5-   C11
     1     15     19     23      9 ;   180.00  15.16700   2 ;      O-   C10-   C14-   C18
     1     15     19     32      9 ;   180.00  15.16700   2 ;      O-   C10-   C14-    H8
     2      9      6      5      9 ;   180.00  16.73600   2 ;     O1-    C4-    C1-     C
     2      9      6     11      9 ;   180.00  16.73600   2 ;     O1-    C4-    C1-    C6
     2      9     10     15      9 ;   180.00   2.92880   2 ;     O1-    C4-    C5-   C10
     2      9     10     16      9 ;   180.00   2.92880   2 ;     O1-    C4-    C5-   C11
     3     11      6      5      9 ;   180.00  12.02900   2 ;     O2-    C6-    C1-     C
     3     11      6      9      9 ;   180.00  12.02900   2 ;     O2-    C6-    C1-    C4
     4     12      7      5      9 ;     0.00   2.84512   1 ;     O3-    C7-    C2-     C
     4     12      7      5      9 ;   180.00   0.83680   2 ;     O3-    C7-    C2-     C
     4     12      7      5      9 ;   180.00   1.84096   3 ;     O3-    C7-    C2-     C
     4     12      7     25      9 ;     0.00  16.86152   1 ;     O3-    C7-    C2-    H1
     4     12      7     25      9 ;   180.00  15.31344   2 ;     O3-    C7-    C2-    H1
     4     12      7     26      9 ;     0.00  16.86152   1 ;     O3-    C7-    C2-    H2
     4     12      7     26      9 ;   180.00  15.31344   2 ;     O3-    C7-    C2-    H2
     4     12     20     33      9 ;     0.00  16.86152   1 ;     O3-    C7-   C15-    H9
     4     12     20     33      9 ;   180.00  15.31344   2 ;     O3-    C7-   C15-    H9
     4     12     20     34      9 ;     0.00  16.86152   1 ;     O3-    C7-   C15-   H10
     4     12     20     34      9 ;   180.00  15.31344   2 ;     O3-    C7-   C15-   H10
     4     12     20     35      9 ;     0.00  16.86152   1 ;     O3-    C7-   C15-   H11
     4     12     20     35      9 ;   180.00  15.31344   2 ;     O3-    C7-   C15-   H11
     5      6      9     10      9 ;   180.00  16.73600   2 ;      C-    C1-    C4-    C5
     5      7     12     20      9 ;   180.00   1.09621   2 ;      C-    C2-    C7-   C15
     5      8     13     17      9 ;   180.00  15.16700   2 ;      C-    C3-    C8-   C12
     5      8     13     27      9 ;   180.00  15.16700   2 ;      C-    C3-    C8-    H3
     5      8     14     18      9 ;   180.00  15.16700   2 ;      C-    C3-    C9-   C13
     5      8     14     28      9 ;   180.00  15.16700   2 ;      C-    C3-    C9-    H4
     6      5      7     12      9 ;     0.00   0.65084   3 ;     C1-     C-    C2-    C7
     6      5      7     25      9 ;     0.00   0.65084   3 ;     C1-     C-    C2-    H1
     6      5      7     26      9 ;     0.00   0.65084   3 ;     C1-     C-    C2-    H2
     6      5      8     13      9 ;     0.00   0.00000   0 ;     C1-     C-    C3-    C8
     6      5      8     14      9 ;     0.00   0.00000   0 ;     C1-     C-    C3-    C9
     6      9      2     38      9 ;   180.00   5.35552   2 ;     C1-    C4-    O1-   H14
     6      9     10     15      9 ;   180.00  15.77368   2 ;     C1-    C4-    C5-   C10
     6      9     10     16      9 ;   180.00  15.77368   2 ;     C1-    C4-    C5-   C11
     7      5      6      9      9 ;   180.00   0.65689   3 ;     C2-     C-    C1-    C4
     7      5      6     11      9 ;     0.00   0.00000   0 ;     C2-     C-    C1-    C6
     7      5      8     13      9 ;   180.00   1.00416   2 ;     C2-     C-    C3-    C8
     7      5      8     14      9 ;   180.00   1.00416   2 ;     C2-     C-    C3-    C9
     7     12     20     33      9 ;   180.00   0.00000   3 ;     C2-    C7-   C15-    H9
     7     12     20     34      9 ;   180.00   0.00000   3 ;     C2-    C7-   C15-   H10
     7     12     20     35      9 ;   180.00   0.00000   3 ;     C2-    C7-   C15-   H11
     8      5      6      9      9 ;   180.00   1.38072   1 ;     C3-     C-    C1-    C4
     8      5      6     11      9 ;     0.00   0.00000   0 ;     C3-     C-    C1-    C6
     8      5      7     12      9 ;     0.00   3.43088   1 ;     C3-     C-    C2-    C7
     8      5      7     25      9 ;     0.00   0.65084   3 ;     C3-     C-    C2-    H1
     8      5      7     26      9 ;     0.00   0.65084   3 ;     C3-     C-    C2-    H2
     8     13     17     21      9 ;   180.00  15.16700   2 ;     C3-    C8-   C12-   C16
     8     13     17     30      9 ;   180.00  15.16700   2 ;     C3-    C8-   C12-    H6
     8     14     18     21      9 ;   180.00  15.16700   2 ;     C3-    C9-   C13-   C16
     8     14     18     31      9 ;   180.00  15.16700   2 ;     C3-    C9-   C13-    H7
     9      6      5     24      9 ;     0.00   0.00000   0 ;     C4-    C1-     C-     H
     9     10     15     19      9 ;   180.00  15.16700   2 ;     C4-    C5-   C10-   C14
     9     10     16     22      9 ;   180.00  15.16700   2 ;     C4-    C5-   C11-   C17
     9     10     16     29      9 ;   180.00  15.16700   2 ;     C4-    C5-   C11-    H5
    10      9      2     38      9 ;   180.00   3.57732   2 ;     C5-    C4-    O1-   H14
    10      9      6     11      9 ;   180.00  16.73600   2 ;     C5-    C4-    C1-    C6
    10     15     19     23      9 ;   180.00  15.16700   2 ;     C5-   C10-   C14-   C18
    10     15     19     32      9 ;   180.00  15.16700   2 ;     C5-   C10-   C14-    H8
    10     16     22     23      9 ;   180.00  15.16700   2 ;     C5-   C11-   C17-   C18
    10     16     22     37      9 ;   180.00  15.16700   2 ;     C5-   C11-   C17-   H13
    11      1     15     10      9 ;   180.00   4.10032   2 ;     C6-     O-   C10-    C5
    11      1     15     19      9 ;   180.00   4.10032   2 ;     C6-     O-   C10-   C14
    11      6      5     24      9 ;     0.00   0.00000   0 ;     C6-    C1-     C-     H
    12      7      5     24      9 ;     0.00   0.65084   3 ;     C7-    C2-     C-     H
    13      8      5     24      9 ;     0.00   0.00000   0 ;     C8-    C3-     C-     H
    13      8     14     18      9 ;   180.00  15.16700   2 ;     C8-    C3-    C9-   C13
    13      8     14     28      9 ;   180.00  15.16700   2 ;     C8-    C3-    C9-    H4
    13     17     21     18      9 ;   180.00  15.16700   2 ;     C8-   C12-   C16-   C13
    13     17     21     36      9 ;   180.00  15.16700   2 ;     C8-   C12-   C16-   H12
    14      8      5     24      9 ;     0.00   0.00000   0 ;     C9-    C3-     C-     H
    14      8     13     17      9 ;   180.00  15.16700   2 ;     C9-    C3-    C8-   C12
    14      8     13     27      9 ;   180.00  15.16700   2 ;     C9-    C3-    C8-    H3
    14     18     21     17      9 ;   180.00  15.16700   2 ;     C9-   C13-   C16-   C12
    14     18     21     36      9 ;   180.00  15.16700   2 ;     C9-   C13-   C16-   H12
    15      1     11      3      9 ;     0.00   0.33472   3 ;    C10-     O-    C6-    O2
    15      1     11      3      9 ;     0.00   7.23832   1 ;    C10-     O-    C6-    O2
    15      1     11      3      9 ;   180.00   8.99560   2 ;    C10-     O-    C6-    O2
    15      1     11      6      9 ;   180.00  11.29680   2 ;    C10-     O-    C6-    C1
    15     10     16     22      9 ;   180.00  15.16700   2 ;    C10-    C5-   C11-   C17
    15     10     16     29      9 ;   180.00  15.16700   2 ;    C10-    C5-   C11-    H5
    15     19     23     22      9 ;   180.00  15.16700   2 ;    C10-   C14-   C18-   C17
    15     19     23     39      9 ;   180.00  15.16700   2 ;    C10-   C14-   C18-   H15
    16     10     15     19      9 ;   180.00  15.16700   2 ;    C11-    C5-   C10-   C14
    16     22     23     19      9 ;   180.00  15.16700   2 ;    C11-   C17-   C18-   C14
    16     22     23     39      9 ;   180.00  15.16700   2 ;    C11-   C17-   C18-   H15
    17     21     18     31      9 ;   180.00  15.16700   2 ;    C12-   C16-   C13-    H7
    18     21     17     30      9 ;   180.00  15.16700   2 ;    C13-   C16-   C12-    H6
    19     23     22     37      9 ;   180.00  15.16700   2 ;    C14-   C18-   C17-   H13
    20     12      7     25      9 ;   180.00   0.00000   3 ;    C15-    C7-    C2-    H1
    20     12      7     26      9 ;   180.00   0.00000   3 ;    C15-    C7-    C2-    H2
    21     17     13     27      9 ;   180.00  15.16700   2 ;    C16-   C12-    C8-    H3
    21     18     14     28      9 ;   180.00  15.16700   2 ;    C16-   C13-    C9-    H4
    22     23     19     32      9 ;   180.00  15.16700   2 ;    C17-   C18-   C14-    H8
    23     22     16     29      9 ;   180.00  15.16700   2 ;    C18-   C17-   C11-    H5
    24      5      7     25      9 ;     0.00   0.50208   3 ;      H-     C-    C2-    H1
    24      5      7     26      9 ;     0.00   0.50208   3 ;      H-     C-    C2-    H2
    27     13     17     30      9 ;   180.00  15.16700   2 ;     H3-    C8-   C12-    H6
    28     14     18     31      9 ;   180.00  15.16700   2 ;     H4-    C9-   C13-    H7
    29     16     22     37      9 ;   180.00  15.16700   2 ;     H5-   C11-   C17-   H13
    30     17     21     36      9 ;   180.00  15.16700   2 ;     H6-   C12-   C16-   H12
    31     18     21     36      9 ;   180.00  15.16700   2 ;     H7-   C13-   C16-   H12
    32     19     23     39      9 ;   180.00  15.16700   2 ;     H8-   C14-   C18-   H15
    37     22     23     39      9 ;   180.00  15.16700   2 ;    H13-   C17-   C18-   H15

[ dihedrals ] ; impropers
; treated as propers in GROMACS to use correct AMBER analytical function
;    i      j      k      l   func   phase     kd      pn
     1     11      3      6      4 ;   180.00   4.60240   2 ;      O-    C6-    O2-    C1
     1     15     19     10      4 ;   180.00   4.60240   2 ;      O-   C10-   C14-    C5
     7     20     12      4      4 ;   180.00  43.93200   2 ;     C2-   C15-    C7-    O3
     8     17     13     27      4 ;   180.00   4.60240   2 ;     C3-   C12-    C8-    H3
     8     18     14     28      4 ;   180.00   4.60240   2 ;     C3-   C13-    C9-    H4
    10      6      9      2      4 ;   180.00   4.60240   2 ;     C5-    C1-    C4-    O1
    10     22     16     29      4 ;   180.00   4.60240   2 ;     C5-   C17-   C11-    H5
    11      5      6      9      4 ;   180.00   4.60240   2 ;     C6-     C-    C1-    C4
    13     14      8      5      4 ;   180.00   4.60240   2 ;     C8-    C9-    C3-     C
    13     21     17     30      4 ;   180.00   4.60240   2 ;     C8-   C16-   C12-    H6
    14     21     18     31      4 ;   180.00   4.60240   2 ;     C9-   C16-   C13-    H7
    15     16     10      9      4 ;   180.00   4.60240   2 ;    C10-   C11-    C5-    C4
    15     23     19     32      4 ;   180.00   4.60240   2 ;    C10-   C18-   C14-    H8
    16     23     22     37      4 ;   180.00   4.60240   2 ;    C11-   C18-   C17-   H13
    17     18     21     36      4 ;   180.00   4.60240   2 ;    C12-   C13-   C16-   H12
    19     22     23     39      4 ;   180.00   4.60240   2 ;    C14-   C17-   C18-   H15
