; warfarin_GMX.top created by acpype (v: 2023.10.27) on Mon Feb  9 18:01:25 2026

[ defaults ]
; nbfunc        comb-rule       gen-pairs       fudgeLJ fudgeQQ
1               2               yes             0.5     0.8333333333

; Include warfarin_GMX.itp topology
#include "warfarin_GMX.itp"

; Ligand position restraints
#ifdef POSRES_LIG
#include "posre_warfarin.itp"
#endif

[ system ]
 warfarin

[ molecules ]
; Compound        nmols
 warfarin         1     
