%VERSION  VERSION_STAMP = V0001.000  DATE = 02/09/26  18:02:12                  
%FLAG TITLE                                                                     
%FORMAT(20a4)                                                                   
54678486                                                                        
%FLAG POINTERS                                                                  
%FORMAT(10I8)                                                                   
      39       8      16      25      33      35      66      58       0       0
     204       1      25      35      58      15      27      30      11       0
       0       0       0       0       0       0       0       0      39       0
       0
%FLAG ATOM_NAME                                                                 
%FORMAT(20a4)                                                                   
O   O1  O2  O3  C   C1  C2  C3  C4  C5  C6  C7  C8  C9  C10 C11 C12 C13 C14 C15 
C16 C17 C18 H   H1  H2  H3  H4  H5  H6  H7  H8  H9  H10 H11 H12 H13 H14 H15 
%FLAG CHARGE                                                                    
%FORMAT(5E16.8)                                                                 
 -5.90766966E+00 -8.93074923E+00 -1.01224877E+01 -9.55030743E+00  8.52803640E-01
 -4.12552872E+00 -3.28730292E+00 -1.48147299E+00  3.98886147E+00 -3.34925874E+00
  1.33715237E+01  1.02609771E+01 -2.20489830E+00 -2.20489830E+00  3.08139093E+00
 -1.54889550E+00 -2.43267705E+00 -2.43267705E+00 -2.64223350E+00 -3.68272683E+00
 -2.35067670E+00 -2.80623420E+00 -1.45778400E+00  1.96254171E+00  1.39765041E+00
  1.39765041E+00  2.57845545E+00  2.57845545E+00  2.36889900E+00  2.37801015E+00
  2.37801015E+00  3.00667950E+00  1.14253821E+00  1.14253821E+00  1.14253821E+00
  2.36889900E+00  2.60578890E+00  7.85381130E+00  2.64223350E+00
%FLAG ATOMIC_NUMBER                                                             
%FORMAT(10I8)                                                                   
       8       8       8       8       6       6       6       6       6       6
       6       6       6       6       6       6       6       6       6       6
       6       6       6       1       1       1       1       1       1       1
       1       1       1       1       1       1       1       1       1
%FLAG MASS                                                                      
%FORMAT(5E16.8)                                                                 
  1.60000000E+01  1.60000000E+01  1.60000000E+01  1.60000000E+01  1.20100000E+01
  1.20100000E+01  1.20100000E+01  1.20100000E+01  1.20100000E+01  1.20100000E+01
  1.20100000E+01  1.20100000E+01  1.20100000E+01  1.20100000E+01  1.20100000E+01
  1.20100000E+01  1.20100000E+01  1.20100000E+01  1.20100000E+01  1.20100000E+01
  1.20100000E+01  1.20100000E+01  1.20100000E+01  1.00800000E+00  1.00800000E+00
  1.00800000E+00  1.00800000E+00  1.00800000E+00  1.00800000E+00  1.00800000E+00
  1.00800000E+00  1.00800000E+00  1.00800000E+00  1.00800000E+00  1.00800000E+00
  1.00800000E+00  1.00800000E+00  1.00800000E+00  1.00800000E+00
%FLAG ATOM_TYPE_INDEX                                                           
%FORMAT(10I8)                                                                   
       1       2       3       3       4       5       4       5       5       5
       5       5       5       5       5       5       5       5       5       4
       5       5       5       6       6       6       7       7       7       7
       7       7       6       6       6       7       7       8       7
%FLAG NUMBER_EXCLUDED_ATOMS                                                     
%FORMAT(10I8)                                                                   
      11       8       5       9      17      14      13      15       9      10
       3       7       9       8       7       6       6       5       5       5
       5       5       4       2       1       1       1       1       1       1
       1       1       2       1       1       1       1       1       1
%FLAG NONBONDED_PARM_INDEX                                                      
%FORMAT(10I8)                                                                   
       1       2       4       7      11      16      22      29       2       3
       5       8      12      17      23      30       4       5       6       9
      13      18      24      31       7       8       9      10      14      19
      25      32      11      12      13      14      15      20      26      33
      16      17      18      19      20      21      27      34      22      23
      24      25      26      27      28      35      29      30      31      32
      33      34      35      36
%FLAG RESIDUE_LABEL                                                             
%FORMAT(20a4)                                                                   
UNL 
%FLAG RESIDUE_POINTER                                                           
%FORMAT(10I8)                                                                   
       1
%FLAG BOND_FORCE_CONSTANT                                                       
%FORMAT(5E16.8)                                                                 
  3.51310000E+02  3.43340000E+02  3.67310000E+02  5.35510000E+02  5.90600000E+02
  2.55140000E+02  2.28890000E+02  2.43910000E+02  3.45250000E+02  3.86240000E+02
  2.81780000E+02  2.34850000E+02  3.54250000E+02  2.88790000E+02  3.60690000E+02
%FLAG BOND_EQUIL_VALUE                                                          
%FORMAT(5E16.8)                                                                 
  1.36210000E+00  1.36880000E+00  1.34920000E+00  9.72500000E-01  1.21900000E+00
  1.50020000E+00  1.53540000E+00  1.51470000E+00  1.09620000E+00  1.37300000E+00
  1.46870000E+00  1.52700000E+00  1.39860000E+00  1.46100000E+00  1.08600000E+00
%FLAG ANGLE_FORCE_CONSTANT                                                      
%FORMAT(5E16.8)                                                                 
  1.01260000E+02  7.87000000E+01  7.90000000E+01  7.88100000E+01  7.75200000E+01
  7.83600000E+01  7.64500000E+01  5.98600000E+01  6.06100000E+01  6.03600000E+01
  4.32700000E+01  6.07400000E+01  6.04600000E+01  6.08100000E+01  4.40400000E+01
  6.16400000E+01  6.03300000E+01  5.91500000E+01  4.36100000E+01  6.36700000E+01
  4.49000000E+01  6.85400000E+01  6.22000000E+01  6.20200000E+01  8.93600000E+01
  4.36300000E+01  3.58000000E+01
%FLAG ANGLE_EQUIL_VALUE                                                         
%FORMAT(5E16.8)                                                                 
  2.15024656E+00  1.99142153E+00  2.07886256E+00  2.15897321E+00  2.08130603E+00
  2.16525640E+00  2.14501057E+00  2.22896094E+00  2.05111182E+00  1.94482122E+00
  1.91427794E+00  2.10888224E+00  1.97152477E+00  1.97676076E+00  1.92614619E+00
  2.16927066E+00  1.96209999E+00  2.03645104E+00  1.93085858E+00  2.09474507E+00
  2.09230160E+00  1.87099376E+00  2.11743436E+00  2.10888224E+00  2.11691076E+00
  1.90153704E+00  1.88024401E+00
%FLAG DIHEDRAL_FORCE_CONSTANT                                                   
%FORMAT(5E16.8)                                                                 
  2.87500000E+00  3.62500000E+00  4.00000000E+00  7.00000000E-01  1.73000000E+00
  2.15000000E+00  8.00000000E-02  6.80000000E-01  2.00000000E-01  4.40000000E-01
  4.03000000E+00  3.66000000E+00  2.62000000E-01  1.55555556E-01  0.00000000E+00
  1.28000000E+00  3.77000000E+00  2.70000000E+00  1.57000000E-01  0.00000000E+00
  2.40000000E-01  0.00000000E+00  3.30000000E-01  8.20000000E-01  8.55000000E-01
  9.80000000E-01  0.00000000E+00  1.20000000E-01  1.10000000E+00  1.05000000E+01
%FLAG DIHEDRAL_PERIODICITY                                                      
%FORMAT(5E16.8)                                                                 
  2.00000000E+00  2.00000000E+00  2.00000000E+00  2.00000000E+00  1.00000000E+00
  2.00000000E+00  3.00000000E+00  1.00000000E+00  2.00000000E+00  3.00000000E+00
  1.00000000E+00  2.00000000E+00  2.00000000E+00  3.00000000E+00  2.00000000E+00
  2.00000000E+00  2.00000000E+00  2.00000000E+00  3.00000000E+00  3.00000000E+00
  2.00000000E+00  3.00000000E+00  1.00000000E+00  1.00000000E+00  2.00000000E+00
  2.00000000E+00  1.00000000E+00  3.00000000E+00  2.00000000E+00  2.00000000E+00
%FLAG DIHEDRAL_PHASE                                                            
%FORMAT(5E16.8)                                                                 
  3.14159400E+00  3.14159400E+00  3.14159400E+00  3.14159400E+00  0.00000000E+00
  3.14159400E+00  0.00000000E+00  0.00000000E+00  3.14159400E+00  3.14159400E+00
  0.00000000E+00  3.14159400E+00  3.14159400E+00  0.00000000E+00  0.00000000E+00
  3.14159400E+00  3.14159400E+00  3.14159400E+00  3.14159400E+00  0.00000000E+00
  3.14159400E+00  3.14159400E+00  3.14159400E+00  0.00000000E+00  3.14159400E+00
  3.14159400E+00  0.00000000E+00  0.00000000E+00  3.14159400E+00  3.14159400E+00
%FLAG SCEE_SCALE_FACTOR                                                         
%FORMAT(5E16.8)                                                                 
  1.20000000E+00  1.20000000E+00  1.20000000E+00  1.20000000E+00  1.20000000E+00
  1.20000000E+00  1.20000000E+00  1.20000000E+00  1.20000000E+00  1.20000000E+00
  1.20000000E+00  1.20000000E+00  1.20000000E+00  1.20000000E+00  1.20000000E+00
  1.20000000E+00  1.20000000E+00  1.20000000E+00  1.20000000E+00  1.20000000E+00
  1.20000000E+00  1.20000000E+00  1.20000000E+00  1.20000000E+00  1.20000000E+00
  1.20000000E+00  1.20000000E+00  1.20000000E+00  0.00000000E+00  0.00000000E+00
%FLAG SCNB_SCALE_FACTOR                                                         
%FORMAT(5E16.8)                                                                 
  2.00000000E+00  2.00000000E+00  2.00000000E+00  2.00000000E+00  2.00000000E+00
  2.00000000E+00  2.00000000E+00  2.00000000E+00  2.00000000E+00  2.00000000E+00
  2.00000000E+00  2.00000000E+00  2.00000000E+00  2.00000000E+00  2.00000000E+00
  2.00000000E+00  2.00000000E+00  2.00000000E+00  2.00000000E+00  2.00000000E+00
  2.00000000E+00  2.00000000E+00  2.00000000E+00  2.00000000E+00  2.00000000E+00
  2.00000000E+00  2.00000000E+00  2.00000000E+00  0.00000000E+00  0.00000000E+00
%FLAG SOLTY                                                                     
%FORMAT(5E16.8)                                                                 
  0.00000000E+00  0.00000000E+00  0.00000000E+00  0.00000000E+00  0.00000000E+00
  0.00000000E+00  0.00000000E+00  0.00000000E+00  0.00000000E+00  0.00000000E+00
  0.00000000E+00
%FLAG LENNARD_JONES_ACOEF                                                       
%FORMAT(5E16.8)                                                                 
  2.83662575E+05  3.78207390E+05  5.03152404E+05  3.27367585E+05  4.37717034E+05
  3.76435470E+05  5.42502534E+05  7.18991463E+05  6.30925504E+05  1.02073671E+06
  4.46121722E+05  5.92438683E+05  5.17507491E+05  8.43969952E+05  6.96551276E+05
  5.02224902E+04  6.80216136E+04  5.68021765E+04  1.00235148E+05  8.12662403E+04
  7.94617769E+03  4.65732396E+04  6.30298721E+04  5.27277400E+04  9.27554496E+04
  7.52549148E+04  7.41026906E+03  6.90855956E+03  1.16469347E+02  1.74176419E+02
  1.15813907E+02  3.03553352E+02  2.25372434E+02  8.80612241E+00  8.53132435E+00
  1.10360882E-05
%FLAG LENNARD_JONES_BCOEF                                                       
%FORMAT(5E16.8)                                                                 
  2.87011518E+02  3.52573684E+02  4.32634597E+02  3.67361018E+02  4.51916854E+02
  4.69350655E+02  4.38146883E+02  5.36620538E+02  5.62969425E+02  6.63431737E+02
  3.88758656E+02  4.76608379E+02  4.98871431E+02  5.90251928E+02  5.24668528E+02
  8.83545880E+01  1.09393126E+02  1.11953944E+02  1.37787728E+02  1.21392023E+02
  2.57122925E+01  7.98066064E+01  9.87712192E+01  1.01173582E+02  1.24325688E+02
  1.09570372E+02  2.32899892E+01  2.10929191E+01  2.93355636E+00  3.81654050E+00
  3.48534600E+00  5.22789272E+00  4.40751799E+00  5.90150328E-01  5.44840215E-01
  4.55498033E-04
%FLAG BONDS_INC_HYDROGEN                                                        
%FORMAT(10I8)                                                                   
       3     111       4      12      69       9      18      72       9      18
      75       9      36      78      15      39      81      15      45      84
      15      48      87      15      51      90      15      54      93      15
      57      96       9      57      99       9      57     102       9      60
     105      15      63     108      15      66     114      15
%FLAG BONDS_WITHOUT_HYDROGEN                                                    
%FORMAT(10I8)                                                                   
       0      30       1       0      42       2       3      24       3       6
      30       5       9      33       5      12      15       6      12      18
       7      12      21       8      15      24      10      15      30      11
      18      33      12      21      36      13      21      39      13      24
      27      14      27      42      13      27      45      13      33      57
      12      36      48      13      39      51      13      42      54      13
      45      63      13      48      60      13      51      60      13      54
      66      13      63      66      13
%FLAG ANGLES_INC_HYDROGEN                                                       
%FORMAT(10I8)                                                                   
      12      18      72      11      12      18      75      11      15      12
      69      15      18      12      69      11      21      12      69      19
      21      36      78      21      21      39      81      21      24       3
     111      22      27      45      84      21      33      18      72      26
      33      18      75      26      33      57      96      26      33      57
      99      26      33      57     102      26      36      48      87      21
      39      51      90      21      42      54      93      21      45      63
     108      21      48      36      78      21      48      60     105      21
      51      39      81      21      51      60     105      21      54      66
     114      21      60      48      87      21      60      51      90      21
      63      45      84      21      63      66     114      21      66      54
      93      21      66      63     108      21      72      18      75      27
      96      57      99      27      96      57     102      27      99      57
     102      27
%FLAG ANGLES_WITHOUT_HYDROGEN                                                   
%FORMAT(10I8)                                                                   
       0      30       6       1       0      30      15       2       0      42
      27       3       0      42      54       3       3      24      15       4
       3      24      27       5       6      30      15       6       9      33
      18       7       9      33      57       7      12      15      24       8
      12      15      30       9      12      18      33      10      12      21
      36      12      12      21      39      12      15      12      18      13
      15      12      21      14      15      24      27      16      18      12
      21      17      18      33      57      18      21      36      48      20
      21      39      51      20      24      15      30      23      24      27
      42      24      24      27      45      24      27      42      54      20
      27      45      63      20      30       0      42      25      36      21
      39      20      36      48      60      20      39      51      60      20
      42      27      45      20      42      54      66      20      45      63
      66      20      48      60      51      20      54      66      63      20
%FLAG DIHEDRALS_INC_HYDROGEN                                                    
%FORMAT(10I8)                                                                   
       0      42      54      93       2       9      33      18      72      11
       9      33     -18      72      12       9      33      18      75      11
       9      33     -18      75      12       9      33      57      96      11
       9      33     -57      96      12       9      33      57      99      11
       9      33     -57      99      12       9      33      57     102      11
       9      33     -57     102      12      12      21      36      78       2
      12      21      39      81       2      15      12      18      72      14
      15      12      18      75      14      15      24       3     111      16
      18      33      57      96      22      18      33      57      99      22
      18      33      57     102      22      21      12      18      72      14
      21      12      18      75      14      21      36      48      87       2
      21      39      51      90       2      24      15      12      69      20
      24      27      45      84       2      27      24       3     111      25
      27      42      54      93       2      27      45      63     108       2
      30      15      12      69      20      33      18      12      69      14
      36      21      12      69      27      36      21      39      81       2
      36      48      60     105       2      39      21      12      69      27
      39      21      36      78       2      39      51      60     105       2
      42      27      45      84       2      42      54      66     114       2
      45      63      66     114       2      48      60      51      90       2
      51      60      48      87       2      54      66      63     108       2
      57      33      18      72      22      57      33      18      75      22
      60      48      36      78       2      60      51      39      81       2
      63      66      54      93       2      66      63      45      84       2
      69      12      18      72      28      69      12      18      75      28
      78      36      48      87       2      81      39      51      90       2
      84      45      63     108       2      87      48      60     105       2
      90      51      60     105       2      93      54      66     114       2
     108      63      66     114       2      21      48     -36     -78      29
      21      51     -39     -81      29      27      63     -45     -84      29
      36      60     -48     -87      29      39      60     -51     -90      29
      42      66     -54     -93      29      48      51     -60    -105      29
      45      66     -63    -108      29      54      63     -66    -114      29
%FLAG DIHEDRALS_WITHOUT_HYDROGEN                                                
%FORMAT(10I8)                                                                   
       0      30      15      12       1       0      30      15      24       1
       0      42     -27      24       2       0      42      27      45       2
       0      42      54      66       2       3      24      15      12       3
       3      24      15      30       3       3      24      27      42       4
       3      24      27      45       4      42       0      30       6       5
      42       0     -30       6       6      42       0     -30       6       7
       6      30      15      12       1       6      30      15      24       1
       9      33      18      12       8       9      33     -18      12       9
       9      33     -18      12      10      12      15      24      27       3
      12      18      33      57      13      12      21      36      48       2
      12      21      39      51       2      15      12      18      33      14
      15      12      21      36      15      15      12      21      39      15
      15      24      27      42      17      15      24      27      45      17
      42       0     -30      15      18      18      12      15      24      19
      18      12      15      30      20      18      12      21      36      21
      18      12      21      39      21      21      12      15      24      23
      21      12      15      30      20      21      12      18      33      24
      21      36      48      60       2      21      39     -51      60       2
      24      27      42      54       2      24      27      45      63       2
      27      24      15      30       3      30       0     -42      27      26
      27      42      54      66       2      27      45     -63      66       2
      30       0      42      54      26      36      21      39      51       2
      36      48     -60      51       2      39      21      36      48       2
      39      51     -60      48       2      42      27      45      63       2
      42      54     -66      63       2      45      27      42      54       2
      45      63     -66      54       2      30      12     -15     -24      29
      36      39     -21     -12      29      27      15     -24      -3      29
      42      45     -27     -24      29       0      30      -6     -15      29
      18      57     -33      -9      30       0      42     -54     -27      29
%FLAG EXCLUDED_ATOMS_LIST                                                       
%FORMAT(10I8)                                                                   
       3       5       6       9      10      11      15      16      19      23
      32       5       6       9      10      11      15      16      38       5
       6       9      11      15       5       7      12      20      25      26
      33      34      35       6       7       8       9      10      11      12
      13      14      17      18      20      24      25      26      27      28
       7       8       9      10      11      12      13      14      15      16
      24      25      26      38       8       9      11      12      13      14
      20      24      25      26      33      34      35       9      11      12
      13      14      17      18      21      24      25      26      27      28
      30      31      10      11      15      16      19      22      24      29
      38      11      15      16      19      22      23      29      32      37
      38      15      19      24      20      24      25      26      33      34
      35      14      17      18      21      24      27      28      30      36
      17      18      21      24      27      28      31      36      16      19
      22      23      29      32      39      19      22      23      29      37
      39      18      21      27      30      31      36      21      28      30
      31      36      22      23      32      37      39      25      26      33
      34      35      27      28      30      31      36      23      29      32
      37      39      29      32      37      39      25      26      26       0
      30      31      37      36      36      39      34      35      35       0
       0      39       0       0
%FLAG HBOND_ACOEF                                                               
%FORMAT(5E16.8)                                                                 

%FLAG HBOND_BCOEF                                                               
%FORMAT(5E16.8)                                                                 

%FLAG HBCUT                                                                     
%FORMAT(5E16.8)                                                                 

%FLAG AMBER_ATOM_TYPE                                                           
%FORMAT(20a4)                                                                   
os  oh  o   o   c3  cc  c3  ca  cd  ca  c   c   ca  ca  ca  ca  ca  ca  ca  c3  
ca  ca  ca  hc  hc  hc  ha  ha  ha  ha  ha  ha  hc  hc  hc  ha  ha  ho  ha  
%FLAG TREE_CHAIN_CLASSIFICATION                                                 
%FORMAT(20a4)                                                                   
BLA BLA BLA BLA BLA BLA BLA BLA BLA BLA BLA BLA BLA BLA BLA BLA BLA BLA BLA BLA 
BLA BLA BLA BLA BLA BLA BLA BLA BLA BLA BLA BLA BLA BLA BLA BLA BLA BLA BLA 
%FLAG JOIN_ARRAY                                                                
%FORMAT(10I8)                                                                   
       0       0       0       0       0       0       0       0       0       0
       0       0       0       0       0       0       0       0       0       0
       0       0       0       0       0       0       0       0       0       0
       0       0       0       0       0       0       0       0       0
%FLAG IROTAT                                                                    
%FORMAT(10I8)                                                                   
       0       0       0       0       0       0       0       0       0       0
       0       0       0       0       0       0       0       0       0       0
       0       0       0       0       0       0       0       0       0       0
       0       0       0       0       0       0       0       0       0
%FLAG RADIUS_SET                                                                
%FORMAT(1a80)                                                                   
modified Bondi radii (mbondi)                                                   
%FLAG RADII                                                                     
%FORMAT(5E16.8)                                                                 
  1.50000000E+00  1.50000000E+00  1.50000000E+00  1.50000000E+00  1.70000000E+00
  1.70000000E+00  1.70000000E+00  1.70000000E+00  1.70000000E+00  1.70000000E+00
  1.70000000E+00  1.70000000E+00  1.70000000E+00  1.70000000E+00  1.70000000E+00
  1.70000000E+00  1.70000000E+00  1.70000000E+00  1.70000000E+00  1.70000000E+00
  1.70000000E+00  1.70000000E+00  1.70000000E+00  1.30000000E+00  1.30000000E+00
  1.30000000E+00  1.30000000E+00  1.30000000E+00  1.30000000E+00  1.30000000E+00
  1.30000000E+00  1.30000000E+00  1.30000000E+00  1.30000000E+00  1.30000000E+00
  1.30000000E+00  1.30000000E+00  8.00000000E-01  1.30000000E+00
%FLAG SCREEN                                                                    
%FORMAT(5E16.8)                                                                 
  8.50000000E-01  8.50000000E-01  8.50000000E-01  8.50000000E-01  7.20000000E-01
  7.20000000E-01  7.20000000E-01  7.20000000E-01  7.20000000E-01  7.20000000E-01
  7.20000000E-01  7.20000000E-01  7.20000000E-01  7.20000000E-01  7.20000000E-01
  7.20000000E-01  7.20000000E-01  7.20000000E-01  7.20000000E-01  7.20000000E-01
  7.20000000E-01  7.20000000E-01  7.20000000E-01  8.50000000E-01  8.50000000E-01
  8.50000000E-01  8.50000000E-01  8.50000000E-01  8.50000000E-01  8.50000000E-01
  8.50000000E-01  8.50000000E-01  8.50000000E-01  8.50000000E-01  8.50000000E-01
  8.50000000E-01  8.50000000E-01  8.50000000E-01  8.50000000E-01
%FLAG IPOL                                                                      
%FORMAT(1I8)                                                                    
       0
