54678486
    39
  -2.0920000   0.5090000   1.6550000  -0.1540000  -0.7320000  -1.8410000
  -0.1590000   1.4170000   2.4380000   0.6110000   3.4380000   0.3800000
   1.4230000   0.7210000   0.2670000  -0.0390000   0.3680000   0.3040000
   1.7170000   1.6960000  -0.8900000   2.2870000  -0.5300000   0.2140000
  -0.7120000  -0.2900000  -0.6590000  -2.1380000  -0.5910000  -0.5110000
  -0.7420000   0.8100000   1.5440000   1.2340000   3.1170000  -0.6310000
   2.6370000  -1.1870000   1.3940000   2.7290000  -1.0200000  -1.0150000
  -2.7880000  -0.1810000   0.6480000  -2.8890000  -1.2750000  -1.4770000
   3.4290000  -2.3340000   1.3450000   3.5220000  -2.1670000  -1.0630000
  -4.1430000  -0.4280000   0.8690000   1.5200000   4.1230000  -1.7160000
   3.8720000  -2.8240000   0.1170000  -4.2490000  -1.5310000  -1.2710000
  -4.8750000  -1.1080000  -0.1000000   1.7360000   1.2440000   1.1790000
   1.2790000   1.3750000  -1.8410000   2.8020000   1.7790000  -1.0340000
   2.2980000  -0.8160000   2.3570000   2.4820000  -0.5410000  -1.9560000
  -2.4480000  -1.6400000  -2.4000000   3.7020000  -2.8450000   2.2640000
   3.8660000  -2.5500000  -2.0200000  -4.6270000  -0.0970000   1.7830000
   2.5960000   4.1710000  -1.8980000   1.1730000   5.1120000  -1.4030000
   0.9950000   3.8340000  -2.6300000   4.4890000  -3.7170000   0.0790000
  -4.8190000  -2.0650000  -2.0270000  -0.7720000  -0.5520000  -2.5680000
  -5.9310000  -1.3100000   0.0560000
