warfarin_GMX.gro created by acpype (v: 2023.10.27) on Mon Feb  9 18:01:25 2026
 39
    1  UNL    O    1  -0.209   0.051   0.166
    1  UNL   O1    2  -0.015  -0.073  -0.184
    1  UNL   O2    3  -0.016   0.142   0.244
    1  UNL   O3    4   0.061   0.344   0.038
    1  UNL    C    5   0.142   0.072   0.027
    1  UNL   C1    6  -0.004   0.037   0.030
    1  UNL   C2    7   0.172   0.170  -0.089
    1  UNL   C3    8   0.229  -0.053   0.021
    1  UNL   C4    9  -0.071  -0.029  -0.066
    1  UNL   C5   10  -0.214  -0.059  -0.051
    1  UNL   C6   11  -0.074   0.081   0.154
    1  UNL   C7   12   0.123   0.312  -0.063
    1  UNL   C8   13   0.264  -0.119   0.139
    1  UNL   C9   14   0.273  -0.102  -0.101
    1  UNL  C10   15  -0.279  -0.018   0.065
    1  UNL  C11   16  -0.289  -0.128  -0.148
    1  UNL  C12   17   0.343  -0.233   0.135
    1  UNL  C13   18   0.352  -0.217  -0.106
    1  UNL  C14   19  -0.414  -0.043   0.087
    1  UNL  C15   20   0.152   0.412  -0.172
    1  UNL  C16   21   0.387  -0.282   0.012
    1  UNL  C17   22  -0.425  -0.153  -0.127
    1  UNL  C18   23  -0.488  -0.111  -0.010
    1  UNL    H   24   0.174   0.124   0.118
    1  UNL   H1   25   0.128   0.138  -0.184
    1  UNL   H2   26   0.280   0.178  -0.103
    1  UNL   H3   27   0.230  -0.082   0.236
    1  UNL   H4   28   0.248  -0.054  -0.196
    1  UNL   H5   29  -0.245  -0.164  -0.240
    1  UNL   H6   30   0.370  -0.285   0.226
    1  UNL   H7   31   0.387  -0.255  -0.202
    1  UNL   H8   32  -0.463  -0.010   0.178
    1  UNL   H9   33   0.260   0.417  -0.190
    1  UNL  H10   34   0.117   0.511  -0.140
    1  UNL  H11   35   0.100   0.383  -0.263
    1  UNL  H12   36   0.449  -0.372   0.008
    1  UNL  H13   37  -0.482  -0.207  -0.203
    1  UNL  H14   38  -0.077  -0.055  -0.257
    1  UNL  H15   39  -0.593  -0.131   0.006
   20.84000    17.65800    10.13600
