; lanosterol_GMX_OPLS.top created by acpype (v: 2023.10.27) on Mon Feb  9 17:48:37 2026

; Include forcefield parameters
#include "ffoplsaa.itp"

; Include lanosterol_GMX.itp topology
#include "lanosterol_GMX.itp"

; Ligand position restraints
#ifdef POSRES_LIG
#include "posre_lanosterol.itp"
#endif

[ system ]
 lanosterol

[ molecules ]
; Compound        nmols
 lanosterol       1     
