lanosterol_GMX.gro created by acpype (v: 2023.10.27) on Mon Feb  9 17:48:37 2026
 81
    1  UNL    O    1  -0.648   0.141   0.001
    1  UNL    C    2   0.111   0.062   0.044
    1  UNL   C1    3   0.047  -0.075   0.004
    1  UNL   C2    4   0.262   0.029   0.035
    1  UNL   C3    5  -0.326   0.059  -0.009
    1  UNL   C4    6  -0.105  -0.067   0.017
    1  UNL   C5    7  -0.391  -0.084  -0.011
    1  UNL   C6    8  -0.170   0.048  -0.015
    1  UNL   C7    9   0.127  -0.171   0.094
    1  UNL   C8   10   0.061   0.169  -0.053
    1  UNL   C9   11   0.271  -0.114   0.093
    1  UNL  C10   12  -0.093   0.175  -0.054
    1  UNL  C11   13  -0.549  -0.088  -0.007
    1  UNL  C12   14  -0.175  -0.193   0.062
    1  UNL  C13   15  -0.324  -0.176   0.093
    1  UNL  C14   16  -0.381   0.137  -0.132
    1  UNL  C15   17   0.358   0.126   0.102
    1  UNL  C16   18   0.076   0.107   0.189
    1  UNL  C17   19   0.071  -0.120  -0.144
    1  UNL  C18   20  -0.611   0.033  -0.084
    1  UNL  C19   21  -0.515   0.088  -0.189
    1  UNL  C20   22  -0.355   0.137   0.121
    1  UNL  C21   23  -0.593  -0.217  -0.083
    1  UNL  C22   24  -0.607  -0.101   0.135
    1  UNL  C23   25   0.506   0.084   0.086
    1  UNL  C24   26   0.339   0.267   0.044
    1  UNL  C25   27   0.557   0.079  -0.059
    1  UNL  C26   28   0.703   0.044  -0.068
    1  UNL  C27   29   0.759  -0.079  -0.069
    1  UNL  C28   30   0.909  -0.093  -0.079
    1  UNL  C29   31   0.685  -0.209  -0.060
    1  UNL    H   32   0.289   0.024  -0.072
    1  UNL   H1   33  -0.363  -0.127  -0.108
    1  UNL   H2   34   0.126  -0.275   0.058
    1  UNL   H3   35   0.089  -0.172   0.196
    1  UNL   H4   36   0.097   0.149  -0.155
    1  UNL   H5   37   0.096   0.270  -0.029
    1  UNL   H6   38   0.311  -0.116   0.195
    1  UNL   H7   39   0.337  -0.176   0.031
    1  UNL   H8   40  -0.123   0.209  -0.154
    1  UNL   H9   41  -0.122   0.255   0.015
    1  UNL  H10   42  -0.164  -0.268  -0.017
    1  UNL  H11   43  -0.128  -0.234   0.151
    1  UNL  H12   44  -0.370  -0.275   0.094
    1  UNL  H13   45  -0.336  -0.135   0.194
    1  UNL  H14   46  -0.311   0.132  -0.216
    1  UNL  H15   47  -0.390   0.244  -0.107
    1  UNL  H16   48   0.340   0.131   0.210
    1  UNL  H17   49  -0.031   0.107   0.209
    1  UNL  H18   50   0.122   0.044   0.265
    1  UNL  H19   51   0.110   0.210   0.209
    1  UNL  H20   52   0.024  -0.053  -0.217
    1  UNL  H21   53   0.177  -0.127  -0.170
    1  UNL  H22   54   0.029  -0.220  -0.161
    1  UNL  H23   55  -0.703   0.002  -0.133
    1  UNL  H24   56  -0.562   0.172  -0.243
    1  UNL  H25   57  -0.496   0.011  -0.264
    1  UNL  H26   58  -0.314   0.238   0.118
    1  UNL  H27   59  -0.461   0.150   0.141
    1  UNL  H28   60  -0.312   0.087   0.209
    1  UNL  H29   61  -0.702  -0.226  -0.084
    1  UNL  H30   62  -0.553  -0.307  -0.037
    1  UNL  H31   63  -0.560  -0.215  -0.188
    1  UNL  H32   64  -0.717  -0.097   0.132
    1  UNL  H33   65  -0.574  -0.021   0.202
    1  UNL  H34   66  -0.580  -0.196   0.182
    1  UNL  H35   67   0.522  -0.013   0.133
    1  UNL  H36   68   0.568   0.155   0.142
    1  UNL  H37   69   0.327   0.267  -0.065
    1  UNL  H38   70   0.255   0.319   0.090
    1  UNL  H39   71   0.426   0.330   0.067
    1  UNL  H40   72  -0.689   0.210  -0.054
    1  UNL  H41   73   0.543   0.176  -0.108
    1  UNL  H42   74   0.499   0.007  -0.118
    1  UNL  H43   75   0.769   0.130  -0.073
    1  UNL  H44   76   0.960   0.003  -0.086
    1  UNL  H45   77   0.948  -0.146   0.009
    1  UNL  H46   78   0.935  -0.151  -0.169
    1  UNL  H47   79   0.719  -0.266   0.027
    1  UNL  H48   80   0.577  -0.196  -0.051
    1  UNL  H49   81   0.704  -0.269  -0.150
   33.53400    12.73800    10.58600
