; lanosterol_GMX_OPLS.itp created by acpype (v: 2023.10.27) on Mon Feb  9 17:48:37 2026

; For OPLS atomtypes manual fine tuning
; AC_at:OPLS_at:OPLScode: Possible_Alternatives (see ffoplsaa.atp and ffoplsaanb.itp)
; oh:OH:opls_154: ['167']
; c5:x:opls_x: []
; c6:x:opls_x: []
; c2:CR:opls_509: ['510']
; c3:CT:opls_135: ['136', '137', '149', '157', '158', '206', '209', '210', '223B', '224B', '245', '246', '274', '283', '284', '285', '292', '292B', '293B', '296', '307', '308', '505']
; hc:HC:opls_140: []
; h1:HC:opls_140: []
; ho:HO:opls_155: ['168']
; ha:HA:opls_146: []

[ moleculetype ]
;name            nrexcl
 lanosterol       3

[ atoms ]
;   nr  type  resi  res  atom  cgnr     charge      mass       ; qtot   bond_type
     1 opls_154     1   UNL     O    1    -0.597794     15.99940 ; qtot -0.598  OH  
     2 opls_x     1   UNL     C    2    -0.036000      0.00000 ; qtot -0.634  x   
     3 opls_x     1   UNL    C1    3    -0.014800      0.00000 ; qtot -0.649  x   
     4 opls_x     1   UNL    C2    4    -0.053700      0.00000 ; qtot -0.702  x   
     5 opls_x     1   UNL    C3    5     0.006200      0.00000 ; qtot -0.696  x   
     6 opls_509     1   UNL    C4    6    -0.095400     12.01100 ; qtot -0.791  CR  
     7 opls_x     1   UNL    C5    7    -0.044700      0.00000 ; qtot -0.836  x   
     8 opls_509     1   UNL    C6    8    -0.117400     12.01100 ; qtot -0.954  CR  
     9 opls_x     1   UNL    C7    9    -0.069400      0.00000 ; qtot -1.023  x   
    10 opls_x     1   UNL    C8   10    -0.062400      0.00000 ; qtot -1.085  x   
    11 opls_x     1   UNL    C9   11    -0.077400      0.00000 ; qtot -1.163  x   
    12 opls_x     1   UNL   C10   12    -0.034200      0.00000 ; qtot -1.197  x   
    13 opls_x     1   UNL   C11   13    -0.070000      0.00000 ; qtot -1.267  x   
    14 opls_x     1   UNL   C12   14    -0.036200      0.00000 ; qtot -1.303  x   
    15 opls_x     1   UNL   C13   15    -0.074400      0.00000 ; qtot -1.378  x   
    16 opls_x     1   UNL   C14   16    -0.077400      0.00000 ; qtot -1.455  x   
    17 opls_135     1   UNL   C15   17    -0.055700     12.01100 ; qtot -1.511  CT  
    18 opls_135     1   UNL   C16   18    -0.087100     12.01100 ; qtot -1.598  CT  
    19 opls_135     1   UNL   C17   19    -0.081100     12.01100 ; qtot -1.679  CT  
    20 opls_x     1   UNL   C18   20     0.148100      0.00000 ; qtot -1.531  x   
    21 opls_x     1   UNL   C19   21    -0.110400      0.00000 ; qtot -1.641  x   
    22 opls_135     1   UNL   C20   22    -0.087100     12.01100 ; qtot -1.728  CT  
    23 opls_135     1   UNL   C21   23    -0.086100     12.01100 ; qtot -1.814  CT  
    24 opls_135     1   UNL   C22   24    -0.086100     12.01100 ; qtot -1.900  CT  
    25 opls_135     1   UNL   C23   25    -0.074400     12.01100 ; qtot -1.975  CT  
    26 opls_135     1   UNL   C24   26    -0.090100     12.01100 ; qtot -2.065  CT  
    27 opls_135     1   UNL   C25   27    -0.047200     12.01100 ; qtot -2.112  CT  
    28 opls_509     1   UNL   C26   28    -0.175200     12.01100 ; qtot -2.287  CR  
    29 opls_509     1   UNL   C27   29    -0.126400     12.01100 ; qtot -2.414  CR  
    30 opls_135     1   UNL   C28   30    -0.057400     12.01100 ; qtot -2.471  CT  
    31 opls_135     1   UNL   C29   31    -0.057400     12.01100 ; qtot -2.529  CT  
    32 opls_140     1   UNL     H   32     0.048700      1.00800 ; qtot -2.480  HC  
    33 opls_140     1   UNL    H1   33     0.050700      1.00800 ; qtot -2.429  HC  
    34 opls_140     1   UNL    H2   34     0.043700      1.00800 ; qtot -2.385  HC  
    35 opls_140     1   UNL    H3   35     0.043700      1.00800 ; qtot -2.342  HC  
    36 opls_140     1   UNL    H4   36     0.040700      1.00800 ; qtot -2.301  HC  
    37 opls_140     1   UNL    H5   37     0.040700      1.00800 ; qtot -2.260  HC  
    38 opls_140     1   UNL    H6   38     0.042200      1.00800 ; qtot -2.218  HC  
    39 opls_140     1   UNL    H7   39     0.042200      1.00800 ; qtot -2.176  HC  
    40 opls_140     1   UNL    H8   40     0.043700      1.00800 ; qtot -2.132  HC  
    41 opls_140     1   UNL    H9   41     0.043700      1.00800 ; qtot -2.089  HC  
    42 opls_140     1   UNL   H10   42     0.048700      1.00800 ; qtot -2.040  HC  
    43 opls_140     1   UNL   H11   43     0.048700      1.00800 ; qtot -1.991  HC  
    44 opls_140     1   UNL   H12   44     0.044200      1.00800 ; qtot -1.947  HC  
    45 opls_140     1   UNL   H13   45     0.044200      1.00800 ; qtot -1.903  HC  
    46 opls_140     1   UNL   H14   46     0.043700      1.00800 ; qtot -1.859  HC  
    47 opls_140     1   UNL   H15   47     0.043700      1.00800 ; qtot -1.815  HC  
    48 opls_140     1   UNL   H16   48     0.048700      1.00800 ; qtot -1.767  HC  
    49 opls_140     1   UNL   H17   49     0.037033      1.00800 ; qtot -1.730  HC  
    50 opls_140     1   UNL   H18   50     0.037033      1.00800 ; qtot -1.693  HC  
    51 opls_140     1   UNL   H19   51     0.037033      1.00800 ; qtot -1.656  HC  
    52 opls_140     1   UNL   H20   52     0.036033      1.00800 ; qtot -1.620  HC  
    53 opls_140     1   UNL   H21   53     0.036033      1.00800 ; qtot -1.584  HC  
    54 opls_140     1   UNL   H22   54     0.036033      1.00800 ; qtot -1.547  HC  
    55 opls_140     1   UNL   H23   55     0.069700      1.00800 ; qtot -1.478  HC  
    56 opls_140     1   UNL   H24   56     0.051200      1.00800 ; qtot -1.427  HC  
    57 opls_140     1   UNL   H25   57     0.051200      1.00800 ; qtot -1.375  HC  
    58 opls_140     1   UNL   H26   58     0.037033      1.00800 ; qtot -1.338  HC  
    59 opls_140     1   UNL   H27   59     0.037033      1.00800 ; qtot -1.301  HC  
    60 opls_140     1   UNL   H28   60     0.037033      1.00800 ; qtot -1.264  HC  
    61 opls_140     1   UNL   H29   61     0.037200      1.00800 ; qtot -1.227  HC  
    62 opls_140     1   UNL   H30   62     0.037200      1.00800 ; qtot -1.190  HC  
    63 opls_140     1   UNL   H31   63     0.037200      1.00800 ; qtot -1.153  HC  
    64 opls_140     1   UNL   H32   64     0.037200      1.00800 ; qtot -1.115  HC  
    65 opls_140     1   UNL   H33   65     0.037200      1.00800 ; qtot -1.078  HC  
    66 opls_140     1   UNL   H34   66     0.037200      1.00800 ; qtot -1.041  HC  
    67 opls_140     1   UNL   H35   67     0.040700      1.00800 ; qtot -1.000  HC  
    68 opls_140     1   UNL   H36   68     0.040700      1.00800 ; qtot -0.960  HC  
    69 opls_140     1   UNL   H37   69     0.034033      1.00800 ; qtot -0.926  HC  
    70 opls_140     1   UNL   H38   70     0.034033      1.00800 ; qtot -0.892  HC  
    71 opls_140     1   UNL   H39   71     0.034033      1.00800 ; qtot -0.858  HC  
    72 opls_155     1   UNL   H40   72     0.399000      1.00800 ; qtot -0.459  HO  
    73 opls_140     1   UNL   H41   73     0.048200      1.00800 ; qtot -0.410  HC  
    74 opls_140     1   UNL   H42   74     0.048200      1.00800 ; qtot -0.362  HC  
    75 opls_146     1   UNL   H43   75     0.122000      1.00800 ; qtot -0.240  HA  
    76 opls_140     1   UNL   H44   76     0.040033      1.00800 ; qtot -0.200  HC  
    77 opls_140     1   UNL   H45   77     0.040033      1.00800 ; qtot -0.160  HC  
    78 opls_140     1   UNL   H46   78     0.040033      1.00800 ; qtot -0.120  HC  
    79 opls_140     1   UNL   H47   79     0.040033      1.00800 ; qtot -0.080  HC  
    80 opls_140     1   UNL   H48   80     0.040033      1.00800 ; qtot -0.040  HC  
    81 opls_140     1   UNL   H49   81     0.040033      1.00800 ; qtot -0.000  HC  

[ bonds ]
;   ai     aj funct   r             k
     1     20   1 ;    1.4241e-01    2.3870e+05 ;      O - C18        OH - x     
     1     72   1 ;    9.7250e-02    4.4811e+05 ;      O - H40        OH - HO    
     2      3   1 ;    1.5483e-01    1.8418e+05 ;      C - C1          x - x     
     2      4   1 ;    1.5483e-01    1.8418e+05 ;      C - C2          x - x     
     2     10   1 ;    1.5389e-01    1.8951e+05 ;      C - C8          x - x     
     2     18   1 ;    1.5372e-01    1.9049e+05 ;      C - C16         x - CT    
     3      6   1 ;    1.5154e-01    2.0366e+05 ;     C1 - C4          x - CR    
     3      9   1 ;    1.5483e-01    1.8418e+05 ;     C1 - C7          x - x     
     3     19   1 ;    1.5372e-01    1.9049e+05 ;     C1 - C17         x - CT    
     4     11   1 ;    1.5483e-01    1.8418e+05 ;     C2 - C9          x - x     
     4     17   1 ;    1.5372e-01    1.9049e+05 ;     C2 - C15         x - CT    
     4     32   1 ;    1.0954e-01    2.8989e+05 ;     C2 - H           x - HC    
     5      7   1 ;    1.5384e-01    1.8979e+05 ;     C3 - C5          x - x     
     5      8   1 ;    1.5133e-01    2.0498e+05 ;     C3 - C6          x - CR    
     5     16   1 ;    1.5384e-01    1.8979e+05 ;     C3 - C14         x - x     
     5     22   1 ;    1.5428e-01    1.8728e+05 ;     C3 - C20         x - CT    
     6      8   1 ;    1.3379e-01    3.6484e+05 ;     C4 - C6         CR - CR    
     6     14   1 ;    1.5133e-01    2.0498e+05 ;     C4 - C12        CR - x     
     7     13   1 ;    1.5384e-01    1.8979e+05 ;     C5 - C11         x - x     
     7     15   1 ;    1.5384e-01    1.8979e+05 ;     C5 - C13         x - x     
     7     33   1 ;    1.0979e-01    2.8681e+05 ;     C5 - H1          x - HC    
     8     12   1 ;    1.5133e-01    2.0498e+05 ;     C6 - C10        CR - x     
     9     11   1 ;    1.5483e-01    1.8418e+05 ;     C7 - C9          x - x     
     9     34   1 ;    1.0954e-01    2.8989e+05 ;     C7 - H2          x - HC    
     9     35   1 ;    1.0954e-01    2.8989e+05 ;     C7 - H3          x - HC    
    10     12   1 ;    1.5384e-01    1.8979e+05 ;     C8 - C10         x - x     
    10     36   1 ;    1.0979e-01    2.8681e+05 ;     C8 - H4          x - HC    
    10     37   1 ;    1.0979e-01    2.8681e+05 ;     C8 - H5          x - HC    
    11     38   1 ;    1.0954e-01    2.8989e+05 ;     C9 - H6          x - HC    
    11     39   1 ;    1.0954e-01    2.8989e+05 ;     C9 - H7          x - HC    
    12     40   1 ;    1.0979e-01    2.8681e+05 ;    C10 - H8          x - HC    
    12     41   1 ;    1.0979e-01    2.8681e+05 ;    C10 - H9          x - HC    
    13     20   1 ;    1.5384e-01    1.8979e+05 ;    C11 - C18         x - x     
    13     23   1 ;    1.5428e-01    1.8728e+05 ;    C11 - C21         x - CT    
    13     24   1 ;    1.5428e-01    1.8728e+05 ;    C11 - C22         x - CT    
    14     15   1 ;    1.5384e-01    1.8979e+05 ;    C12 - C13         x - x     
    14     42   1 ;    1.0979e-01    2.8681e+05 ;    C12 - H10         x - HC    
    14     43   1 ;    1.0979e-01    2.8681e+05 ;    C12 - H11         x - HC    
    15     44   1 ;    1.0979e-01    2.8681e+05 ;    C13 - H12         x - HC    
    15     45   1 ;    1.0979e-01    2.8681e+05 ;    C13 - H13         x - HC    
    16     21   1 ;    1.5384e-01    1.8979e+05 ;    C14 - C19         x - x     
    16     46   1 ;    1.0979e-01    2.8681e+05 ;    C14 - H14         x - HC    
    16     47   1 ;    1.0979e-01    2.8681e+05 ;    C14 - H15         x - HC    
    17     25   1 ;    1.5354e-01    1.9154e+05 ;    C15 - C23        CT - CT    
    17     26   1 ;    1.5354e-01    1.9154e+05 ;    C15 - C24        CT - CT    
    17     48   1 ;    1.0962e-01    2.8891e+05 ;    C15 - H16        CT - HC    
    18     49   1 ;    1.0962e-01    2.8891e+05 ;    C16 - H17        CT - HC    
    18     50   1 ;    1.0962e-01    2.8891e+05 ;    C16 - H18        CT - HC    
    18     51   1 ;    1.0962e-01    2.8891e+05 ;    C16 - H19        CT - HC    
    19     52   1 ;    1.0962e-01    2.8891e+05 ;    C17 - H20        CT - HC    
    19     53   1 ;    1.0962e-01    2.8891e+05 ;    C17 - H21        CT - HC    
    19     54   1 ;    1.0962e-01    2.8891e+05 ;    C17 - H22        CT - HC    
    20     21   1 ;    1.5384e-01    1.8979e+05 ;    C18 - C19         x - x     
    20     55   1 ;    1.0984e-01    2.8620e+05 ;    C18 - H23         x - HC    
    21     56   1 ;    1.0979e-01    2.8681e+05 ;    C19 - H24         x - HC    
    21     57   1 ;    1.0979e-01    2.8681e+05 ;    C19 - H25         x - HC    
    22     58   1 ;    1.0962e-01    2.8891e+05 ;    C20 - H26        CT - HC    
    22     59   1 ;    1.0962e-01    2.8891e+05 ;    C20 - H27        CT - HC    
    22     60   1 ;    1.0962e-01    2.8891e+05 ;    C20 - H28        CT - HC    
    23     61   1 ;    1.0962e-01    2.8891e+05 ;    C21 - H29        CT - HC    
    23     62   1 ;    1.0962e-01    2.8891e+05 ;    C21 - H30        CT - HC    
    23     63   1 ;    1.0962e-01    2.8891e+05 ;    C21 - H31        CT - HC    
    24     64   1 ;    1.0962e-01    2.8891e+05 ;    C22 - H32        CT - HC    
    24     65   1 ;    1.0962e-01    2.8891e+05 ;    C22 - H33        CT - HC    
    24     66   1 ;    1.0962e-01    2.8891e+05 ;    C22 - H34        CT - HC    
    25     27   1 ;    1.5354e-01    1.9154e+05 ;    C23 - C25        CT - CT    
    25     67   1 ;    1.0962e-01    2.8891e+05 ;    C23 - H35        CT - HC    
    25     68   1 ;    1.0962e-01    2.8891e+05 ;    C23 - H36        CT - HC    
    26     69   1 ;    1.0962e-01    2.8891e+05 ;    C24 - H37        CT - HC    
    26     70   1 ;    1.0962e-01    2.8891e+05 ;    C24 - H38        CT - HC    
    26     71   1 ;    1.0962e-01    2.8891e+05 ;    C24 - H39        CT - HC    
    27     28   1 ;    1.5088e-01    2.0786e+05 ;    C25 - C26        CT - CR    
    27     73   1 ;    1.0962e-01    2.8891e+05 ;    C25 - H41        CT - HC    
    27     74   1 ;    1.0962e-01    2.8891e+05 ;    C25 - H42        CT - HC    
    28     29   1 ;    1.3379e-01    3.6484e+05 ;    C26 - C27        CR - CR    
    28     75   1 ;    1.0882e-01    2.9898e+05 ;    C26 - H43        CR - HA    
    29     30   1 ;    1.5088e-01    2.0786e+05 ;    C27 - C28        CR - CT    
    29     31   1 ;    1.5088e-01    2.0786e+05 ;    C27 - C29        CR - CT    
    30     76   1 ;    1.0962e-01    2.8891e+05 ;    C28 - H44        CT - HC    
    30     77   1 ;    1.0962e-01    2.8891e+05 ;    C28 - H45        CT - HC    
    30     78   1 ;    1.0962e-01    2.8891e+05 ;    C28 - H46        CT - HC    
    31     79   1 ;    1.0962e-01    2.8891e+05 ;    C29 - H47        CT - HC    
    31     80   1 ;    1.0962e-01    2.8891e+05 ;    C29 - H48        CT - HC    
    31     81   1 ;    1.0962e-01    2.8891e+05 ;    C29 - H49        CT - HC    

[ pairs ]
;   ai     aj    funct
     1      7      1 ;      O - C5    
     1     16      1 ;      O - C14   
     1     23      1 ;      O - C21   
     1     24      1 ;      O - C22   
     1     56      1 ;      O - H24   
     1     57      1 ;      O - H25   
     2      8      1 ;      C - C6    
     2     14      1 ;      C - C12   
     2     25      1 ;      C - C23   
     2     26      1 ;      C - C24   
     2     34      1 ;      C - H2    
     2     35      1 ;      C - H3    
     2     38      1 ;      C - H6    
     2     39      1 ;      C - H7    
     2     40      1 ;      C - H8    
     2     41      1 ;      C - H9    
     2     48      1 ;      C - H16   
     2     52      1 ;      C - H20   
     2     53      1 ;      C - H21   
     2     54      1 ;      C - H22   
     3      5      1 ;     C1 - C3    
     3     12      1 ;     C1 - C10   
     3     15      1 ;     C1 - C13   
     3     17      1 ;     C1 - C15   
     3     32      1 ;     C1 - H     
     3     36      1 ;     C1 - H4    
     3     37      1 ;     C1 - H5    
     3     38      1 ;     C1 - H6    
     3     39      1 ;     C1 - H7    
     3     42      1 ;     C1 - H10   
     3     43      1 ;     C1 - H11   
     3     49      1 ;     C1 - H17   
     3     50      1 ;     C1 - H18   
     3     51      1 ;     C1 - H19   
     4      6      1 ;     C2 - C4    
     4     12      1 ;     C2 - C10   
     4     19      1 ;     C2 - C17   
     4     27      1 ;     C2 - C25   
     4     34      1 ;     C2 - H2    
     4     35      1 ;     C2 - H3    
     4     36      1 ;     C2 - H4    
     4     37      1 ;     C2 - H5    
     4     49      1 ;     C2 - H17   
     4     50      1 ;     C2 - H18   
     4     51      1 ;     C2 - H19   
     4     67      1 ;     C2 - H35   
     4     68      1 ;     C2 - H36   
     4     69      1 ;     C2 - H37   
     4     70      1 ;     C2 - H38   
     4     71      1 ;     C2 - H39   
     5     10      1 ;     C3 - C8    
     5     14      1 ;     C3 - C12   
     5     20      1 ;     C3 - C18   
     5     23      1 ;     C3 - C21   
     5     24      1 ;     C3 - C22   
     5     40      1 ;     C3 - H8    
     5     41      1 ;     C3 - H9    
     5     44      1 ;     C3 - H12   
     5     45      1 ;     C3 - H13   
     5     56      1 ;     C3 - H24   
     5     57      1 ;     C3 - H25   
     6      7      1 ;     C4 - C5    
     6     10      1 ;     C4 - C8    
     6     11      1 ;     C4 - C9    
     6     16      1 ;     C4 - C14   
     6     18      1 ;     C4 - C16   
     6     22      1 ;     C4 - C20   
     6     34      1 ;     C4 - H2    
     6     35      1 ;     C4 - H3    
     6     40      1 ;     C4 - H8    
     6     41      1 ;     C4 - H9    
     6     44      1 ;     C4 - H12   
     6     45      1 ;     C4 - H13   
     6     52      1 ;     C4 - H20   
     6     53      1 ;     C4 - H21   
     6     54      1 ;     C4 - H22   
     7     12      1 ;     C5 - C10   
     7     21      1 ;     C5 - C19   
     7     42      1 ;     C5 - H10   
     7     43      1 ;     C5 - H11   
     7     46      1 ;     C5 - H14   
     7     47      1 ;     C5 - H15   
     7     55      1 ;     C5 - H23   
     7     58      1 ;     C5 - H26   
     7     59      1 ;     C5 - H27   
     7     60      1 ;     C5 - H28   
     7     61      1 ;     C5 - H29   
     7     62      1 ;     C5 - H30   
     7     63      1 ;     C5 - H31   
     7     64      1 ;     C5 - H32   
     7     65      1 ;     C5 - H33   
     7     66      1 ;     C5 - H34   
     8      9      1 ;     C6 - C7    
     8     13      1 ;     C6 - C11   
     8     15      1 ;     C6 - C13   
     8     19      1 ;     C6 - C17   
     8     21      1 ;     C6 - C19   
     8     33      1 ;     C6 - H1    
     8     36      1 ;     C6 - H4    
     8     37      1 ;     C6 - H5    
     8     42      1 ;     C6 - H10   
     8     43      1 ;     C6 - H11   
     8     46      1 ;     C6 - H14   
     8     47      1 ;     C6 - H15   
     8     58      1 ;     C6 - H26   
     8     59      1 ;     C6 - H27   
     8     60      1 ;     C6 - H28   
     9     10      1 ;     C7 - C8    
     9     14      1 ;     C7 - C12   
     9     17      1 ;     C7 - C15   
     9     18      1 ;     C7 - C16   
     9     32      1 ;     C7 - H     
     9     52      1 ;     C7 - H20   
     9     53      1 ;     C7 - H21   
     9     54      1 ;     C7 - H22   
    10     11      1 ;     C8 - C9    
    10     17      1 ;     C8 - C15   
    10     19      1 ;     C8 - C17   
    10     32      1 ;     C8 - H     
    10     49      1 ;     C8 - H17   
    10     50      1 ;     C8 - H18   
    10     51      1 ;     C8 - H19   
    11     18      1 ;     C9 - C16   
    11     19      1 ;     C9 - C17   
    11     25      1 ;     C9 - C23   
    11     26      1 ;     C9 - C24   
    11     48      1 ;     C9 - H16   
    12     14      1 ;    C10 - C12   
    12     16      1 ;    C10 - C14   
    12     18      1 ;    C10 - C16   
    12     22      1 ;    C10 - C20   
    13     14      1 ;    C11 - C12   
    13     16      1 ;    C11 - C14   
    13     22      1 ;    C11 - C20   
    13     44      1 ;    C11 - H12   
    13     45      1 ;    C11 - H13   
    13     56      1 ;    C11 - H24   
    13     57      1 ;    C11 - H25   
    14     19      1 ;    C12 - C17   
    14     33      1 ;    C12 - H1    
    15     16      1 ;    C13 - C14   
    15     20      1 ;    C13 - C18   
    15     22      1 ;    C13 - C20   
    15     23      1 ;    C13 - C21   
    15     24      1 ;    C13 - C22   
    16     33      1 ;    C14 - H1    
    16     55      1 ;    C14 - H23   
    16     58      1 ;    C14 - H26   
    16     59      1 ;    C14 - H27   
    16     60      1 ;    C14 - H28   
    17     18      1 ;    C15 - C16   
    17     28      1 ;    C15 - C26   
    17     38      1 ;    C15 - H6    
    17     39      1 ;    C15 - H7    
    17     73      1 ;    C15 - H41   
    17     74      1 ;    C15 - H42   
    18     19      1 ;    C16 - C17   
    18     32      1 ;    C16 - H     
    18     36      1 ;    C16 - H4    
    18     37      1 ;    C16 - H5    
    19     34      1 ;    C17 - H2    
    19     35      1 ;    C17 - H3    
    20     33      1 ;    C18 - H1    
    20     46      1 ;    C18 - H14   
    20     47      1 ;    C18 - H15   
    20     61      1 ;    C18 - H29   
    20     62      1 ;    C18 - H30   
    20     63      1 ;    C18 - H31   
    20     64      1 ;    C18 - H32   
    20     65      1 ;    C18 - H33   
    20     66      1 ;    C18 - H34   
    21     22      1 ;    C19 - C20   
    21     23      1 ;    C19 - C21   
    21     24      1 ;    C19 - C22   
    22     33      1 ;    C20 - H1    
    22     46      1 ;    C20 - H14   
    22     47      1 ;    C20 - H15   
    23     33      1 ;    C21 - H1    
    23     55      1 ;    C21 - H23   
    23     64      1 ;    C21 - H32   
    23     65      1 ;    C21 - H33   
    23     66      1 ;    C21 - H34   
    24     33      1 ;    C22 - H1    
    24     55      1 ;    C22 - H23   
    24     61      1 ;    C22 - H29   
    24     62      1 ;    C22 - H30   
    24     63      1 ;    C22 - H31   
    25     29      1 ;    C23 - C27   
    25     32      1 ;    C23 - H     
    25     69      1 ;    C23 - H37   
    25     70      1 ;    C23 - H38   
    25     71      1 ;    C23 - H39   
    25     75      1 ;    C23 - H43   
    26     27      1 ;    C24 - C25   
    26     32      1 ;    C24 - H     
    26     67      1 ;    C24 - H35   
    26     68      1 ;    C24 - H36   
    27     30      1 ;    C25 - C28   
    27     31      1 ;    C25 - C29   
    27     48      1 ;    C25 - H16   
    28     67      1 ;    C26 - H35   
    28     68      1 ;    C26 - H36   
    28     76      1 ;    C26 - H44   
    28     77      1 ;    C26 - H45   
    28     78      1 ;    C26 - H46   
    28     79      1 ;    C26 - H47   
    28     80      1 ;    C26 - H48   
    28     81      1 ;    C26 - H49   
    29     73      1 ;    C27 - H41   
    29     74      1 ;    C27 - H42   
    30     75      1 ;    C28 - H43   
    30     79      1 ;    C28 - H47   
    30     80      1 ;    C28 - H48   
    30     81      1 ;    C28 - H49   
    31     75      1 ;    C29 - H43   
    31     76      1 ;    C29 - H44   
    31     77      1 ;    C29 - H45   
    31     78      1 ;    C29 - H46   
    32     38      1 ;      H - H6    
    32     39      1 ;      H - H7    
    32     48      1 ;      H - H16   
    33     44      1 ;     H1 - H12   
    33     45      1 ;     H1 - H13   
    34     38      1 ;     H2 - H6    
    34     39      1 ;     H2 - H7    
    35     38      1 ;     H3 - H6    
    35     39      1 ;     H3 - H7    
    36     40      1 ;     H4 - H8    
    36     41      1 ;     H4 - H9    
    37     40      1 ;     H5 - H8    
    37     41      1 ;     H5 - H9    
    42     44      1 ;    H10 - H12   
    42     45      1 ;    H10 - H13   
    43     44      1 ;    H11 - H12   
    43     45      1 ;    H11 - H13   
    46     56      1 ;    H14 - H24   
    46     57      1 ;    H14 - H25   
    47     56      1 ;    H15 - H24   
    47     57      1 ;    H15 - H25   
    48     67      1 ;    H16 - H35   
    48     68      1 ;    H16 - H36   
    48     69      1 ;    H16 - H37   
    48     70      1 ;    H16 - H38   
    48     71      1 ;    H16 - H39   
    55     56      1 ;    H23 - H24   
    55     57      1 ;    H23 - H25   
    67     73      1 ;    H35 - H41   
    67     74      1 ;    H35 - H42   
    68     73      1 ;    H36 - H41   
    68     74      1 ;    H36 - H42   
    72     13      1 ;    H40 - C11   
    72     21      1 ;    H40 - C19   
    72     55      1 ;    H40 - H23   
    73     75      1 ;    H41 - H43   
    74     75      1 ;    H42 - H43   

[ angles ]
;   ai     aj     ak    funct   theta         cth
     1     20     13      1 ;    1.1005e+02    6.4065e+02 ;      O - C18  - C11      OH -    x - x   
     1     20     21      1 ;    1.1005e+02    6.4065e+02 ;      O - C18  - C19      OH -    x - x   
     1     20     55      1 ;    1.0996e+02    4.7187e+02 ;      O - C18  - H23      OH -    x - HC  
     2      3      6      1 ;    1.0794e+02    5.1287e+02 ;      C - C1   - C4        x -    x - CR  
     2      3      9      1 ;    1.0383e+02    5.1748e+02 ;      C - C1   - C7        x -    x - x   
     2      3     19      1 ;    1.1360e+02    4.9647e+02 ;      C - C1   - C17       x -    x - CT  
     2      4     11      1 ;    1.0383e+02    5.1748e+02 ;      C - C2   - C9        x -    x - x   
     2      4     17      1 ;    1.1360e+02    4.9647e+02 ;      C - C2   - C15       x -    x - CT  
     2      4     32      1 ;    1.1117e+02    3.5690e+02 ;      C - C2   - H         x -    x - HC  
     2     10     12      1 ;    1.1104e+02    5.0350e+02 ;      C - C8   - C10       x -    x - x   
     2     10     36      1 ;    1.0934e+02    3.6183e+02 ;      C - C8   - H4        x -    x - HC  
     2     10     37      1 ;    1.0934e+02    3.6183e+02 ;      C - C8   - H5        x -    x - HC  
     2     18     49      1 ;    1.1053e+02    3.6033e+02 ;      C - C16  - H17       x -   CT - HC  
     2     18     50      1 ;    1.1053e+02    3.6033e+02 ;      C - C16  - H18       x -   CT - HC  
     2     18     51      1 ;    1.1053e+02    3.6033e+02 ;      C - C16  - H19       x -   CT - HC  
     3      2      4      1 ;    1.0383e+02    5.1748e+02 ;     C1 - C    - C2        x -    x - x   
     3      2     10      1 ;    1.1375e+02    4.9589e+02 ;     C1 - C    - C8        x -    x - x   
     3      2     18      1 ;    1.1360e+02    4.9647e+02 ;     C1 - C    - C16       x -    x - CT  
     3      6      8      1 ;    1.1893e+02    5.2066e+02 ;     C1 - C4   - C6        x -   CR - CR  
     3      6     14      1 ;    1.1901e+02    4.9421e+02 ;     C1 - C4   - C12       x -   CR - x   
     3      9     11      1 ;    1.0383e+02    5.1748e+02 ;     C1 - C7   - C9        x -    x - x   
     3      9     34      1 ;    1.1117e+02    3.5690e+02 ;     C1 - C7   - H2        x -    x - HC  
     3      9     35      1 ;    1.1117e+02    3.5690e+02 ;     C1 - C7   - H3        x -    x - HC  
     3     19     52      1 ;    1.1053e+02    3.6033e+02 ;     C1 - C17  - H20       x -   CT - HC  
     3     19     53      1 ;    1.1053e+02    3.6033e+02 ;     C1 - C17  - H21       x -   CT - HC  
     3     19     54      1 ;    1.1053e+02    3.6033e+02 ;     C1 - C17  - H22       x -   CT - HC  
     4      2     10      1 ;    1.1375e+02    4.9589e+02 ;     C2 - C    - C8        x -    x - x   
     4      2     18      1 ;    1.1360e+02    4.9647e+02 ;     C2 - C    - C16       x -    x - CT  
     4     11      9      1 ;    1.0383e+02    5.1748e+02 ;     C2 - C9   - C7        x -    x - x   
     4     11     38      1 ;    1.1117e+02    3.5690e+02 ;     C2 - C9   - H6        x -    x - HC  
     4     11     39      1 ;    1.1117e+02    3.5690e+02 ;     C2 - C9   - H7        x -    x - HC  
     4     17     25      1 ;    1.1370e+02    4.9840e+02 ;     C2 - C15  - C23       x -   CT - CT  
     4     17     26      1 ;    1.1370e+02    4.9840e+02 ;     C2 - C15  - C24       x -   CT - CT  
     4     17     48      1 ;    1.1053e+02    3.6033e+02 ;     C2 - C15  - H16       x -   CT - HC  
     5      7     13      1 ;    1.1106e+02    5.0359e+02 ;     C3 - C5   - C11       x -    x - x   
     5      7     15      1 ;    1.1106e+02    5.0359e+02 ;     C3 - C5   - C13       x -    x - x   
     5      7     33      1 ;    1.0945e+02    3.6175e+02 ;     C3 - C5   - H1        x -    x - HC  
     5      8      6      1 ;    1.2302e+02    5.1246e+02 ;     C3 - C6   - C4        x -   CR - CR  
     5      8     12      1 ;    1.1596e+02    5.0099e+02 ;     C3 - C6   - C10       x -   CR - x   
     5     16     21      1 ;    1.1106e+02    5.0359e+02 ;     C3 - C14  - C19       x -    x - x   
     5     16     46      1 ;    1.0945e+02    3.6175e+02 ;     C3 - C14  - H14       x -    x - HC  
     5     16     47      1 ;    1.0945e+02    3.6175e+02 ;     C3 - C14  - H15       x -    x - HC  
     5     22     58      1 ;    1.1063e+02    3.5890e+02 ;     C3 - C20  - H26       x -   CT - HC  
     5     22     59      1 ;    1.1063e+02    3.5890e+02 ;     C3 - C20  - H27       x -   CT - HC  
     5     22     60      1 ;    1.1063e+02    3.5890e+02 ;     C3 - C20  - H28       x -   CT - HC  
     6      3      9      1 ;    1.0794e+02    5.1287e+02 ;     C4 - C1   - C7       CR -    x - x   
     6      3     19      1 ;    1.1278e+02    5.0359e+02 ;     C4 - C1   - C17      CR -    x - CT  
     6      8     12      1 ;    1.2302e+02    5.1246e+02 ;     C4 - C6   - C10      CR -   CR - x   
     6     14     15      1 ;    1.1141e+02    5.0685e+02 ;     C4 - C12  - C13      CR -    x - x   
     6     14     42      1 ;    1.0931e+02    3.6736e+02 ;     C4 - C12  - H10      CR -    x - HC  
     6     14     43      1 ;    1.0931e+02    3.6736e+02 ;     C4 - C12  - H11      CR -    x - HC  
     7      5      8      1 ;    1.1141e+02    5.0685e+02 ;     C5 - C3   - C6        x -    x - CR  
     7      5     16      1 ;    1.1106e+02    5.0359e+02 ;     C5 - C3   - C14       x -    x - x   
     7      5     22      1 ;    1.1143e+02    5.0200e+02 ;     C5 - C3   - C20       x -    x - CT  
     7     13     20      1 ;    1.1106e+02    5.0359e+02 ;     C5 - C11  - C18       x -    x - x   
     7     13     23      1 ;    1.1143e+02    5.0200e+02 ;     C5 - C11  - C21       x -    x - CT  
     7     13     24      1 ;    1.1143e+02    5.0200e+02 ;     C5 - C11  - C22       x -    x - CT  
     7     15     14      1 ;    1.1106e+02    5.0359e+02 ;     C5 - C13  - C12       x -    x - x   
     7     15     44      1 ;    1.0945e+02    3.6175e+02 ;     C5 - C13  - H12       x -    x - HC  
     7     15     45      1 ;    1.0945e+02    3.6175e+02 ;     C5 - C13  - H13       x -    x - HC  
     8      5     16      1 ;    1.1141e+02    5.0685e+02 ;     C6 - C3   - C14      CR -    x - x   
     8      5     22      1 ;    1.0977e+02    5.0986e+02 ;     C6 - C3   - C20      CR -    x - CT  
     8      6     14      1 ;    1.2302e+02    5.1246e+02 ;     C6 - C4   - C12      CR -   CR - x   
     8     12     10      1 ;    1.1141e+02    5.0685e+02 ;     C6 - C10  - C8       CR -    x - x   
     8     12     40      1 ;    1.0931e+02    3.6736e+02 ;     C6 - C10  - H8       CR -    x - HC  
     8     12     41      1 ;    1.0931e+02    3.6736e+02 ;     C6 - C10  - H9       CR -    x - HC  
     9      3     19      1 ;    1.1360e+02    4.9647e+02 ;     C7 - C1   - C17       x -    x - CT  
     9     11     38      1 ;    1.1117e+02    3.5690e+02 ;     C7 - C9   - H6        x -    x - HC  
     9     11     39      1 ;    1.1117e+02    3.5690e+02 ;     C7 - C9   - H7        x -    x - HC  
    10      2     18      1 ;    1.1056e+02    5.0484e+02 ;     C8 - C    - C16       x -    x - CT  
    10     12     40      1 ;    1.0945e+02    3.6175e+02 ;     C8 - C10  - H8        x -    x - HC  
    10     12     41      1 ;    1.0945e+02    3.6175e+02 ;     C8 - C10  - H9        x -    x - HC  
    11      4     17      1 ;    1.1360e+02    4.9647e+02 ;     C9 - C2   - C15       x -    x - CT  
    11      4     32      1 ;    1.1117e+02    3.5690e+02 ;     C9 - C2   - H         x -    x - HC  
    11      9     34      1 ;    1.1117e+02    3.5690e+02 ;     C9 - C7   - H2        x -    x - HC  
    11      9     35      1 ;    1.1117e+02    3.5690e+02 ;     C9 - C7   - H3        x -    x - HC  
    12     10     36      1 ;    1.0945e+02    3.6175e+02 ;    C10 - C8   - H4        x -    x - HC  
    12     10     37      1 ;    1.0945e+02    3.6175e+02 ;    C10 - C8   - H5        x -    x - HC  
    13      7     15      1 ;    1.1106e+02    5.0359e+02 ;    C11 - C5   - C13       x -    x - x   
    13      7     33      1 ;    1.0945e+02    3.6175e+02 ;    C11 - C5   - H1        x -    x - HC  
    13     20     21      1 ;    1.1106e+02    5.0359e+02 ;    C11 - C18  - C19       x -    x - x   
    13     20     55      1 ;    1.0918e+02    3.6217e+02 ;    C11 - C18  - H23       x -    x - HC  
    13     23     61      1 ;    1.1063e+02    3.5890e+02 ;    C11 - C21  - H29       x -   CT - HC  
    13     23     62      1 ;    1.1063e+02    3.5890e+02 ;    C11 - C21  - H30       x -   CT - HC  
    13     23     63      1 ;    1.1063e+02    3.5890e+02 ;    C11 - C21  - H31       x -   CT - HC  
    13     24     64      1 ;    1.1063e+02    3.5890e+02 ;    C11 - C22  - H32       x -   CT - HC  
    13     24     65      1 ;    1.1063e+02    3.5890e+02 ;    C11 - C22  - H33       x -   CT - HC  
    13     24     66      1 ;    1.1063e+02    3.5890e+02 ;    C11 - C22  - H34       x -   CT - HC  
    14     15     44      1 ;    1.0945e+02    3.6175e+02 ;    C12 - C13  - H12       x -    x - HC  
    14     15     45      1 ;    1.0945e+02    3.6175e+02 ;    C12 - C13  - H13       x -    x - HC  
    15      7     33      1 ;    1.0945e+02    3.6175e+02 ;    C13 - C5   - H1        x -    x - HC  
    15     14     42      1 ;    1.0945e+02    3.6175e+02 ;    C13 - C12  - H10       x -    x - HC  
    15     14     43      1 ;    1.0945e+02    3.6175e+02 ;    C13 - C12  - H11       x -    x - HC  
    16      5     22      1 ;    1.1143e+02    5.0200e+02 ;    C14 - C3   - C20       x -    x - CT  
    16     21     20      1 ;    1.1106e+02    5.0359e+02 ;    C14 - C19  - C18       x -    x - x   
    16     21     56      1 ;    1.0945e+02    3.6175e+02 ;    C14 - C19  - H24       x -    x - HC  
    16     21     57      1 ;    1.0945e+02    3.6175e+02 ;    C14 - C19  - H25       x -    x - HC  
    17      4     32      1 ;    1.0779e+02    3.6484e+02 ;    C15 - C2   - H        CT -    x - HC  
    17     25     27      1 ;    1.1263e+02    5.0099e+02 ;    C15 - C23  - C25      CT -   CT - CT  
    17     25     67      1 ;    1.0968e+02    3.6208e+02 ;    C15 - C23  - H35      CT -   CT - HC  
    17     25     68      1 ;    1.0968e+02    3.6208e+02 ;    C15 - C23  - H36      CT -   CT - HC  
    17     26     69      1 ;    1.0968e+02    3.6208e+02 ;    C15 - C24  - H37      CT -   CT - HC  
    17     26     70      1 ;    1.0968e+02    3.6208e+02 ;    C15 - C24  - H38      CT -   CT - HC  
    17     26     71      1 ;    1.0968e+02    3.6208e+02 ;    C15 - C24  - H39      CT -   CT - HC  
    20      1     72      1 ;    1.0707e+02    5.4584e+02 ;    C18 - O    - H40       x -   OH - HO  
    20     13     23      1 ;    1.1143e+02    5.0200e+02 ;    C18 - C11  - C21       x -    x - CT  
    20     13     24      1 ;    1.1143e+02    5.0200e+02 ;    C18 - C11  - C22       x -    x - CT  
    20     21     56      1 ;    1.0945e+02    3.6175e+02 ;    C18 - C19  - H24       x -    x - HC  
    20     21     57      1 ;    1.0945e+02    3.6175e+02 ;    C18 - C19  - H25       x -    x - HC  
    21     16     46      1 ;    1.0945e+02    3.6175e+02 ;    C19 - C14  - H14       x -    x - HC  
    21     16     47      1 ;    1.0945e+02    3.6175e+02 ;    C19 - C14  - H15       x -    x - HC  
    21     20     55      1 ;    1.0918e+02    3.6217e+02 ;    C19 - C18  - H23       x -    x - HC  
    23     13     24      1 ;    1.0888e+02    5.0710e+02 ;    C21 - C11  - C22      CT -    x - CT  
    25     17     26      1 ;    1.1263e+02    5.0099e+02 ;    C23 - C15  - C24      CT -   CT - CT  
    25     17     48      1 ;    1.0968e+02    3.6208e+02 ;    C23 - C15  - H16      CT -   CT - HC  
    25     27     28      1 ;    1.1258e+02    5.0543e+02 ;    C23 - C25  - C26      CT -   CT - CR  
    25     27     73      1 ;    1.0968e+02    3.6208e+02 ;    C23 - C25  - H41      CT -   CT - HC  
    25     27     74      1 ;    1.0968e+02    3.6208e+02 ;    C23 - C25  - H42      CT -   CT - HC  
    26     17     48      1 ;    1.0968e+02    3.6208e+02 ;    C24 - C15  - H16      CT -   CT - HC  
    27     25     67      1 ;    1.0968e+02    3.6208e+02 ;    C25 - C23  - H35      CT -   CT - HC  
    27     25     68      1 ;    1.0968e+02    3.6208e+02 ;    C25 - C23  - H36      CT -   CT - HC  
    27     28     29      1 ;    1.2495e+02    5.0944e+02 ;    C25 - C26  - C27      CT -   CR - CR  
    27     28     75      1 ;    1.1505e+02    3.5941e+02 ;    C25 - C26  - H43      CT -   CR - HA  
    28     27     73      1 ;    1.1065e+02    3.6618e+02 ;    C26 - C25  - H41      CR -   CT - HC  
    28     27     74      1 ;    1.1065e+02    3.6618e+02 ;    C26 - C25  - H42      CR -   CT - HC  
    28     29     30      1 ;    1.2495e+02    5.0944e+02 ;    C26 - C27  - C28      CR -   CR - CT  
    28     29     31      1 ;    1.2495e+02    5.0944e+02 ;    C26 - C27  - C29      CR -   CR - CT  
    29     28     75      1 ;    1.2039e+02    3.8802e+02 ;    C27 - C26  - H43      CR -   CR - HA  
    29     30     76      1 ;    1.1065e+02    3.6618e+02 ;    C27 - C28  - H44      CR -   CT - HC  
    29     30     77      1 ;    1.1065e+02    3.6618e+02 ;    C27 - C28  - H45      CR -   CT - HC  
    29     30     78      1 ;    1.1065e+02    3.6618e+02 ;    C27 - C28  - H46      CR -   CT - HC  
    29     31     79      1 ;    1.1065e+02    3.6618e+02 ;    C27 - C29  - H47      CR -   CT - HC  
    29     31     80      1 ;    1.1065e+02    3.6618e+02 ;    C27 - C29  - H48      CR -   CT - HC  
    29     31     81      1 ;    1.1065e+02    3.6618e+02 ;    C27 - C29  - H49      CR -   CT - HC  
    30     29     31      1 ;    1.1501e+02    5.0459e+02 ;    C28 - C27  - C29      CT -   CR - CT  
    34      9     35      1 ;    1.0722e+02    3.0049e+02 ;     H2 - C7   - H3       HC -    x - HC  
    36     10     37      1 ;    1.0662e+02    3.0066e+02 ;     H4 - C8   - H5       HC -    x - HC  
    38     11     39      1 ;    1.0722e+02    3.0049e+02 ;     H6 - C9   - H7       HC -    x - HC  
    40     12     41      1 ;    1.0662e+02    3.0066e+02 ;     H8 - C10  - H9       HC -    x - HC  
    42     14     43      1 ;    1.0662e+02    3.0066e+02 ;    H10 - C12  - H11      HC -    x - HC  
    44     15     45      1 ;    1.0662e+02    3.0066e+02 ;    H12 - C13  - H13      HC -    x - HC  
    46     16     47      1 ;    1.0662e+02    3.0066e+02 ;    H14 - C14  - H15      HC -    x - HC  
    49     18     50      1 ;    1.0773e+02    2.9957e+02 ;    H17 - C16  - H18      HC -   CT - HC  
    49     18     51      1 ;    1.0773e+02    2.9957e+02 ;    H17 - C16  - H19      HC -   CT - HC  
    50     18     51      1 ;    1.0773e+02    2.9957e+02 ;    H18 - C16  - H19      HC -   CT - HC  
    52     19     53      1 ;    1.0773e+02    2.9957e+02 ;    H20 - C17  - H21      HC -   CT - HC  
    52     19     54      1 ;    1.0773e+02    2.9957e+02 ;    H20 - C17  - H22      HC -   CT - HC  
    53     19     54      1 ;    1.0773e+02    2.9957e+02 ;    H21 - C17  - H22      HC -   CT - HC  
    56     21     57      1 ;    1.0662e+02    3.0066e+02 ;    H24 - C19  - H25      HC -    x - HC  
    58     22     59      1 ;    1.0773e+02    2.9957e+02 ;    H26 - C20  - H27      HC -   CT - HC  
    58     22     60      1 ;    1.0773e+02    2.9957e+02 ;    H26 - C20  - H28      HC -   CT - HC  
    59     22     60      1 ;    1.0773e+02    2.9957e+02 ;    H27 - C20  - H28      HC -   CT - HC  
    61     23     62      1 ;    1.0773e+02    2.9957e+02 ;    H29 - C21  - H30      HC -   CT - HC  
    61     23     63      1 ;    1.0773e+02    2.9957e+02 ;    H29 - C21  - H31      HC -   CT - HC  
    62     23     63      1 ;    1.0773e+02    2.9957e+02 ;    H30 - C21  - H31      HC -   CT - HC  
    64     24     65      1 ;    1.0773e+02    2.9957e+02 ;    H32 - C22  - H33      HC -   CT - HC  
    64     24     66      1 ;    1.0773e+02    2.9957e+02 ;    H32 - C22  - H34      HC -   CT - HC  
    65     24     66      1 ;    1.0773e+02    2.9957e+02 ;    H33 - C22  - H34      HC -   CT - HC  
    67     25     68      1 ;    1.0773e+02    2.9957e+02 ;    H35 - C23  - H36      HC -   CT - HC  
    69     26     70      1 ;    1.0773e+02    2.9957e+02 ;    H37 - C24  - H38      HC -   CT - HC  
    69     26     71      1 ;    1.0773e+02    2.9957e+02 ;    H37 - C24  - H39      HC -   CT - HC  
    70     26     71      1 ;    1.0773e+02    2.9957e+02 ;    H38 - C24  - H39      HC -   CT - HC  
    73     27     74      1 ;    1.0773e+02    2.9957e+02 ;    H41 - C25  - H42      HC -   CT - HC  
    76     30     77      1 ;    1.0773e+02    2.9957e+02 ;    H44 - C28  - H45      HC -   CT - HC  
    76     30     78      1 ;    1.0773e+02    2.9957e+02 ;    H44 - C28  - H46      HC -   CT - HC  
    77     30     78      1 ;    1.0773e+02    2.9957e+02 ;    H45 - C28  - H46      HC -   CT - HC  
    79     31     80      1 ;    1.0773e+02    2.9957e+02 ;    H47 - C29  - H48      HC -   CT - HC  
    79     31     81      1 ;    1.0773e+02    2.9957e+02 ;    H47 - C29  - H49      HC -   CT - HC  
    80     31     81      1 ;    1.0773e+02    2.9957e+02 ;    H48 - C29  - H49      HC -   CT - HC  

[ dihedrals ] ; propers
; for gromacs 4.5 or higher, using funct 9
;    i      j      k      l   func   phase     kd      pn
     1     20     13      7      9 ;     0.00   0.75312   3 ;      O-   C18-   C11-    C5
     1     20     13     23      9 ;     0.00   0.75312   3 ;      O-   C18-   C11-   C21
     1     20     13     24      9 ;     0.00   0.75312   3 ;      O-   C18-   C11-   C22
     1     20     21     16      9 ;     0.00   0.75312   3 ;      O-   C18-   C19-   C14
     1     20     21     56      9 ;     0.00   0.37656   3 ;      O-   C18-   C19-   H24
     1     20     21     57      9 ;     0.00   0.37656   3 ;      O-   C18-   C19-   H25
     2      3      6      8      9 ;     0.00   0.00000   0 ;      C-    C1-    C4-    C6
     2      3      6     14      9 ;     0.00   0.00000   0 ;      C-    C1-    C4-   C12
     2      3      9     11      9 ;     0.00   2.17568   3 ;      C-    C1-    C7-    C9
     2      3      9     34      9 ;     0.00   0.54392   3 ;      C-    C1-    C7-    H2
     2      3      9     35      9 ;     0.00   0.54392   3 ;      C-    C1-    C7-    H3
     2      3     19     52      9 ;     0.00   0.54392   3 ;      C-    C1-   C17-   H20
     2      3     19     53      9 ;     0.00   0.54392   3 ;      C-    C1-   C17-   H21
     2      3     19     54      9 ;     0.00   0.54392   3 ;      C-    C1-   C17-   H22
     2      4     11      9      9 ;     0.00   2.17568   3 ;      C-    C2-    C9-    C7
     2      4     11     38      9 ;     0.00   0.54392   3 ;      C-    C2-    C9-    H6
     2      4     11     39      9 ;     0.00   0.54392   3 ;      C-    C2-    C9-    H7
     2      4     17     25      9 ;     0.00   2.17568   3 ;      C-    C2-   C15-   C23
     2      4     17     26      9 ;     0.00   2.17568   3 ;      C-    C2-   C15-   C24
     2      4     17     48      9 ;     0.00   0.54392   3 ;      C-    C2-   C15-   H16
     2     10     12      8      9 ;     0.00   0.65084   3 ;      C-    C8-   C10-    C6
     2     10     12     40      9 ;     0.00   0.54392   3 ;      C-    C8-   C10-    H8
     2     10     12     41      9 ;     0.00   0.54392   3 ;      C-    C8-   C10-    H9
     3      2      4     11      9 ;     0.00   2.17568   3 ;     C1-     C-    C2-    C9
     3      2      4     17      9 ;     0.00   2.17568   3 ;     C1-     C-    C2-   C15
     3      2      4     32      9 ;     0.00   0.54392   3 ;     C1-     C-    C2-     H
     3      2     10     12      9 ;     0.00   2.17568   3 ;     C1-     C-    C8-   C10
     3      2     10     36      9 ;     0.00   0.54392   3 ;     C1-     C-    C8-    H4
     3      2     10     37      9 ;     0.00   0.54392   3 ;     C1-     C-    C8-    H5
     3      2     18     49      9 ;     0.00   0.54392   3 ;     C1-     C-   C16-   H17
     3      2     18     50      9 ;     0.00   0.54392   3 ;     C1-     C-   C16-   H18
     3      2     18     51      9 ;     0.00   0.54392   3 ;     C1-     C-   C16-   H19
     3      6      8      5      9 ;     0.00   0.62760   1 ;     C1-    C4-    C6-    C3
     3      6      8      5      9 ;   180.00   5.56472   3 ;     C1-    C4-    C6-    C3
     3      6      8      5      9 ;   180.00  24.18352   2 ;     C1-    C4-    C6-    C3
     3      6      8     12      9 ;     0.00   0.62760   1 ;     C1-    C4-    C6-   C10
     3      6      8     12      9 ;   180.00   5.56472   3 ;     C1-    C4-    C6-   C10
     3      6      8     12      9 ;   180.00  24.18352   2 ;     C1-    C4-    C6-   C10
     3      6     14     15      9 ;     0.00   0.00000   0 ;     C1-    C4-   C12-   C13
     3      6     14     42      9 ;     0.00   0.62760   3 ;     C1-    C4-   C12-   H10
     3      6     14     43      9 ;     0.00   0.62760   3 ;     C1-    C4-   C12-   H11
     3      9     11      4      9 ;     0.00   2.17568   3 ;     C1-    C7-    C9-    C2
     3      9     11     38      9 ;     0.00   0.54392   3 ;     C1-    C7-    C9-    H6
     3      9     11     39      9 ;     0.00   0.54392   3 ;     C1-    C7-    C9-    H7
     4      2      3      6      9 ;     0.00   0.65084   3 ;     C2-     C-    C1-    C4
     4      2      3      9      9 ;     0.00   2.17568   3 ;     C2-     C-    C1-    C7
     4      2      3     19      9 ;     0.00   2.17568   3 ;     C2-     C-    C1-   C17
     4      2     10     12      9 ;     0.00   2.17568   3 ;     C2-     C-    C8-   C10
     4      2     10     36      9 ;     0.00   0.54392   3 ;     C2-     C-    C8-    H4
     4      2     10     37      9 ;     0.00   0.54392   3 ;     C2-     C-    C8-    H5
     4      2     18     49      9 ;     0.00   0.54392   3 ;     C2-     C-   C16-   H17
     4      2     18     50      9 ;     0.00   0.54392   3 ;     C2-     C-   C16-   H18
     4      2     18     51      9 ;     0.00   0.54392   3 ;     C2-     C-   C16-   H19
     4     11      9     34      9 ;     0.00   0.54392   3 ;     C2-    C9-    C7-    H2
     4     11      9     35      9 ;     0.00   0.54392   3 ;     C2-    C9-    C7-    H3
     4     17     25     27      9 ;     0.00   2.17568   3 ;     C2-   C15-   C23-   C25
     4     17     25     67      9 ;     0.00   0.54392   3 ;     C2-   C15-   C23-   H35
     4     17     25     68      9 ;     0.00   0.54392   3 ;     C2-   C15-   C23-   H36
     4     17     26     69      9 ;     0.00   0.54392   3 ;     C2-   C15-   C24-   H37
     4     17     26     70      9 ;     0.00   0.54392   3 ;     C2-   C15-   C24-   H38
     4     17     26     71      9 ;     0.00   0.54392   3 ;     C2-   C15-   C24-   H39
     5      7     13     20      9 ;     0.00   2.17568   3 ;     C3-    C5-   C11-   C18
     5      7     13     23      9 ;     0.00   2.17568   3 ;     C3-    C5-   C11-   C21
     5      7     13     24      9 ;     0.00   2.17568   3 ;     C3-    C5-   C11-   C22
     5      7     15     14      9 ;     0.00   2.17568   3 ;     C3-    C5-   C13-   C12
     5      7     15     44      9 ;     0.00   0.54392   3 ;     C3-    C5-   C13-   H12
     5      7     15     45      9 ;     0.00   0.54392   3 ;     C3-    C5-   C13-   H13
     5      8      6     14      9 ;     0.00   0.62760   1 ;     C3-    C6-    C4-   C12
     5      8      6     14      9 ;   180.00   5.56472   3 ;     C3-    C6-    C4-   C12
     5      8      6     14      9 ;   180.00  24.18352   2 ;     C3-    C6-    C4-   C12
     5      8     12     10      9 ;     0.00   0.00000   0 ;     C3-    C6-   C10-    C8
     5      8     12     40      9 ;     0.00   0.62760   3 ;     C3-    C6-   C10-    H8
     5      8     12     41      9 ;     0.00   0.62760   3 ;     C3-    C6-   C10-    H9
     5     16     21     20      9 ;     0.00   2.17568   3 ;     C3-   C14-   C19-   C18
     5     16     21     56      9 ;     0.00   0.54392   3 ;     C3-   C14-   C19-   H24
     5     16     21     57      9 ;     0.00   0.54392   3 ;     C3-   C14-   C19-   H25
     6      3      2     10      9 ;     0.00   0.65084   3 ;     C4-    C1-     C-    C8
     6      3      2     18      9 ;     0.00   0.65084   3 ;     C4-    C1-     C-   C16
     6      3      9     11      9 ;     0.00   0.65084   3 ;     C4-    C1-    C7-    C9
     6      3      9     34      9 ;     0.00   0.65084   3 ;     C4-    C1-    C7-    H2
     6      3      9     35      9 ;     0.00   0.65084   3 ;     C4-    C1-    C7-    H3
     6      3     19     52      9 ;     0.00   0.65084   3 ;     C4-    C1-   C17-   H20
     6      3     19     53      9 ;     0.00   0.65084   3 ;     C4-    C1-   C17-   H21
     6      3     19     54      9 ;     0.00   0.65084   3 ;     C4-    C1-   C17-   H22
     6      8      5      7      9 ;     0.00   0.00000   0 ;     C4-    C6-    C3-    C5
     6      8      5     16      9 ;     0.00   0.00000   0 ;     C4-    C6-    C3-   C14
     6      8      5     22      9 ;     0.00   0.00000   0 ;     C4-    C6-    C3-   C20
     6      8     12     10      9 ;     0.00   0.00000   0 ;     C4-    C6-   C10-    C8
     6      8     12     40      9 ;   180.00   1.08784   3 ;     C4-    C6-   C10-    H8
     6      8     12     41      9 ;   180.00   1.08784   3 ;     C4-    C6-   C10-    H9
     6     14     15      7      9 ;     0.00   0.65084   3 ;     C4-   C12-   C13-    C5
     6     14     15     44      9 ;     0.00   0.65084   3 ;     C4-   C12-   C13-   H12
     6     14     15     45      9 ;     0.00   0.65084   3 ;     C4-   C12-   C13-   H13
     7      5      8     12      9 ;     0.00   0.00000   0 ;     C5-    C3-    C6-   C10
     7      5     16     21      9 ;     0.00   2.17568   3 ;     C5-    C3-   C14-   C19
     7      5     16     46      9 ;     0.00   0.54392   3 ;     C5-    C3-   C14-   H14
     7      5     16     47      9 ;     0.00   0.54392   3 ;     C5-    C3-   C14-   H15
     7      5     22     58      9 ;     0.00   0.54392   3 ;     C5-    C3-   C20-   H26
     7      5     22     59      9 ;     0.00   0.54392   3 ;     C5-    C3-   C20-   H27
     7      5     22     60      9 ;     0.00   0.54392   3 ;     C5-    C3-   C20-   H28
     7     13     20     21      9 ;     0.00   2.17568   3 ;     C5-   C11-   C18-   C19
     7     13     20     55      9 ;     0.00   0.65084   3 ;     C5-   C11-   C18-   H23
     7     13     23     61      9 ;     0.00   0.54392   3 ;     C5-   C11-   C21-   H29
     7     13     23     62      9 ;     0.00   0.54392   3 ;     C5-   C11-   C21-   H30
     7     13     23     63      9 ;     0.00   0.54392   3 ;     C5-   C11-   C21-   H31
     7     13     24     64      9 ;     0.00   0.54392   3 ;     C5-   C11-   C22-   H32
     7     13     24     65      9 ;     0.00   0.54392   3 ;     C5-   C11-   C22-   H33
     7     13     24     66      9 ;     0.00   0.54392   3 ;     C5-   C11-   C22-   H34
     7     15     14     42      9 ;     0.00   0.54392   3 ;     C5-   C13-   C12-   H10
     7     15     14     43      9 ;     0.00   0.54392   3 ;     C5-   C13-   C12-   H11
     8      5      7     13      9 ;     0.00   0.65084   3 ;     C6-    C3-    C5-   C11
     8      5      7     15      9 ;     0.00   0.65084   3 ;     C6-    C3-    C5-   C13
     8      5      7     33      9 ;     0.00   0.65084   3 ;     C6-    C3-    C5-    H1
     8      5     16     21      9 ;     0.00   0.65084   3 ;     C6-    C3-   C14-   C19
     8      5     16     46      9 ;     0.00   0.65084   3 ;     C6-    C3-   C14-   H14
     8      5     16     47      9 ;     0.00   0.65084   3 ;     C6-    C3-   C14-   H15
     8      5     22     58      9 ;     0.00   0.65084   3 ;     C6-    C3-   C20-   H26
     8      5     22     59      9 ;     0.00   0.65084   3 ;     C6-    C3-   C20-   H27
     8      5     22     60      9 ;     0.00   0.65084   3 ;     C6-    C3-   C20-   H28
     8      6      3      9      9 ;     0.00   0.00000   0 ;     C6-    C4-    C1-    C7
     8      6      3     19      9 ;     0.00   0.00000   0 ;     C6-    C4-    C1-   C17
     8      6     14     15      9 ;     0.00   0.00000   0 ;     C6-    C4-   C12-   C13
     8      6     14     42      9 ;   180.00   1.08784   3 ;     C6-    C4-   C12-   H10
     8      6     14     43      9 ;   180.00   1.08784   3 ;     C6-    C4-   C12-   H11
     8     12     10     36      9 ;     0.00   0.65084   3 ;     C6-   C10-    C8-    H4
     8     12     10     37      9 ;     0.00   0.65084   3 ;     C6-   C10-    C8-    H5
     9      3      2     10      9 ;     0.00   2.17568   3 ;     C7-    C1-     C-    C8
     9      3      2     18      9 ;     0.00   2.17568   3 ;     C7-    C1-     C-   C16
     9      3      6     14      9 ;     0.00   0.00000   0 ;     C7-    C1-    C4-   C12
     9      3     19     52      9 ;     0.00   0.54392   3 ;     C7-    C1-   C17-   H20
     9      3     19     53      9 ;     0.00   0.54392   3 ;     C7-    C1-   C17-   H21
     9      3     19     54      9 ;     0.00   0.54392   3 ;     C7-    C1-   C17-   H22
     9     11      4     17      9 ;     0.00   2.17568   3 ;     C7-    C9-    C2-   C15
     9     11      4     32      9 ;     0.00   0.54392   3 ;     C7-    C9-    C2-     H
    10      2      3     19      9 ;     0.00   2.17568   3 ;     C8-     C-    C1-   C17
    10      2      4     11      9 ;     0.00   2.17568   3 ;     C8-     C-    C2-    C9
    10      2      4     17      9 ;     0.00   2.17568   3 ;     C8-     C-    C2-   C15
    10      2      4     32      9 ;     0.00   0.54392   3 ;     C8-     C-    C2-     H
    10      2     18     49      9 ;     0.00   0.54392   3 ;     C8-     C-   C16-   H17
    10      2     18     50      9 ;     0.00   0.54392   3 ;     C8-     C-   C16-   H18
    10      2     18     51      9 ;     0.00   0.54392   3 ;     C8-     C-   C16-   H19
    11      4      2     18      9 ;     0.00   2.17568   3 ;     C9-    C2-     C-   C16
    11      4     17     25      9 ;     0.00   2.17568   3 ;     C9-    C2-   C15-   C23
    11      4     17     26      9 ;     0.00   2.17568   3 ;     C9-    C2-   C15-   C24
    11      4     17     48      9 ;     0.00   0.54392   3 ;     C9-    C2-   C15-   H16
    11      9      3     19      9 ;     0.00   2.17568   3 ;     C9-    C7-    C1-   C17
    12      8      5     16      9 ;     0.00   0.00000   0 ;    C10-    C6-    C3-   C14
    12      8      5     22      9 ;     0.00   0.00000   0 ;    C10-    C6-    C3-   C20
    12      8      6     14      9 ;     0.00   0.62760   1 ;    C10-    C6-    C4-   C12
    12      8      6     14      9 ;   180.00   5.56472   3 ;    C10-    C6-    C4-   C12
    12      8      6     14      9 ;   180.00  24.18352   2 ;    C10-    C6-    C4-   C12
    12     10      2     18      9 ;     0.00   2.17568   3 ;    C10-    C8-     C-   C16
    13      7      5     16      9 ;     0.00   2.17568   3 ;    C11-    C5-    C3-   C14
    13      7      5     22      9 ;     0.00   2.17568   3 ;    C11-    C5-    C3-   C20
    13      7     15     14      9 ;     0.00   2.17568   3 ;    C11-    C5-   C13-   C12
    13      7     15     44      9 ;     0.00   0.54392   3 ;    C11-    C5-   C13-   H12
    13      7     15     45      9 ;     0.00   0.54392   3 ;    C11-    C5-   C13-   H13
    13     20     21     16      9 ;     0.00   2.17568   3 ;    C11-   C18-   C19-   C14
    13     20     21     56      9 ;     0.00   0.54392   3 ;    C11-   C18-   C19-   H24
    13     20     21     57      9 ;     0.00   0.54392   3 ;    C11-   C18-   C19-   H25
    14      6      3     19      9 ;     0.00   0.00000   0 ;    C12-    C4-    C1-   C17
    14     15      7     33      9 ;     0.00   0.54392   3 ;    C12-   C13-    C5-    H1
    15      7      5     16      9 ;     0.00   2.17568   3 ;    C13-    C5-    C3-   C14
    15      7      5     22      9 ;     0.00   2.17568   3 ;    C13-    C5-    C3-   C20
    15      7     13     20      9 ;     0.00   2.17568   3 ;    C13-    C5-   C11-   C18
    15      7     13     23      9 ;     0.00   2.17568   3 ;    C13-    C5-   C11-   C21
    15      7     13     24      9 ;     0.00   2.17568   3 ;    C13-    C5-   C11-   C22
    16      5      7     33      9 ;     0.00   0.54392   3 ;    C14-    C3-    C5-    H1
    16      5     22     58      9 ;     0.00   0.54392   3 ;    C14-    C3-   C20-   H26
    16      5     22     59      9 ;     0.00   0.54392   3 ;    C14-    C3-   C20-   H27
    16      5     22     60      9 ;     0.00   0.54392   3 ;    C14-    C3-   C20-   H28
    16     21     20     55      9 ;     0.00   0.65084   3 ;    C14-   C19-   C18-   H23
    17      4      2     18      9 ;     0.00   2.17568   3 ;    C15-    C2-     C-   C16
    17      4     11     38      9 ;     0.00   0.54392   3 ;    C15-    C2-    C9-    H6
    17      4     11     39      9 ;     0.00   0.54392   3 ;    C15-    C2-    C9-    H7
    17     25     27     28      9 ;     0.00   0.65084   3 ;    C15-   C23-   C25-   C26
    17     25     27     73      9 ;     0.00   0.54392   3 ;    C15-   C23-   C25-   H41
    17     25     27     74      9 ;     0.00   0.54392   3 ;    C15-   C23-   C25-   H42
    18      2      3     19      9 ;     0.00   2.17568   3 ;    C16-     C-    C1-   C17
    18      2      4     32      9 ;     0.00   0.54392   3 ;    C16-     C-    C2-     H
    18      2     10     36      9 ;     0.00   0.54392   3 ;    C16-     C-    C8-    H4
    18      2     10     37      9 ;     0.00   0.54392   3 ;    C16-     C-    C8-    H5
    19      3      9     34      9 ;     0.00   0.54392   3 ;    C17-    C1-    C7-    H2
    19      3      9     35      9 ;     0.00   0.54392   3 ;    C17-    C1-    C7-    H3
    20     13      7     33      9 ;     0.00   0.54392   3 ;    C18-   C11-    C5-    H1
    20     13     23     61      9 ;     0.00   0.54392   3 ;    C18-   C11-   C21-   H29
    20     13     23     62      9 ;     0.00   0.54392   3 ;    C18-   C11-   C21-   H30
    20     13     23     63      9 ;     0.00   0.54392   3 ;    C18-   C11-   C21-   H31
    20     13     24     64      9 ;     0.00   0.54392   3 ;    C18-   C11-   C22-   H32
    20     13     24     65      9 ;     0.00   0.54392   3 ;    C18-   C11-   C22-   H33
    20     13     24     66      9 ;     0.00   0.54392   3 ;    C18-   C11-   C22-   H34
    20     21     16     46      9 ;     0.00   0.54392   3 ;    C18-   C19-   C14-   H14
    20     21     16     47      9 ;     0.00   0.54392   3 ;    C18-   C19-   C14-   H15
    21     16      5     22      9 ;     0.00   2.17568   3 ;    C19-   C14-    C3-   C20
    21     20     13     23      9 ;     0.00   2.17568   3 ;    C19-   C18-   C11-   C21
    21     20     13     24      9 ;     0.00   2.17568   3 ;    C19-   C18-   C11-   C22
    22      5      7     33      9 ;     0.00   0.54392   3 ;    C20-    C3-    C5-    H1
    22      5     16     46      9 ;     0.00   0.54392   3 ;    C20-    C3-   C14-   H14
    22      5     16     47      9 ;     0.00   0.54392   3 ;    C20-    C3-   C14-   H15
    23     13      7     33      9 ;     0.00   0.54392   3 ;    C21-   C11-    C5-    H1
    23     13     20     55      9 ;     0.00   0.65084   3 ;    C21-   C11-   C18-   H23
    23     13     24     64      9 ;     0.00   0.54392   3 ;    C21-   C11-   C22-   H32
    23     13     24     65      9 ;     0.00   0.54392   3 ;    C21-   C11-   C22-   H33
    23     13     24     66      9 ;     0.00   0.54392   3 ;    C21-   C11-   C22-   H34
    24     13      7     33      9 ;     0.00   0.54392   3 ;    C22-   C11-    C5-    H1
    24     13     20     55      9 ;     0.00   0.65084   3 ;    C22-   C11-   C18-   H23
    24     13     23     61      9 ;     0.00   0.54392   3 ;    C22-   C11-   C21-   H29
    24     13     23     62      9 ;     0.00   0.54392   3 ;    C22-   C11-   C21-   H30
    24     13     23     63      9 ;     0.00   0.54392   3 ;    C22-   C11-   C21-   H31
    25     17      4     32      9 ;     0.00   0.54392   3 ;    C23-   C15-    C2-     H
    25     17     26     69      9 ;     0.00   0.54392   3 ;    C23-   C15-   C24-   H37
    25     17     26     70      9 ;     0.00   0.54392   3 ;    C23-   C15-   C24-   H38
    25     17     26     71      9 ;     0.00   0.54392   3 ;    C23-   C15-   C24-   H39
    25     27     28     29      9 ;     0.00   0.00000   0 ;    C23-   C25-   C26-   C27
    25     27     28     75      9 ;     0.00   0.00000   0 ;    C23-   C25-   C26-   H43
    26     17      4     32      9 ;     0.00   0.54392   3 ;    C24-   C15-    C2-     H
    26     17     25     27      9 ;     0.00   2.17568   3 ;    C24-   C15-   C23-   C25
    26     17     25     67      9 ;     0.00   0.54392   3 ;    C24-   C15-   C23-   H35
    26     17     25     68      9 ;     0.00   0.54392   3 ;    C24-   C15-   C23-   H36
    27     25     17     48      9 ;     0.00   0.54392   3 ;    C25-   C23-   C15-   H16
    27     28     29     30      9 ;     0.00   0.62760   1 ;    C25-   C26-   C27-   C28
    27     28     29     30      9 ;   180.00   5.56472   3 ;    C25-   C26-   C27-   C28
    27     28     29     30      9 ;   180.00  24.18352   2 ;    C25-   C26-   C27-   C28
    27     28     29     31      9 ;     0.00   0.62760   1 ;    C25-   C26-   C27-   C29
    27     28     29     31      9 ;   180.00   5.56472   3 ;    C25-   C26-   C27-   C29
    27     28     29     31      9 ;   180.00  24.18352   2 ;    C25-   C26-   C27-   C29
    28     27     25     67      9 ;     0.00   0.65084   3 ;    C26-   C25-   C23-   H35
    28     27     25     68      9 ;     0.00   0.65084   3 ;    C26-   C25-   C23-   H36
    28     29     30     76      9 ;   180.00   1.08784   3 ;    C26-   C27-   C28-   H44
    28     29     30     77      9 ;   180.00   1.08784   3 ;    C26-   C27-   C28-   H45
    28     29     30     78      9 ;   180.00   1.08784   3 ;    C26-   C27-   C28-   H46
    28     29     31     79      9 ;   180.00   1.08784   3 ;    C26-   C27-   C29-   H47
    28     29     31     80      9 ;   180.00   1.08784   3 ;    C26-   C27-   C29-   H48
    28     29     31     81      9 ;   180.00   1.08784   3 ;    C26-   C27-   C29-   H49
    29     28     27     73      9 ;   180.00   1.08784   3 ;    C27-   C26-   C25-   H41
    29     28     27     74      9 ;   180.00   1.08784   3 ;    C27-   C26-   C25-   H42
    30     29     28     75      9 ;   180.00  27.82360   2 ;    C28-   C27-   C26-   H43
    30     29     31     79      9 ;     0.00   0.62760   3 ;    C28-   C27-   C29-   H47
    30     29     31     80      9 ;     0.00   0.62760   3 ;    C28-   C27-   C29-   H48
    30     29     31     81      9 ;     0.00   0.62760   3 ;    C28-   C27-   C29-   H49
    31     29     28     75      9 ;   180.00  27.82360   2 ;    C29-   C27-   C26-   H43
    31     29     30     76      9 ;     0.00   0.62760   3 ;    C29-   C27-   C28-   H44
    31     29     30     77      9 ;     0.00   0.62760   3 ;    C29-   C27-   C28-   H45
    31     29     30     78      9 ;     0.00   0.62760   3 ;    C29-   C27-   C28-   H46
    32      4     11     38      9 ;     0.00   0.50208   3 ;      H-    C2-    C9-    H6
    32      4     11     39      9 ;     0.00   0.50208   3 ;      H-    C2-    C9-    H7
    32      4     17     48      9 ;     0.00   0.50208   3 ;      H-    C2-   C15-   H16
    33      7     15     44      9 ;     0.00   0.50208   3 ;     H1-    C5-   C13-   H12
    33      7     15     45      9 ;     0.00   0.50208   3 ;     H1-    C5-   C13-   H13
    34      9     11     38      9 ;     0.00   0.50208   3 ;     H2-    C7-    C9-    H6
    34      9     11     39      9 ;     0.00   0.50208   3 ;     H2-    C7-    C9-    H7
    35      9     11     38      9 ;     0.00   0.50208   3 ;     H3-    C7-    C9-    H6
    35      9     11     39      9 ;     0.00   0.50208   3 ;     H3-    C7-    C9-    H7
    36     10     12     40      9 ;     0.00   0.50208   3 ;     H4-    C8-   C10-    H8
    36     10     12     41      9 ;     0.00   0.50208   3 ;     H4-    C8-   C10-    H9
    37     10     12     40      9 ;     0.00   0.50208   3 ;     H5-    C8-   C10-    H8
    37     10     12     41      9 ;     0.00   0.50208   3 ;     H5-    C8-   C10-    H9
    42     14     15     44      9 ;     0.00   0.50208   3 ;    H10-   C12-   C13-   H12
    42     14     15     45      9 ;     0.00   0.50208   3 ;    H10-   C12-   C13-   H13
    43     14     15     44      9 ;     0.00   0.50208   3 ;    H11-   C12-   C13-   H12
    43     14     15     45      9 ;     0.00   0.50208   3 ;    H11-   C12-   C13-   H13
    46     16     21     56      9 ;     0.00   0.50208   3 ;    H14-   C14-   C19-   H24
    46     16     21     57      9 ;     0.00   0.50208   3 ;    H14-   C14-   C19-   H25
    47     16     21     56      9 ;     0.00   0.50208   3 ;    H15-   C14-   C19-   H24
    47     16     21     57      9 ;     0.00   0.50208   3 ;    H15-   C14-   C19-   H25
    48     17     25     67      9 ;     0.00   0.50208   3 ;    H16-   C15-   C23-   H35
    48     17     25     68      9 ;     0.00   0.50208   3 ;    H16-   C15-   C23-   H36
    48     17     26     69      9 ;     0.00   0.50208   3 ;    H16-   C15-   C24-   H37
    48     17     26     70      9 ;     0.00   0.50208   3 ;    H16-   C15-   C24-   H38
    48     17     26     71      9 ;     0.00   0.50208   3 ;    H16-   C15-   C24-   H39
    55     20     21     56      9 ;     0.00   0.65084   3 ;    H23-   C18-   C19-   H24
    55     20     21     57      9 ;     0.00   0.65084   3 ;    H23-   C18-   C19-   H25
    67     25     27     73      9 ;     0.00   0.50208   3 ;    H35-   C23-   C25-   H41
    67     25     27     74      9 ;     0.00   0.50208   3 ;    H35-   C23-   C25-   H42
    68     25     27     73      9 ;     0.00   0.50208   3 ;    H36-   C23-   C25-   H41
    68     25     27     74      9 ;     0.00   0.50208   3 ;    H36-   C23-   C25-   H42
    72      1     20     13      9 ;     0.00   0.25104   3 ;    H40-     O-   C18-   C11
    72      1     20     21      9 ;     0.00   0.25104   3 ;    H40-     O-   C18-   C19
    72      1     20     55      9 ;     0.00   0.51463   3 ;    H40-     O-   C18-   H23
    73     27     28     75      9 ;     0.00   0.00000   0 ;    H41-   C25-   C26-   H43
    74     27     28     75      9 ;     0.00   0.00000   0 ;    H42-   C25-   C26-   H43

[ dihedrals ] ; impropers
; treated as propers in GROMACS to use correct AMBER analytical function
;    i      j      k      l   func   phase     kd      pn
     6      5      8     12      4 ;   180.00   4.60240   2 ;     C4-    C3-    C6-   C10
     8      3      6     14      4 ;   180.00   4.60240   2 ;     C6-    C1-    C4-   C12
    28     30     29     31      4 ;   180.00   4.60240   2 ;    C26-   C28-   C27-   C29
    29     27     28     75      4 ;   180.00   4.60240   2 ;    C27-   C25-   C26-   H43
