246983
    81
  -6.4760000   1.4140000   0.0130000   1.1120000   0.6200000   0.4370000
   0.4650000  -0.7500000   0.0350000   2.6220000   0.2890000   0.3460000
  -3.2560000   0.5860000  -0.0940000  -1.0510000  -0.6690000   0.1720000
  -3.9080000  -0.8410000  -0.1060000  -1.7030000   0.4780000  -0.1540000
   1.2730000  -1.7080000   0.9360000   0.6110000   1.6900000  -0.5330000
   2.7100000  -1.1410000   0.9310000  -0.9310000   1.7540000  -0.5430000
  -5.4890000  -0.8810000  -0.0730000  -1.7550000  -1.9270000   0.6160000
  -3.2390000  -1.7560000   0.9270000  -3.8100000   1.3710000  -1.3230000
   3.5830000   1.2610000   1.0200000   0.7640000   1.0750000   1.8910000
   0.7110000  -1.1970000  -1.4400000  -6.1050000   0.3340000  -0.8390000
  -5.1500000   0.8830000  -1.8910000  -3.5520000   1.3660000   1.2110000
  -5.9310000  -2.1650000  -0.8340000  -6.0740000  -1.0090000   1.3490000
   5.0600000   0.8430000   0.8560000   3.3870000   2.6680000   0.4430000
   5.5700000   0.7900000  -0.5910000   7.0280000   0.4350000  -0.6800000
   7.5920000  -0.7880000  -0.6880000   9.0870000  -0.9340000  -0.7910000
   6.8510000  -2.0920000  -0.6000000   2.8870000   0.2400000  -0.7160000
  -3.6280000  -1.2670000  -1.0850000   1.2570000  -2.7450000   0.5830000
   0.8880000  -1.7170000   1.9620000   0.9720000   1.4930000  -1.5500000
   0.9620000   2.6950000  -0.2940000   3.1100000  -1.1560000   1.9510000
   3.3660000  -1.7620000   0.3110000  -1.2300000   2.0900000  -1.5400000
  -1.2240000   2.5510000   0.1510000  -1.6430000  -2.6820000  -0.1720000
  -1.2790000  -2.3350000   1.5140000  -3.7000000  -2.7500000   0.9350000
  -3.3560000  -1.3530000   1.9390000  -3.1060000   1.3190000  -2.1630000
  -3.8970000   2.4370000  -1.0750000   3.3950000   1.3050000   2.0990000
  -0.3110000   1.0670000   2.0930000   1.2230000   0.4350000   2.6510000
   1.0990000   2.0970000   2.0900000   0.2390000  -0.5270000  -2.1670000
   1.7710000  -1.2670000  -1.7000000   0.2890000  -2.1950000  -1.6140000
  -7.0320000   0.0210000  -1.3340000  -5.6170000   1.7180000  -2.4280000
  -4.9570000   0.1070000  -2.6420000  -3.1360000   2.3790000   1.1810000
  -4.6140000   1.4950000   1.4050000  -3.1190000   0.8740000   2.0890000
  -7.0230000  -2.2630000  -0.8400000  -5.5280000  -3.0720000  -0.3710000
  -5.5990000  -2.1500000  -1.8780000  -7.1690000  -0.9700000   1.3210000
  -5.7360000  -0.2140000   2.0170000  -5.8040000  -1.9630000   1.8170000
   5.2160000  -0.1330000   1.3320000   5.6840000   1.5460000   1.4240000
   3.2690000   2.6660000  -0.6450000   2.5450000   3.1860000   0.9040000
   4.2580000   3.2970000   0.6690000  -6.8860000   2.1010000  -0.5390000
   5.4350000   1.7600000  -1.0830000   4.9930000   0.0720000  -1.1820000
   7.6890000   1.3000000  -0.7350000   9.5980000   0.0320000  -0.8560000
   9.4790000  -1.4580000   0.0870000   9.3510000  -1.5090000  -1.6850000
   7.1880000  -2.6600000   0.2730000   5.7700000  -1.9610000  -0.5080000
   7.0360000  -2.6930000  -1.4970000
