%VERSION  VERSION_STAMP = V0001.000  DATE = 02/09/26  17:52:41                  
%FLAG TITLE                                                                     
%FORMAT(20a4)                                                                   
246983                                                                          
%FLAG POINTERS                                                                  
%FORMAT(10I8)                                                                   
      81       7      50      34     113      56     188      97       0       0
     522       1      34      56      97      17      39      16       9       0
       0       0       0       0       0       0       0       0      81       0
       0
%FLAG ATOM_NAME                                                                 
%FORMAT(20a4)                                                                   
O   C   C1  C2  C3  C4  C5  C6  C7  C8  C9  C10 C11 C12 C13 C14 C15 C16 C17 C18 
C19 C20 C21 C22 C23 C24 C25 C26 C27 C28 C29 H   H1  H2  H3  H4  H5  H6  H7  H8  
H9  H10 H11 H12 H13 H14 H15 H16 H17 H18 H19 H20 H21 H22 H23 H24 H25 H26 H27 H28 
H29 H30 H31 H32 H33 H34 H35 H36 H37 H38 H39 H40 H41 H42 H43 H44 H45 H46 H47 H48 
H49 
%FLAG CHARGE                                                                    
%FORMAT(5E16.8)                                                                 
 -1.08932909E+01 -6.56002800E-01 -2.69690040E-01 -9.78537510E-01  1.12978260E-01
 -1.73840742E+00 -8.14536810E-01 -2.13929802E+00 -1.26462762E+00 -1.13707152E+00
 -1.41040602E+00 -6.23202660E-01 -1.27556100E+00 -6.59647260E-01 -1.35573912E+00
 -1.41040602E+00 -1.01498211E+00 -1.58716233E+00 -1.47782853E+00  2.69872263E+00
 -2.01174192E+00 -1.58716233E+00 -1.56894003E+00 -1.56894003E+00 -1.35573912E+00
 -1.64182923E+00 -8.60092560E-01 -3.19254696E+00 -2.30329872E+00 -1.04596002E+00
 -1.04596002E+00  8.87426010E-01  9.23870610E-01  7.96314510E-01  7.96314510E-01
  7.41647610E-01  7.41647610E-01  7.68981060E-01  7.68981060E-01  7.96314510E-01
  7.96314510E-01  8.87426010E-01  8.87426010E-01  8.05425660E-01  8.05425660E-01
  7.96314510E-01  7.96314510E-01  8.87426010E-01  6.74826436E-01  6.74826436E-01
  6.74826436E-01  6.56604136E-01  6.56604136E-01  6.56604136E-01  1.27009431E+00
  9.32981760E-01  9.32981760E-01  6.74826436E-01  6.74826436E-01  6.74826436E-01
  6.77869560E-01  6.77869560E-01  6.77869560E-01  6.77869560E-01  6.77869560E-01
  6.77869560E-01  7.41647610E-01  7.41647610E-01  6.20159536E-01  6.20159536E-01
  6.20159536E-01  7.27069770E+00  8.78314860E-01  8.78314860E-01  2.22312060E+00
  7.29493336E-01  7.29493336E-01  7.29493336E-01  7.29493336E-01  7.29493336E-01
  7.29493336E-01
%FLAG ATOMIC_NUMBER                                                             
%FORMAT(10I8)                                                                   
       8       6       6       6       6       6       6       6       6       6
       6       6       6       6       6       6       6       6       6       6
       6       6       6       6       6       6       6       6       6       6
       6       1       1       1       1       1       1       1       1       1
       1       1       1       1       1       1       1       1       1       1
       1       1       1       1       1       1       1       1       1       1
       1       1       1       1       1       1       1       1       1       1
       1       1       1       1       1       1       1       1       1       1
       1
%FLAG MASS                                                                      
%FORMAT(5E16.8)                                                                 
  1.60000000E+01  1.20100000E+01  1.20100000E+01  1.20100000E+01  1.20100000E+01
  1.20100000E+01  1.20100000E+01  1.20100000E+01  1.20100000E+01  1.20100000E+01
  1.20100000E+01  1.20100000E+01  1.20100000E+01  1.20100000E+01  1.20100000E+01
  1.20100000E+01  1.20100000E+01  1.20100000E+01  1.20100000E+01  1.20100000E+01
  1.20100000E+01  1.20100000E+01  1.20100000E+01  1.20100000E+01  1.20100000E+01
  1.20100000E+01  1.20100000E+01  1.20100000E+01  1.20100000E+01  1.20100000E+01
  1.20100000E+01  1.00800000E+00  1.00800000E+00  1.00800000E+00  1.00800000E+00
  1.00800000E+00  1.00800000E+00  1.00800000E+00  1.00800000E+00  1.00800000E+00
  1.00800000E+00  1.00800000E+00  1.00800000E+00  1.00800000E+00  1.00800000E+00
  1.00800000E+00  1.00800000E+00  1.00800000E+00  1.00800000E+00  1.00800000E+00
  1.00800000E+00  1.00800000E+00  1.00800000E+00  1.00800000E+00  1.00800000E+00
  1.00800000E+00  1.00800000E+00  1.00800000E+00  1.00800000E+00  1.00800000E+00
  1.00800000E+00  1.00800000E+00  1.00800000E+00  1.00800000E+00  1.00800000E+00
  1.00800000E+00  1.00800000E+00  1.00800000E+00  1.00800000E+00  1.00800000E+00
  1.00800000E+00  1.00800000E+00  1.00800000E+00  1.00800000E+00  1.00800000E+00
  1.00800000E+00  1.00800000E+00  1.00800000E+00  1.00800000E+00  1.00800000E+00
  1.00800000E+00
%FLAG ATOM_TYPE_INDEX                                                           
%FORMAT(10I8)                                                                   
       1       2       2       2       2       3       2       3       2       2
       2       2       2       2       2       2       2       2       2       2
       2       2       2       2       2       2       2       3       3       2
       2       4       4       4       4       4       4       4       4       4
       4       4       4       4       4       4       4       4       4       4
       4       4       4       4       5       4       4       4       4       4
       4       4       4       4       4       4       4       4       4       4
       4       6       4       4       7       4       4       4       4       4
       4
%FLAG NUMBER_EXCLUDED_ATOMS                                                     
%FORMAT(10I8)                                                                   
      11      30      28      27      26      23      28      22      14      13
      11       8      21       7      10      12      16       7       5      16
       9       6       9       8      14       8      10      14      11       8
       7       3       2       3       2       3       2       1       1       1
       1       3       2       1       1       3       2       5       2       1
       1       2       1       1       3       1       1       2       1       1
       2       1       1       2       1       1       3       2       2       1
       1       1       2       1       1       2       1       1       2       1
       1
%FLAG NONBONDED_PARM_INDEX                                                      
%FORMAT(10I8)                                                                   
       1       2       4       7      11      16      22       2       3       5
       8      12      17      23       4       5       6       9      13      18
      24       7       8       9      10      14      19      25      11      12
      13      14      15      20      26      16      17      18      19      20
      21      27      22      23      24      25      26      27      28
%FLAG RESIDUE_LABEL                                                             
%FORMAT(20a4)                                                                   
UNL 
%FLAG RESIDUE_POINTER                                                           
%FORMAT(10I8)                                                                   
       1
%FLAG BOND_FORCE_CONSTANT                                                       
%FORMAT(5E16.8)                                                                 
  2.85250000E+02  5.35510000E+02  2.20100000E+02  2.26470000E+02  2.27640000E+02
  2.43380000E+02  3.46430000E+02  2.26810000E+02  2.44960000E+02  2.23800000E+02
  4.36000000E+02  3.42750000E+02  2.28890000E+02  3.45250000E+02  3.42020000E+02
  2.48400000E+02  3.57290000E+02
%FLAG BOND_EQUIL_VALUE                                                          
%FORMAT(5E16.8)                                                                 
  1.42410000E+00  9.72500000E-01  1.54830000E+00  1.53890000E+00  1.53720000E+00
  1.51540000E+00  1.09540000E+00  1.53840000E+00  1.51330000E+00  1.54280000E+00
  1.33790000E+00  1.09790000E+00  1.53540000E+00  1.09620000E+00  1.09840000E+00
  1.50880000E+00  1.08820000E+00
%FLAG ANGLE_FORCE_CONSTANT                                                      
%FORMAT(5E16.8)                                                                 
  7.65600000E+01  5.63900000E+01  6.12900000E+01  6.18400000E+01  5.93300000E+01
  4.26500000E+01  6.01700000E+01  4.32400000E+01  4.30600000E+01  5.92600000E+01
  6.22200000E+01  5.90600000E+01  5.95600000E+01  6.01800000E+01  4.32300000E+01
  6.12400000E+01  5.98700000E+01  4.28900000E+01  6.01800000E+01  6.05700000E+01
  4.39000000E+01  5.99900000E+01  6.09300000E+01  6.03300000E+01  4.32800000E+01
  4.36000000E+01  5.98700000E+01  4.32700000E+01  6.52300000E+01  6.06000000E+01
  6.04000000E+01  6.08800000E+01  4.29500000E+01  4.37600000E+01  4.63700000E+01
  6.03000000E+01  3.59100000E+01  3.59300000E+01  3.58000000E+01
%FLAG ANGLE_EQUIL_VALUE                                                         
%FORMAT(5E16.8)                                                                 
  1.92073567E+00  1.91916487E+00  1.88390920E+00  1.81217614E+00  1.98269488E+00
  1.94028336E+00  1.93801443E+00  1.90834382E+00  1.92911325E+00  1.98531288E+00
  2.07572097E+00  2.07711723E+00  1.98444021E+00  1.93836350E+00  1.91026369E+00
  2.14710497E+00  2.02388467E+00  1.93085858E+00  1.96838317E+00  1.94447215E+00
  1.90782022E+00  1.94482122E+00  1.91584874E+00  1.92963685E+00  1.90555129E+00
  1.88129121E+00  1.96576518E+00  1.91427794E+00  1.86872483E+00  1.90031530E+00
  1.96489251E+00  2.18078984E+00  2.00800217E+00  1.93120765E+00  2.10120279E+00
  2.00730403E+00  1.87134283E+00  1.86087085E+00  1.88024401E+00
%FLAG DIHEDRAL_FORCE_CONSTANT                                                   
%FORMAT(5E16.8)                                                                 
  1.80000000E-01  9.00000000E-02  0.00000000E+00  5.20000000E-01  1.30000000E-01
  1.55555556E-01  1.50000000E-01  5.78000000E+00  1.33000000E+00  1.50000000E-01
  2.60000000E-01  6.00000000E-02  6.65000000E+00  1.20000000E-01  1.23000000E-01
  1.10000000E+00
%FLAG DIHEDRAL_PERIODICITY                                                      
%FORMAT(5E16.8)                                                                 
  3.00000000E+00  3.00000000E+00  2.00000000E+00  3.00000000E+00  3.00000000E+00
  3.00000000E+00  1.00000000E+00  2.00000000E+00  3.00000000E+00  3.00000000E+00
  3.00000000E+00  3.00000000E+00  2.00000000E+00  3.00000000E+00  3.00000000E+00
  2.00000000E+00
%FLAG DIHEDRAL_PHASE                                                            
%FORMAT(5E16.8)                                                                 
  0.00000000E+00  0.00000000E+00  0.00000000E+00  0.00000000E+00  0.00000000E+00
  0.00000000E+00  0.00000000E+00  3.14159400E+00  3.14159400E+00  0.00000000E+00
  3.14159400E+00  0.00000000E+00  3.14159400E+00  0.00000000E+00  0.00000000E+00
  3.14159400E+00
%FLAG SCEE_SCALE_FACTOR                                                         
%FORMAT(5E16.8)                                                                 
  1.20000000E+00  1.20000000E+00  1.20000000E+00  1.20000000E+00  1.20000000E+00
  1.20000000E+00  1.20000000E+00  1.20000000E+00  1.20000000E+00  1.20000000E+00
  1.20000000E+00  1.20000000E+00  1.20000000E+00  1.20000000E+00  1.20000000E+00
  0.00000000E+00
%FLAG SCNB_SCALE_FACTOR                                                         
%FORMAT(5E16.8)                                                                 
  2.00000000E+00  2.00000000E+00  2.00000000E+00  2.00000000E+00  2.00000000E+00
  2.00000000E+00  2.00000000E+00  2.00000000E+00  2.00000000E+00  2.00000000E+00
  2.00000000E+00  2.00000000E+00  2.00000000E+00  2.00000000E+00  2.00000000E+00
  0.00000000E+00
%FLAG SOLTY                                                                     
%FORMAT(5E16.8)                                                                 
  0.00000000E+00  0.00000000E+00  0.00000000E+00  0.00000000E+00  0.00000000E+00
  0.00000000E+00  0.00000000E+00  0.00000000E+00  0.00000000E+00
%FLAG LENNARD_JONES_ACOEF                                                       
%FORMAT(5E16.8)                                                                 
  5.03152404E+05  7.18991463E+05  1.02073671E+06  5.92438683E+05  8.43969952E+05
  6.96551276E+05  6.80216136E+04  1.00235148E+05  8.12662403E+04  7.94617769E+03
  4.69084694E+04  6.97998263E+04  5.63013422E+04  5.22955465E+03  3.39005767E+03
  1.74176419E+02  3.03553352E+02  2.25372434E+02  8.80612241E+00  4.36660257E+00
  1.10360882E-05  6.30298721E+04  9.27554496E+04  7.52549148E+04  7.41026906E+03
  4.88692384E+03  8.53132435E+00  6.90855956E+03
%FLAG LENNARD_JONES_BCOEF                                                       
%FORMAT(5E16.8)                                                                 
  4.32634597E+02  5.36620538E+02  6.63431737E+02  4.76608379E+02  5.90251928E+02
  5.24668528E+02  1.09393126E+02  1.37787728E+02  1.21392023E+02  2.57122925E+01
  9.08431526E+01  1.14981426E+02  1.01040256E+02  2.08590256E+01  1.67944276E+01
  3.81654050E+00  5.22789272E+00  4.40751799E+00  5.90150328E-01  4.15568027E-01
  4.55498033E-04  9.87712192E+01  1.24325688E+02  1.09570372E+02  2.32899892E+01
  1.89134207E+01  5.44840215E-01  2.10929191E+01
%FLAG BONDS_INC_HYDROGEN                                                        
%FORMAT(10I8)                                                                   
       0     213       2       9      93       7      18      96      12      24
      99       7      24     102       7      27     105      12      27     108
      12      30     111       7      30     114       7      33     117      12
      33     120      12      39     123      12      39     126      12      42
     129      12      42     132      12      45     135      12      45     138
      12      48     141      14      51     144      14      51     147      14
      51     150      14      54     153      14      54     156      14      54
     159      14      57     162      15      60     165      12      60     168
      12      63     171      14      63     174      14      63     177      14
      66     180      14      66     183      14      66     186      14      69
     189      14      69     192      14      69     195      14      72     198
      14      72     201      14      75     204      14      75     207      14
      75     210      14      78     216      14      78     219      14      81
     222      17      87     225      14      87     228      14      87     231
      14      90     234      14      90     237      14      90     240      14
%FLAG BONDS_WITHOUT_HYDROGEN                                                    
%FORMAT(10I8)                                                                   
       0      57       1       3       6       3       3       9       3       3
      27       4       3      51       5       6      15       6       6      24
       3       6      54       5       9      30       3       9      48       5
      12      18       8      12      21       9      12      45       8      12
      63      10      15      21      11      15      39       9      18      36
       8      18      42       8      21      33       9      24      30       3
      27      33       8      36      57       8      36      66      10      36
      69      10      39      42       8      45      60       8      48      72
      13      48      75      13      57      60       8      72      78      13
      78      81      16      81      84      11      84      87      16      84
      90      16
%FLAG ANGLES_INC_HYDROGEN                                                       
%FORMAT(10I8)                                                                   
       0      57     162       2       3       9      93       6       3      27
     105       8       3      27     108       8       3      51     144       9
       3      51     147       9       3      51     150       9       6      24
      99       6       6      24     102       6       6      54     153       9
       6      54     156       9       6      54     159       9       9      30
     111       6       9      30     114       6       9      48     141       9
      12      18      96      15      12      45     135      15      12      45
     138      15      12      63     171      18      12      63     174      18
      12      63     177      18      15      39     123      21      15      39
     126      21      18      42     129      15      18      42     132      15
      21      33     117      21      21      33     120      21      24      30
     111       6      24      30     114       6      27      33     117      15
      27      33     120      15      30       9      93       6      30      24
      99       6      30      24     102       6      33      27     105      15
      33      27     108      15      36      18      96      15      36      57
     162      25      36      66     180      18      36      66     183      18
      36      66     186      18      36      69     189      18      36      69
     192      18      36      69     195      18      39      42     129      15
      39      42     132      15      42      18      96      15      42      39
     123      15      42      39     126      15      45      60     165      15
      45      60     168      15      48       9      93      26      48      72
     198      28      48      72     201      28      48      75     204      28
      48      75     207      28      48      75     210      28      57       0
     213      29      57      60     165      15      57      60     168      15
      60      45     135      15      60      45     138      15      60      57
     162      25      72      48     141      28      72      78     216      28
      72      78     219      28      75      48     141      28      78      72
     198      28      78      72     201      28      78      81     222      33
      81      78     216      34      81      78     219      34      84      81
     222      35      84      87     225      34      84      87     228      34
      84      87     231      34      84      90     234      34      84      90
     237      34      84      90     240      34      99      24     102      37
     105      27     108      38     111      30     114      37     117      33
     120      38     123      39     126      38     129      42     132      38
     135      45     138      38     144      51     147      39     144      51
     150      39     147      51     150      39     153      54     156      39
     153      54     159      39     156      54     159      39     165      60
     168      38     171      63     174      39     171      63     177      39
     174      63     177      39     180      66     183      39     180      66
     186      39     183      66     186      39     189      69     192      39
     189      69     195      39     192      69     195      39     198      72
     201      39     204      75     207      39     204      75     210      39
     207      75     210      39     216      78     219      39     225      87
     228      39     225      87     231      39     228      87     231      39
     234      90     237      39     234      90     240      39     237      90
     240      39
%FLAG ANGLES_WITHOUT_HYDROGEN                                                   
%FORMAT(10I8)                                                                   
       0      57      36       1       0      57      60       1       3       6
      15       3       3       6      24       4       3       6      54       5
       3       9      30       4       3       9      48       5       3      27
      33       7       6       3       9       4       6       3      27      10
       6       3      51       5       6      15      21      11       6      15
      39      12       6      24      30       4       9       3      27      10
       9       3      51       5       9      30      24       4       9      48
      72      13       9      48      75      13      12      18      36      14
      12      18      42      14      12      21      15      16      12      21
      33      17      12      45      60      14      15       6      24       3
      15       6      54      19      15      21      33      16      15      39
      42      20      18      12      21      20      18      12      45      14
      18      12      63      22      18      36      57      14      18      36
      66      22      18      36      69      22      18      42      39      14
      21      12      45      20      21      12      63      23      21      15
      39      16      21      33      27      20      24       6      54       5
      27       3      51      24      30       9      48       5      36      18
      42      14      36      57      60      14      45      12      63      22
      45      60      57      14      48      72      78      27      57      36
      66      22      57      36      69      22      66      36      69      30
      72      48      75      27      72      78      81      31      78      81
      84      32      81      84      87      32      81      84      90      32
      87      84      90      36
%FLAG DIHEDRALS_INC_HYDROGEN                                                    
%FORMAT(10I8)                                                                   
       0      57      60     165       2       0      57      60     168       2
       3       6      24      99       5       3       6      24     102       5
       3       6      54     153       5       3       6      54     156       5
       3       6      54     159       5       3       9      30     111       5
       3       9      30     114       5       3       9      48     141       5
       3      27      33     117       5       3      27      33     120       5
       6       3       9      93       5       6       3      27     105       5
       6       3      27     108       5       6       3      51     144       5
       6       3      51     147       5       6       3      51     150       5
       6      15      39     123      10       6      15      39     126      10
       6      24      30     111       5       6      24      30     114       5
       9       3      27     105       5       9       3      27     108       5
       9       3      51     144       5       9       3      51     147       5
       9       3      51     150       5       9      30      24      99       5
       9      30      24     102       5       9      48      72     198       5
       9      48      72     201       5       9      48      75     204       5
       9      48      75     207       5       9      48      75     210       5
      12      18      42     129       5      12      18      42     132       5
      12      21      33     117      10      12      21      33     120      10
      12      45      60     165       5      12      45      60     168       5
      15       6      24      99       6      15       6      24     102       6
      15       6      54     153       6      15       6      54     156       6
      15       6      54     159       6      15      21      33     117      11
      15      21      33     120      11      15      39      42     129       6
      15      39      42     132       6      18      12      45     135       5
      18      12      45     138       5      18      12      63     171       5
      18      12      63     174       5      18      12      63     177       5
      18      36      57     162       6      18      36      66     180       5
      18      36      66     183       5      18      36      66     186       5
      18      36      69     189       5      18      36      69     192       5
      18      36      69     195       5      18      42      39     123       5
      18      42      39     126       5      21      12      18      96       6
      21      12      45     135       6      21      12      45     138       6
      21      12      63     171       6      21      12      63     174       6
      21      12      63     177       6      21      15      39     123      11
      21      15      39     126      11      21      33      27     105       6
      21      33      27     108       6      24       6      54     153       5
      24       6      54     156       5      24       6      54     159       5
      24      30       9      93       5      27       3       9      93       5
      27       3      51     144       5      27       3      51     147       5
      27       3      51     150       5      30       9      48     141       5
      36      18      42     129       5      36      18      42     132       5
     213       0      57      36      12      36      57      60     165       5
      36      57      60     168       5      39      42      18      96       5
      45      12      18      96       5      45      12      63     171       5
      45      12      63     174       5      45      12      63     177       5
      45      60      57     162       6      48       9      30     111       5
      48       9      30     114       5      48      72      78     216       5
      48      72      78     219       5      51       3       9      93       5
      51       3      27     105       5      51       3      27     108       5
      54       6      24      99       5      54       6      24     102       5
      57      36      18      96       5      57      36      66     180       5
      57      36      66     183       5      57      36      66     186       5
      57      36      69     189       5      57      36      69     192       5
      57      36      69     195       5      57      60      45     135       5
      57      60      45     138       5     213       0      57      60      12
      63      12      18      96       5      63      12      45     135       5
      63      12      45     138       5      66      36      18      96       5
      66      36      57     162       6      66      36      69     189       5
      66      36      69     192       5      66      36      69     195       5
      69      36      18      96       5      69      36      57     162       6
      69      36      66     180       5      69      36      66     183       5
      69      36      66     186       5      72      48       9      93       5
      72      48      75     204       5      72      48      75     207       5
      72      48      75     210       5      72      78      81     222       3
      75      48       9      93       5      75      48      72     198       5
      75      48      72     201       5      78      72      48     141       5
      81      78      72     198       6      81      78      72     201       6
      81      84      87     225      11      81      84      87     228      11
      81      84      87     231      11      81      84      90     234      11
      81      84      90     237      11      81      84      90     240      11
      84      81      78     216      11      84      81      78     219      11
      87      84      81     222      13      87      84      90     234      10
      87      84      90     237      10      87      84      90     240      10
      90      84      81     222      13      90      84      87     225      10
      90      84      87     228      10      90      84      87     231      10
      93       9      30     111      14      93       9      30     114      14
      93       9      48     141      14      96      18      42     129      14
      96      18      42     132      14      99      24      30     111      14
      99      24      30     114      14     102      24      30     111      14
     102      24      30     114      14     105      27      33     117      14
     105      27      33     120      14     108      27      33     117      14
     108      27      33     120      14     123      39      42     129      14
     123      39      42     132      14     126      39      42     129      14
     126      39      42     132      14     135      45      60     165      14
     135      45      60     168      14     138      45      60     165      14
     138      45      60     168      14     141      48      72     198      14
     141      48      72     201      14     141      48      75     204      14
     141      48      75     207      14     141      48      75     210      14
     213       0      57     162      15     162      57      60     165       6
     162      57      60     168       6     198      72      78     216      14
     198      72      78     219      14     201      72      78     216      14
     201      72      78     219      14     216      78      81     222       3
     219      78      81     222       3      84      78     -81    -222      16
%FLAG DIHEDRALS_WITHOUT_HYDROGEN                                                
%FORMAT(10I8)                                                                   
       0      57      36      18       1       0      57      36      66       1
       0      57      36      69       1       0      57      60      45       1
       3       6      15      21       3       3       6      15      39       3
       3       6     -24      30       4       3       9     -30      24       4
       3       9      48      72       4       3       9      48      75       4
       3      27     -33      21       6       6       3      -9      30       4
       6       3       9      48       4       6       3      27      33       4
       6      15      21      12       7       6      15     -21      12       8
       6      15     -21      12       9       6      15     -21      33       7
       6      15     -21      33       8       6      15     -21      33       9
       6      15      39      42       3       6      24     -30       9       4
       9       3       6      15       6       9       3      -6      24       4
       9       3       6      54       4       9       3      27      33       4
       9      48      72      78       4      12      18      36      57       4
      12      18      36      66       4      12      18      36      69       4
      12      18      42      39       4      12      21     -15      39       7
      12      21     -15      39       8      12      21     -15      39       9
      12      21      33      27       3      12      45     -60      57       4
      15       6       3      27       6      15       6       3      51       6
      15       6      24      30       6      15      21      12      18       3
      15      21      12      45       3      15      21      12      63       3
      15      21     -33      27       3      15      39     -42      18       6
      18      12      21      33       3      18      12      45      60       4
      18      36     -57      60       4      21      12      18      36       6
      21      12      18      42       6      21      12      45      60       6
      21      15       6      24       3      21      15       6      54       3
      21      15     -39      42       3      24       6       3      27       4
      24       6       3      51       4      24       6      15      39       3
      24      30       9      48       4      27       3       6      54       4
      27       3       9      30       4      27       3       9      48       4
      30       9       3      51       4      30       9      48      72       4
      30       9      48      75       4      30      24       6      54       4
      33      21      12      45       3      33      21      12      63       3
      33      21      15      39       7      33      21     -15      39       8
      33      21     -15      39       9      33      27       3      51       4
      36      18      12      45       4      36      18      12      63       4
      36      18      42      39       4      36      57     -60      45       4
      39      15       6      54       3      42      18      12      45       4
      42      18      12      63       4      42      18      36      57       4
      42      18      36      66       4      42      18      36      69       4
      48       9       3      51       4      48      72      78      81       6
      51       3       6      54       4      60      45      12      63       4
      60      57      36      66       4      60      57      36      69       4
      72      78      81      84       3      75      48      72      78       4
      78      81      84      87       7      78      81     -84      87       8
      78      81     -84      87       9      78      81      84      90       7
      78      81     -84      90       8      78      81     -84      90       9
      21       6     -15     -39      16      15      12     -21     -33      16
      81      87     -84     -90      16
%FLAG EXCLUDED_ATOMS_LIST                                                       
%FORMAT(10I8)                                                                   
       7      13      16      20      21      23      24      55      56      57
      72       3       4       6       8       9      10      11      12      14
      17      18      19      25      26      32      34      35      36      37
      38      39      40      41      48      49      50      51      52      53
      54       4       5       6       8       9      10      11      12      14
      15      17      18      19      32      34      35      36      37      38
      39      42      43      49      50      51      52      53      54       6
       9      10      11      12      17      18      19      25      26      27
      32      34      35      36      37      38      39      48      49      50
      51      67      68      69      70      71       6       7       8      10
      12      13      14      15      16      20      21      22      23      24
      33      40      41      44      45      46      47      56      57      58
      59      60       7       8       9      10      11      12      14      15
      16      18      19      22      34      35      40      41      42      43
      44      45      52      53      54       8      12      13      14      15
      16      20      21      22      23      24      33      42      43      44
      45      46      47      55      58      59      60      61      62      63
      64      65      66       9      10      12      13      14      15      16
      19      21      22      33      36      37      40      41      42      43
      46      47      58      59      60      10      11      14      17      18
      19      32      34      35      38      39      52      53      54      11
      12      17      18      19      32      36      37      40      41      49
      50      51      17      18      19      25      26      32      34      35
      38      39      48      14      16      18      22      36      37      40
      41      14      15      16      20      21      22      23      24      33
      44      45      55      56      57      61      62      63      64      65
      66      72      15      19      33      42      43      44      45      16
      20      22      23      24      33      42      43      44      45      20
      21      22      33      46      47      55      56      57      58      59
      60      18      25      26      27      28      32      38      39      48
      67      68      69      70      71      73      74      19      32      36
      37      49      50      51      34      35      52      53      54      21
      23      24      33      46      47      55      56      57      61      62
      63      64      65      66      72      22      23      24      46      47
      55      56      57      72      33      46      47      58      59      60
      24      33      55      61      62      63      64      65      66      33
      55      61      62      63      64      65      66      26      27      28
      29      32      48      67      68      69      70      71      73      74
      75      27      32      48      67      68      69      70      71      28
      29      30      31      48      67      68      73      74      75      29
      30      31      67      68      73      74      75      76      77      78
      79      80      81      30      31      73      74      75      76      77
      78      79      80      81      31      75      76      77      78      79
      80      81      75      76      77      78      79      80      81      38
      39      48      44      45      35      38      39      38      39      37
      40      41      40      41      39       0      41       0      43      44
      45      44      45      45       0      47      56      57      56      57
      67      68      69      70      71      50      51      51       0      53
      54      54       0      56      57      72      57       0      59      60
      60       0      62      63      63       0      65      66      66       0
      68      73      74      73      74      70      71      71       0       0
      74      75      75       0      77      78      78       0      80      81
      81       0
%FLAG HBOND_ACOEF                                                               
%FORMAT(5E16.8)                                                                 

%FLAG HBOND_BCOEF                                                               
%FORMAT(5E16.8)                                                                 

%FLAG HBCUT                                                                     
%FORMAT(5E16.8)                                                                 

%FLAG AMBER_ATOM_TYPE                                                           
%FORMAT(20a4)                                                                   
oh  c5  c5  c5  c6  c2  c6  c2  c5  c6  c5  c6  c6  c6  c6  c6  c3  c3  c3  c6  
c6  c3  c3  c3  c3  c3  c3  c2  c2  c3  c3  hc  hc  hc  hc  hc  hc  hc  hc  hc  
hc  hc  hc  hc  hc  hc  hc  hc  hc  hc  hc  hc  hc  hc  h1  hc  hc  hc  hc  hc  
hc  hc  hc  hc  hc  hc  hc  hc  hc  hc  hc  ho  hc  hc  ha  hc  hc  hc  hc  hc  
hc  
%FLAG TREE_CHAIN_CLASSIFICATION                                                 
%FORMAT(20a4)                                                                   
BLA BLA BLA BLA BLA BLA BLA BLA BLA BLA BLA BLA BLA BLA BLA BLA BLA BLA BLA BLA 
BLA BLA BLA BLA BLA BLA BLA BLA BLA BLA BLA BLA BLA BLA BLA BLA BLA BLA BLA BLA 
BLA BLA BLA BLA BLA BLA BLA BLA BLA BLA BLA BLA BLA BLA BLA BLA BLA BLA BLA BLA 
BLA BLA BLA BLA BLA BLA BLA BLA BLA BLA BLA BLA BLA BLA BLA BLA BLA BLA BLA BLA 
BLA 
%FLAG JOIN_ARRAY                                                                
%FORMAT(10I8)                                                                   
       0       0       0       0       0       0       0       0       0       0
       0       0       0       0       0       0       0       0       0       0
       0       0       0       0       0       0       0       0       0       0
       0       0       0       0       0       0       0       0       0       0
       0       0       0       0       0       0       0       0       0       0
       0       0       0       0       0       0       0       0       0       0
       0       0       0       0       0       0       0       0       0       0
       0       0       0       0       0       0       0       0       0       0
       0
%FLAG IROTAT                                                                    
%FORMAT(10I8)                                                                   
       0       0       0       0       0       0       0       0       0       0
       0       0       0       0       0       0       0       0       0       0
       0       0       0       0       0       0       0       0       0       0
       0       0       0       0       0       0       0       0       0       0
       0       0       0       0       0       0       0       0       0       0
       0       0       0       0       0       0       0       0       0       0
       0       0       0       0       0       0       0       0       0       0
       0       0       0       0       0       0       0       0       0       0
       0
%FLAG RADIUS_SET                                                                
%FORMAT(1a80)                                                                   
modified Bondi radii (mbondi)                                                   
%FLAG RADII                                                                     
%FORMAT(5E16.8)                                                                 
  1.50000000E+00  1.70000000E+00  1.70000000E+00  1.70000000E+00  1.50000000E+00
  1.70000000E+00  1.50000000E+00  1.70000000E+00  1.70000000E+00  1.50000000E+00
  1.70000000E+00  1.50000000E+00  1.50000000E+00  1.50000000E+00  1.50000000E+00
  1.50000000E+00  1.70000000E+00  1.70000000E+00  1.70000000E+00  1.50000000E+00
  1.50000000E+00  1.70000000E+00  1.70000000E+00  1.70000000E+00  1.70000000E+00
  1.70000000E+00  1.70000000E+00  1.70000000E+00  1.70000000E+00  1.70000000E+00
  1.70000000E+00  1.30000000E+00  1.30000000E+00  1.30000000E+00  1.30000000E+00
  1.30000000E+00  1.30000000E+00  1.30000000E+00  1.30000000E+00  1.30000000E+00
  1.30000000E+00  1.30000000E+00  1.30000000E+00  1.30000000E+00  1.30000000E+00
  1.30000000E+00  1.30000000E+00  1.30000000E+00  1.30000000E+00  1.30000000E+00
  1.30000000E+00  1.30000000E+00  1.30000000E+00  1.30000000E+00  1.30000000E+00
  1.30000000E+00  1.30000000E+00  1.30000000E+00  1.30000000E+00  1.30000000E+00
  1.30000000E+00  1.30000000E+00  1.30000000E+00  1.30000000E+00  1.30000000E+00
  1.30000000E+00  1.30000000E+00  1.30000000E+00  1.30000000E+00  1.30000000E+00
  1.30000000E+00  8.00000000E-01  1.30000000E+00  1.30000000E+00  1.30000000E+00
  1.30000000E+00  1.30000000E+00  1.30000000E+00  1.30000000E+00  1.30000000E+00
  1.30000000E+00
%FLAG SCREEN                                                                    
%FORMAT(5E16.8)                                                                 
  8.50000000E-01  7.20000000E-01  7.20000000E-01  7.20000000E-01  8.00000000E-01
  7.20000000E-01  8.00000000E-01  7.20000000E-01  7.20000000E-01  8.00000000E-01
  7.20000000E-01  8.00000000E-01  8.00000000E-01  8.00000000E-01  8.00000000E-01
  8.00000000E-01  7.20000000E-01  7.20000000E-01  7.20000000E-01  8.00000000E-01
  8.00000000E-01  7.20000000E-01  7.20000000E-01  7.20000000E-01  7.20000000E-01
  7.20000000E-01  7.20000000E-01  7.20000000E-01  7.20000000E-01  7.20000000E-01
  7.20000000E-01  8.50000000E-01  8.50000000E-01  8.50000000E-01  8.50000000E-01
  8.50000000E-01  8.50000000E-01  8.50000000E-01  8.50000000E-01  8.50000000E-01
  8.50000000E-01  8.50000000E-01  8.50000000E-01  8.50000000E-01  8.50000000E-01
  8.50000000E-01  8.50000000E-01  8.50000000E-01  8.50000000E-01  8.50000000E-01
  8.50000000E-01  8.50000000E-01  8.50000000E-01  8.50000000E-01  8.50000000E-01
  8.50000000E-01  8.50000000E-01  8.50000000E-01  8.50000000E-01  8.50000000E-01
  8.50000000E-01  8.50000000E-01  8.50000000E-01  8.50000000E-01  8.50000000E-01
  8.50000000E-01  8.50000000E-01  8.50000000E-01  8.50000000E-01  8.50000000E-01
  8.50000000E-01  8.50000000E-01  8.50000000E-01  8.50000000E-01  8.50000000E-01
  8.50000000E-01  8.50000000E-01  8.50000000E-01  8.50000000E-01  8.50000000E-01
  8.50000000E-01
%FLAG IPOL                                                                      
%FORMAT(1I8)                                                                    
       0
