%VERSION  VERSION_STAMP = V0001.000  DATE = 02/09/26  17:37:52                  
%FLAG TITLE                                                                     
%FORMAT(20a4)                                                                   
2662                                                                            
%FLAG POINTERS                                                                  
%FORMAT(10I8)                                                                   
      40      11      14      28      27      43      53      59       0       0
     204       1      28      43      59      18      29      14      13       0
       0       0       0       0       0       0       0       0      40       0
       0
%FLAG ATOM_NAME                                                                 
%FORMAT(20a4)                                                                   
S   F   F1  F2  O   O1  N   N1  N2  C   C1  C2  C3  C4  C5  C6  C7  C8  C9  C10 
C11 C12 C13 C14 C15 C16 H   H1  H2  H3  H4  H5  H6  H7  H8  H9  H10 H11 H12 H13 
%FLAG CHARGE                                                                    
%FORMAT(5E16.8)                                                                 
  2.78290966E+01 -4.17837339E+00 -4.17837339E+00 -4.17837339E+00 -1.19501843E+01
 -1.19501843E+01  2.95747929E+00 -8.03238984E+00 -1.87088354E+01 -5.33913390E-01
  1.34480574E+00 -1.05689340E+00 -4.21481799E+00  3.92872788E+00 -2.72423385E+00
 -2.72423385E+00 -6.91536285E+00 -1.79489655E+00 -1.79489655E+00 -2.00445300E-01
 -2.00445300E-01 -9.89470890E-01 -2.45089935E+00 -2.45089935E+00  1.15274270E+01
 -1.10791584E+00  3.42579240E+00  2.98845720E+00  2.98845720E+00  2.59667775E+00
  2.59667775E+00  2.92467915E+00  2.92467915E+00  2.56023315E+00  2.56023315E+00
  9.23870610E-01  9.23870610E-01  9.23870610E-01  8.19639054E+00  8.19639054E+00
%FLAG ATOMIC_NUMBER                                                             
%FORMAT(10I8)                                                                   
      16       9       9       9       8       8       7       7       7       6
       6       6       6       6       6       6       6       6       6       6
       6       6       6       6       6       6       1       1       1       1
       1       1       1       1       1       1       1       1       1       1
%FLAG MASS                                                                      
%FORMAT(5E16.8)                                                                 
  3.20600000E+01  1.90000000E+01  1.90000000E+01  1.90000000E+01  1.60000000E+01
  1.60000000E+01  1.40100000E+01  1.40100000E+01  1.40100000E+01  1.20100000E+01
  1.20100000E+01  1.20100000E+01  1.20100000E+01  1.20100000E+01  1.20100000E+01
  1.20100000E+01  1.20100000E+01  1.20100000E+01  1.20100000E+01  1.20100000E+01
  1.20100000E+01  1.20100000E+01  1.20100000E+01  1.20100000E+01  1.20100000E+01
  1.20100000E+01  1.00800000E+00  1.00800000E+00  1.00800000E+00  1.00800000E+00
  1.00800000E+00  1.00800000E+00  1.00800000E+00  1.00800000E+00  1.00800000E+00
  1.00800000E+00  1.00800000E+00  1.00800000E+00  1.00800000E+00  1.00800000E+00
%FLAG ATOM_TYPE_INDEX                                                           
%FORMAT(10I8)                                                                   
       1       2       2       2       3       3       4       5       6       7
       7       7       7       7       7       7       7       7       7       7
       7       7       7       7       8       8       9       9       9       9
       9       9       9       9       9      10      10      10      11      11
%FLAG NUMBER_EXCLUDED_ATOMS                                                     
%FORMAT(10I8)                                                                   
      12       6       5       4       7       6      16       9       5      14
      12      12       5       2       7       6       8       8       7       4
       3      10       8       7       1       5       1       1       1       1
       1       1       1       1       1       2       1       1       1       1
%FLAG NONBONDED_PARM_INDEX                                                      
%FORMAT(10I8)                                                                   
       1       2       4       7      11      16      22      29      37      46
      56       2       3       5       8      12      17      23      30      38
      47      57       4       5       6       9      13      18      24      31
      39      48      58       7       8       9      10      14      19      25
      32      40      49      59      11      12      13      14      15      20
      26      33      41      50      60      16      17      18      19      20
      21      27      34      42      51      61      22      23      24      25
      26      27      28      35      43      52      62      29      30      31
      32      33      34      35      36      44      53      63      37      38
      39      40      41      42      43      44      45      54      64      46
      47      48      49      50      51      52      53      54      55      65
      56      57      58      59      60      61      62      63      64      65
      66
%FLAG RESIDUE_LABEL                                                             
%FORMAT(20a4)                                                                   
UNL 
%FLAG RESIDUE_POINTER                                                           
%FORMAT(10I8)                                                                   
       1
%FLAG BOND_FORCE_CONSTANT                                                       
%FORMAT(5E16.8)                                                                 
  6.14680000E+02  3.00510000E+02  2.09820000E+02  3.34280000E+02  2.90410000E+02
  3.35500000E+02  3.29320000E+02  4.17790000E+02  4.60680000E+02  2.96500000E+02
  3.86240000E+02  3.54250000E+02  3.21490000E+02  3.64600000E+02  2.53870000E+02
  3.60690000E+02  2.43910000E+02  3.45250000E+02
%FLAG BOND_EQUIL_VALUE                                                          
%FORMAT(5E16.8)                                                                 
  1.46560000E+00  1.69200000E+00  1.79130000E+00  1.35120000E+00  1.35700000E+00
  1.38030000E+00  1.38580000E+00  1.31710000E+00  1.01920000E+00  1.45280000E+00
  1.37300000E+00  1.39860000E+00  1.42790000E+00  1.08350000E+00  1.50180000E+00
  1.08600000E+00  1.51470000E+00  1.09620000E+00
%FLAG ANGLE_FORCE_CONSTANT                                                      
%FORMAT(5E16.8)                                                                 
  5.63600000E+01  6.30800000E+01  1.06880000E+02  7.96700000E+01  1.57750000E+02
  1.34010000E+02  1.20430000E+02  9.39000000E+01  6.61600000E+01  7.28100000E+01
  6.78200000E+01  8.73600000E+01  8.72100000E+01  6.84600000E+01  6.65100000E+01
  1.02010000E+02  8.04900000E+01  6.21900000E+01  6.45700000E+01  4.52500000E+01
  6.36700000E+01  4.49000000E+01  6.40000000E+01  5.93800000E+01  4.38000000E+01
  4.36100000E+01  6.07400000E+01  3.58000000E+01  4.78900000E+01
%FLAG ANGLE_EQUIL_VALUE                                                         
%FORMAT(5E16.8)                                                                 
  1.91392888E+00  2.08409855E+00  1.87396082E+00  1.95092987E+00  2.11848155E+00
  1.86680497E+00  1.89089052E+00  1.81217614E+00  2.12581194E+00  1.86313978E+00
  2.09980652E+00  1.99962458E+00  1.99787925E+00  2.10661331E+00  2.09387240E+00
  1.80083149E+00  2.04762116E+00  2.11027850E+00  2.02824799E+00  2.12406661E+00
  2.09474507E+00  2.09230160E+00  2.02510640E+00  2.19038915E+00  2.12668460E+00
  1.93085858E+00  2.10888224E+00  1.88024401E+00  1.85668205E+00
%FLAG DIHEDRAL_FORCE_CONSTANT                                                   
%FORMAT(5E16.8)                                                                 
  3.62500000E+00  0.00000000E+00  3.13333333E+00  1.30000000E+00  4.75000000E+00
  1.09750000E+00  4.00000000E+00  1.70000000E+00  3.00000000E-01  4.80000000E+00
  6.13000000E-01  5.85000000E-01  0.00000000E+00  1.10000000E+00
%FLAG DIHEDRAL_PERIODICITY                                                      
%FORMAT(5E16.8)                                                                 
  2.00000000E+00  3.00000000E+00  2.00000000E+00  2.00000000E+00  2.00000000E+00
  2.00000000E+00  2.00000000E+00  2.00000000E+00  2.00000000E+00  2.00000000E+00
  2.00000000E+00  2.00000000E+00  1.00000000E+00  2.00000000E+00
%FLAG DIHEDRAL_PHASE                                                            
%FORMAT(5E16.8)                                                                 
  3.14159400E+00  0.00000000E+00  0.00000000E+00  3.14159400E+00  3.14159400E+00
  3.14159400E+00  3.14159400E+00  3.14159400E+00  3.14159400E+00  3.14159400E+00
  3.14159400E+00  3.14159400E+00  0.00000000E+00  3.14159400E+00
%FLAG SCEE_SCALE_FACTOR                                                         
%FORMAT(5E16.8)                                                                 
  1.20000000E+00  1.20000000E+00  1.20000000E+00  1.20000000E+00  1.20000000E+00
  1.20000000E+00  1.20000000E+00  1.20000000E+00  1.20000000E+00  1.20000000E+00
  1.20000000E+00  1.20000000E+00  1.20000000E+00  0.00000000E+00
%FLAG SCNB_SCALE_FACTOR                                                         
%FORMAT(5E16.8)                                                                 
  2.00000000E+00  2.00000000E+00  2.00000000E+00  2.00000000E+00  2.00000000E+00
  2.00000000E+00  2.00000000E+00  2.00000000E+00  2.00000000E+00  2.00000000E+00
  2.00000000E+00  2.00000000E+00  2.00000000E+00  0.00000000E+00
%FLAG SOLTY                                                                     
%FORMAT(5E16.8)                                                                 
  0.00000000E+00  0.00000000E+00  0.00000000E+00  0.00000000E+00  0.00000000E+00
  0.00000000E+00  0.00000000E+00  0.00000000E+00  0.00000000E+00  0.00000000E+00
  0.00000000E+00  0.00000000E+00  0.00000000E+00
%FLAG LENNARD_JONES_ACOEF                                                       
%FORMAT(5E16.8)                                                                 
  4.90327872E+06  1.13117113E+06  2.02652992E+05  1.53564503E+06  2.76207447E+05
  3.76435470E+05  2.36087375E+06  4.43641379E+05  6.04208667E+05  9.62429652E+05
  2.14413784E+06  4.22347898E+05  5.74782316E+05  9.08092643E+05  8.49322032E+05
  1.91463073E+06  4.02830489E+05  5.47655232E+05  8.55419239E+05  7.90296020E+05
  7.22850509E+05  1.96483601E+06  3.80155513E+05  5.17507491E+05  8.20152428E+05
  7.69642101E+05  7.19505991E+05  6.96551276E+05  2.34552991E+06  4.63627012E+05
  6.30925504E+05  9.96191545E+05  9.31115275E+05  8.65620051E+05  8.43969952E+05
  1.02073671E+06  2.44084252E+05  3.86097375E+04  5.27277400E+04  8.65595848E+04
  8.43518904E+04  8.31063842E+04  7.52549148E+04  9.27554496E+04  6.90855956E+03
  2.65089806E+05  4.15877422E+04  5.68021765E+04  9.33839501E+04  9.11435380E+04
  8.99910629E+04  8.12662403E+04  1.00235148E+05  7.41026906E+03  7.94617769E+03
  8.72013948E+03  7.15600927E+02  9.87857350E+02  1.82491629E+03  2.01475241E+03
  2.35480845E+03  1.71458823E+03  2.23577481E+03  9.04434904E+01  9.47421632E+01
  1.34728399E-01
%FLAG LENNARD_JONES_BCOEF                                                       
%FORMAT(5E16.8)                                                                 
  1.09738109E+03  5.68678850E+02  2.59697739E+02  7.63007119E+02  3.49131956E+02
  4.69350655E+02  1.02830608E+03  4.80939874E+02  6.46321327E+02  8.86629877E+02
  8.07413199E+02  3.86628088E+02  5.19385932E+02  7.09588248E+02  5.65406768E+02
  5.84003207E+02  2.89016492E+02  3.88056827E+02  5.27149826E+02  4.17467748E+02
  3.05601515E+02  7.82392141E+02  3.71304925E+02  4.98871431E+02  6.82622272E+02
  5.44830041E+02  4.03215362E+02  5.24668528E+02  8.73669684E+02  4.19082844E+02
  5.62969425E+02  7.68900328E+02  6.12468585E+02  4.52010965E+02  5.90251928E+02
  6.63431737E+02  1.75205783E+02  7.51823196E+01  1.01173582E+02  1.40899023E+02
  1.14599119E+02  8.70671420E+01  1.09570372E+02  1.24325688E+02  2.10929191E+01
  1.94663459E+02  8.31877412E+01  1.11953944E+02  1.56025608E+02  1.27000718E+02
  9.65931103E+01  1.21392023E+02  1.37787728E+02  2.32899892E+01  2.57122925E+01
  2.93990844E+01  9.08649254E+00  1.22938581E+01  1.81620725E+01  1.57231024E+01
  1.30109323E+01  1.46824710E+01  1.71355763E+01  2.14252117E+00  2.33785449E+00
  7.34107347E-02
%FLAG BONDS_INC_HYDROGEN                                                        
%FORMAT(10I8)                                                                   
      24     114       9      24     117       9      36      78      14      42
      81      16      45      84      16      51      87      16      54      90
      16      57      93      16      60      96      16      66      99      16
      69     102      16      75     105      18      75     108      18      75
     111      18
%FLAG BONDS_WITHOUT_HYDROGEN                                                    
%FORMAT(10I8)                                                                   
       0      12       1       0      15       1       0      24       2       0
      48       3       3      72       4       6      72       4       9      72
       4      18      21       5      18      27       6      18      30       7
      21      39       8      27      33      10      27      36      11      30
      42      12      30      45      12      33      51      12      33      54
      12      36      39      13      39      72      15      42      57      12
      45      60      12      48      57      12      48      60      12      51
      66      12      54      69      12      63      66      12      63      69
      12      63      75      17
%FLAG ANGLES_INC_HYDROGEN                                                       
%FORMAT(10I8)                                                                   
       0      24     114       1       0      24     117       1      27      36
      78      20      30      42      81      22      30      45      84      22
      33      51      87      22      33      54      90      22      39      36
      78      25      42      57      93      22      45      60      96      22
      48      57      93      22      48      60      96      22      51      66
      99      22      54      69     102      22      57      42      81      22
      60      45      84      22      63      66      99      22      63      69
     102      22      63      75     105      26      63      75     108      26
      63      75     111      26      66      51      87      22      69      54
      90      22     105      75     108      28     105      75     111      28
     108      75     111      28     114      24     117      29
%FLAG ANGLES_WITHOUT_HYDROGEN                                                   
%FORMAT(10I8)                                                                   
       0      48      57       2       0      48      60       2       3      72
       6       3       3      72       9       3       3      72      39       4
       6      72       9       3       6      72      39       4       9      72
      39       4      12       0      15       5      12       0      24       6
      12       0      48       7      15       0      24       6      15       0
      48       7      18      21      39       8      18      27      33       9
      18      27      36      10      18      30      42      11      18      30
      45      11      21      18      27      12      21      18      30      13
      21      39      36      14      21      39      72      15      24       0
      48      16      27      18      30      17      27      33      51      18
      27      33      54      18      27      36      39      19      30      42
      57      21      30      45      60      21      33      27      36      23
      33      51      66      21      33      54      69      21      36      39
      72      24      42      30      45      21      42      57      48      21
      45      60      48      21      51      33      54      21      51      66
      63      21      54      69      63      21      57      48      60      21
      66      63      69      21      66      63      75      27      69      63
      75      27
%FLAG DIHEDRALS_INC_HYDROGEN                                                    
%FORMAT(10I8)                                                                   
       0      48      57      93       1       0      48      60      96       1
      12       0      24     114       3      12       0      24     117       3
      15       0      24     114       3      15       0      24     117       3
      18      27      36      78       7      18      30      42      81       1
      18      30      45      84       1      21      39      36      78       7
      27      33      51      87       1      27      33      54      90       1
      30      42      57      93       1      30      45      60      96       1
      33      27      36      78       7      33      51      66      99       1
      33      54      69     102       1      42      30      45      84       1
      45      30      42      81       1      48       0      24     114       3
      48       0      24     117       3      48      57      42      81       1
      48      60      45      84       1      51      33      54      90       1
      54      33      51      87       1      57      48      60      96       1
      60      48      57      93       1      63      66      51      87       1
      63      69      54      90       1      66      63      69     102       1
      66      63      75     105      13      66      63      75     108      13
      66      63      75     111      13      69      63      66      99       1
      69      63      75     105      13      69      63      75     108      13
      69      63      75     111      13      72      39      36      78       7
      75      63      66      99       1      75      63      69     102       1
      81      42      57      93       1      84      45      60      96       1
      87      51      66      99       1      90      54      69     102       1
      27      39     -36     -78      14      30      57     -42     -81      14
      30      60     -45     -84      14      33      66     -51     -87      14
      33      69     -54     -90      14      42      48     -57     -93      14
      45      48     -60     -96      14      51      63     -66     -99      14
      54      63     -69    -102      14
%FLAG DIHEDRALS_WITHOUT_HYDROGEN                                                
%FORMAT(10I8)                                                                   
       0      48      57      42       1       0      48      60      45       1
       3      72      39      21       2       3      72      39      36       2
       6      72      39      21       2       6      72      39      36       2
       9      72      39      21       2       9      72      39      36       2
      12       0      48      57       4      12       0      48      60       4
      15       0      48      57       4      15       0      48      60       4
      18      21     -39      36       5      18      21      39      72       5
      18      27      33      51       6      18      27      33      54       6
      18      27     -36      39       7      18      30      42      57       1
      18      30      45      60       1      21      18      27      33       8
      21      18     -27      36       8      21      18      30      42       9
      21      18      30      45       9      21      39     -36      27       7
      24       0      48      57       4      24       0      48      60       4
      27      18     -21      39      10      27      18      30      42      11
      27      18      30      45      11      27      33      51      66       1
      27      33      54      69       1      27      36      39      72       7
      30      18      21      39      10      30      18      27      33       8
      30      18      27      36       8      30      42      57      48       1
      30      45     -60      48       1      33      27      36      39       7
      33      51      66      63       1      33      54     -69      63       1
      36      27      33      51      12      36      27      33      54      12
      42      30      45      60       1      42      57     -48      60       1
      45      30      42      57       1      45      60     -48      57       1
      51      33      54      69       1      51      66     -63      69       1
      51      66      63      75       1      54      33      51      66       1
      54      69     -63      66       1      54      69      63      75       1
      30      27     -18     -21      14      33      36     -27     -18      14
      42      45     -30     -18      14      51      54     -33     -27      14
      72      36     -39     -21      14       0      48     -60     -57      14
      66      69     -63     -75      14
%FLAG EXCLUDED_ATOMS_LIST                                                       
%FORMAT(10I8)                                                                   
       5       6       9      15      16      17      20      21      32      33
      39      40       3       4       8      13      14      25       4       8
      13      14      25       8      13      14      25       6       9      17
      20      21      39      40       9      17      20      21      39      40
       8      10      11      12      13      14      15      16      18      19
      20      21      25      27      28      29      10      11      12      13
      14      15      16      25      27      17      20      21      39      40
      11      12      13      14      15      16      18      19      23      24
      25      27      30      31      12      13      14      15      16      17
      20      21      28      29      32      33      13      14      18      19
      22      23      24      27      30      31      34      35      14      18
      19      25      27      25      27      16      17      20      21      28
      29      32      17      20      21      28      29      33      20      21
      28      29      32      33      39      40      19      22      23      24
      26      30      31      34      22      23      24      26      30      31
      35      21      28      32      33      29      32      33      23      24
      26      30      31      34      35      36      37      38      24      26
      30      34      35      36      37      38      26      31      34      35
      36      37      38      27      34      35      36      37      38       0
      32      33      34      35       0       0       0       0      37      38
      38       0      40       0
%FLAG HBOND_ACOEF                                                               
%FORMAT(5E16.8)                                                                 

%FLAG HBOND_BCOEF                                                               
%FORMAT(5E16.8)                                                                 

%FLAG HBCUT                                                                     
%FORMAT(5E16.8)                                                                 

%FLAG AMBER_ATOM_TYPE                                                           
%FORMAT(20a4)                                                                   
sy  f   f   f   o   o   na  nc  n8  cc  ca  ca  cd  cd  ca  ca  ca  ca  ca  ca  
ca  ca  ca  ca  c3  c3  ha  ha  ha  ha  ha  ha  ha  ha  ha  hc  hc  hc  hn  hn  
%FLAG TREE_CHAIN_CLASSIFICATION                                                 
%FORMAT(20a4)                                                                   
BLA BLA BLA BLA BLA BLA BLA BLA BLA BLA BLA BLA BLA BLA BLA BLA BLA BLA BLA BLA 
BLA BLA BLA BLA BLA BLA BLA BLA BLA BLA BLA BLA BLA BLA BLA BLA BLA BLA BLA BLA 
%FLAG JOIN_ARRAY                                                                
%FORMAT(10I8)                                                                   
       0       0       0       0       0       0       0       0       0       0
       0       0       0       0       0       0       0       0       0       0
       0       0       0       0       0       0       0       0       0       0
       0       0       0       0       0       0       0       0       0       0
%FLAG IROTAT                                                                    
%FORMAT(10I8)                                                                   
       0       0       0       0       0       0       0       0       0       0
       0       0       0       0       0       0       0       0       0       0
       0       0       0       0       0       0       0       0       0       0
       0       0       0       0       0       0       0       0       0       0
%FLAG RADIUS_SET                                                                
%FORMAT(1a80)                                                                   
modified Bondi radii (mbondi)                                                   
%FLAG RADII                                                                     
%FORMAT(5E16.8)                                                                 
  1.80000000E+00  1.50000000E+00  1.50000000E+00  1.50000000E+00  1.50000000E+00
  1.50000000E+00  1.55000000E+00  1.55000000E+00  1.55000000E+00  1.70000000E+00
  1.70000000E+00  1.70000000E+00  1.70000000E+00  1.70000000E+00  1.70000000E+00
  1.70000000E+00  1.70000000E+00  1.70000000E+00  1.70000000E+00  1.70000000E+00
  1.70000000E+00  1.70000000E+00  1.70000000E+00  1.70000000E+00  1.70000000E+00
  1.70000000E+00  1.30000000E+00  1.30000000E+00  1.30000000E+00  1.30000000E+00
  1.30000000E+00  1.30000000E+00  1.30000000E+00  1.30000000E+00  1.30000000E+00
  1.30000000E+00  1.30000000E+00  1.30000000E+00  1.30000000E+00  1.30000000E+00
%FLAG SCREEN                                                                    
%FORMAT(5E16.8)                                                                 
  9.60000000E-01  8.80000000E-01  8.80000000E-01  8.80000000E-01  8.50000000E-01
  8.50000000E-01  7.90000000E-01  7.90000000E-01  7.90000000E-01  7.20000000E-01
  7.20000000E-01  7.20000000E-01  7.20000000E-01  7.20000000E-01  7.20000000E-01
  7.20000000E-01  7.20000000E-01  7.20000000E-01  7.20000000E-01  7.20000000E-01
  7.20000000E-01  7.20000000E-01  7.20000000E-01  7.20000000E-01  7.20000000E-01
  7.20000000E-01  8.50000000E-01  8.50000000E-01  8.50000000E-01  8.50000000E-01
  8.50000000E-01  8.50000000E-01  8.50000000E-01  8.50000000E-01  8.50000000E-01
  8.50000000E-01  8.50000000E-01  8.50000000E-01  8.50000000E-01  8.50000000E-01
%FLAG IPOL                                                                      
%FORMAT(1I8)                                                                    
       0
