celecoxib_GMX.gro created by acpype (v: 2023.10.27) on Mon Feb  9 17:36:31 2026
 40
    1  UNL    S    1   0.477  -0.162  -0.005
    1  UNL    F    2  -0.548  -0.114   0.006
    1  UNL   F1    3  -0.444  -0.272  -0.102
    1  UNL   F2    4  -0.439  -0.268   0.116
    1  UNL    O    5   0.507  -0.251  -0.117
    1  UNL   O1    6   0.546  -0.034   0.006
    1  UNL    N    7  -0.106  -0.061   0.000
    1  UNL   N1    8  -0.192  -0.165   0.002
    1  UNL   N2    9   0.496  -0.248   0.141
    1  UNL    C   10  -0.168   0.061  -0.001
    1  UNL   C1   11   0.031  -0.085  -0.001
    1  UNL   C2   12  -0.099   0.188  -0.003
    1  UNL   C3   13  -0.303   0.034   0.001
    1  UNL   C4   14  -0.311  -0.106   0.003
    1  UNL   C5   15   0.117   0.007   0.057
    1  UNL   C6   16   0.080  -0.200  -0.061
    1  UNL   C7   17   0.305  -0.132  -0.004
    1  UNL   C8   18  -0.064   0.250   0.117
    1  UNL   C9   19  -0.067   0.247  -0.125
    1  UNL  C10   20   0.255  -0.016   0.056
    1  UNL  C11   21   0.217  -0.224  -0.062
    1  UNL  C12   22   0.035   0.433  -0.007
    1  UNL  C13   23   0.003   0.373   0.115
    1  UNL  C14   24  -0.000   0.370  -0.127
    1  UNL  C15   25  -0.433  -0.188   0.005
    1  UNL  C16   26   0.106   0.564  -0.010
    1  UNL    H   27  -0.383   0.107   0.001
    1  UNL   H1   28   0.088   0.088   0.121
    1  UNL   H2   29   0.015  -0.273  -0.108
    1  UNL   H3   30  -0.090   0.206   0.213
    1  UNL   H4   31  -0.093   0.200  -0.219
    1  UNL   H5   32   0.321   0.054   0.106
    1  UNL   H6   33   0.254  -0.315  -0.109
    1  UNL   H7   34   0.029   0.421   0.208
    1  UNL   H8   35   0.025   0.415  -0.223
    1  UNL   H9   36   0.078   0.622  -0.098
    1  UNL  H10   37   0.081   0.624   0.078
    1  UNL  H11   38   0.214   0.547  -0.012
    1  UNL  H12   39   0.517  -0.349   0.134
    1  UNL  H13   40   0.544  -0.201   0.218
   21.87200    19.45200     8.82000
