; celecoxib_GMX.itp created by acpype (v: 2023.10.27) on Mon Feb  9 17:36:31 2026

[ atomtypes ]
;name   bond_type     mass     charge   ptype   sigma         epsilon       Amb
 sy       sy          0.00000  0.00000   A     4.05840e-01   2.56898e-01 ; 2.28  0.0614
 f        f           0.00000  0.00000   A     3.03422e-01   3.48109e-01 ; 1.70  0.0832
 o        o           0.00000  0.00000   A     3.04812e-01   6.12119e-01 ; 1.71  0.1463
 na       na          0.00000  0.00000   A     3.20581e-01   8.54373e-01 ; 1.80  0.2042
 nc       nc          0.00000  0.00000   A     3.38417e-01   3.93714e-01 ; 1.90  0.0941
 n8       n8          0.00000  0.00000   A     3.65019e-01   1.35143e-01 ; 2.05  0.0323
 cc       cc          0.00000  0.00000   A     3.31521e-01   4.13379e-01 ; 1.86  0.0988
 ca       ca          0.00000  0.00000   A     3.31521e-01   4.13379e-01 ; 1.86  0.0988
 cd       cd          0.00000  0.00000   A     3.31521e-01   4.13379e-01 ; 1.86  0.0988
 c3       c3          0.00000  0.00000   A     3.39771e-01   4.51035e-01 ; 1.91  0.1078
 ha       ha          0.00000  0.00000   A     2.62548e-01   6.73624e-02 ; 1.47  0.0161
 hc       hc          0.00000  0.00000   A     2.60018e-01   8.70272e-02 ; 1.46  0.0208
 hn       hn          0.00000  0.00000   A     1.10650e-01   4.18400e-02 ; 0.62  0.0100

[ moleculetype ]
;name            nrexcl
 celecoxib        3

[ atoms ]
;   nr  type  resi  res  atom  cgnr     charge      mass       ; qtot   bond_type
     1   sy     1   UNL     S    1     1.528200     32.06000 ; qtot 1.528
     2    f     1   UNL     F    2    -0.229300     19.00000 ; qtot 1.299
     3    f     1   UNL    F1    3    -0.229300     19.00000 ; qtot 1.070
     4    f     1   UNL    F2    4    -0.229300     19.00000 ; qtot 0.840
     5    o     1   UNL     O    5    -0.655800     16.00000 ; qtot 0.184
     6    o     1   UNL    O1    6    -0.655800     16.00000 ; qtot -0.471
     7   na     1   UNL     N    7     0.162300     14.01000 ; qtot -0.309
     8   nc     1   UNL    N1    8    -0.440800     14.01000 ; qtot -0.750
     9   n8     1   UNL    N2    9    -1.026700     14.01000 ; qtot -1.777
    10   cc     1   UNL     C   10    -0.029300     12.01000 ; qtot -1.806
    11   ca     1   UNL    C1   11     0.073800     12.01000 ; qtot -1.732
    12   ca     1   UNL    C2   12    -0.058000     12.01000 ; qtot -1.790
    13   cd     1   UNL    C3   13    -0.231300     12.01000 ; qtot -2.021
    14   cd     1   UNL    C4   14     0.215600     12.01000 ; qtot -1.806
    15   ca     1   UNL    C5   15    -0.149500     12.01000 ; qtot -1.955
    16   ca     1   UNL    C6   16    -0.149500     12.01000 ; qtot -2.105
    17   ca     1   UNL    C7   17    -0.379500     12.01000 ; qtot -2.484
    18   ca     1   UNL    C8   18    -0.098500     12.01000 ; qtot -2.583
    19   ca     1   UNL    C9   19    -0.098500     12.01000 ; qtot -2.681
    20   ca     1   UNL   C10   20    -0.011000     12.01000 ; qtot -2.692
    21   ca     1   UNL   C11   21    -0.011000     12.01000 ; qtot -2.703
    22   ca     1   UNL   C12   22    -0.054300     12.01000 ; qtot -2.758
    23   ca     1   UNL   C13   23    -0.134500     12.01000 ; qtot -2.892
    24   ca     1   UNL   C14   24    -0.134500     12.01000 ; qtot -3.027
    25   c3     1   UNL   C15   25     0.632600     12.01000 ; qtot -2.394
    26   c3     1   UNL   C16   26    -0.060800     12.01000 ; qtot -2.455
    27   ha     1   UNL     H   27     0.188000      1.00800 ; qtot -2.267
    28   ha     1   UNL    H1   28     0.164000      1.00800 ; qtot -2.103
    29   ha     1   UNL    H2   29     0.164000      1.00800 ; qtot -1.939
    30   ha     1   UNL    H3   30     0.142500      1.00800 ; qtot -1.796
    31   ha     1   UNL    H4   31     0.142500      1.00800 ; qtot -1.654
    32   ha     1   UNL    H5   32     0.160500      1.00800 ; qtot -1.493
    33   ha     1   UNL    H6   33     0.160500      1.00800 ; qtot -1.333
    34   ha     1   UNL    H7   34     0.140500      1.00800 ; qtot -1.192
    35   ha     1   UNL    H8   35     0.140500      1.00800 ; qtot -1.052
    36   hc     1   UNL    H9   36     0.050700      1.00800 ; qtot -1.001
    37   hc     1   UNL   H10   37     0.050700      1.00800 ; qtot -0.950
    38   hc     1   UNL   H11   38     0.050700      1.00800 ; qtot -0.900
    39   hn     1   UNL   H12   39     0.449800      1.00800 ; qtot -0.450
    40   hn     1   UNL   H13   40     0.449800      1.00800 ; qtot -0.000

[ bonds ]
;   ai     aj funct   r             k
     1      5   1    1.4656e-01    5.1436e+05 ;      S - O     
     1      6   1    1.4656e-01    5.1436e+05 ;      S - O1    
     1      9   1    1.6920e-01    2.5147e+05 ;      S - N2    
     1     17   1    1.7913e-01    1.7558e+05 ;      S - C7    
     2     25   1    1.3512e-01    2.7973e+05 ;      F - C15   
     3     25   1    1.3512e-01    2.7973e+05 ;     F1 - C15   
     4     25   1    1.3512e-01    2.7973e+05 ;     F2 - C15   
     7      8   1    1.3570e-01    2.4302e+05 ;      N - N1    
     7     10   1    1.3803e-01    2.8075e+05 ;      N - C     
     7     11   1    1.3858e-01    2.7557e+05 ;      N - C1    
     8     14   1    1.3171e-01    3.4961e+05 ;     N1 - C4    
     9     39   1    1.0192e-01    3.8550e+05 ;     N2 - H12   
     9     40   1    1.0192e-01    3.8550e+05 ;     N2 - H13   
    10     12   1    1.4528e-01    2.4811e+05 ;      C - C2    
    10     13   1    1.3730e-01    3.2321e+05 ;      C - C3    
    11     15   1    1.3986e-01    2.9644e+05 ;     C1 - C5    
    11     16   1    1.3986e-01    2.9644e+05 ;     C1 - C6    
    12     18   1    1.3986e-01    2.9644e+05 ;     C2 - C8    
    12     19   1    1.3986e-01    2.9644e+05 ;     C2 - C9    
    13     14   1    1.4279e-01    2.6902e+05 ;     C3 - C4    
    13     27   1    1.0835e-01    3.0510e+05 ;     C3 - H     
    14     25   1    1.5018e-01    2.1244e+05 ;     C4 - C15   
    15     20   1    1.3986e-01    2.9644e+05 ;     C5 - C10   
    15     28   1    1.0860e-01    3.0183e+05 ;     C5 - H1    
    16     21   1    1.3986e-01    2.9644e+05 ;     C6 - C11   
    16     29   1    1.0860e-01    3.0183e+05 ;     C6 - H2    
    17     20   1    1.3986e-01    2.9644e+05 ;     C7 - C10   
    17     21   1    1.3986e-01    2.9644e+05 ;     C7 - C11   
    18     23   1    1.3986e-01    2.9644e+05 ;     C8 - C13   
    18     30   1    1.0860e-01    3.0183e+05 ;     C8 - H3    
    19     24   1    1.3986e-01    2.9644e+05 ;     C9 - C14   
    19     31   1    1.0860e-01    3.0183e+05 ;     C9 - H4    
    20     32   1    1.0860e-01    3.0183e+05 ;    C10 - H5    
    21     33   1    1.0860e-01    3.0183e+05 ;    C11 - H6    
    22     23   1    1.3986e-01    2.9644e+05 ;    C12 - C13   
    22     24   1    1.3986e-01    2.9644e+05 ;    C12 - C14   
    22     26   1    1.5147e-01    2.0410e+05 ;    C12 - C16   
    23     34   1    1.0860e-01    3.0183e+05 ;    C13 - H7    
    24     35   1    1.0860e-01    3.0183e+05 ;    C14 - H8    
    26     36   1    1.0962e-01    2.8891e+05 ;    C16 - H9    
    26     37   1    1.0962e-01    2.8891e+05 ;    C16 - H10   
    26     38   1    1.0962e-01    2.8891e+05 ;    C16 - H11   

[ pairs ]
;   ai     aj    funct
     1     15      1 ;      S - C5    
     1     16      1 ;      S - C6    
     1     32      1 ;      S - H5    
     1     33      1 ;      S - H6    
     2      8      1 ;      F - N1    
     2     13      1 ;      F - C3    
     3      8      1 ;     F1 - N1    
     3     13      1 ;     F1 - C3    
     4      8      1 ;     F2 - N1    
     4     13      1 ;     F2 - C3    
     5     20      1 ;      O - C10   
     5     21      1 ;      O - C11   
     5     39      1 ;      O - H12   
     5     40      1 ;      O - H13   
     6     20      1 ;     O1 - C10   
     6     21      1 ;     O1 - C11   
     6     39      1 ;     O1 - H12   
     6     40      1 ;     O1 - H13   
     7     18      1 ;      N - C8    
     7     19      1 ;      N - C9    
     7     20      1 ;      N - C10   
     7     21      1 ;      N - C11   
     7     25      1 ;      N - C15   
     7     27      1 ;      N - H     
     7     28      1 ;      N - H1    
     7     29      1 ;      N - H2    
     8     12      1 ;     N1 - C2    
     8     15      1 ;     N1 - C5    
     8     16      1 ;     N1 - C6    
     8     27      1 ;     N1 - H     
     9     20      1 ;     N2 - C10   
     9     21      1 ;     N2 - C11   
    10     15      1 ;      C - C5    
    10     16      1 ;      C - C6    
    10     23      1 ;      C - C13   
    10     24      1 ;      C - C14   
    10     25      1 ;      C - C15   
    10     30      1 ;      C - H3    
    10     31      1 ;      C - H4    
    11     12      1 ;     C1 - C2    
    11     13      1 ;     C1 - C3    
    11     14      1 ;     C1 - C4    
    11     17      1 ;     C1 - C7    
    11     32      1 ;     C1 - H5    
    11     33      1 ;     C1 - H6    
    12     14      1 ;     C2 - C4    
    12     22      1 ;     C2 - C12   
    12     27      1 ;     C2 - H     
    12     34      1 ;     C2 - H7    
    12     35      1 ;     C2 - H8    
    13     18      1 ;     C3 - C8    
    13     19      1 ;     C3 - C9    
    15     21      1 ;     C5 - C11   
    15     29      1 ;     C5 - H2    
    16     20      1 ;     C6 - C10   
    16     28      1 ;     C6 - H1    
    17     28      1 ;     C7 - H1    
    17     29      1 ;     C7 - H2    
    17     39      1 ;     C7 - H12   
    17     40      1 ;     C7 - H13   
    18     24      1 ;     C8 - C14   
    18     26      1 ;     C8 - C16   
    18     31      1 ;     C8 - H4    
    19     23      1 ;     C9 - C13   
    19     26      1 ;     C9 - C16   
    19     30      1 ;     C9 - H3    
    20     33      1 ;    C10 - H6    
    21     32      1 ;    C11 - H5    
    22     30      1 ;    C12 - H3    
    22     31      1 ;    C12 - H4    
    23     35      1 ;    C13 - H8    
    23     36      1 ;    C13 - H9    
    23     37      1 ;    C13 - H10   
    23     38      1 ;    C13 - H11   
    24     34      1 ;    C14 - H7    
    24     36      1 ;    C14 - H9    
    24     37      1 ;    C14 - H10   
    24     38      1 ;    C14 - H11   
    25     27      1 ;    C15 - H     
    26     34      1 ;    C16 - H7    
    26     35      1 ;    C16 - H8    
    28     32      1 ;     H1 - H5    
    29     33      1 ;     H2 - H6    
    30     34      1 ;     H3 - H7    
    31     35      1 ;     H4 - H8    

[ angles ]
;   ai     aj     ak    funct   theta         cth
     1      9     39      1    1.0966e+02    4.7162e+02 ;      S - N2     - H12   
     1      9     40      1    1.0966e+02    4.7162e+02 ;      S - N2     - H13   
     1     17     20      1    1.1941e+02    5.2785e+02 ;      S - C7     - C10   
     1     17     21      1    1.1941e+02    5.2785e+02 ;      S - C7     - C11   
     2     25      3      1    1.0737e+02    8.9437e+02 ;      F - C15    - F1    
     2     25      4      1    1.0737e+02    8.9437e+02 ;      F - C15    - F2    
     2     25     14      1    1.1178e+02    6.6668e+02 ;      F - C15    - C4    
     3     25      4      1    1.0737e+02    8.9437e+02 ;     F1 - C15    - F2    
     3     25     14      1    1.1178e+02    6.6668e+02 ;     F1 - C15    - C4    
     4     25     14      1    1.1178e+02    6.6668e+02 ;     F2 - C15    - C4    
     5      1      6      1    1.2138e+02    1.3201e+03 ;      O - S      - O1    
     5      1      9      1    1.0696e+02    1.1214e+03 ;      O - S      - N2    
     5      1     17      1    1.0834e+02    1.0078e+03 ;      O - S      - C7    
     6      1      9      1    1.0696e+02    1.1214e+03 ;     O1 - S      - N2    
     6      1     17      1    1.0834e+02    1.0078e+03 ;     O1 - S      - C7    
     7      8     14      1    1.0383e+02    7.8576e+02 ;      N - N1     - C4    
     7     10     12      1    1.2180e+02    5.5363e+02 ;      N - C      - C2    
     7     10     13      1    1.0675e+02    6.0927e+02 ;      N - C      - C3    
     7     11     15      1    1.2031e+02    5.6752e+02 ;      N - C1     - C5    
     7     11     16      1    1.2031e+02    5.6752e+02 ;      N - C1     - C6    
     8      7     10      1    1.1457e+02    7.3103e+02 ;     N1 - N      - C     
     8      7     11      1    1.1447e+02    7.2977e+02 ;     N1 - N      - C1    
     8     14     13      1    1.2070e+02    5.7287e+02 ;     N1 - C4     - C3    
     8     14     25      1    1.1997e+02    5.5656e+02 ;     N1 - C4     - C15   
     9      1     17      1    1.0318e+02    8.5362e+02 ;     N2 - S      - C7    
    10      7     11      1    1.1732e+02    6.7354e+02 ;      C - N      - C1    
    10     12     18      1    1.2091e+02    5.2041e+02 ;      C - C2     - C8    
    10     12     19      1    1.2091e+02    5.2041e+02 ;      C - C2     - C9    
    10     13     14      1    1.1621e+02    5.4032e+02 ;      C - C3     - C4    
    10     13     27      1    1.2170e+02    3.7865e+02 ;      C - C3     - H     
    11     15     20      1    1.2002e+02    5.3279e+02 ;     C1 - C5     - C10   
    11     15     28      1    1.1988e+02    3.7572e+02 ;     C1 - C5     - H1    
    11     16     21      1    1.2002e+02    5.3279e+02 ;     C1 - C6     - C11   
    11     16     29      1    1.1988e+02    3.7572e+02 ;     C1 - C6     - H2    
    12     10     13      1    1.1603e+02    5.3555e+02 ;     C2 - C      - C3    
    12     18     23      1    1.2002e+02    5.3279e+02 ;     C2 - C8     - C13   
    12     18     30      1    1.1988e+02    3.7572e+02 ;     C2 - C8     - H3    
    12     19     24      1    1.2002e+02    5.3279e+02 ;     C2 - C9     - C14   
    12     19     31      1    1.1988e+02    3.7572e+02 ;     C2 - C9     - H4    
    13     14     25      1    1.2550e+02    4.9689e+02 ;     C3 - C4     - C15   
    14     13     27      1    1.2185e+02    3.6652e+02 ;     C4 - C3     - H     
    15     11     16      1    1.2002e+02    5.3279e+02 ;     C5 - C1     - C6    
    15     20     17      1    1.2002e+02    5.3279e+02 ;     C5 - C10    - C7    
    15     20     32      1    1.1988e+02    3.7572e+02 ;     C5 - C10    - H5    
    16     21     17      1    1.2002e+02    5.3279e+02 ;     C6 - C11    - C7    
    16     21     33      1    1.1988e+02    3.7572e+02 ;     C6 - C11    - H6    
    17     20     32      1    1.1988e+02    3.7572e+02 ;     C7 - C10    - H5    
    17     21     33      1    1.1988e+02    3.7572e+02 ;     C7 - C11    - H6    
    18     12     19      1    1.2002e+02    5.3279e+02 ;     C8 - C2     - C9    
    18     23     22      1    1.2002e+02    5.3279e+02 ;     C8 - C13    - C12   
    18     23     34      1    1.1988e+02    3.7572e+02 ;     C8 - C13    - H7    
    19     24     22      1    1.2002e+02    5.3279e+02 ;     C9 - C14    - C12   
    19     24     35      1    1.1988e+02    3.7572e+02 ;     C9 - C14    - H8    
    20     15     28      1    1.1988e+02    3.7572e+02 ;    C10 - C5     - H1    
    20     17     21      1    1.2002e+02    5.3279e+02 ;    C10 - C7     - C11   
    21     16     29      1    1.1988e+02    3.7572e+02 ;    C11 - C6     - H2    
    22     23     34      1    1.1988e+02    3.7572e+02 ;    C12 - C13    - H7    
    22     24     35      1    1.1988e+02    3.7572e+02 ;    C12 - C14    - H8    
    22     26     36      1    1.1063e+02    3.6493e+02 ;    C12 - C16    - H9    
    22     26     37      1    1.1063e+02    3.6493e+02 ;    C12 - C16    - H10   
    22     26     38      1    1.1063e+02    3.6493e+02 ;    C12 - C16    - H11   
    23     18     30      1    1.1988e+02    3.7572e+02 ;    C13 - C8     - H3    
    23     22     24      1    1.2002e+02    5.3279e+02 ;    C13 - C12    - C14   
    23     22     26      1    1.2083e+02    5.0827e+02 ;    C13 - C12    - C16   
    24     19     31      1    1.1988e+02    3.7572e+02 ;    C14 - C9     - H4    
    24     22     26      1    1.2083e+02    5.0827e+02 ;    C14 - C12    - C16   
    36     26     37      1    1.0773e+02    2.9957e+02 ;     H9 - C16    - H10   
    36     26     38      1    1.0773e+02    2.9957e+02 ;     H9 - C16    - H11   
    37     26     38      1    1.0773e+02    2.9957e+02 ;    H10 - C16    - H11   
    39      9     40      1    1.0638e+02    4.0074e+02 ;    H12 - N2     - H13   

[ dihedrals ] ; propers
; for gromacs 4.5 or higher, using funct 9
;    i      j      k      l   func   phase     kd      pn
     1     17     20     15      9   180.00  15.16700   2 ;      S-    C7-   C10-    C5
     1     17     20     32      9   180.00  15.16700   2 ;      S-    C7-   C10-    H5
     1     17     21     16      9   180.00  15.16700   2 ;      S-    C7-   C11-    C6
     1     17     21     33      9   180.00  15.16700   2 ;      S-    C7-   C11-    H6
     2     25     14      8      9     0.00   0.00000   0 ;      F-   C15-    C4-    N1
     2     25     14     13      9     0.00   0.00000   0 ;      F-   C15-    C4-    C3
     3     25     14      8      9     0.00   0.00000   0 ;     F1-   C15-    C4-    N1
     3     25     14     13      9     0.00   0.00000   0 ;     F1-   C15-    C4-    C3
     4     25     14      8      9     0.00   0.00000   0 ;     F2-   C15-    C4-    N1
     4     25     14     13      9     0.00   0.00000   0 ;     F2-   C15-    C4-    C3
     5      1      9     39      9     0.00  13.10987   2 ;      O-     S-    N2-   H12
     5      1      9     40      9     0.00  13.10987   2 ;      O-     S-    N2-   H13
     5      1     17     20      9   180.00   5.43920   2 ;      O-     S-    C7-   C10
     5      1     17     21      9   180.00   5.43920   2 ;      O-     S-    C7-   C11
     6      1      9     39      9     0.00  13.10987   2 ;     O1-     S-    N2-   H12
     6      1      9     40      9     0.00  13.10987   2 ;     O1-     S-    N2-   H13
     6      1     17     20      9   180.00   5.43920   2 ;     O1-     S-    C7-   C10
     6      1     17     21      9   180.00   5.43920   2 ;     O1-     S-    C7-   C11
     7      8     14     13      9   180.00  19.87400   2 ;      N-    N1-    C4-    C3
     7      8     14     25      9   180.00  19.87400   2 ;      N-    N1-    C4-   C15
     7     10     12     18      9   180.00   4.59194   2 ;      N-     C-    C2-    C8
     7     10     12     19      9   180.00   4.59194   2 ;      N-     C-    C2-    C9
     7     10     13     14      9   180.00  16.73600   2 ;      N-     C-    C3-    C4
     7     10     13     27      9   180.00  16.73600   2 ;      N-     C-    C3-     H
     7     11     15     20      9   180.00  15.16700   2 ;      N-    C1-    C5-   C10
     7     11     15     28      9   180.00  15.16700   2 ;      N-    C1-    C5-    H1
     7     11     16     21      9   180.00  15.16700   2 ;      N-    C1-    C6-   C11
     7     11     16     29      9   180.00  15.16700   2 ;      N-    C1-    C6-    H2
     8      7     10     12      9   180.00   7.11280   2 ;     N1-     N-     C-    C2
     8      7     10     13      9   180.00   7.11280   2 ;     N1-     N-     C-    C3
     8      7     11     15      9   180.00   1.25520   2 ;     N1-     N-    C1-    C5
     8      7     11     16      9   180.00   1.25520   2 ;     N1-     N-    C1-    C6
     8     14     13     10      9   180.00  16.73600   2 ;     N1-    C4-    C3-     C
     8     14     13     27      9   180.00  16.73600   2 ;     N1-    C4-    C3-     H
     9      1     17     20      9   180.00   5.43920   2 ;     N2-     S-    C7-   C10
     9      1     17     21      9   180.00   5.43920   2 ;     N2-     S-    C7-   C11
    10      7      8     14      9   180.00  20.08320   2 ;      C-     N-    N1-    C4
    10      7     11     15      9   180.00   2.56479   2 ;      C-     N-    C1-    C5
    10      7     11     16      9   180.00   2.56479   2 ;      C-     N-    C1-    C6
    10     12     18     23      9   180.00  15.16700   2 ;      C-    C2-    C8-   C13
    10     12     18     30      9   180.00  15.16700   2 ;      C-    C2-    C8-    H3
    10     12     19     24      9   180.00  15.16700   2 ;      C-    C2-    C9-   C14
    10     12     19     31      9   180.00  15.16700   2 ;      C-    C2-    C9-    H4
    10     13     14     25      9   180.00  16.73600   2 ;      C-    C3-    C4-   C15
    11      7      8     14      9   180.00  20.08320   2 ;     C1-     N-    N1-    C4
    11      7     10     12      9   180.00   7.11280   2 ;     C1-     N-     C-    C2
    11      7     10     13      9   180.00   7.11280   2 ;     C1-     N-     C-    C3
    11     15     20     17      9   180.00  15.16700   2 ;     C1-    C5-   C10-    C7
    11     15     20     32      9   180.00  15.16700   2 ;     C1-    C5-   C10-    H5
    11     16     21     17      9   180.00  15.16700   2 ;     C1-    C6-   C11-    C7
    11     16     21     33      9   180.00  15.16700   2 ;     C1-    C6-   C11-    H6
    12     10     13     14      9   180.00  16.73600   2 ;     C2-     C-    C3-    C4
    12     10     13     27      9   180.00  16.73600   2 ;     C2-     C-    C3-     H
    12     18     23     22      9   180.00  15.16700   2 ;     C2-    C8-   C13-   C12
    12     18     23     34      9   180.00  15.16700   2 ;     C2-    C8-   C13-    H7
    12     19     24     22      9   180.00  15.16700   2 ;     C2-    C9-   C14-   C12
    12     19     24     35      9   180.00  15.16700   2 ;     C2-    C9-   C14-    H8
    13     10     12     18      9   180.00   2.44764   2 ;     C3-     C-    C2-    C8
    13     10     12     19      9   180.00   2.44764   2 ;     C3-     C-    C2-    C9
    15     11     16     21      9   180.00  15.16700   2 ;     C5-    C1-    C6-   C11
    15     11     16     29      9   180.00  15.16700   2 ;     C5-    C1-    C6-    H2
    15     20     17     21      9   180.00  15.16700   2 ;     C5-   C10-    C7-   C11
    16     11     15     20      9   180.00  15.16700   2 ;     C6-    C1-    C5-   C10
    16     11     15     28      9   180.00  15.16700   2 ;     C6-    C1-    C5-    H1
    16     21     17     20      9   180.00  15.16700   2 ;     C6-   C11-    C7-   C10
    17      1      9     39      9     0.00  13.10987   2 ;     C7-     S-    N2-   H12
    17      1      9     40      9     0.00  13.10987   2 ;     C7-     S-    N2-   H13
    17     20     15     28      9   180.00  15.16700   2 ;     C7-   C10-    C5-    H1
    17     21     16     29      9   180.00  15.16700   2 ;     C7-   C11-    C6-    H2
    18     12     19     24      9   180.00  15.16700   2 ;     C8-    C2-    C9-   C14
    18     12     19     31      9   180.00  15.16700   2 ;     C8-    C2-    C9-    H4
    18     23     22     24      9   180.00  15.16700   2 ;     C8-   C13-   C12-   C14
    18     23     22     26      9   180.00  15.16700   2 ;     C8-   C13-   C12-   C16
    19     12     18     23      9   180.00  15.16700   2 ;     C9-    C2-    C8-   C13
    19     12     18     30      9   180.00  15.16700   2 ;     C9-    C2-    C8-    H3
    19     24     22     23      9   180.00  15.16700   2 ;     C9-   C14-   C12-   C13
    19     24     22     26      9   180.00  15.16700   2 ;     C9-   C14-   C12-   C16
    20     17     21     33      9   180.00  15.16700   2 ;    C10-    C7-   C11-    H6
    21     17     20     32      9   180.00  15.16700   2 ;    C11-    C7-   C10-    H5
    22     23     18     30      9   180.00  15.16700   2 ;    C12-   C13-    C8-    H3
    22     24     19     31      9   180.00  15.16700   2 ;    C12-   C14-    C9-    H4
    23     22     24     35      9   180.00  15.16700   2 ;    C13-   C12-   C14-    H8
    23     22     26     36      9     0.00   0.00000   0 ;    C13-   C12-   C16-    H9
    23     22     26     37      9     0.00   0.00000   0 ;    C13-   C12-   C16-   H10
    23     22     26     38      9     0.00   0.00000   0 ;    C13-   C12-   C16-   H11
    24     22     23     34      9   180.00  15.16700   2 ;    C14-   C12-   C13-    H7
    24     22     26     36      9     0.00   0.00000   0 ;    C14-   C12-   C16-    H9
    24     22     26     37      9     0.00   0.00000   0 ;    C14-   C12-   C16-   H10
    24     22     26     38      9     0.00   0.00000   0 ;    C14-   C12-   C16-   H11
    25     14     13     27      9   180.00  16.73600   2 ;    C15-    C4-    C3-     H
    26     22     23     34      9   180.00  15.16700   2 ;    C16-   C12-   C13-    H7
    26     22     24     35      9   180.00  15.16700   2 ;    C16-   C12-   C14-    H8
    28     15     20     32      9   180.00  15.16700   2 ;     H1-    C5-   C10-    H5
    29     16     21     33      9   180.00  15.16700   2 ;     H2-    C6-   C11-    H6
    30     18     23     34      9   180.00  15.16700   2 ;     H3-    C8-   C13-    H7
    31     19     24     35      9   180.00  15.16700   2 ;     H4-    C9-   C14-    H8

[ dihedrals ] ; impropers
; treated as propers in GROMACS to use correct AMBER analytical function
;    i      j      k      l   func   phase     kd      pn
     1     17     21     20      4   180.00   4.60240   2 ;      S-    C7-   C11-   C10
    10     14     13     27      4   180.00   4.60240   2 ;      C-    C4-    C3-     H
    11     10      7      8      4   180.00   4.60240   2 ;     C1-     C-     N-    N1
    11     20     15     28      4   180.00   4.60240   2 ;     C1-   C10-    C5-    H1
    11     21     16     29      4   180.00   4.60240   2 ;     C1-   C11-    C6-    H2
    12     13     10      7      4   180.00   4.60240   2 ;     C2-    C3-     C-     N
    12     23     18     30      4   180.00   4.60240   2 ;     C2-   C13-    C8-    H3
    12     24     19     31      4   180.00   4.60240   2 ;     C2-   C14-    C9-    H4
    15     16     11      7      4   180.00   4.60240   2 ;     C5-    C6-    C1-     N
    15     17     20     32      4   180.00   4.60240   2 ;     C5-    C7-   C10-    H5
    16     17     21     33      4   180.00   4.60240   2 ;     C6-    C7-   C11-    H6
    18     19     12     10      4   180.00   4.60240   2 ;     C8-    C9-    C2-     C
    18     22     23     34      4   180.00   4.60240   2 ;     C8-   C12-   C13-    H7
    19     22     24     35      4   180.00   4.60240   2 ;     C9-   C12-   C14-    H8
    23     24     22     26      4   180.00   4.60240   2 ;    C13-   C14-   C12-   C16
    25     13     14      8      4   180.00   4.60240   2 ;    C15-    C3-    C4-    N1
