; celecoxib_GMX_OPLS.top created by acpype (v: 2023.10.27) on Mon Feb  9 17:36:31 2026

; Include forcefield parameters
#include "ffoplsaa.itp"

; Include celecoxib_GMX.itp topology
#include "celecoxib_GMX.itp"

; Ligand position restraints
#ifdef POSRES_LIG
#include "posre_celecoxib.itp"
#endif

[ system ]
 celecoxib

[ molecules ]
; Compound        nmols
 celecoxib        1     
