2662
    40
   4.7680000  -1.6190000  -0.0540000  -5.4770000  -1.1410000   0.0590000
  -4.4400000  -2.7200000  -1.0180000  -4.3910000  -2.6770000   1.1610000
   5.0700000  -2.5060000  -1.1690000   5.4590000  -0.3430000   0.0640000
  -1.0640000  -0.6090000   0.0010000  -1.9150000  -1.6490000   0.0230000
   4.9610000  -2.4850000   1.4070000  -1.6790000   0.6100000  -0.0070000
   0.3120000  -0.8480000  -0.0120000  -0.9890000   1.8760000  -0.0300000
  -3.0280000   0.3450000   0.0110000  -3.1130000  -1.0600000   0.0290000
   1.1710000   0.0740000   0.5710000   0.8000000  -2.0020000  -0.6080000
   3.0470000  -1.3210000  -0.0380000  -0.6420000   2.5030000   1.1670000
  -0.6680000   2.4740000  -1.2490000   2.5460000  -0.1640000   0.5580000
   2.1750000  -2.2400000  -0.6210000   0.3460000   4.3250000  -0.0740000
   0.0260000   3.7280000   1.1450000  -0.0010000   3.6990000  -1.2710000
  -4.3330000  -1.8840000   0.0540000   1.0590000   5.6350000  -0.0990000
  -3.8340000   1.0660000   0.0120000   0.8820000   0.8830000   1.2090000
   0.1470000  -2.7320000  -1.0800000  -0.9000000   2.0620000   2.1270000
  -0.9310000   1.9980000  -2.1910000   3.2050000   0.5410000   1.0570000
   2.5430000  -3.1490000  -1.0870000   0.2890000   4.2070000   2.0840000
   0.2450000   4.1530000  -2.2270000   0.7760000   6.2220000  -0.9790000
   0.8100000   6.2380000   0.7810000   2.1410000   5.4730000  -0.1180000
   5.1720000  -3.4880000   1.3420000   5.4360000  -2.0090000   2.1830000
