%VERSION  VERSION_STAMP = V0001.000  DATE = 02/09/26  17:57:31                  
%FLAG TITLE                                                                     
%FORMAT(20a4)                                                                   
5951                                                                            
%FLAG POINTERS                                                                  
%FORMAT(10I8)                                                                   
      14       8       7       6      13       7      23       9       0       0
      62       1       6       7       9       9      16      18       8       0
       0       0       0       0       0       0       0       0      14       0
       0
%FLAG ATOM_NAME                                                                 
%FORMAT(20a4)                                                                   
OG  O   OXT N   CA  CB  C   HA  HB1 HB2 H1  H2  H   H3  
%FLAG CHARGE                                                                    
%FORMAT(5E16.8)                                                                 
 -1.08204017E+01 -1.11174252E+01 -1.00040427E+01 -1.62324248E+01  1.70378505E+00
  2.52196632E+00  1.08258684E+01  1.61631801E+00  1.15164936E+00  1.15164936E+00
  6.71127309E+00  6.71127309E+00  7.54403220E+00  8.20003500E+00
%FLAG ATOMIC_NUMBER                                                             
%FORMAT(10I8)                                                                   
       8       8       8       7       6       6       6       1       1       1
       1       1       1       1
%FLAG MASS                                                                      
%FORMAT(5E16.8)                                                                 
  1.60000000E+01  1.60000000E+01  1.60000000E+01  1.40100000E+01  1.20100000E+01
  1.20100000E+01  1.20100000E+01  1.00800000E+00  1.00800000E+00  1.00800000E+00
  1.00800000E+00  1.00800000E+00  1.00800000E+00  1.00800000E+00
%FLAG ATOM_TYPE_INDEX                                                           
%FORMAT(10I8)                                                                   
       1       1       2       3       4       4       5       6       6       6
       7       7       8       8
%FLAG NUMBER_EXCLUDED_ATOMS                                                     
%FORMAT(10I8)                                                                   
       8       7       6       8       9       7       6       4       2       1
       1       1       1       1
%FLAG NONBONDED_PARM_INDEX                                                      
%FORMAT(10I8)                                                                   
       1       2       4       7      11      16      22      29       2       3
       5       8      12      17      23      30       4       5       6       9
      13      18      24      31       7       8       9      10      14      19
      25      32      11      12      13      14      15      20      26      33
      16      17      18      19      20      21      27      34      22      23
      24      25      26      27      28      35      29      30      31      32
      33      34      35      36
%FLAG RESIDUE_LABEL                                                             
%FORMAT(20a4)                                                                   
SER 
%FLAG RESIDUE_POINTER                                                           
%FORMAT(10I8)                                                                   
       1
%FLAG BOND_FORCE_CONSTANT                                                       
%FORMAT(5E16.8)                                                                 
  2.85150000E+02  5.35510000E+02  3.59270000E+02  5.90600000E+02  2.53810000E+02
  4.60680000E+02  2.28890000E+02  2.34850000E+02  3.44220000E+02
%FLAG BOND_EQUIL_VALUE                                                          
%FORMAT(5E16.8)                                                                 
  1.42420000E+00  9.72500000E-01  1.35560000E+00  1.21900000E+00  1.46510000E+00
  1.01920000E+00  1.53540000E+00  1.52700000E+00  1.09690000E+00
%FLAG ANGLE_FORCE_CONSTANT                                                      
%FORMAT(5E16.8)                                                                 
  7.67900000E+01  5.62900000E+01  1.02030000E+02  7.74200000E+01  7.64500000E+01
  6.54800000E+01  6.56600000E+01  4.82100000E+01  5.61700000E+01  4.32800000E+01
  6.51300000E+01  6.03600000E+01  6.84600000E+01  4.37400000E+01  3.56400000E+01
  4.78900000E+01
%FLAG ANGLE_EQUIL_VALUE                                                         
%FORMAT(5E16.8)                                                                 
  1.91392888E+00  1.92649525E+00  2.13087340E+00  1.96768504E+00  2.14501057E+00
  1.93574550E+00  1.93661817E+00  1.88705080E+00  1.91305621E+00  1.91270715E+00
  1.87430989E+00  1.94482122E+00  1.85947458E+00  1.89141412E+00  1.89455572E+00
  1.85668205E+00
%FLAG DIHEDRAL_FORCE_CONSTANT                                                   
%FORMAT(5E16.8)                                                                 
  1.55555556E-01  4.70000000E-01  2.50000000E-01  0.00000000E+00  0.00000000E+00
  1.90000000E+00  2.30000000E+00  6.80000000E-01  2.00000000E-01  4.40000000E-01
  8.00000000E-01  8.00000000E-02  6.00000000E-02  1.80000000E+00  3.00000000E-02
  3.00000000E-01  1.23000000E-01  1.10000000E+00
%FLAG DIHEDRAL_PERIODICITY                                                      
%FORMAT(5E16.8)                                                                 
  3.00000000E+00  1.00000000E+00  1.00000000E+00  3.00000000E+00  2.00000000E+00
  1.00000000E+00  2.00000000E+00  1.00000000E+00  2.00000000E+00  3.00000000E+00
  1.00000000E+00  3.00000000E+00  3.00000000E+00  2.00000000E+00  3.00000000E+00
  3.00000000E+00  3.00000000E+00  2.00000000E+00
%FLAG DIHEDRAL_PHASE                                                            
%FORMAT(5E16.8)                                                                 
  0.00000000E+00  3.14159400E+00  0.00000000E+00  0.00000000E+00  3.14159400E+00
  0.00000000E+00  3.14159400E+00  0.00000000E+00  3.14159400E+00  3.14159400E+00
  0.00000000E+00  3.14159400E+00  0.00000000E+00  3.14159400E+00  3.14159400E+00
  0.00000000E+00  0.00000000E+00  3.14159400E+00
%FLAG SCEE_SCALE_FACTOR                                                         
%FORMAT(5E16.8)                                                                 
  1.20000000E+00  1.20000000E+00  1.20000000E+00  1.20000000E+00  1.20000000E+00
  1.20000000E+00  1.20000000E+00  1.20000000E+00  1.20000000E+00  1.20000000E+00
  1.20000000E+00  1.20000000E+00  1.20000000E+00  1.20000000E+00  1.20000000E+00
  1.20000000E+00  1.20000000E+00  0.00000000E+00
%FLAG SCNB_SCALE_FACTOR                                                         
%FORMAT(5E16.8)                                                                 
  2.00000000E+00  2.00000000E+00  2.00000000E+00  2.00000000E+00  2.00000000E+00
  2.00000000E+00  2.00000000E+00  2.00000000E+00  2.00000000E+00  2.00000000E+00
  2.00000000E+00  2.00000000E+00  2.00000000E+00  2.00000000E+00  2.00000000E+00
  2.00000000E+00  2.00000000E+00  0.00000000E+00
%FLAG SOLTY                                                                     
%FORMAT(5E16.8)                                                                 
  0.00000000E+00  0.00000000E+00  0.00000000E+00  0.00000000E+00  0.00000000E+00
  0.00000000E+00  0.00000000E+00  0.00000000E+00
%FLAG LENNARD_JONES_ACOEF                                                       
%FORMAT(5E16.8)                                                                 
  5.03152404E+05  4.37717034E+05  3.76435470E+05  6.15869455E+05  5.47655232E+05
  7.22850509E+05  7.18991463E+05  6.30925504E+05  8.65620051E+05  1.02073671E+06
  5.92438683E+05  5.17507491E+05  7.19505991E+05  8.43969952E+05  6.96551276E+05
  4.69084694E+04  3.86646725E+04  6.36026248E+04  6.97998263E+04  5.63013422E+04
  3.39005767E+03  1.36475542E+03  9.87857350E+02  2.35480845E+03  2.23577481E+03
  1.71458823E+03  5.24570081E+01  1.34728399E-01  1.74176419E+02  1.15813907E+02
  3.50407390E+02  3.03553352E+02  2.25372434E+02  4.36660257E+00  2.61760843E-03
  1.10360882E-05
%FLAG LENNARD_JONES_BCOEF                                                       
%FORMAT(5E16.8)                                                                 
  4.32634597E+02  4.51916854E+02  4.69350655E+02  3.67447838E+02  3.88056827E+02
  3.05601515E+02  5.36620538E+02  5.62969425E+02  4.52010965E+02  6.63431737E+02
  4.76608379E+02  4.98871431E+02  4.03215362E+02  5.90251928E+02  5.24668528E+02
  9.08431526E+01  9.23664132E+01  8.12052260E+01  1.14981426E+02  1.01040256E+02
  1.67944276E+01  1.29026271E+01  1.22938581E+01  1.30109323E+01  1.71355763E+01
  1.46824710E+01  1.73959275E+00  7.34107347E-02  3.81654050E+00  3.48534600E+00
  4.15567637E+00  5.22789272E+00  4.40751799E+00  4.15568027E-01  8.47240681E-03
  4.55498033E-04
%FLAG BONDS_INC_HYDROGEN                                                        
%FORMAT(10I8)                                                                   
       0      36       2       3      39       2       9      30       6       9
      33       6      12      21       9      15      24       9      15      27
       9
%FLAG BONDS_WITHOUT_HYDROGEN                                                    
%FORMAT(10I8)                                                                   
       0      15       1       3      18       3       6      18       4       9
      12       5      12      15       7      12      18       8
%FLAG ANGLES_INC_HYDROGEN                                                       
%FORMAT(10I8)                                                                   
       0      15      24       2       0      15      27       2       9      12
      21       8      12       9      30       9      12       9      33       9
      12      15      24      10      12      15      27      10      15       0
      36      11      15      12      21      10      18       3      39      13
      18      12      21      14      24      15      27      15      30       9
      33      16
%FLAG ANGLES_WITHOUT_HYDROGEN                                                   
%FORMAT(10I8)                                                                   
       0      15      12       1       3      18       6       3       3      18
      12       4       6      18      12       5       9      12      15       6
       9      12      18       7      15      12      18      12
%FLAG DIHEDRALS_INC_HYDROGEN                                                    
%FORMAT(10I8)                                                                   
       0      15      12      21       3       0      15     -12      21       4
       3      18      12      21       5       6      18       3      39       6
       6      18      -3      39       7       6      18      12      21      11
       6      18     -12      21      12       9      12      15      24       1
       9      12      15      27       1      36       0      15      12      13
      12      18       3      39      14      15      12       9      30      15
      15      12       9      33      15      18      12       9      30      16
      18      12       9      33      16      18      12      15      24       1
      18      12      15      27       1      21      12       9      30      16
      21      12       9      33      16      21      12      15      24       1
      21      12      15      27       1      36       0      15      24      17
      36       0      15      27      17
%FLAG DIHEDRALS_WITHOUT_HYDROGEN                                                
%FORMAT(10I8)                                                                   
       0      15      12       9       1       0      15      12      18       2
       3      18      12       9       5       3      18      12      15       5
       6      18      12       9       5       6      18      12      15       8
       6      18     -12      15       9       6      18     -12      15      10
      12       6     -18      -3      18
%FLAG EXCLUDED_ATOMS_LIST                                                       
%FORMAT(10I8)                                                                   
       4       5       6       7       8       9      10      13       3       4
       5       6       7       8      14       4       5       6       7       8
      14       5       6       7       8       9      10      11      12       6
       7       8       9      10      11      12      13      14       7       8
       9      10      11      12      13       8       9      10      11      12
      14       9      10      11      12      10      13      13      12       0
       0       0
%FLAG HBOND_ACOEF                                                               
%FORMAT(5E16.8)                                                                 

%FLAG HBOND_BCOEF                                                               
%FORMAT(5E16.8)                                                                 

%FLAG HBCUT                                                                     
%FORMAT(5E16.8)                                                                 

%FLAG AMBER_ATOM_TYPE                                                           
%FORMAT(20a4)                                                                   
oh  oh  o   n8  c3  c3  c   h1  h1  h1  hn  hn  ho  ho  
%FLAG TREE_CHAIN_CLASSIFICATION                                                 
%FORMAT(20a4)                                                                   
BLA BLA BLA BLA BLA BLA BLA BLA BLA BLA BLA BLA BLA BLA 
%FLAG JOIN_ARRAY                                                                
%FORMAT(10I8)                                                                   
       0       0       0       0       0       0       0       0       0       0
       0       0       0       0
%FLAG IROTAT                                                                    
%FORMAT(10I8)                                                                   
       0       0       0       0       0       0       0       0       0       0
       0       0       0       0
%FLAG RADIUS_SET                                                                
%FORMAT(1a80)                                                                   
modified Bondi radii (mbondi)                                                   
%FLAG RADII                                                                     
%FORMAT(5E16.8)                                                                 
  1.50000000E+00  1.50000000E+00  1.50000000E+00  1.55000000E+00  1.70000000E+00
  1.70000000E+00  1.70000000E+00  1.30000000E+00  1.30000000E+00  1.30000000E+00
  1.30000000E+00  1.30000000E+00  8.00000000E-01  8.00000000E-01
%FLAG SCREEN                                                                    
%FORMAT(5E16.8)                                                                 
  8.50000000E-01  8.50000000E-01  8.50000000E-01  7.90000000E-01  7.20000000E-01
  7.20000000E-01  7.20000000E-01  8.50000000E-01  8.50000000E-01  8.50000000E-01
  8.50000000E-01  8.50000000E-01  8.50000000E-01  8.50000000E-01
%FLAG IPOL                                                                      
%FORMAT(1I8)                                                                    
       0
