serine_GMX.gro created by acpype (v: 2023.10.27) on Mon Feb  9 17:57:30 2026
 14
    1  SER   OG    1   0.192   0.103  -0.021
    1  SER    O    2  -0.092   0.147   0.069
    1  SER  OXT    3  -0.169   0.004  -0.090
    1  SER    N    4  -0.018  -0.196   0.032
    1  SER   CA    5   0.025  -0.057   0.047
    1  SER   CB    6   0.150  -0.032  -0.036
    1  SER    C    7  -0.089   0.031  -0.001
    1  SER   HA    8   0.044  -0.037   0.153
    1  SER  HB1    9   0.233  -0.097  -0.006
    1  SER  HB2   10   0.132  -0.049  -0.143
    1  SER   H1   11  -0.038  -0.216  -0.066
    1  SER   H2   12  -0.104  -0.212   0.083
    1  SER    H   13   0.210   0.117   0.074
    1  SER   H3   14  -0.164   0.206   0.040
    8.03400     8.44400     5.92200
