5951
    14
   1.9160000   1.0310000  -0.2060000  -0.9150000   1.4730000   0.6930000
  -1.6880000   0.0440000  -0.8960000  -0.1780000  -1.9610000   0.3150000
   0.2500000  -0.5720000   0.4670000   1.5040000  -0.3230000  -0.3650000
  -0.8900000   0.3090000  -0.0070000   0.4350000  -0.3710000   1.5280000
   2.3290000  -0.9740000  -0.0560000   1.3200000  -0.4860000  -1.4330000
  -0.3830000  -2.1610000  -0.6640000  -1.0420000  -2.1180000   0.8320000
   2.1020000   1.1710000   0.7380000  -1.6430000   2.0610000   0.3990000
