; serine_GMX.top created by acpype (v: 2023.10.27) on Mon Feb  9 17:57:30 2026

[ defaults ]
; nbfunc        comb-rule       gen-pairs       fudgeLJ fudgeQQ
1               2               yes             0.5     0.8333333333

; Include serine_GMX.itp topology
#include "serine_GMX.itp"

; Ligand position restraints
#ifdef POSRES_LIG
#include "posre_serine.itp"
#endif

[ system ]
 serine

[ molecules ]
; Compound        nmols
 serine           1     
