; paracetamol_GMX.itp created by acpype (v: 2023.10.27) on Mon Feb  9 17:55:34 2026

[ atomtypes ]
;name   bond_type     mass     charge   ptype   sigma         epsilon       Amb
 oh       oh          0.00000  0.00000   A     3.24287e-01   3.89112e-01 ; 1.82  0.0930
 o        o           0.00000  0.00000   A     3.04812e-01   6.12119e-01 ; 1.71  0.1463
 ns       ns          0.00000  0.00000   A     3.26995e-01   4.91202e-01 ; 1.84  0.1174
 ca       ca          0.00000  0.00000   A     3.31521e-01   4.13379e-01 ; 1.86  0.0988
 c        c           0.00000  0.00000   A     3.31521e-01   4.13379e-01 ; 1.86  0.0988
 c3       c3          0.00000  0.00000   A     3.39771e-01   4.51035e-01 ; 1.91  0.1078
 ha       ha          0.00000  0.00000   A     2.62548e-01   6.73624e-02 ; 1.47  0.0161
 hn       hn          0.00000  0.00000   A     1.10650e-01   4.18400e-02 ; 0.62  0.0100
 hc       hc          0.00000  0.00000   A     2.60018e-01   8.70272e-02 ; 1.46  0.0208
 ho       ho          0.00000  0.00000   A     5.37925e-02   1.96648e-02 ; 0.30  0.0047

[ moleculetype ]
;name            nrexcl
 paracetamol      3

[ atoms ]
;   nr  type  resi  res  atom  cgnr     charge      mass       ; qtot   bond_type
     1   oh     1   UNL     O    1    -0.499100     16.00000 ; qtot -0.499
     2    o     1   UNL    O1    2    -0.593100     16.00000 ; qtot -1.092
     3   ns     1   UNL     N    3    -0.472100     14.01000 ; qtot -1.564
     4   ca     1   UNL     C    4     0.035600     12.01000 ; qtot -1.529
     5   ca     1   UNL    C1    5    -0.134500     12.01000 ; qtot -1.663
     6   ca     1   UNL    C2    6    -0.134500     12.01000 ; qtot -1.798
     7   ca     1   UNL    C3    7    -0.158000     12.01000 ; qtot -1.956
     8   ca     1   UNL    C4    8    -0.158000     12.01000 ; qtot -2.114
     9   ca     1   UNL    C5    9     0.096100     12.01000 ; qtot -2.018
    10    c     1   UNL    C6   10     0.666099     12.01000 ; qtot -1.352
    11   c3     1   UNL    C7   11    -0.178100     12.01000 ; qtot -1.530
    12   ha     1   UNL     H   12     0.153000      1.00800 ; qtot -1.377
    13   ha     1   UNL    H1   13     0.153000      1.00800 ; qtot -1.224
    14   hn     1   UNL    H2   14     0.313500      1.00800 ; qtot -0.910
    15   ha     1   UNL    H3   15     0.143500      1.00800 ; qtot -0.767
    16   ha     1   UNL    H4   16     0.143500      1.00800 ; qtot -0.623
    17   hc     1   UNL    H5   17     0.068367      1.00800 ; qtot -0.555
    18   hc     1   UNL    H6   18     0.068367      1.00800 ; qtot -0.486
    19   hc     1   UNL    H7   19     0.068367      1.00800 ; qtot -0.418
    20   ho     1   UNL    H8   20     0.418000      1.00800 ; qtot -0.000

[ bonds ]
;   ai     aj funct   r             k
     1      9   1    1.3644e-01    2.9167e+05 ;      O - C5    
     1     20   1    9.7250e-02    4.4811e+05 ;      O - H8    
     2     10   1    1.2190e-01    4.9421e+05 ;     O1 - C6    
     3      4   1    1.4070e-01    2.5667e+05 ;      N - C     
     3     10   1    1.3798e-01    2.8122e+05 ;      N - C6    
     3     14   1    1.0132e-01    3.9630e+05 ;      N - H2    
     4      5   1    1.3986e-01    2.9644e+05 ;      C - C1    
     4      6   1    1.3986e-01    2.9644e+05 ;      C - C2    
     5      7   1    1.3986e-01    2.9644e+05 ;     C1 - C3    
     5     12   1    1.0860e-01    3.0183e+05 ;     C1 - H     
     6      8   1    1.3986e-01    2.9644e+05 ;     C2 - C4    
     6     13   1    1.0860e-01    3.0183e+05 ;     C2 - H1    
     7      9   1    1.3986e-01    2.9644e+05 ;     C3 - C5    
     7     15   1    1.0860e-01    3.0183e+05 ;     C3 - H3    
     8      9   1    1.3986e-01    2.9644e+05 ;     C4 - C5    
     8     16   1    1.0860e-01    3.0183e+05 ;     C4 - H4    
    10     11   1    1.5270e-01    1.9652e+05 ;     C6 - C7    
    11     17   1    1.0962e-01    2.8891e+05 ;     C7 - H5    
    11     18   1    1.0962e-01    2.8891e+05 ;     C7 - H6    
    11     19   1    1.0962e-01    2.8891e+05 ;     C7 - H7    

[ pairs ]
;   ai     aj    funct
     1      5      1 ;      O - C1    
     1      6      1 ;      O - C2    
     1     15      1 ;      O - H3    
     1     16      1 ;      O - H4    
     2      4      1 ;     O1 - C     
     2     14      1 ;     O1 - H2    
     2     17      1 ;     O1 - H5    
     2     18      1 ;     O1 - H6    
     2     19      1 ;     O1 - H7    
     3      7      1 ;      N - C3    
     3      8      1 ;      N - C4    
     3     12      1 ;      N - H     
     3     13      1 ;      N - H1    
     3     17      1 ;      N - H5    
     3     18      1 ;      N - H6    
     3     19      1 ;      N - H7    
     4      9      1 ;      C - C5    
     4     11      1 ;      C - C7    
     4     15      1 ;      C - H3    
     4     16      1 ;      C - H4    
     5      8      1 ;     C1 - C4    
     5     10      1 ;     C1 - C6    
     5     13      1 ;     C1 - H1    
     5     14      1 ;     C1 - H2    
     6      7      1 ;     C2 - C3    
     6     10      1 ;     C2 - C6    
     6     12      1 ;     C2 - H     
     6     14      1 ;     C2 - H2    
     7     16      1 ;     C3 - H4    
     8     15      1 ;     C4 - H3    
     9     12      1 ;     C5 - H     
     9     13      1 ;     C5 - H1    
    11     14      1 ;     C7 - H2    
    12     15      1 ;      H - H3    
    13     16      1 ;     H1 - H4    
    20      7      1 ;     H8 - C3    
    20      8      1 ;     H8 - C4    

[ angles ]
;   ai     aj     ak    funct   theta         cth
     1      9      7      1    1.1990e+02    6.5990e+02 ;      O - C5     - C3    
     1      9      8      1    1.1990e+02    6.5990e+02 ;      O - C5     - C4    
     2     10      3      1    1.2305e+02    7.2977e+02 ;     O1 - C6     - N     
     2     10     11      1    1.2290e+02    6.3973e+02 ;     O1 - C6     - C7    
     3      4      5      1    1.2019e+02    5.6350e+02 ;      N - C      - C1    
     3      4      6      1    1.2019e+02    5.6350e+02 ;      N - C      - C2    
     3     10     11      1    1.1503e+02    5.5312e+02 ;      N - C6     - C7    
     4      3     10      1    1.2751e+02    6.4116e+02 ;      C - N      - C6    
     4      3     14      1    1.1604e+02    4.7430e+02 ;      C - N      - H2    
     4      5      7      1    1.2002e+02    5.3279e+02 ;      C - C1     - C3    
     4      5     12      1    1.1988e+02    3.7572e+02 ;      C - C1     - H     
     4      6      8      1    1.2002e+02    5.3279e+02 ;      C - C2     - C4    
     4      6     13      1    1.1988e+02    3.7572e+02 ;      C - C2     - H1    
     5      4      6      1    1.2002e+02    5.3279e+02 ;     C1 - C      - C2    
     5      7      9      1    1.2002e+02    5.3279e+02 ;     C1 - C3     - C5    
     5      7     15      1    1.1988e+02    3.7572e+02 ;     C1 - C3     - H3    
     6      8      9      1    1.2002e+02    5.3279e+02 ;     C2 - C4     - C5    
     6      8     16      1    1.1988e+02    3.7572e+02 ;     C2 - C4     - H4    
     7      5     12      1    1.1988e+02    3.7572e+02 ;     C3 - C1     - H     
     7      9      8      1    1.2002e+02    5.3279e+02 ;     C3 - C5     - C4    
     8      6     13      1    1.1988e+02    3.7572e+02 ;     C4 - C2     - H1    
     9      1     20      1    1.0858e+02    5.6409e+02 ;     C5 - O      - H8    
     9      7     15      1    1.1988e+02    3.7572e+02 ;     C5 - C3     - H3    
     9      8     16      1    1.1988e+02    3.7572e+02 ;     C5 - C4     - H4    
    10      3     14      1    1.1726e+02    4.8007e+02 ;     C6 - N      - H2    
    10     11     17      1    1.0895e+02    3.6510e+02 ;     C6 - C7     - H5    
    10     11     18      1    1.0895e+02    3.6510e+02 ;     C6 - C7     - H6    
    10     11     19      1    1.0895e+02    3.6510e+02 ;     C6 - C7     - H7    
    17     11     18      1    1.0773e+02    2.9957e+02 ;     H5 - C7     - H6    
    17     11     19      1    1.0773e+02    2.9957e+02 ;     H5 - C7     - H7    
    18     11     19      1    1.0773e+02    2.9957e+02 ;     H6 - C7     - H7    

[ dihedrals ] ; propers
; for gromacs 4.5 or higher, using funct 9
;    i      j      k      l   func   phase     kd      pn
     1      9      7      5      9   180.00  15.16700   2 ;      O-    C5-    C3-    C1
     1      9      7     15      9   180.00  15.16700   2 ;      O-    C5-    C3-    H3
     1      9      8      6      9   180.00  15.16700   2 ;      O-    C5-    C4-    C2
     1      9      8     16      9   180.00  15.16700   2 ;      O-    C5-    C4-    H4
     2     10      3      4      9   180.00  10.46000   2 ;     O1-    C6-     N-     C
     2     10      3     14      9     0.00   8.36800   1 ;     O1-    C6-     N-    H2
     2     10      3     14      9   180.00  10.46000   2 ;     O1-    C6-     N-    H2
     2     10     11     17      9     0.00  16.86152   1 ;     O1-    C6-    C7-    H5
     2     10     11     17      9   180.00  15.31344   2 ;     O1-    C6-    C7-    H5
     2     10     11     18      9     0.00  16.86152   1 ;     O1-    C6-    C7-    H6
     2     10     11     18      9   180.00  15.31344   2 ;     O1-    C6-    C7-    H6
     2     10     11     19      9     0.00  16.86152   1 ;     O1-    C6-    C7-    H7
     2     10     11     19      9   180.00  15.31344   2 ;     O1-    C6-    C7-    H7
     3      4      5      7      9   180.00  15.16700   2 ;      N-     C-    C1-    C3
     3      4      5     12      9   180.00  15.16700   2 ;      N-     C-    C1-     H
     3      4      6      8      9   180.00  15.16700   2 ;      N-     C-    C2-    C4
     3      4      6     13      9   180.00  15.16700   2 ;      N-     C-    C2-    H1
     3     10     11     17      9   180.00   0.00000   2 ;      N-    C6-    C7-    H5
     3     10     11     18      9   180.00   0.00000   2 ;      N-    C6-    C7-    H6
     3     10     11     19      9   180.00   0.00000   2 ;      N-    C6-    C7-    H7
     4      3     10     11      9     0.00   3.64008   3 ;      C-     N-    C6-    C7
     4      3     10     11      9   180.00   4.30952   2 ;      C-     N-    C6-    C7
     4      3     10     11      9   180.00   5.89944   1 ;      C-     N-    C6-    C7
     4      5      7      9      9   180.00  15.16700   2 ;      C-    C1-    C3-    C5
     4      5      7     15      9   180.00  15.16700   2 ;      C-    C1-    C3-    H3
     4      6      8      9      9   180.00  15.16700   2 ;      C-    C2-    C4-    C5
     4      6      8     16      9   180.00  15.16700   2 ;      C-    C2-    C4-    H4
     5      4      3     10      9   180.00   5.89944   2 ;     C1-     C-     N-    C6
     5      4      3     14      9   180.00   1.88280   2 ;     C1-     C-     N-    H2
     5      4      6      8      9   180.00  15.16700   2 ;     C1-     C-    C2-    C4
     5      4      6     13      9   180.00  15.16700   2 ;     C1-     C-    C2-    H1
     5      7      9      8      9   180.00  15.16700   2 ;     C1-    C3-    C5-    C4
     6      4      3     10      9   180.00   5.89944   2 ;     C2-     C-     N-    C6
     6      4      3     14      9   180.00   1.88280   2 ;     C2-     C-     N-    H2
     6      4      5      7      9   180.00  15.16700   2 ;     C2-     C-    C1-    C3
     6      4      5     12      9   180.00  15.16700   2 ;     C2-     C-    C1-     H
     6      8      9      7      9   180.00  15.16700   2 ;     C2-    C4-    C5-    C3
     7      9      8     16      9   180.00  15.16700   2 ;     C3-    C5-    C4-    H4
     8      9      7     15      9   180.00  15.16700   2 ;     C4-    C5-    C3-    H3
     9      7      5     12      9   180.00  15.16700   2 ;     C5-    C3-    C1-     H
     9      8      6     13      9   180.00  15.16700   2 ;     C5-    C4-    C2-    H1
    11     10      3     14      9   180.00  10.46000   2 ;     C7-    C6-     N-    H2
    12      5      7     15      9   180.00  15.16700   2 ;      H-    C1-    C3-    H3
    13      6      8     16      9   180.00  15.16700   2 ;     H1-    C2-    C4-    H4
    20      1      9      7      9   180.00   3.57732   2 ;     H8-     O-    C5-    C3
    20      1      9      8      9   180.00   3.57732   2 ;     H8-     O-    C5-    C4

[ dihedrals ] ; impropers
; treated as propers in GROMACS to use correct AMBER analytical function
;    i      j      k      l   func   phase     kd      pn
     1      9      8      7      4   180.00   4.60240   2 ;      O-    C5-    C4-    C3
     4      7      5     12      4   180.00   4.60240   2 ;      C-    C3-    C1-     H
     4      8      6     13      4   180.00   4.60240   2 ;      C-    C4-    C2-    H1
     5      6      4      3      4   180.00   4.60240   2 ;     C1-    C2-     C-     N
     5      9      7     15      4   180.00   4.60240   2 ;     C1-    C5-    C3-    H3
     6      9      8     16      4   180.00   4.60240   2 ;     C2-    C5-    C4-    H4
    10      4      3     14      4   180.00   4.60240   2 ;     C6-     C-     N-    H2
    11      3     10      2      4   180.00  43.93200   2 ;     C7-     N-    C6-    O1
