1983
    20
   3.8510000   0.4520000   0.0010000  -2.6000000   1.4040000  -0.0020000
  -1.5710000  -0.7170000   0.0000000  -0.2070000  -0.4230000  -0.0000000
   0.2210000   0.9050000   0.0000000   0.7300000  -1.4570000  -0.0010000
   1.5840000   1.1990000   0.0000000   2.0930000  -1.1630000  -0.0010000
   2.5200000   0.1650000  -0.0000000  -2.6480000   0.1780000   0.0010000
  -3.9740000  -0.5420000   0.0010000  -0.4440000   1.7580000   0.0010000
   0.4110000  -2.4960000  -0.0010000  -1.8010000  -1.7090000   0.0000000
   1.9050000   2.2370000   0.0010000   2.8180000  -1.9730000  -0.0010000
  -4.0660000  -1.1460000  -0.9060000  -4.7900000   0.1840000   0.0290000
  -4.0450000  -1.1890000   0.8800000   3.9650000   1.4180000   0.0020000
