; paracetamol_GMX_OPLS.top created by acpype (v: 2023.10.27) on Mon Feb  9 17:55:34 2026

; Include forcefield parameters
#include "ffoplsaa.itp"

; Include paracetamol_GMX.itp topology
#include "paracetamol_GMX.itp"

; Ligand position restraints
#ifdef POSRES_LIG
#include "posre_paracetamol.itp"
#endif

[ system ]
 paracetamol

[ molecules ]
; Compound        nmols
 paracetamol      1     
