paracetamol_GMX.gro created by acpype (v: 2023.10.27) on Mon Feb  9 17:55:34 2026
 20
    1  UNL    O    1   0.385   0.045   0.000
    1  UNL   O1    2  -0.260   0.140  -0.000
    1  UNL    N    3  -0.157  -0.072   0.000
    1  UNL    C    4  -0.021  -0.042  -0.000
    1  UNL   C1    5   0.022   0.091   0.000
    1  UNL   C2    6   0.073  -0.146  -0.000
    1  UNL   C3    7   0.158   0.120   0.000
    1  UNL   C4    8   0.209  -0.116  -0.000
    1  UNL   C5    9   0.252   0.017  -0.000
    1  UNL   C6   10  -0.265   0.018   0.000
    1  UNL   C7   11  -0.397  -0.054   0.000
    1  UNL    H   12  -0.044   0.176   0.000
    1  UNL   H1   13   0.041  -0.250  -0.000
    1  UNL   H2   14  -0.180  -0.171   0.000
    1  UNL   H3   15   0.191   0.224   0.000
    1  UNL   H4   16   0.282  -0.197  -0.000
    1  UNL   H5   17  -0.407  -0.115  -0.091
    1  UNL   H6   18  -0.479   0.018   0.003
    1  UNL   H7   19  -0.405  -0.119   0.088
    1  UNL   H8   20   0.397   0.142   0.000
   17.51000     9.46600     3.57200
