%VERSION  VERSION_STAMP = V0001.000  DATE = 02/09/26  17:55:35                  
%FLAG TITLE                                                                     
%FORMAT(20a4)                                                                   
1983                                                                            
%FLAG POINTERS                                                                  
%FORMAT(10I8)                                                                   
      20       9       9      11      17      14      35      19       0       0
      93       1      11      14      19      10      13      14      10       0
       0       0       0       0       0       0       0       0      20       0
       0
%FLAG ATOM_NAME                                                                 
%FORMAT(20a4)                                                                   
O   O1  N   C   C1  C2  C3  C4  C5  C6  C7  H   H1  H2  H3  H4  H5  H6  H7  H8  
%FLAG CHARGE                                                                    
%FORMAT(5E16.8)                                                                 
 -9.09474993E+00 -1.08076461E+01 -8.60274783E+00  6.48713880E-01 -2.45089935E+00
 -2.45089935E+00 -2.87912340E+00 -2.87912340E+00  1.75116303E+00  1.21196517E+01
 -3.24539163E+00  2.78801190E+00  2.78801190E+00  5.71269105E+00  2.61490005E+00
  2.61490005E+00  1.24580398E+00  1.24580398E+00  1.24580398E+00  7.61692140E+00
%FLAG ATOMIC_NUMBER                                                             
%FORMAT(10I8)                                                                   
       8       8       7       6       6       6       6       6       6       6
       6       1       1       1       1       1       1       1       1       1
%FLAG MASS                                                                      
%FORMAT(5E16.8)                                                                 
  1.60000000E+01  1.60000000E+01  1.40100000E+01  1.20100000E+01  1.20100000E+01
  1.20100000E+01  1.20100000E+01  1.20100000E+01  1.20100000E+01  1.20100000E+01
  1.20100000E+01  1.00800000E+00  1.00800000E+00  1.00800000E+00  1.00800000E+00
  1.00800000E+00  1.00800000E+00  1.00800000E+00  1.00800000E+00  1.00800000E+00
%FLAG ATOM_TYPE_INDEX                                                           
%FORMAT(10I8)                                                                   
       1       2       3       4       4       4       4       4       4       4
       5       6       6       7       6       6       8       8       8       9
%FLAG NUMBER_EXCLUDED_ATOMS                                                     
%FORMAT(10I8)                                                                   
       8       8      13      12       9       8       6       5       5       5
       4       1       1       1       1       1       2       1       1       1
%FLAG NONBONDED_PARM_INDEX                                                      
%FORMAT(10I8)                                                                   
       1       2       4       7      11      16      22      29      37       2
       3       5       8      12      17      23      30      38       4       5
       6       9      13      18      24      31      39       7       8       9
      10      14      19      25      32      40      11      12      13      14
      15      20      26      33      41      16      17      18      19      20
      21      27      34      42      22      23      24      25      26      27
      28      35      43      29      30      31      32      33      34      35
      36      44      37      38      39      40      41      42      43      44
      45
%FLAG RESIDUE_LABEL                                                             
%FORMAT(20a4)                                                                   
UNL 
%FLAG RESIDUE_POINTER                                                           
%FORMAT(10I8)                                                                   
       1
%FLAG BOND_FORCE_CONSTANT                                                       
%FORMAT(5E16.8)                                                                 
  3.48550000E+02  5.35510000E+02  5.90600000E+02  3.06730000E+02  3.36070000E+02
  4.73590000E+02  3.54250000E+02  3.60690000E+02  2.34850000E+02  3.45250000E+02
%FLAG BOND_EQUIL_VALUE                                                          
%FORMAT(5E16.8)                                                                 
  1.36440000E+00  9.72500000E-01  1.21900000E+00  1.40700000E+00  1.37980000E+00
  1.01320000E+00  1.39860000E+00  1.08600000E+00  1.52700000E+00  1.09620000E+00
%FLAG ANGLE_FORCE_CONSTANT                                                      
%FORMAT(5E16.8)                                                                 
  7.88600000E+01  8.72100000E+01  7.64500000E+01  6.73400000E+01  6.61000000E+01
  7.66200000E+01  5.66800000E+01  6.36700000E+01  4.49000000E+01  6.74100000E+01
  5.73700000E+01  4.36300000E+01  3.58000000E+01
%FLAG ANGLE_EQUIL_VALUE                                                         
%FORMAT(5E16.8)                                                                 
  2.09265067E+00  2.14762857E+00  2.14501057E+00  2.09771213E+00  2.00765310E+00
  2.22547028E+00  2.02528093E+00  2.09474507E+00  2.09230160E+00  1.89507931E+00
  2.04657396E+00  1.90153704E+00  1.88024401E+00
%FLAG DIHEDRAL_FORCE_CONSTANT                                                   
%FORMAT(5E16.8)                                                                 
  3.62500000E+00  2.50000000E+00  2.00000000E+00  4.03000000E+00  3.66000000E+00
  0.00000000E+00  1.41000000E+00  1.03000000E+00  8.70000000E-01  1.41000000E+00
  4.50000000E-01  8.55000000E-01  1.10000000E+00  1.05000000E+01
%FLAG DIHEDRAL_PERIODICITY                                                      
%FORMAT(5E16.8)                                                                 
  2.00000000E+00  2.00000000E+00  1.00000000E+00  1.00000000E+00  2.00000000E+00
  2.00000000E+00  1.00000000E+00  2.00000000E+00  3.00000000E+00  2.00000000E+00
  2.00000000E+00  2.00000000E+00  2.00000000E+00  2.00000000E+00
%FLAG DIHEDRAL_PHASE                                                            
%FORMAT(5E16.8)                                                                 
  3.14159400E+00  3.14159400E+00  0.00000000E+00  0.00000000E+00  3.14159400E+00
  3.14159400E+00  3.14159400E+00  3.14159400E+00  0.00000000E+00  3.14159400E+00
  3.14159400E+00  3.14159400E+00  3.14159400E+00  3.14159400E+00
%FLAG SCEE_SCALE_FACTOR                                                         
%FORMAT(5E16.8)                                                                 
  1.20000000E+00  1.20000000E+00  1.20000000E+00  1.20000000E+00  1.20000000E+00
  1.20000000E+00  1.20000000E+00  1.20000000E+00  1.20000000E+00  1.20000000E+00
  1.20000000E+00  1.20000000E+00  0.00000000E+00  0.00000000E+00
%FLAG SCNB_SCALE_FACTOR                                                         
%FORMAT(5E16.8)                                                                 
  2.00000000E+00  2.00000000E+00  2.00000000E+00  2.00000000E+00  2.00000000E+00
  2.00000000E+00  2.00000000E+00  2.00000000E+00  2.00000000E+00  2.00000000E+00
  2.00000000E+00  2.00000000E+00  0.00000000E+00  0.00000000E+00
%FLAG SOLTY                                                                     
%FORMAT(5E16.8)                                                                 
  0.00000000E+00  0.00000000E+00  0.00000000E+00  0.00000000E+00  0.00000000E+00
  0.00000000E+00  0.00000000E+00  0.00000000E+00  0.00000000E+00  0.00000000E+00
%FLAG LENNARD_JONES_ACOEF                                                       
%FORMAT(5E16.8)                                                                 
  5.03152404E+05  4.37717034E+05  3.76435470E+05  5.94304835E+05  5.17814271E+05
  7.01825028E+05  5.92438683E+05  5.17507491E+05  6.99381362E+05  6.96551276E+05
  7.18991463E+05  6.30925504E+05  8.48258258E+05  8.43969952E+05  1.02073671E+06
  6.30298721E+04  5.27277400E+04  7.48403283E+04  7.52549148E+04  9.27554496E+04
  6.90855956E+03  1.36475542E+03  9.87857350E+02  1.65195713E+03  1.71458823E+03
  2.23577481E+03  9.04434904E+01  1.34728399E-01  6.80216136E+04  5.68021765E+04
  8.07866982E+04  8.12662403E+04  1.00235148E+05  7.41026906E+03  9.47421632E+01
  7.94617769E+03  1.74176419E+02  1.15813907E+02  2.13197010E+02  2.25372434E+02
  3.03553352E+02  8.53132435E+00  2.61760843E-03  8.80612241E+00  1.10360882E-05
%FLAG LENNARD_JONES_BCOEF                                                       
%FORMAT(5E16.8)                                                                 
  4.32634597E+02  4.51916854E+02  4.69350655E+02  4.98393522E+02  5.21008860E+02
  5.74088001E+02  4.76608379E+02  4.98871431E+02  5.48900066E+02  5.24668528E+02
  5.36620538E+02  5.62969425E+02  6.17825399E+02  5.90251928E+02  6.63431737E+02
  9.87712192E+01  1.01173582E+02  1.14083104E+02  1.09570372E+02  1.24325688E+02
  2.10929191E+01  1.29026271E+01  1.22938581E+01  1.50468782E+01  1.46824710E+01
  1.71355763E+01  2.14252117E+00  7.34107347E-02  1.09393126E+02  1.11953944E+02
  1.26366740E+02  1.21392023E+02  1.37787728E+02  2.32899892E+01  2.33785449E+00
  2.57122925E+01  3.81654050E+00  3.48534600E+00  4.47571103E+00  4.40751799E+00
  5.22789272E+00  5.44840215E-01  8.47240681E-03  5.90150328E-01  4.55498033E-04
%FLAG BONDS_INC_HYDROGEN                                                        
%FORMAT(10I8)                                                                   
       0      57       2       6      39       6      12      33       8      15
      36       8      18      42       8      21      45       8      30      48
      10      30      51      10      30      54      10
%FLAG BONDS_WITHOUT_HYDROGEN                                                    
%FORMAT(10I8)                                                                   
       0      24       1       3      27       3       6       9       4       6
      27       5       9      12       7       9      15       7      12      18
       7      15      21       7      18      24       7      21      24       7
      27      30       9
%FLAG ANGLES_INC_HYDROGEN                                                       
%FORMAT(10I8)                                                                   
       9       6      39       7       9      12      33       9       9      15
      36       9      12      18      42       9      15      21      45       9
      18      12      33       9      21      15      36       9      24       0
      57      10      24      18      42       9      24      21      45       9
      27       6      39      11      27      30      48      12      27      30
      51      12      27      30      54      12      48      30      51      13
      48      30      54      13      51      30      54      13
%FLAG ANGLES_WITHOUT_HYDROGEN                                                   
%FORMAT(10I8)                                                                   
       0      24      18       1       0      24      21       1       3      27
       6       2       3      27      30       3       6       9      12       4
       6       9      15       4       6      27      30       5       9       6
      27       6       9      12      18       8       9      15      21       8
      12       9      15       8      12      18      24       8      15      21
      24       8      18      24      21       8
%FLAG DIHEDRALS_INC_HYDROGEN                                                    
%FORMAT(10I8)                                                                   
       0      24      18      42       1       0      24      21      45       1
       3      27       6      39       3       3      27      -6      39       2
       3      27      30      48       4       3      27     -30      48       5
       3      27      30      51       4       3      27     -30      51       5
       3      27      30      54       4       3      27     -30      54       5
       6       9      12      33       1       6       9      15      36       1
       6      27      30      48       6       6      27      30      51       6
       6      27      30      54       6       9      12      18      42       1
       9      15      21      45       1      12       9       6      39      11
      12       9      15      36       1      15       9       6      39      11
      15       9      12      33       1      57       0      24      18      12
      18      24      21      45       1      57       0      24      21      12
      21      24      18      42       1      24      18      12      33       1
      24      21      15      36       1      30      27       6      39       2
      33      12      18      42       1      36      15      21      45       1
      27       9      -6     -39      13       9      18     -12     -33      13
       9      21     -15     -36      13      12      24     -18     -42      13
      15      24     -21     -45      13
%FLAG DIHEDRALS_WITHOUT_HYDROGEN                                                
%FORMAT(10I8)                                                                   
       0      24      18      12       1       0      24      21      15       1
       3      27       6       9       2       6       9      12      18       1
       6       9      15      21       1       9       6      27      30       7
       9       6     -27      30       8       9       6     -27      30       9
       9      12      18      24       1       9      15     -21      24       1
      12       9       6      27      10      12       9      15      21       1
      12      18     -24      21       1      15       9       6      27      10
      15       9      12      18       1      15      21     -24      18       1
      12      15      -9      -6      13       0      24     -21     -18      13
      30       6     -27      -3      14
%FLAG EXCLUDED_ATOMS_LIST                                                       
%FORMAT(10I8)                                                                   
       5       6       7       8       9      15      16      20       3       4
      10      11      14      17      18      19       4       5       6       7
       8      10      11      12      13      14      17      18      19       5
       6       7       8       9      10      11      12      13      14      15
      16       6       7       8       9      10      12      13      14      15
       7       8       9      10      12      13      14      16       8       9
      12      15      16      20       9      13      15      16      20      12
      13      15      16      20      11      14      17      18      19      14
      17      18      19      15      16       0       0       0      18      19
      19       0       0
%FLAG HBOND_ACOEF                                                               
%FORMAT(5E16.8)                                                                 

%FLAG HBOND_BCOEF                                                               
%FORMAT(5E16.8)                                                                 

%FLAG HBCUT                                                                     
%FORMAT(5E16.8)                                                                 

%FLAG AMBER_ATOM_TYPE                                                           
%FORMAT(20a4)                                                                   
oh  o   ns  ca  ca  ca  ca  ca  ca  c   c3  ha  ha  hn  ha  ha  hc  hc  hc  ho  
%FLAG TREE_CHAIN_CLASSIFICATION                                                 
%FORMAT(20a4)                                                                   
BLA BLA BLA BLA BLA BLA BLA BLA BLA BLA BLA BLA BLA BLA BLA BLA BLA BLA BLA BLA 
%FLAG JOIN_ARRAY                                                                
%FORMAT(10I8)                                                                   
       0       0       0       0       0       0       0       0       0       0
       0       0       0       0       0       0       0       0       0       0
%FLAG IROTAT                                                                    
%FORMAT(10I8)                                                                   
       0       0       0       0       0       0       0       0       0       0
       0       0       0       0       0       0       0       0       0       0
%FLAG RADIUS_SET                                                                
%FORMAT(1a80)                                                                   
modified Bondi radii (mbondi)                                                   
%FLAG RADII                                                                     
%FORMAT(5E16.8)                                                                 
  1.50000000E+00  1.50000000E+00  1.55000000E+00  1.70000000E+00  1.70000000E+00
  1.70000000E+00  1.70000000E+00  1.70000000E+00  1.70000000E+00  1.70000000E+00
  1.70000000E+00  1.30000000E+00  1.30000000E+00  1.30000000E+00  1.30000000E+00
  1.30000000E+00  1.30000000E+00  1.30000000E+00  1.30000000E+00  8.00000000E-01
%FLAG SCREEN                                                                    
%FORMAT(5E16.8)                                                                 
  8.50000000E-01  8.50000000E-01  7.90000000E-01  7.20000000E-01  7.20000000E-01
  7.20000000E-01  7.20000000E-01  7.20000000E-01  7.20000000E-01  7.20000000E-01
  7.20000000E-01  8.50000000E-01  8.50000000E-01  8.50000000E-01  8.50000000E-01
  8.50000000E-01  8.50000000E-01  8.50000000E-01  8.50000000E-01  8.50000000E-01
%FLAG IPOL                                                                      
%FORMAT(1I8)                                                                    
       0
