;----------------------------TITLE -----------------------------------------------------------------------------------------
;   2-Nitrophenol
;
; This file was generated at 17:07 on 2017-08-21 by
;
;                  Automatic Topology Builder  
;
;                   REVISION 2017-07-03 14:53:07
;---------------------------------------------------------------------------------------------------------------------------
; Authors     : Alpeshkumar K. Malde, Le Zuo, Matthew Breeze, Martin Stroet, Alan E. Mark
;
; Institute   : Molecular Dynamics group, 
;               School of Chemistry and Molecular Biosciences (SCMB),
;               The University of Queensland, QLD 4072, Australia
; URL         : http://compbio.biosci.uq.edu.au/atb
; Citation    : Malde AK, Zuo L, Breeze M, Stroet M, Poger D, Nair PC, Oostenbrink C, Mark AE.
;               An Automated force field Topology Builder (ATB) and repository: version 1.0.
;               Journal of Chemical Theory and Computation, 2011, 7(12), 4026-4037.
;               http://pubs.acs.org/doi/abs/10.1021/ct200196m
;
; Disclaimer  : 
;      While every effort has been made to ensure the accuracy and validity of parameters provided below
;      the assignment of parameters is being based on an automated procedure combining data provided by a
;      given user as well as calculations performed using third party software. They are provided as a guide.
;      The authors of the ATB cannot guarantee that the parameters are complete or that the parameters provided
;      are appropriate for use in any specific application. Users are advised to treat these parameters with discretion
;      and to perform additional validation tests for their specific application if required. Neither the authors
;      of the ATB or The University of Queensland except any responsibly for how the parameters may be used.
;
; Release notes and warnings: 
;  (1) The topology is based on a set of atomic coordinates and other data provided by the user after
;      after quantum mechanical optimization of the structure using different levels of theory depending on
;      the nature of the molecule.
;  (2) In some cases the automatic bond, bond angle and dihedral type assignment is ambiguous.
;      In these cases alternative type codes are provided at the end of the line.
;  (3) While bonded parameters are taken where possible from the nominated force field non-standard bond, angle and dihedral
;      type code may be incorporated in cases where an exact match could not be found. These are marked as "non-standard"
;      or "uncertain" in comments.
;  (4) In some cases it is not possible to assign an appropriate parameter automatically. "%%" is used as a place holder
;      for those fields that could not be determined automatically. The parameters in these fields must be assigned manually
;      before the file can be used.
;---------------------------------------------------------------------------------------------------------------------------
; Input Structure : G280
; Output          : ALL ATOM topology
;	Use in conjunction with the corresponding all atom PDB file.
;---------------------------------------------------------------------------------------------------------------------------
; Citing this topology file
; ATB molid: 1046
; ATB Topology Hash: 5ebc4
;---------------------------------------------------------------------------------------------------------------------------
; Final Topology Generation was performed using: 
; A B3LYP/6-31G* optimized geometry.
; Bonded and van der Waals parameters were taken from the GROMOS 53A6 parameter set.
; Initial charges were estimated using the ESP method of Merz-Kollman.
; Final charges and charge groups were generated by method described in the ATB paper.
; If required, additional bonded parameters were generated from a Hessian matrix calculated at the B3LYP/6-31G* level of theory.
;---------------------------------------------------------------------------------------------------------------------------
;
;
[ moleculetype ]
; Name   nrexcl
G280     3
[ atoms ]
;  nr  type  resnr  resid  atom  cgnr  charge    mass    total_charge
    1  HS14    1    G280     H5    1    0.510   1.0080
    2    OA    1    G280     O3    1   -0.567  15.9994     ; -0.057
    3     C    1    G280     C4    2    0.379  12.0110
    4     C    1    G280     C5    2   -0.120  12.0110
    5    NT    1    G280     N1    2    0.599  14.0067
    6    OM    1    G280     O1    2   -0.429  15.9994
    7    OM    1    G280     O2    2   -0.429  15.9994     ;  0.000
    8     C    1    G280     C3    3   -0.245  12.0110
    9    HC    1    G280     H3    3    0.178   1.0080
   10     C    1    G280     C2    3   -0.060  12.0110
   11    HC    1    G280     H2    3    0.146   1.0080     ;  0.019
   12     C    1    G280     C1    4   -0.153  12.0110
   13    HC    1    G280     H1    4    0.149   1.0080
   14     C    1    G280     C6    4   -0.109  12.0110
   15    HC    1    G280     H4    4    0.151   1.0080     ;  0.038
; total charge of the molecule:   0.000
[ bonds ]
;  ai   aj  funct   c0         c1
    1    2    2   0.0984   2.0656e+07
    2    3    2   0.1340   1.0500e+07
    3    4    2   0.1420   3.2236e+06
    3    8    2   0.1400   8.5400e+06
    4    5    2   0.1435   6.1000e+06
    4   14    2   0.1400   8.5400e+06
    5    6    2   0.1230   1.6600e+07
    5    7    2   0.1230   1.6600e+07
    8    9    2   0.1090   1.2300e+07
    8   10    2   0.1390   8.6600e+06
   10   11    2   0.1090   1.2300e+07
   10   12    2   0.1400   8.5400e+06
   12   13    2   0.1090   1.2300e+07
   12   14    2   0.1390   8.6600e+06
   14   15    2   0.1090   1.2300e+07
[ pairs ]
;  ai   aj  funct  ;  all 1-4 pairs but the ones excluded in GROMOS itp
    1    4    1
    1    8    1
    2    5    1
    2    9    1
    2   10    1
    2   14    1
    3    6    1
    3    7    1
    3   11    1
    3   15    1
    4    9    1
    4   13    1
    5    8    1
    5   12    1
    5   15    1
    6   14    1
    7   14    1
    8   13    1
    9   11    1
    9   12    1
   10   15    1
   11   13    1
   11   14    1
   13   15    1
[ angles ]
;  ai   aj   ak  funct   angle     fc
    1    2    3    2    109.50   450.00
    2    3    4    2    126.00   640.00
    2    3    8    2    117.00   635.00
    4    3    8    2    120.00   560.00
    3    4    5    2    120.00   560.00
    3    4   14    2    120.00   560.00
    5    4   14    2    120.00   560.00
    4    5    6    2    119.00  2211.40
    4    5    7    2    119.00  2211.40
    6    5    7    2    119.00  3925.78
    3    8    9    2    120.00   505.00
    3    8   10    2    120.00   560.00
    9    8   10    2    120.00   505.00
    8   10   11    2    120.00   505.00
    8   10   12    2    120.00   560.00
   11   10   12    2    120.00   505.00
   10   12   13    2    120.00   505.00
   10   12   14    2    120.00   560.00
   13   12   14    2    120.00   505.00
    4   14   12    2    120.00   560.00
    4   14   15    2    120.00   505.00
   12   14   15    2    120.00   505.00
[ dihedrals ]
; GROMOS improper dihedrals
;  ai   aj   ak   al  funct   angle     fc
   12   10   14   13    2      0.00   167.36
   10   12    8   11    2      0.00   167.36
    8   10    3    9    2      0.00   167.36
    3    8    4    2    2      0.00   167.36
    4    3   14    5    2      0.00   167.36
   14   12    4   15    2      0.00   167.36
    5    4    6    7    2      0.00   167.36
[ dihedrals ]
;  ai   aj   ak   al  funct    ph0      cp     mult
    1    2    3    8    1    180.00    16.70    2
    8    3    4   14    1    180.00    41.80    2
    4    3    8   10    1    180.00    41.80    2
    3    4    5    6    1    180.00    33.50    2
    3    4   14   12    1    180.00    41.80    2
    3    8   10   12    1    180.00    41.80    2
    8   10   12   14    1    180.00    41.80    2
   10   12   14    4    1    180.00    41.80    2
[ exclusions ]
;  ai   aj  funct  ;  GROMOS 1-4 exclusions
    3   12
    4   10
    8   14
