;----------------------------TITLE -----------------------------------------------------------------------------------------
;   bisphenolA
;
; This file was generated at 01:29 on 2020-01-16 by
;
;                  Automatic Topology Builder  
;
;                   REVISION 2019-08-18 21:01:54
;---------------------------------------------------------------------------------------------------------------------------
; Authors     : Martin Stroet, Bertrand    Cn, Alpeshkumar K. Malde, Thomas Lee, Alan E. Mark
;
; Institute   : Molecular Dynamics group, 
;               School of Chemistry and Molecular Biosciences (SCMB),
;               The University of Queensland, QLD 4072, Australia
; URL         : https://atb.uq.edu.au
; Citations   : 1. Malde AK, Zuo L, Breeze M, Stroet M, Poger D, Nair PC, Oostenbrink C, Mark AE.
;                  An Automated force field Topology Builder (ATB) and repository: version 1.0.
;                  Journal of Chemical Theory and Computation, 2011, 7, 4026-4037.
;               2. Stroet M,    Cn B, Visscher K, Geerke D, Malde AK, Mark AE.
;                  Automated Topology Builder version 3.0: Prediction of solvation free enthalpies in water and hexane.
;                  DOI:10.1021/acs.jctc.8b00768
;
; Disclaimer  : 
;      While every effort has been made to ensure the accuracy and validity of parameters provided below
;      the assignment of parameters is being based on an automated procedure combining data provided by a
;      given user as well as calculations performed using third party software. They are provided as a guide.
;      The authors of the ATB cannot guarantee that the parameters are complete or that the parameters provided
;      are appropriate for use in any specific application. Users are advised to treat these parameters with discretion
;      and to perform additional validation tests for their specific application if required. Neither the authors
;      of the ATB or The University of Queensland except any responsibly for how the parameters may be used.
;
; Release notes and warnings: 
;  (1) The topology is based on a set of atomic coordinates and other data provided by the user after
;      after quantum mechanical optimization of the structure using different levels of theory depending on
;      the nature of the molecule.
;  (2) In some cases the automatic bond, bond angle and dihedral type assignment is ambiguous.
;      In these cases alternative type codes are provided at the end of the line.
;  (3) While bonded parameters are taken where possible from the nominated force field non-standard bond, angle and dihedral
;      type code may be incorporated in cases where an exact match could not be found. These are marked as "non-standard"
;      or "uncertain" in comments.
;  (4) In some cases it is not possible to assign an appropriate parameter automatically. "%%" is used as a place holder
;      for those fields that could not be determined automatically. The parameters in these fields must be assigned manually
;      before the file can be used.
;---------------------------------------------------------------------------------------------------------------------------
; Input Structure : 9WTE
; Output          : ALL ATOM topology
;	Use in conjunction with the corresponding all atom PDB file.
;---------------------------------------------------------------------------------------------------------------------------
; Citing this topology file
; ATB molid: 367222
; ATB Topology Hash: 6737f
;---------------------------------------------------------------------------------------------------------------------------
; Final Topology Generation was performed using: 
; A B3LYP/6-31G* optimized geometry.
; Bonded and van der Waals parameters were taken from the GROMOS 54A7 parameter set.
; Initial charges were estimated using the ESP method of Merz-Kollman.
; Final charges and charge groups were generated by method described in the ATB paper.
; If required, additional bonded parameters were generated from a Hessian matrix calculated at the B3LYP/6-31G* level of theory.
;---------------------------------------------------------------------------------------------------------------------------
;
;
[ moleculetype ]
; Name   nrexcl
9WTE     3
[ atoms ]
;  nr  type  resnr  resid  atom  cgnr  charge    mass
    1     H    1    9WTE    H16    1    0.448   1.0080
    2     O    1    9WTE     O2    2   -0.608  15.9994
    3     C    1    9WTE    C11    3    0.403  12.0110
    4     C    1    9WTE    C10    4   -0.319  12.0110
    5    HC    1    9WTE     H6    5    0.171   1.0080
    6     C    1    9WTE     C9    6   -0.126  12.0110
    7    HC    1    9WTE     H5    7    0.131   1.0080
    8     C    1    9WTE     C8    8   -0.065  12.0110
    9     C    1    9WTE    C13    9   -0.126  12.0110
   10    HC    1    9WTE     H8   10    0.131   1.0080
   11     C    1    9WTE    C12   11   -0.319  12.0110
   12    HC    1    9WTE     H7   12    0.171   1.0080
   13     C    1    9WTE     C7   13    0.446  12.0110
   14     C    1    9WTE    C14   14   -0.397  12.0110
   15    HC    1    9WTE     H9   15    0.094   1.0080
   16    HC    1    9WTE    H10   16    0.094   1.0080
   17    HC    1    9WTE    H11   17    0.094   1.0080
   18     C    1    9WTE    C15   18   -0.397  12.0110
   19    HC    1    9WTE    H12   19    0.094   1.0080
   20    HC    1    9WTE    H13   20    0.094   1.0080
   21    HC    1    9WTE    H14   21    0.094   1.0080
   22     C    1    9WTE     C4   22   -0.065  12.0110
   23     C    1    9WTE     C3   23   -0.126  12.0110
   24    HC    1    9WTE     H2   24    0.131   1.0080
   25     C    1    9WTE     C2   25   -0.319  12.0110
   26    HC    1    9WTE     H1   26    0.171   1.0080
   27     C    1    9WTE     C1   27    0.403  12.0110
   28     O    1    9WTE     O1   28   -0.608  15.9994
   29     H    1    9WTE    H15   29    0.448   1.0080
   30     C    1    9WTE     C6   30   -0.319  12.0110
   31    HC    1    9WTE     H4   31    0.171   1.0080
   32     C    1    9WTE     C5   32   -0.126  12.0110
   33    HC    1    9WTE     H3   33    0.131   1.0080
; total charge of the molecule:   0.000
[ bonds ]
;  ai   aj  funct   c0         c1
    1    2    2   0.0972   1.9581e+07
    2    3    2   0.1380   1.1000e+07
    3    4    2   0.1390   8.6600e+06
    3   11    2   0.1390   8.6600e+06
    4    5    2   0.1090   1.2300e+07
    4    6    2   0.1390   8.6600e+06
    6    7    2   0.1090   1.2300e+07
    6    8    2   0.1390   8.6600e+06
    8    9    2   0.1390   8.6600e+06
    8   13    2   0.1540   4.0057e+06
    9   10    2   0.1090   1.2300e+07
    9   11    2   0.1390   8.6600e+06
   11   12    2   0.1090   1.2300e+07
   13   14    2   0.1540   4.0057e+06
   13   18    2   0.1540   4.0057e+06
   13   22    2   0.1540   4.0057e+06
   14   15    2   0.1090   1.2300e+07
   14   16    2   0.1090   1.2300e+07
   14   17    2   0.1090   1.2300e+07
   18   19    2   0.1090   1.2300e+07
   18   20    2   0.1090   1.2300e+07
   18   21    2   0.1090   1.2300e+07
   22   23    2   0.1390   8.6600e+06
   22   32    2   0.1390   8.6600e+06
   23   24    2   0.1090   1.2300e+07
   23   25    2   0.1390   8.6600e+06
   25   26    2   0.1090   1.2300e+07
   25   27    2   0.1390   8.6600e+06
   27   28    2   0.1380   1.1000e+07
   27   30    2   0.1390   8.6600e+06
   28   29    2   0.0972   1.9581e+07
   30   31    2   0.1090   1.2300e+07
   30   32    2   0.1390   8.6600e+06
   32   33    2   0.1090   1.2300e+07
[ pairs ]
;  ai   aj  funct  ;  all 1-4 pairs but the ones excluded in GROMOS itp
    1    4    1
    1   11    1
    2    5    1
    2    6    1
    2    9    1
    2   12    1
    3    7    1
    3   10    1
    4   12    1
    4   13    1
    5    7    1
    5    8    1
    5   11    1
    6   10    1
    6   14    1
    6   18    1
    6   22    1
    7    9    1
    7   13    1
    8   12    1
    8   15    1
    8   16    1
    8   17    1
    8   19    1
    8   20    1
    8   21    1
    8   23    1
    8   32    1
    9   14    1
    9   18    1
    9   22    1
   10   12    1
   10   13    1
   11   13    1
   13   24    1
   13   25    1
   13   30    1
   13   33    1
   14   19    1
   14   20    1
   14   21    1
   14   23    1
   14   32    1
   15   18    1
   15   22    1
   16   18    1
   16   22    1
   17   18    1
   17   22    1
   18   23    1
   18   32    1
   19   22    1
   20   22    1
   21   22    1
   22   26    1
   22   31    1
   23   28    1
   23   33    1
   24   26    1
   24   27    1
   24   32    1
   25   29    1
   25   31    1
   26   28    1
   26   30    1
   27   33    1
   28   31    1
   28   32    1
   29   30    1
   31   33    1
[ angles ]
;  ai   aj   ak  funct   angle     fc
    1    2    3    2    109.50   450.00
    2    3    4    2    117.00   635.00
    2    3   11    2    117.00   635.00
    4    3   11    2    120.00   560.00
    3    4    5    2    120.00   505.00
    3    4    6    2    120.00   560.00
    5    4    6    2    120.00   505.00
    4    6    7    2    120.00   505.00
    4    6    8    2    120.00   560.00
    7    6    8    2    120.00   505.00
    6    8    9    2    120.00   560.00
    6    8   13    2    120.00   560.00
    9    8   13    2    120.00   560.00
    8    9   10    2    120.00   505.00
    8    9   11    2    120.00   560.00
   10    9   11    2    120.00   505.00
    3   11    9    2    120.00   560.00
    3   11   12    2    120.00   505.00
    9   11   12    2    120.00   505.00
    8   13   14    2    111.00   530.00
    8   13   18    2    111.00   530.00
    8   13   22    2    109.50   520.00
   14   13   18    2    109.50   520.00
   14   13   22    2    111.00   530.00
   18   13   22    2    111.00   530.00
   13   14   15    2    109.50   448.00
   13   14   16    2    109.50   448.00
   13   14   17    2    109.50   448.00
   15   14   16    2    107.60   507.00
   15   14   17    2    107.60   507.00
   16   14   17    2    107.60   507.00
   13   18   19    2    109.50   448.00
   13   18   20    2    109.50   448.00
   13   18   21    2    109.50   448.00
   19   18   20    2    107.60   507.00
   19   18   21    2    107.60   507.00
   20   18   21    2    107.60   507.00
   13   22   23    2    120.00   560.00
   13   22   32    2    120.00   560.00
   23   22   32    2    120.00   560.00
   22   23   24    2    120.00   505.00
   22   23   25    2    120.00   560.00
   24   23   25    2    120.00   505.00
   23   25   26    2    120.00   505.00
   23   25   27    2    120.00   560.00
   26   25   27    2    120.00   505.00
   25   27   28    2    117.00   635.00
   25   27   30    2    120.00   560.00
   28   27   30    2    117.00   635.00
   27   28   29    2    109.50   450.00
   27   30   31    2    120.00   505.00
   27   30   32    2    120.00   560.00
   31   30   32    2    120.00   505.00
   22   32   30    2    120.00   560.00
   22   32   33    2    120.00   505.00
   30   32   33    2    120.00   505.00
[ dihedrals ]
; GROMOS improper dihedrals
;  ai   aj   ak   al  funct   angle     fc
   27   25   28   30    2      0.00   167.36
   25   23   26   27    2      0.00   167.36
   23   22   24   25    2      0.00   167.36
   22   13   23   32    2      0.00   167.36
   32   22   30   33    2      0.00   167.36
   30   27   31   32    2      0.00   167.36
    8    6    9   13    2      0.00   167.36
    6    4    7    8    2      0.00   167.36
    4    3    5    6    2      0.00   167.36
    3    2    4   11    2      0.00   167.36
   11    3    9   12    2      0.00   167.36
    9    8   10   11    2      0.00   167.36
[ dihedrals ]
;  ai   aj   ak   al  funct    ph0      cp     mult
    1    2    3    4    1    180.00    16.70    2
    3    4    6    8    1    180.00    41.80    2
    4    3   11    9    1    180.00    41.80    2
    4    6    8    9    1    180.00    41.80    2
    6    8    9   11    1    180.00    41.80    2
    6    8   13   22    1    180.00     1.00    6
    8    9   11    3    1    180.00    41.80    2
    8   13   22   23    1    180.00     1.00    6
   11    3    4    6    1    180.00    41.80    2
   22   13   14   15    1      0.00     5.92    3
   22   13   18   19    1      0.00     5.92    3
   22   23   25   27    1    180.00    41.80    2
   23   22   32   30    1    180.00    41.80    2
   23   25   27   30    1    180.00    41.80    2
   25   27   28   29    1    180.00    16.70    2
   25   27   30   32    1    180.00    41.80    2
   27   30   32   22    1    180.00    41.80    2
   32   22   23   25    1    180.00    41.80    2
[ exclusions ]
;  ai   aj  funct  ;  GROMOS 1-4 exclusions
    3    8
    4    9
    6   11
   22   27
   23   30
   25   32
